   2   2   1   0
  0.1362094E+02  0.2691658E-09  0.2691658E-09  0.4341771E-09  0.5000000E-15
  1.000000000000000E-004
  CAR 
 Co-hcc                                  
     42.49027060     -2.33648173  301      7.40203727      1.00000000
     -2.336  0.0000E+00  0.0000E+00  0.0000E+00  0.0000E+00
     -2.187  0.0000E+00  0.0000E+00  0.0000E+00  0.0000E+00
     -2.038  0.0000E+00  0.0000E+00  0.0000E+00  0.0000E+00
     -1.888  0.0000E+00  0.0000E+00  0.0000E+00  0.0000E+00
     -1.739  0.0000E+00  0.0000E+00  0.0000E+00  0.0000E+00
     -1.589  0.0000E+00  0.0000E+00  0.0000E+00  0.0000E+00
     -1.440  0.0000E+00  0.0000E+00  0.0000E+00  0.0000E+00
     -1.291  0.0000E+00  0.0000E+00  0.0000E+00  0.0000E+00
     -1.141  0.0000E+00  0.0000E+00  0.0000E+00  0.0000E+00
     -0.992  0.0000E+00  0.0000E+00  0.0000E+00  0.0000E+00
     -0.842  0.0000E+00  0.0000E+00  0.0000E+00  0.0000E+00
     -0.693  0.0000E+00  0.0000E+00  0.0000E+00  0.0000E+00
     -0.543  0.0000E+00  0.1352E-15  0.0000E+00  0.2020E-16
     -0.394  0.8677E-09  0.2079E-06  0.1297E-09  0.3106E-07
     -0.245  0.3026E-04  0.5571E-04  0.4522E-05  0.8356E-05
     -0.095  0.1310E-03  0.2839E-03  0.2410E-04  0.5077E-04
      0.054  0.4680E-03  0.6490E-03  0.9403E-04  0.1477E-03
      0.204  0.5920E-03  0.2578E-03  0.1825E-03  0.1863E-03
      0.353  0.2617E-03  0.4132E-03  0.2216E-03  0.2480E-03
      0.503  0.1211E-02  0.1528E-02  0.4025E-03  0.4763E-03
      0.652  0.8764E-03  0.7046E-03  0.5335E-03  0.5816E-03
      0.801  0.5802E-03  0.4244E-03  0.6202E-03  0.6450E-03
      0.951  0.7724E-03  0.6455E-03  0.7356E-03  0.7415E-03
      1.100  0.1222E-02  0.1699E-02  0.9182E-03  0.9954E-03
      1.250  0.1718E-02  0.1559E-02  0.1175E-02  0.1228E-02
      1.399  0.5942E-03  0.3084E-03  0.1264E-02  0.1274E-02
      1.549  0.1341E-02  0.1431E-02  0.1464E-02  0.1488E-02
      1.698  0.2498E-02  0.2335E-02  0.1837E-02  0.1837E-02
      1.847  0.2990E-03  0.1713E-03  0.1882E-02  0.1863E-02
      1.997  0.1362E-02  0.1429E-02  0.2086E-02  0.2076E-02
      2.146  0.2442E-02  0.1590E-02  0.2450E-02  0.2314E-02
      2.296  0.2617E-02  0.3051E-02  0.2841E-02  0.2770E-02
      2.445  0.2409E-02  0.1550E-02  0.3201E-02  0.3001E-02
      2.594  0.2139E-02  0.1832E-02  0.3521E-02  0.3275E-02
      2.744  0.1554E-02  0.1425E-02  0.3753E-02  0.3488E-02
      2.893  0.3487E-02  0.1641E-02  0.4274E-02  0.3733E-02
      3.043  0.4956E-02  0.2264E-02  0.5015E-02  0.4072E-02
      3.192  0.7599E-02  0.3257E-02  0.6150E-02  0.4558E-02
      3.342  0.1160E-01  0.2259E-02  0.7883E-02  0.4896E-02
      3.491  0.1195E-01  0.3575E-02  0.9669E-02  0.5430E-02
      3.640  0.1812E-01  0.2251E-02  0.1238E-01  0.5767E-02
      3.790  0.2122E-01  0.4266E-02  0.1555E-01  0.6404E-02
      3.939  0.2324E-01  0.4088E-02  0.1902E-01  0.7015E-02
      4.089  0.2184E-01  0.2727E-02  0.2228E-01  0.7422E-02
      4.238  0.2422E-01  0.4062E-02  0.2590E-01  0.8029E-02
      4.388  0.2716E-01  0.1361E-01  0.2996E-01  0.1006E-01
      4.537  0.3029E-01  0.6521E-02  0.3449E-01  0.1104E-01
      4.686  0.2262E-01  0.7608E-02  0.3787E-01  0.1217E-01
      4.836  0.2539E-01  0.7434E-02  0.4166E-01  0.1328E-01
      4.985  0.4308E-01  0.1478E-01  0.4810E-01  0.1549E-01
      5.135  0.4102E-01  0.1138E-01  0.5423E-01  0.1719E-01
      5.284  0.4326E-01  0.1575E-01  0.6069E-01  0.1955E-01
      5.433  0.4046E-01  0.1730E-01  0.6674E-01  0.2213E-01
      5.583  0.3104E-01  0.1880E-01  0.7137E-01  0.2494E-01
      5.732  0.3052E-01  0.2154E-01  0.7593E-01  0.2816E-01
      5.882  0.2414E-01  0.2390E-01  0.7954E-01  0.3173E-01
      6.031  0.2819E-01  0.2711E-01  0.8375E-01  0.3578E-01
      6.181  0.3994E-01  0.1239E-01  0.8972E-01  0.3764E-01
      6.330  0.6000E-01  0.1162E-01  0.9868E-01  0.3937E-01
      6.479  0.3746E-01  0.2266E-01  0.1043E+00  0.4276E-01
      6.629  0.1883E-02  0.3152E-01  0.1046E+00  0.4747E-01
      6.778  0.3867E-02  0.3611E-01  0.1051E+00  0.5286E-01
      6.928  0.6963E-02  0.3501E-01  0.1062E+00  0.5810E-01
      7.077  0.4237E-02  0.4078E-01  0.1068E+00  0.6419E-01
      7.227  0.3039E-02  0.2797E-01  0.1073E+00  0.6837E-01
      7.376  0.1362E-02  0.2316E-01  0.1075E+00  0.7183E-01
      7.525  0.7068E-03  0.1860E-01  0.1076E+00  0.7461E-01
      7.675  0.1773E-02  0.2453E-01  0.1078E+00  0.7827E-01
      7.824  0.5849E-02  0.1563E-01  0.1087E+00  0.8061E-01
      7.974  0.4283E-02  0.2421E-01  0.1094E+00  0.8423E-01
      8.123  0.5693E-02  0.3006E-01  0.1102E+00  0.8872E-01
      8.273  0.1703E-02  0.4271E-01  0.1105E+00  0.9510E-01
      8.422  0.4069E-02  0.5757E-01  0.1111E+00  0.1037E+00
      8.571  0.2925E-03  0.1643E-01  0.1111E+00  0.1062E+00
      8.721  0.2285E-02  0.6224E-02  0.1115E+00  0.1071E+00
      8.870  0.2808E-02  0.4113E-02  0.1119E+00  0.1077E+00
      9.020  0.3534E-02  0.4121E-02  0.1124E+00  0.1083E+00
      9.169  0.2889E-02  0.5388E-02  0.1128E+00  0.1091E+00
      9.318  0.1816E-02  0.6561E-02  0.1131E+00  0.1101E+00
      9.468  0.3859E-02  0.4642E-02  0.1137E+00  0.1108E+00
      9.617  0.2578E-02  0.3177E-02  0.1141E+00  0.1113E+00
      9.767  0.1921E-02  0.4461E-02  0.1144E+00  0.1119E+00
      9.916  0.9741E-03  0.1959E-02  0.1145E+00  0.1122E+00
     10.066  0.5512E-02  0.2945E-02  0.1153E+00  0.1127E+00
     10.215  0.5360E-02  0.3766E-02  0.1161E+00  0.1132E+00
     10.364  0.2076E-02  0.3881E-02  0.1164E+00  0.1138E+00
     10.514  0.1891E-02  0.1445E-02  0.1167E+00  0.1140E+00
     10.663  0.1666E-02  0.3812E-02  0.1170E+00  0.1146E+00
     10.813  0.6650E-03  0.4498E-02  0.1171E+00  0.1153E+00
     10.962  0.1036E-02  0.4063E-02  0.1172E+00  0.1159E+00
     11.112  0.2226E-02  0.2435E-02  0.1176E+00  0.1162E+00
     11.261  0.6393E-03  0.2333E-02  0.1176E+00  0.1166E+00
     11.410  0.2649E-02  0.3105E-02  0.1180E+00  0.1171E+00
     11.560  0.4216E-02  0.8101E-03  0.1187E+00  0.1172E+00
     11.709  0.3340E-02  0.2341E-02  0.1192E+00  0.1175E+00
     11.859  0.1711E-02  0.1049E-02  0.1194E+00  0.1177E+00
     12.008  0.1713E-02  0.1565E-02  0.1197E+00  0.1179E+00
     12.158  0.5027E-03  0.3540E-02  0.1198E+00  0.1184E+00
     12.307  0.4952E-03  0.4497E-02  0.1198E+00  0.1191E+00
     12.456  0.5823E-03  0.2056E-02  0.1199E+00  0.1194E+00
     12.606  0.1513E-02  0.1606E-02  0.1201E+00  0.1197E+00
     12.755  0.8743E-03  0.5033E-04  0.1203E+00  0.1197E+00
     12.905  0.1004E-02  0.4448E-06  0.1204E+00  0.1197E+00
     13.054  0.3629E-02  0.4366E-03  0.1210E+00  0.1197E+00
     13.203  0.2126E-02  0.2175E-02  0.1213E+00  0.1201E+00
     13.353  0.4352E-02  0.1321E-02  0.1219E+00  0.1203E+00
     13.502  0.6139E-02  0.3639E-03  0.1229E+00  0.1203E+00
     13.652  0.4508E-02  0.1234E-02  0.1235E+00  0.1205E+00
     13.801  0.4596E-02  0.1770E-02  0.1242E+00  0.1208E+00
     13.951  0.4317E-02  0.3651E-02  0.1249E+00  0.1213E+00
     14.100  0.3200E-02  0.7932E-02  0.1253E+00  0.1225E+00
     14.249  0.2383E-02  0.7125E-02  0.1257E+00  0.1236E+00
     14.399  0.1989E-02  0.2577E-02  0.1260E+00  0.1239E+00
     14.548  0.4858E-02  0.4870E-02  0.1267E+00  0.1247E+00
     14.698  0.4934E-02  0.3782E-02  0.1275E+00  0.1252E+00
     14.847  0.1349E-02  0.4096E-02  0.1277E+00  0.1258E+00
     14.997  0.4670E-02  0.2026E-02  0.1284E+00  0.1261E+00
     15.146  0.3159E-02  0.4911E-02  0.1288E+00  0.1269E+00
     15.295  0.1506E-02  0.4736E-02  0.1291E+00  0.1276E+00
     15.445  0.8825E-02  0.2103E-02  0.1304E+00  0.1279E+00
     15.594  0.3298E-02  0.4636E-02  0.1309E+00  0.1286E+00
     15.744  0.2139E-02  0.2588E-02  0.1312E+00  0.1290E+00
     15.893  0.4515E-02  0.5462E-02  0.1319E+00  0.1298E+00
     16.042  0.5436E-02  0.6230E-02  0.1327E+00  0.1307E+00
     16.192  0.2741E-02  0.3338E-02  0.1331E+00  0.1312E+00
     16.341  0.4458E-02  0.5521E-02  0.1337E+00  0.1321E+00
     16.491  0.5254E-02  0.3507E-02  0.1345E+00  0.1326E+00
     16.640  0.3193E-02  0.3601E-02  0.1350E+00  0.1331E+00
     16.790  0.3148E-02  0.5633E-02  0.1355E+00  0.1340E+00
     16.939  0.1722E-02  0.4151E-02  0.1357E+00  0.1346E+00
     17.088  0.7643E-02  0.4721E-02  0.1369E+00  0.1353E+00
     17.238  0.3623E-02  0.2214E-02  0.1374E+00  0.1356E+00
     17.387  0.2444E-02  0.3788E-02  0.1378E+00  0.1362E+00
     17.537  0.3780E-02  0.6409E-02  0.1383E+00  0.1371E+00
     17.686  0.1679E-02  0.2472E-02  0.1386E+00  0.1375E+00
     17.836  0.2726E-02  0.2992E-02  0.1390E+00  0.1380E+00
     17.985  0.3258E-02  0.2856E-02  0.1395E+00  0.1384E+00
     18.134  0.1269E-02  0.3333E-02  0.1397E+00  0.1389E+00
     18.284  0.4490E-02  0.2172E-02  0.1404E+00  0.1392E+00
     18.433  0.3736E-02  0.2361E-02  0.1409E+00  0.1396E+00
     18.583  0.3428E-02  0.2834E-02  0.1414E+00  0.1400E+00
     18.732  0.5016E-02  0.4768E-02  0.1422E+00  0.1407E+00
     18.882  0.1497E-02  0.3157E-02  0.1424E+00  0.1412E+00
     19.031  0.3173E-02  0.4858E-02  0.1429E+00  0.1419E+00
     19.180  0.5612E-02  0.2613E-02  0.1437E+00  0.1423E+00
     19.330  0.4725E-02  0.2769E-02  0.1444E+00  0.1427E+00
     19.479  0.2669E-02  0.4176E-02  0.1448E+00  0.1433E+00
     19.629  0.5190E-02  0.6931E-02  0.1456E+00  0.1444E+00
     19.778  0.2991E-02  0.1736E-02  0.1460E+00  0.1446E+00
     19.927  0.3952E-02  0.4377E-02  0.1466E+00  0.1453E+00
     20.077  0.6383E-02  0.4759E-02  0.1476E+00  0.1460E+00
     20.226  0.4560E-02  0.3775E-02  0.1483E+00  0.1465E+00
     20.376  0.5257E-02  0.5872E-02  0.1490E+00  0.1474E+00
     20.525  0.4841E-02  0.5738E-02  0.1498E+00  0.1483E+00
     20.675  0.7127E-02  0.5108E-02  0.1508E+00  0.1490E+00
     20.824  0.1944E-02  0.4823E-02  0.1511E+00  0.1498E+00
     20.973  0.2303E-02  0.7111E-02  0.1515E+00  0.1508E+00
     21.123  0.5093E-02  0.1869E-02  0.1522E+00  0.1511E+00
     21.272  0.5083E-02  0.2888E-02  0.1530E+00  0.1515E+00
     21.422  0.2286E-02  0.6339E-02  0.1533E+00  0.1525E+00
     21.571  0.6890E-02  0.4046E-02  0.1544E+00  0.1531E+00
     21.721  0.6451E-02  0.1966E-02  0.1553E+00  0.1534E+00
     21.870  0.3288E-02  0.8285E-02  0.1558E+00  0.1546E+00
     22.019  0.5737E-02  0.6796E-02  0.1567E+00  0.1556E+00
     22.169  0.5131E-02  0.2531E-02  0.1574E+00  0.1560E+00
     22.318  0.4118E-02  0.5112E-02  0.1581E+00  0.1568E+00
     22.468  0.2874E-02  0.5558E-02  0.1585E+00  0.1576E+00
     22.617  0.3301E-02  0.4857E-02  0.1590E+00  0.1583E+00
     22.766  0.7213E-02  0.3051E-02  0.1601E+00  0.1588E+00
     22.916  0.3559E-02  0.4513E-02  0.1606E+00  0.1595E+00
     23.065  0.2784E-02  0.5378E-02  0.1610E+00  0.1603E+00
     23.215  0.4508E-02  0.3336E-02  0.1617E+00  0.1608E+00
     23.364  0.4018E-02  0.3701E-02  0.1623E+00  0.1613E+00
     23.514  0.4342E-02  0.4328E-02  0.1629E+00  0.1620E+00
     23.663  0.6006E-02  0.4931E-02  0.1638E+00  0.1627E+00
     23.812  0.4121E-02  0.4592E-02  0.1644E+00  0.1634E+00
     23.962  0.5250E-02  0.6757E-02  0.1652E+00  0.1644E+00
     24.111  0.6563E-02  0.5378E-02  0.1662E+00  0.1652E+00
     24.261  0.3930E-02  0.4914E-02  0.1668E+00  0.1659E+00
     24.410  0.3252E-02  0.3645E-02  0.1673E+00  0.1665E+00
     24.560  0.5364E-02  0.5263E-02  0.1681E+00  0.1673E+00
     24.709  0.2280E-02  0.5118E-02  0.1684E+00  0.1680E+00
     24.858  0.6309E-02  0.2476E-02  0.1694E+00  0.1684E+00
     25.008  0.4223E-02  0.5427E-02  0.1700E+00  0.1692E+00
     25.157  0.3626E-02  0.4603E-02  0.1705E+00  0.1699E+00
     25.307  0.3201E-02  0.4761E-02  0.1710E+00  0.1706E+00
     25.456  0.5417E-02  0.3381E-02  0.1718E+00  0.1711E+00
     25.606  0.1094E-02  0.3635E-02  0.1720E+00  0.1717E+00
     25.755  0.8749E-02  0.2997E-02  0.1733E+00  0.1721E+00
     25.904  0.6535E-02  0.6469E-02  0.1743E+00  0.1731E+00
     26.054  0.4901E-02  0.6624E-02  0.1750E+00  0.1741E+00
     26.203  0.7103E-02  0.5552E-02  0.1761E+00  0.1749E+00
     26.353  0.3236E-02  0.7449E-02  0.1766E+00  0.1760E+00
     26.502  0.5300E-02  0.3795E-02  0.1773E+00  0.1766E+00
     26.651  0.4633E-02  0.4251E-02  0.1780E+00  0.1772E+00
     26.801  0.1741E-02  0.4665E-02  0.1783E+00  0.1779E+00
     26.950  0.4202E-02  0.3856E-02  0.1789E+00  0.1785E+00
     27.100  0.5341E-02  0.5516E-02  0.1797E+00  0.1793E+00
     27.249  0.4497E-02  0.5416E-02  0.1804E+00  0.1801E+00
     27.399  0.4392E-02  0.4277E-02  0.1810E+00  0.1808E+00
     27.548  0.4158E-02  0.2686E-02  0.1817E+00  0.1812E+00
     27.697  0.7436E-02  0.2322E-02  0.1828E+00  0.1815E+00
     27.847  0.8966E-02  0.5925E-02  0.1841E+00  0.1824E+00
     27.996  0.2421E-02  0.9312E-02  0.1845E+00  0.1838E+00
     28.146  0.8228E-02  0.6767E-02  0.1857E+00  0.1848E+00
     28.295  0.4622E-02  0.6636E-02  0.1864E+00  0.1858E+00
     28.445  0.6603E-02  0.6451E-02  0.1874E+00  0.1867E+00
     28.594  0.5749E-02  0.5135E-02  0.1882E+00  0.1875E+00
     28.743  0.1921E-02  0.5477E-02  0.1885E+00  0.1883E+00
     28.893  0.6176E-02  0.4636E-02  0.1895E+00  0.1890E+00
     29.042  0.4209E-02  0.4798E-02  0.1901E+00  0.1897E+00
     29.192  0.3888E-02  0.4509E-02  0.1907E+00  0.1904E+00
     29.341  0.2658E-02  0.3862E-02  0.1911E+00  0.1910E+00
     29.491  0.3659E-02  0.2053E-02  0.1916E+00  0.1913E+00
     29.640  0.5718E-02  0.1971E-02  0.1925E+00  0.1916E+00
     29.789  0.7931E-02  0.7764E-02  0.1937E+00  0.1928E+00
     29.939  0.4938E-02  0.4904E-02  0.1944E+00  0.1935E+00
     30.088  0.4071E-02  0.4402E-02  0.1950E+00  0.1941E+00
     30.238  0.2465E-02  0.5175E-02  0.1954E+00  0.1949E+00
     30.387  0.7343E-02  0.5363E-02  0.1965E+00  0.1957E+00
     30.536  0.8007E-02  0.8196E-02  0.1977E+00  0.1969E+00
     30.686  0.4317E-02  0.5236E-02  0.1983E+00  0.1977E+00
     30.835  0.4238E-02  0.2114E-02  0.1989E+00  0.1980E+00
     30.985  0.2269E-02  0.5972E-02  0.1993E+00  0.1989E+00
     31.134  0.3849E-02  0.1741E-02  0.1999E+00  0.1992E+00
     31.284  0.4752E-02  0.5434E-02  0.2006E+00  0.2000E+00
     31.433  0.5726E-02  0.4717E-02  0.2014E+00  0.2007E+00
     31.582  0.1242E-01  0.6444E-02  0.2033E+00  0.2017E+00
     31.732  0.4350E-02  0.8023E-02  0.2039E+00  0.2029E+00
     31.881  0.2301E-02  0.7148E-02  0.2043E+00  0.2039E+00
     32.031  0.3385E-02  0.2460E-02  0.2048E+00  0.2043E+00
     32.180  0.3871E-02  0.4365E-02  0.2054E+00  0.2050E+00
     32.330  0.2412E-02  0.3596E-02  0.2057E+00  0.2055E+00
     32.479  0.4096E-02  0.2971E-02  0.2063E+00  0.2059E+00
     32.628  0.4854E-02  0.2904E-02  0.2070E+00  0.2064E+00
     32.778  0.7357E-02  0.4778E-02  0.2081E+00  0.2071E+00
     32.927  0.5650E-02  0.6007E-02  0.2090E+00  0.2080E+00
     33.077  0.5199E-02  0.8715E-02  0.2098E+00  0.2093E+00
     33.226  0.3783E-02  0.5231E-02  0.2103E+00  0.2101E+00
     33.375  0.4991E-02  0.3104E-02  0.2111E+00  0.2105E+00
     33.525  0.6956E-02  0.6596E-02  0.2121E+00  0.2115E+00
     33.674  0.7297E-02  0.6807E-02  0.2132E+00  0.2125E+00
     33.824  0.3448E-02  0.5992E-02  0.2137E+00  0.2134E+00
     33.973  0.5527E-02  0.4360E-02  0.2146E+00  0.2141E+00
     34.123  0.4498E-02  0.5765E-02  0.2152E+00  0.2149E+00
     34.272  0.4089E-02  0.2298E-02  0.2158E+00  0.2153E+00
     34.421  0.6522E-02  0.6683E-02  0.2168E+00  0.2163E+00
     34.571  0.3218E-02  0.4907E-02  0.2173E+00  0.2170E+00
     34.720  0.3129E-02  0.4426E-02  0.2178E+00  0.2177E+00
     34.870  0.2866E-02  0.1549E-02  0.2182E+00  0.2179E+00
     35.019  0.7342E-02  0.4035E-02  0.2193E+00  0.2185E+00
     35.169  0.1546E-01  0.5921E-02  0.2216E+00  0.2194E+00
     35.318  0.6886E-02  0.1005E-01  0.2226E+00  0.2209E+00
     35.467  0.3370E-02  0.1153E-01  0.2231E+00  0.2226E+00
     35.617  0.2393E-02  0.3659E-02  0.2235E+00  0.2232E+00
     35.766  0.4238E-02  0.3511E-02  0.2241E+00  0.2237E+00
     35.916  0.4679E-02  0.4387E-02  0.2248E+00  0.2244E+00
     36.065  0.7474E-02  0.7104E-02  0.2259E+00  0.2254E+00
     36.215  0.3364E-02  0.4666E-02  0.2264E+00  0.2261E+00
     36.364  0.4312E-02  0.4361E-02  0.2271E+00  0.2268E+00
     36.513  0.5356E-02  0.4139E-02  0.2279E+00  0.2274E+00
     36.663  0.3413E-02  0.4647E-02  0.2284E+00  0.2281E+00
     36.812  0.5187E-02  0.3916E-02  0.2292E+00  0.2287E+00
     36.962  0.8147E-02  0.8016E-02  0.2304E+00  0.2299E+00
     37.111  0.9132E-02  0.4980E-02  0.2317E+00  0.2306E+00
     37.260  0.2926E-02  0.7694E-02  0.2322E+00  0.2318E+00
     37.410  0.3545E-02  0.4074E-02  0.2327E+00  0.2324E+00
     37.559  0.3382E-02  0.1872E-02  0.2332E+00  0.2326E+00
     37.709  0.1628E-02  0.4797E-02  0.2335E+00  0.2334E+00
     37.858  0.1581E-02  0.2198E-02  0.2337E+00  0.2337E+00
     38.008  0.3249E-02  0.2935E-02  0.2342E+00  0.2341E+00
     38.157  0.2143E-02  0.1045E-02  0.2345E+00  0.2343E+00
     38.306  0.5077E-02  0.3150E-02  0.2353E+00  0.2348E+00
     38.456  0.7606E-02  0.4887E-02  0.2364E+00  0.2355E+00
     38.605  0.3596E-02  0.6470E-02  0.2369E+00  0.2364E+00
     38.755  0.1134E-02  0.3008E-02  0.2371E+00  0.2369E+00
     38.904  0.3947E-02  0.3616E-02  0.2377E+00  0.2374E+00
     39.054  0.3462E-02  0.4251E-02  0.2382E+00  0.2381E+00
     39.203  0.2559E-02  0.1836E-02  0.2386E+00  0.2383E+00
     39.352  0.2294E-02  0.3357E-02  0.2389E+00  0.2388E+00
     39.502  0.1393E-02  0.1059E-02  0.2391E+00  0.2390E+00
     39.651  0.1737E-02  0.1717E-02  0.2394E+00  0.2393E+00
     39.801  0.7783E-03  0.1008E-02  0.2395E+00  0.2394E+00
     39.950  0.1551E-02  0.1438E-02  0.2398E+00  0.2396E+00
     40.100  0.3457E-04  0.9089E-03  0.2398E+00  0.2398E+00
     40.249  0.6024E-03  0.8449E-03  0.2399E+00  0.2399E+00
     40.398  0.2479E-03  0.1518E-03  0.2399E+00  0.2399E+00
     40.548  0.7531E-03  0.5680E-03  0.2400E+00  0.2400E+00
     40.697  0.2496E-05  0.3040E-06  0.2400E+00  0.2400E+00
     40.847  0.1622E-14  0.0000E+00  0.2400E+00  0.2400E+00
     40.996  0.0000E+00  0.0000E+00  0.2400E+00  0.2400E+00
     41.145  0.0000E+00  0.0000E+00  0.2400E+00  0.2400E+00
     41.295  0.0000E+00  0.0000E+00  0.2400E+00  0.2400E+00
     41.444  0.0000E+00  0.0000E+00  0.2400E+00  0.2400E+00
     41.594  0.0000E+00  0.0000E+00  0.2400E+00  0.2400E+00
     41.743  0.0000E+00  0.0000E+00  0.2400E+00  0.2400E+00
     41.893  0.0000E+00  0.0000E+00  0.2400E+00  0.2400E+00
     42.042  0.0000E+00  0.0000E+00  0.2400E+00  0.2400E+00
     42.191  0.0000E+00  0.0000E+00  0.2400E+00  0.2400E+00
     42.341  0.0000E+00  0.0000E+00  0.2400E+00  0.2400E+00
     42.490  0.0000E+00  0.0000E+00  0.2400E+00  0.2400E+00
     42.49027060     -2.33648173  301      7.40203727      1.00000000
     -2.336  0.0000E+00  0.0000E+00  0.0000E+00  0.0000E+00  0.0000E+00  0.0000E+00  0.0000E+00  0.0000E+00  0.0000E+00  0.0000E+00  0.0000E+00  0.0000E+00  0.0000E+00  0.0000E+00  0.0000E+00  0.0000E+00  0.0000E+00  0.0000E+00
     -2.187  0.0000E+00  0.0000E+00  0.0000E+00  0.0000E+00  0.0000E+00  0.0000E+00  0.0000E+00  0.0000E+00  0.0000E+00  0.0000E+00  0.0000E+00  0.0000E+00  0.0000E+00  0.0000E+00  0.0000E+00  0.0000E+00  0.0000E+00  0.0000E+00
     -2.038  0.0000E+00  0.0000E+00  0.0000E+00  0.0000E+00  0.0000E+00  0.0000E+00  0.0000E+00  0.0000E+00  0.0000E+00  0.0000E+00  0.0000E+00  0.0000E+00  0.0000E+00  0.0000E+00  0.0000E+00  0.0000E+00  0.0000E+00  0.0000E+00
     -1.888  0.0000E+00  0.0000E+00  0.0000E+00  0.0000E+00  0.0000E+00  0.0000E+00  0.0000E+00  0.0000E+00  0.0000E+00  0.0000E+00  0.0000E+00  0.0000E+00  0.0000E+00  0.0000E+00  0.0000E+00  0.0000E+00  0.0000E+00  0.0000E+00
     -1.739  0.0000E+00  0.0000E+00  0.0000E+00  0.0000E+00  0.0000E+00  0.0000E+00  0.0000E+00  0.0000E+00  0.0000E+00  0.0000E+00  0.0000E+00  0.0000E+00  0.0000E+00  0.0000E+00  0.0000E+00  0.0000E+00  0.0000E+00  0.0000E+00
     -1.589  0.0000E+00  0.0000E+00  0.0000E+00  0.0000E+00  0.0000E+00  0.0000E+00  0.0000E+00  0.0000E+00  0.0000E+00  0.0000E+00  0.0000E+00  0.0000E+00  0.0000E+00  0.0000E+00  0.0000E+00  0.0000E+00  0.0000E+00  0.0000E+00
     -1.440  0.0000E+00  0.0000E+00  0.0000E+00  0.0000E+00  0.0000E+00  0.0000E+00  0.0000E+00  0.0000E+00  0.0000E+00  0.0000E+00  0.0000E+00  0.0000E+00  0.0000E+00  0.0000E+00  0.0000E+00  0.0000E+00  0.0000E+00  0.0000E+00
     -1.291  0.0000E+00  0.0000E+00  0.0000E+00  0.0000E+00  0.0000E+00  0.0000E+00  0.0000E+00  0.0000E+00  0.0000E+00  0.0000E+00  0.0000E+00  0.0000E+00  0.0000E+00  0.0000E+00  0.0000E+00  0.0000E+00  0.0000E+00  0.0000E+00
     -1.141  0.0000E+00  0.0000E+00  0.0000E+00  0.0000E+00  0.0000E+00  0.0000E+00  0.0000E+00  0.0000E+00  0.0000E+00  0.0000E+00  0.0000E+00  0.0000E+00  0.0000E+00  0.0000E+00  0.0000E+00  0.0000E+00  0.0000E+00  0.0000E+00
     -0.992  0.0000E+00  0.0000E+00  0.0000E+00  0.0000E+00  0.0000E+00  0.0000E+00  0.0000E+00  0.0000E+00  0.0000E+00  0.0000E+00  0.0000E+00  0.0000E+00  0.0000E+00  0.0000E+00  0.0000E+00  0.0000E+00  0.0000E+00  0.0000E+00
     -0.842  0.0000E+00  0.0000E+00  0.0000E+00  0.0000E+00  0.0000E+00  0.0000E+00  0.0000E+00  0.0000E+00  0.0000E+00  0.0000E+00  0.0000E+00  0.0000E+00  0.0000E+00  0.0000E+00  0.0000E+00  0.0000E+00  0.0000E+00  0.0000E+00
     -0.693  0.0000E+00  0.0000E+00  0.0000E+00  0.0000E+00  0.0000E+00  0.0000E+00  0.0000E+00  0.0000E+00  0.0000E+00  0.0000E+00  0.0000E+00  0.0000E+00  0.0000E+00  0.0000E+00  0.0000E+00  0.0000E+00  0.0000E+00  0.0000E+00
     -0.543  0.0000E+00  0.3784E-14  0.0000E+00  0.1023E-30  0.0000E+00  0.3539E-29  0.0000E+00  0.1023E-30  0.0000E+00  0.5662E-27  0.0000E+00  0.1067E-33  0.0000E+00  0.4753E-19  0.0000E+00  0.1067E-33  0.0000E+00  0.5662E-27
     -0.394  0.2460E-07  0.5821E-05  0.2275E-23  0.1573E-21  0.3961E-19  0.2023E-14  0.2275E-23  0.1573E-21  0.4560E-22  0.8708E-18  0.8507E-27  0.1641E-24  0.3009E-12  0.7310E-10  0.8507E-27  0.1641E-24  0.4560E-22  0.8708E-18
     -0.245  0.8579E-03  0.1559E-02  0.4554E-12  0.9372E-09  0.4121E-08  0.5186E-06  0.4554E-12  0.9372E-09  0.9651E-14  0.1288E-10  0.4572E-22  0.4658E-20  0.1053E-07  0.2213E-07  0.4572E-22  0.4658E-20  0.9651E-14  0.1288E-10
     -0.095  0.3672E-02  0.7814E-02  0.6236E-05  0.4627E-04  0.2906E-04  0.4053E-04  0.6236E-05  0.4627E-04  0.1321E-06  0.6357E-06  0.7131E-12  0.4469E-09  0.4650E-06  0.1037E-05  0.7131E-12  0.4469E-09  0.1321E-06  0.6357E-06
      0.054  0.1298E-01  0.1764E-01  0.1185E-03  0.1768E-03  0.5138E-04  0.1679E-03  0.1185E-03  0.1768E-03  0.2528E-05  0.2461E-05  0.1403E-05  0.3978E-05  0.2280E-05  0.8736E-06  0.1403E-05  0.3978E-05  0.2528E-05  0.2461E-05
      0.204  0.1624E-01  0.6968E-02  0.1609E-03  0.6347E-04  0.2131E-03  0.1196E-03  0.1609E-03  0.6347E-04  0.3506E-05  0.8973E-06  0.7682E-05  0.1974E-05  0.1971E-06  0.1655E-05  0.7682E-05  0.1974E-05  0.3506E-05  0.8973E-06
      0.353  0.7007E-02  0.1090E-01  0.1191E-03  0.2540E-03  0.1567E-03  0.1418E-03  0.1191E-03  0.2540E-03  0.7656E-05  0.1028E-04  0.1571E-07  0.4850E-06  0.1845E-04  0.1518E-04  0.1571E-07  0.4850E-06  0.7656E-05  0.1028E-04
      0.503  0.3194E-01  0.3968E-01  0.6889E-03  0.8992E-03  0.8868E-03  0.1168E-02  0.6889E-03  0.8992E-03  0.4069E-04  0.3576E-04  0.4947E-04  0.4214E-04  0.5413E-04  0.4279E-04  0.4947E-04  0.4214E-04  0.4069E-04  0.3576E-04
      0.652  0.2291E-01  0.1800E-01  0.7180E-03  0.7181E-03  0.3705E-03  0.1899E-03  0.7180E-03  0.7181E-03  0.6354E-04  0.4405E-04  0.2943E-04  0.1945E-04  0.4783E-04  0.2337E-04  0.2943E-04  0.1945E-04  0.6354E-04  0.4405E-04
      0.801  0.1491E-01  0.1068E-01  0.5907E-03  0.3885E-03  0.2249E-03  0.3467E-03  0.5907E-03  0.3885E-03  0.6240E-04  0.2194E-04  0.4079E-04  0.3081E-04  0.2444E-04  0.9007E-05  0.4079E-04  0.3081E-04  0.6240E-04  0.2194E-04
      0.951  0.1940E-01  0.1602E-01  0.5139E-03  0.4202E-03  0.1201E-02  0.1058E-02  0.5139E-03  0.4202E-03  0.3990E-04  0.1991E-04  0.1276E-03  0.6261E-04  0.8229E-04  0.4814E-04  0.1276E-03  0.6261E-04  0.3990E-04  0.1991E-04
      1.100  0.2988E-01  0.4113E-01  0.1051E-02  0.1589E-02  0.1994E-02  0.2669E-02  0.1051E-02  0.1589E-02  0.1453E-03  0.1350E-03  0.2289E-03  0.1570E-03  0.2839E-03  0.2633E-03  0.2289E-03  0.1570E-03  0.1453E-03  0.1350E-03
      1.250  0.4148E-01  0.3713E-01  0.2443E-02  0.2571E-02  0.1240E-02  0.6797E-03  0.2443E-02  0.2571E-02  0.4751E-03  0.2936E-03  0.1757E-03  0.1023E-03  0.4806E-03  0.2044E-03  0.1757E-03  0.1023E-03  0.4751E-03  0.2936E-03
      1.399  0.1417E-01  0.7241E-02  0.9837E-03  0.4532E-03  0.2584E-03  0.3268E-03  0.9837E-03  0.4532E-03  0.2025E-03  0.5060E-04  0.9292E-04  0.4043E-04  0.1216E-03  0.4482E-04  0.9292E-04  0.4043E-04  0.2025E-03  0.5060E-04
      1.549  0.3075E-01  0.3269E-01  0.1769E-02  0.2048E-02  0.2186E-02  0.2263E-02  0.1769E-02  0.2048E-02  0.4782E-03  0.2878E-03  0.4751E-03  0.2958E-03  0.4519E-03  0.2473E-03  0.4751E-03  0.2958E-03  0.4782E-03  0.2878E-03
      1.698  0.5616E-01  0.5259E-01  0.3698E-02  0.3603E-02  0.3751E-02  0.3671E-02  0.3698E-02  0.3603E-02  0.1038E-02  0.5126E-03  0.1306E-02  0.6659E-03  0.6582E-03  0.3156E-03  0.1306E-02  0.6659E-03  0.1038E-02  0.5126E-03
      1.847  0.6416E-02  0.3747E-02  0.1593E-03  0.5387E-04  0.1085E-02  0.7440E-03  0.1593E-03  0.5387E-04  0.5282E-04  0.6451E-05  0.1062E-03  0.2163E-04  0.6910E-03  0.2271E-03  0.1062E-03  0.2163E-04  0.5282E-04  0.6451E-05
      1.997  0.2875E-01  0.3067E-01  0.1828E-02  0.1906E-02  0.2992E-02  0.3699E-02  0.1828E-02  0.1906E-02  0.8070E-03  0.3915E-03  0.7408E-03  0.4102E-03  0.1836E-02  0.1004E-02  0.7408E-03  0.4102E-03  0.8070E-03  0.3915E-03
      2.146  0.4957E-01  0.3305E-01  0.5045E-02  0.3641E-02  0.3094E-02  0.1899E-02  0.5045E-02  0.3641E-02  0.2347E-02  0.7917E-03  0.1950E-02  0.5947E-03  0.1346E-02  0.4659E-03  0.1950E-02  0.5947E-03  0.2347E-02  0.7917E-03
      2.296  0.5170E-01  0.6241E-01  0.5032E-02  0.6310E-02  0.4039E-02  0.5352E-02  0.5032E-02  0.6310E-02  0.3117E-02  0.1644E-02  0.1745E-02  0.1145E-02  0.3205E-02  0.1604E-02  0.1745E-02  0.1145E-02  0.3117E-02  0.1644E-02
      2.445  0.4457E-01  0.3071E-01  0.3995E-02  0.2954E-02  0.5413E-02  0.3727E-02  0.3995E-02  0.2954E-02  0.2559E-02  0.7567E-03  0.4121E-02  0.9524E-03  0.2320E-02  0.9076E-03  0.4121E-02  0.9524E-03  0.2559E-02  0.7567E-03
      2.594  0.3687E-01  0.3522E-01  0.4465E-02  0.4131E-02  0.1936E-02  0.3288E-02  0.4465E-02  0.4131E-02  0.5443E-02  0.1340E-02  0.2518E-02  0.1615E-02  0.4119E-02  0.5048E-03  0.2518E-02  0.1615E-02  0.5443E-02  0.1340E-02
      2.744  0.2456E-01  0.2673E-01  0.1781E-02  0.3747E-02  0.4172E-02  0.1418E-02  0.1781E-02  0.3747E-02  0.2587E-02  0.1813E-02  0.2707E-02  0.6242E-03  0.7638E-02  0.1382E-02  0.2707E-02  0.6242E-03  0.2587E-02  0.1813E-02
      2.893  0.5296E-01  0.2956E-01  0.5408E-02  0.2070E-02  0.8308E-02  0.6753E-02  0.5408E-02  0.2070E-02  0.6382E-02  0.7729E-03  0.1246E-01  0.1239E-02  0.3094E-02  0.3943E-02  0.1246E-01  0.1239E-02  0.6382E-02  0.7729E-03
      3.043  0.6764E-01  0.3929E-01  0.9199E-02  0.4756E-02  0.6989E-02  0.6077E-02  0.9199E-02  0.4756E-02  0.1682E-01  0.2113E-02  0.1024E-01  0.3502E-02  0.2020E-01  0.8773E-03  0.1024E-01  0.3502E-02  0.1682E-01  0.2113E-02
      3.192  0.7745E-01  0.5448E-01  0.9906E-02  0.7488E-02  0.5064E-02  0.8163E-02  0.9906E-02  0.7488E-02  0.3872E-01  0.3644E-02  0.2902E-01  0.4041E-02  0.4204E-01  0.4242E-02  0.2902E-01  0.4041E-02  0.3872E-01  0.3644E-02
      3.342  0.8045E-01  0.3695E-01  0.7218E-02  0.5760E-02  0.9233E-02  0.5122E-02  0.7218E-02  0.5760E-02  0.6269E-01  0.3030E-02  0.8362E-01  0.1702E-02  0.5812E-01  0.4702E-02  0.8362E-01  0.1702E-02  0.6269E-01  0.3030E-02
      3.491  0.7356E-01  0.5418E-01  0.7574E-02  0.1064E-01  0.1157E-01  0.2939E-02  0.7574E-02  0.1064E-01  0.6858E-01  0.9431E-02  0.7701E-01  0.4306E-02  0.8344E-01  0.4863E-02  0.7701E-01  0.4306E-02  0.6858E-01  0.9431E-02
      3.640  0.7066E-01  0.3199E-01  0.1023E-01  0.5224E-02  0.1022E-01  0.4765E-02  0.1023E-01  0.5224E-02  0.1525E+00  0.4375E-02  0.1189E+00  0.5040E-02  0.1040E+00  0.4481E-02  0.1189E+00  0.5040E-02  0.1525E+00  0.4375E-02
      3.790  0.6348E-01  0.5830E-01  0.1295E-01  0.7089E-02  0.1361E-01  0.1515E-01  0.1295E-01  0.7089E-02  0.1611E+00  0.6674E-02  0.1398E+00  0.1009E-01  0.1852E+00  0.1343E-01  0.1398E+00  0.1009E-01  0.1611E+00  0.6674E-02
      3.939  0.3228E-01  0.4964E-01  0.1057E-01  0.8722E-02  0.1269E-01  0.7010E-02  0.1057E-01  0.8722E-02  0.1577E+00  0.1348E-01  0.2257E+00  0.1361E-01  0.1687E+00  0.6077E-02  0.2257E+00  0.1361E-01  0.1577E+00  0.1348E-01
      4.089  0.2506E-01  0.3114E-01  0.1424E-01  0.3568E-02  0.1578E-01  0.7520E-02  0.1424E-01  0.3568E-02  0.1250E+00  0.6864E-02  0.2234E+00  0.8479E-02  0.1786E+00  0.1536E-01  0.2234E+00  0.8479E-02  0.1250E+00  0.6864E-02
      4.238  0.1507E-01  0.4187E-01  0.1523E-01  0.8566E-02  0.1240E-01  0.4309E-02  0.1523E-01  0.8566E-02  0.1907E+00  0.1518E-01  0.1756E+00  0.7199E-02  0.2780E+00  0.3301E-01  0.1756E+00  0.7199E-02  0.1907E+00  0.1518E-01
      4.388  0.9626E-02  0.1208E+00  0.1711E-01  0.2140E-01  0.1284E-01  0.1635E-01  0.1711E-01  0.2140E-01  0.2777E+00  0.7061E-01  0.1642E+00  0.6380E-01  0.2684E+00  0.3848E-01  0.1642E+00  0.6380E-01  0.2777E+00  0.7061E-01
      4.537  0.1105E-01  0.4960E-01  0.2022E-01  0.6938E-02  0.1365E-01  0.1136E-01  0.2022E-01  0.6938E-02  0.3225E+00  0.2558E-01  0.1846E+00  0.3464E-01  0.2765E+00  0.4387E-01  0.1846E+00  0.3464E-01  0.3225E+00  0.2558E-01
      4.686  0.9915E-02  0.4630E-01  0.1557E-01  0.7432E-02  0.1327E-01  0.9408E-02  0.1557E-01  0.7432E-02  0.2493E+00  0.3768E-01  0.1322E+00  0.4823E-01  0.1960E+00  0.4577E-01  0.1322E+00  0.4823E-01  0.2493E+00  0.3768E-01
      4.836  0.5620E-02  0.3648E-01  0.1022E-01  0.6913E-02  0.1307E-01  0.8863E-02  0.1022E-01  0.6913E-02  0.1948E+00  0.4496E-01  0.2275E+00  0.5725E-01  0.2824E+00  0.2170E-01  0.2275E+00  0.5725E-01  0.1948E+00  0.4496E-01
      4.985  0.1182E-01  0.5932E-01  0.1541E-01  0.1678E-01  0.1685E-01  0.1825E-01  0.1541E-01  0.1678E-01  0.2798E+00  0.1046E+00  0.4492E+00  0.7754E-01  0.4786E+00  0.9935E-01  0.4492E+00  0.7754E-01  0.2798E+00  0.1046E+00
      5.135  0.1404E-01  0.2840E-01  0.1479E-01  0.9350E-02  0.1924E-01  0.1036E-01  0.1479E-01  0.9350E-02  0.3879E+00  0.8161E-01  0.3809E+00  0.8458E-01  0.3075E+00  0.6807E-01  0.3809E+00  0.8458E-01  0.3879E+00  0.8161E-01