    2    2  100    2
  0.1362094E+02  0.2691658E-09  0.2691658E-09  0.4341771E-09  0.5000000E-15
  1.000000000000000E-004
  CAR 
 Co-hcc                                  
     18     95     24
 
  0.0000000E+00  0.0000000E+00  0.0000000E+00  0.8680556E-03
      1         -0.246401       -0.298902   1.000000   1.000000
      2          3.164723        4.194444   1.000000   1.000000
      3          5.006099        6.778320   1.000000   1.000000
      4          5.013886        6.797956   1.000000   1.000000
      5          5.013887        6.797957   1.000000   1.000000
      6          5.225560        7.059323   1.000000   1.000000
      7          5.225561        7.059323   1.000000   1.000000
      8          5.450640        7.358968   1.000000   0.888421
      9          5.450641        7.358969   1.000000   0.888418
     10          6.227258        7.369184   1.000000   0.823614
     11          6.227259        8.248010   1.000000   0.000000
     12          7.511135        8.248011   0.001015   0.000000
     13         11.973220       12.994853   0.000000   0.000000
     14         27.400259       27.026868   0.000000   0.000000
     15         27.979183       28.303215   0.000000   0.000000
     16         27.979186       28.303223   0.000000   0.000000
     17         29.548251       29.615369   0.000000   0.000000
     18         29.548257       29.797628   0.000000   0.000000
     19         29.838913       29.797633   0.000000   0.000000
     20         30.410771       30.132839   0.000000   0.000000
     21         34.451967       34.432669   0.000000   0.000000
     22         34.589520       34.432670   0.000000   0.000000
     23         34.589522       34.608636   0.000000   0.000000
     24         35.734478       35.314292   0.000000   0.000000
 
  0.8333333E-01 -0.6938894E-17  0.0000000E+00  0.5208333E-02
      1         -0.041658       -0.093604   1.000000   1.000000
      2          3.277142        4.331162   1.000000   1.000000
      3          4.855896        6.594118   1.000000   1.000000
      4          5.093130        6.841694   1.000000   1.000000
      5          5.140977        6.888237   1.000000   1.000000
      6          5.196658        6.942231   1.000000   1.000000
      7          5.295326        7.014837   1.000000   1.000000
      8          5.361454        7.138741   1.000000   1.000000
      9          5.403036        7.300564   1.000000   0.997948
     10          5.804124        7.317331   1.000000   0.991709
     11          6.246966        8.272605   1.000000   0.000000
     12          8.182461        8.962800   0.000000   0.000000
     13         12.029472       13.023543   0.000000   0.000000
     14         24.747638       24.900276   0.000000   0.000000
     15         26.299815       26.587708   0.000000   0.000000
     16         27.092175       27.026177   0.000000   0.000000
     17         30.419614       30.155676   0.000000   0.000000
     18         30.450798       30.264570   0.000000   0.000000
     19         31.477492       31.517149   0.000000   0.000000
     20         31.672532       31.752699   0.000000   0.000000
     21         32.141015       32.370760   0.000000   0.000000
     22         33.800114       33.833469   0.000000   0.000000
     23         33.883629       34.074726   0.000000   0.000000
     24         34.021457       34.210654   0.000000   0.000000
 
  0.1666667E+00  0.1387779E-16  0.0000000E+00  0.5208333E-02
      1          0.554999        0.508729   1.000000   1.000000
      2          3.555283        4.687264   1.000000   1.000000
      3          4.675138        6.202794   1.000000   1.000000
      4          4.931733        6.340810   1.000000   1.000000
      5          5.081822        6.851701   1.000000   1.000000
      6          5.284757        7.144278   1.000000   1.000000
      7          5.316252        7.156546   1.000000   1.000000
      8          5.354000        7.179821   1.000000   1.000000
      9          5.476341        7.202947   1.000000   1.000000
     10          5.490644        7.361779   1.000000   0.872581
     11          6.289487        8.324924   1.000000   0.000000
     12          9.422767       10.160152   0.000000   0.000000
     13         12.220675       13.129119   0.000000   0.000000
     14         21.124160       21.411202   0.000000   0.000000
     15         24.292648       24.551168   0.000000   0.000000
     16         26.256163       26.263214   0.000000   0.000000
     17         28.021124       27.986672   0.000000   0.000000
     18         29.702779       30.047845   0.000000   0.000000
     19         30.557739       30.229860   0.000000   0.000000
     20         32.071116       32.066964   0.000000   0.000000
     21         32.709824       32.958202   0.000000   0.000000
     22         32.928175       32.970270   0.000000   0.000000
     23         33.071481       33.510164   0.000000   0.000000
     24         34.255734       34.537133   0.000000   0.000000
 
  0.2500000E+00  0.2775558E-16  0.0000000E+00  0.5208333E-02
      1          1.473605        1.459818   1.000000   1.000000
      2          3.781902        5.060953   1.000000   1.000000
      3          4.420554        5.712809   1.000000   1.000000
      4          4.577460        6.105111   1.000000   1.000000
      5          5.022613        6.733865   1.000000   1.000000
      6          5.141310        6.983239   1.000000   1.000000
      7          5.326695        7.047536   1.000000   1.000000
      8          5.636981        7.494262   1.000000   0.004547
      9          5.654838        7.517839   1.000000   0.000528
     10          5.769842        7.682176   1.000000   0.000000
     11          6.330355        8.374343   1.000000   0.000000
     12         10.902532       11.562794   0.000000   0.000000
     13         12.595738       13.355248   0.000000   0.000000
     14         17.735809       18.142250   0.000000   0.000000
     15         22.565449       22.782030   0.000000   0.000000
     16         24.893360       24.980010   0.000000   0.000000
     17         25.037993       25.173960   0.000000   0.000000
     18         27.125343       27.577440   0.000000   0.000000
     19         29.463771       29.209649   0.000000   0.000000
     20         31.173427       31.568562   0.000000   0.000000
     21         32.180920       32.288341   0.000000   0.000000
     22         32.864520       32.861165   0.000000   0.000000
     23         33.484778       33.629431   0.000000   0.000000
     24         36.233641       36.369722   0.000000   0.000000
 
  0.3333333E+00  0.5551115E-16  0.0000000E+00  0.5208333E-02
      1          2.509830        2.644337   1.000000   1.000000
      2          3.743287        5.145105   1.000000   1.000000
      3          4.042007        5.379386   1.000000   1.000000
      4          4.683863        5.987000   1.000000   1.000000
      5          5.011166        6.798708   1.000000   1.000000
      6          5.114899        6.826869   1.000000   1.000000
      7          5.204411        6.892414   1.000000   1.000000
      8          5.973992        7.919027   1.000000   0.000000
      9          6.071083        7.957954   1.000000   0.000000
     10          6.153084        8.030349   1.000000   0.000000
     11          6.358735        8.408097   1.000000   0.000000
     12         12.563707       13.128052   0.000000   0.000000
     13         12.945298       13.504357   0.000000   0.000000
     14         15.002410       15.569768   0.000000   0.000000
     15         21.216182       21.379347   0.000000   0.000000
     16         22.062865       22.268501   0.000000   0.000000
     17         22.573797       22.903338   0.000000   0.000000
     18         26.079796       26.449531   0.000000   0.000000
     19         28.419403       28.178284   0.000000   0.000000
     20         29.706950       30.051996   0.000000   0.000000
     21         31.665847       31.820453   0.000000   0.000000
     22         33.317346       33.419734   0.000000   0.000000
     23         35.101355       35.229126   0.000000   0.000000
     24         37.432597       37.509160   0.000000   0.000000
 
  0.4166667E+00  0.2775558E-16  0.0000000E+00  0.5208333E-02
      1          3.219081        3.789304   1.000000   1.000000
      2          3.609463        5.002041   1.000000   1.000000
      3          3.815981        5.189171   1.000000   1.000000
      4          4.921885        5.945881   1.000000   1.000000
      5          4.986598        6.719972   1.000000   1.000000
      6          5.119083        6.778606   1.000000   1.000000
      7          5.260662        6.964881   1.000000   1.000000
      8          6.222587        8.217801   1.000000   0.000000
      9          6.318430        8.323602   1.000000   0.000000
     10          6.374234        8.426286   1.000000   0.000000
     11          7.058776        8.641973   1.000000   0.000000
     12         11.311881       12.024959   0.000000   0.000000
     13         14.320684       14.766747   0.000000   0.000000
     14         15.025671       15.479371   0.000000   0.000000
     15         19.612559       19.949811   0.000000   0.000000
     16         20.003883       20.434832   0.000000   0.000000
     17         20.343435       20.456530   0.000000   0.000000
     18         25.749268       26.118576   0.000000   0.000000
     19         27.751769       27.503761   0.000000   0.000000
     20         28.773916       29.079292   0.000000   0.000000
     21         31.366978       31.550629   0.000000   0.000000
     22         33.576820       33.749658   0.000000   0.000000
     23         37.178067       37.323362   0.000000   0.000000
     24         38.192083       38.189186   0.000000   0.000000
 
  0.5000000E+00  0.5551115E-16  0.0000000E+00  0.2604167E-02
      1          3.438022        4.354239   1.000000   1.000000
      2          3.518478        4.859613   1.000000   1.000000
      3          3.741181        5.127793   1.000000   1.000000
      4          4.890290        5.957971   1.000000   1.000000
      5          5.088280        6.682217   1.000000   1.000000
      6          5.187291        6.736791   1.000000   1.000000
      7          5.312152        7.029929   1.000000   1.000000
      8          6.312125        8.324357   1.000000   0.000000
      9          6.379034        8.431872   1.000000   0.000000
     10          6.417490        8.444862   1.000000   0.000000
     11          8.156698        9.358479   0.000000   0.000000
     12          9.648606       10.674783   0.000000   0.000000
     13         15.486271       15.814721   0.000000   0.000000
     14         15.856772       16.160173   0.000000   0.000000
     15         18.217495       18.676869   0.000000   0.000000
     16         18.579497       19.109631   0.000000   0.000000
     17         20.039263       20.130927   0.000000   0.000000
     18         25.658775       26.034230   0.000000   0.000000
     19         27.524444       27.272432   0.000000   0.000000
     20         28.452583       28.742667   0.000000   0.000000
     21         31.269338       31.462808   0.000000   0.000000
     22         33.671349       33.870296   0.000000   0.000000
     23         38.443826       38.379823   0.000000   0.000000
     24         39.502949       39.704359   0.000000   0.000000
 
  0.8333333E-01  0.8333333E-01  0.0000000E+00  0.5208333E-02
      1          0.359619        0.310507   1.000000   1.000000
      2          3.476591        4.580378   1.000000   1.000000
      3          4.711924        6.367269   1.000000   1.000000
      4          5.101316        6.404383   1.000000   1.000000
      5          5.126278        6.912554   1.000000   1.000000
      6          5.250749        7.068561   1.000000   1.000000
      7          5.254845        7.072161   1.000000   1.000000
      8          5.269349        7.130256   1.000000   1.000000
      9          5.450339        7.307302   1.000000   0.996313
     10          5.560586        7.311131   1.000000   0.994933
     11          6.271956        8.303214   1.000000   0.000000
     12          9.064132        9.819349   0.000000   0.000000
     13         12.154354       13.091924   0.000000   0.000000
     14         22.896839       23.079694   0.000000   0.000000
     15         23.105957       23.405716   0.000000   0.000000
     16         28.353929       28.326936   0.000000   0.000000
     17         29.589947       29.432593   0.000000   0.000000
     18         29.620768       29.567310   0.000000   0.000000
     19         29.738016       29.614750   0.000000   0.000000
     20         31.736439       31.999977   0.000000   0.000000
     21         31.865298       32.193626   0.000000   0.000000
     22         32.107332       32.607914   0.000000   0.000000
     23         35.233025       35.325227   0.000000   0.000000
     24         35.628410       35.632631   0.000000   0.000000
 
  0.1666667E+00  0.8333333E-01  0.0000000E+00  0.1041667E-01
      1          1.123155        1.089848   1.000000   1.000000
      2          3.761147        4.969034   1.000000   1.000000
      3          4.533589        5.883432   1.000000   1.000000
      4          4.612685        6.140922   1.000000   1.000000
      5          5.048102        6.783581   1.000000   1.000000
      6          5.120409        6.936256   1.000000   1.000000
      7          5.427334        7.205947   1.000000   1.000000
      8          5.432819        7.268834   1.000000   0.999918
      9          5.548646        7.406260   1.000000   0.452463
     10          5.740566        7.626179   1.000000   0.000000
     11          6.302994        8.340874   1.000000   0.000000
     12         10.360539       11.054180   0.000000   0.000000
     13         12.450025       13.271264   0.000000   0.000000
     14         19.484297       19.818647   0.000000   0.000000
     15         21.442828       21.713374   0.000000   0.000000
     16         26.523870       26.528352   0.000000   0.000000
     17         27.102852       27.217748   0.000000   0.000000
     18         28.368541       28.316858   0.000000   0.000000
     19         29.001124       29.246159   0.000000   0.000000
     20         29.703723       30.052513   0.000000   0.000000
     21         32.477586       32.433867   0.000000   0.000000
     22         32.974872       33.300268   0.000000   0.000000
     23         35.069439       35.165263   0.000000   0.000000
     24         35.451107       35.586237   0.000000   0.000000
 
  0.2500000E+00  0.8333333E-01  0.0000000E+00  0.1041667E-01
      1          2.129257        2.169330   1.000000   1.000000
      2          3.861180        5.221753   1.000000   1.000000
      3          4.197533        5.516994   1.000000   1.000000
      4          4.503778        5.946615   1.000000   1.000000
      5          4.993114        6.750886   1.000000   1.000000
      6          5.061965        6.771485   1.000000   1.000000
      7          5.297238        7.043609   1.000000   1.000000
      8          5.706090        7.575795   1.000000   0.000000
      9          5.893127        7.808656   1.000000   0.000000
     10          6.143241        8.030898   1.000000   0.000000
     11          6.329410        8.372567   1.000000   0.000000
     12         11.903285       12.514111   0.000000   0.000000
     13         12.942136       13.587798   0.000000   0.000000
     14         16.305994       16.771758   0.000000   0.000000
     15         20.136061       20.393222   0.000000   0.000000
     16         23.551636       23.688952   0.000000   0.000000
     17         24.274134       24.575287   0.000000   0.000000
     18         27.263257       27.206104   0.000000   0.000000
     19         28.101651       28.384054   0.000000   0.000000
     20         28.496665       28.813228   0.000000   0.000000
     21         33.215396       33.116937   0.000000   0.000000
     22         34.764311       34.901743   0.000000   0.000000
     23         34.948830       35.130049   0.000000   0.000000
     24         36.038748       36.193189   0.000000   0.000000
 
  0.3333333E+00  0.8333333E-01  0.0000000E+00  0.1041667E-01
      1          3.046686        3.369799   1.000000   1.000000
      2          3.741432        5.153141   1.000000   1.000000
      3          3.916376        5.282508   1.000000   1.000000
      4          4.697973        5.880266   1.000000   1.000000
      5          4.908429        6.668096   1.000000   1.000000
      6          5.167245        6.871587   1.000000   1.000000
      7          5.200982        6.898156   1.000000   1.000000
      8          6.050940        7.971567   1.000000   0.000000
      9          6.183949        8.153602   1.000000   0.000000
     10          6.346075        8.392240   1.000000   0.000000
     11          6.770039        8.524621   1.000000   0.000000
     12         12.555936       13.120503   0.000000   0.000000
     13         13.620177       14.129907   0.000000   0.000000
     14         14.727263       15.266351   0.000000   0.000000
     15         19.160278       19.384737   0.000000   0.000000
     16         20.893015       21.156125   0.000000   0.000000
     17         21.430834       21.812104   0.000000   0.000000
     18         26.495211       26.423485   0.000000   0.000000
     19         27.567270       27.862826   0.000000   0.000000
     20         27.583160       27.884794   0.000000   0.000000
     21         33.114374       33.089052   0.000000   0.000000
     22         35.116789       35.268723   0.000000   0.000000
     23         36.397789       36.556469   0.000000   0.000000
     24         37.809173       37.867281   0.000000   0.000000
 
  0.4166667E+00  0.8333333E-01  0.0000000E+00  0.1041667E-01
      1          3.466325        4.293095   1.000000   1.000000
      2          3.621526        4.984561   1.000000   1.000000
      3          3.776349        5.170261   1.000000   1.000000
      4          4.872483        5.871777   1.000000   1.000000
      5          4.994677        6.641519   1.000000   1.000000
      6          5.082654        6.741574   1.000000   1.000000
      7          5.310178        7.032029   1.000000   1.000000
      8          6.289664        8.283669   1.000000   0.000000
      9          6.339003        8.341043   1.000000   0.000000
     10          6.353521        8.400887   1.000000   0.000000
     11          7.929808        9.250991   0.000000   0.000000
     12         10.380152       11.256177   0.000000   0.000000
     13         15.295488       15.676854   0.000000   0.000000
     14         15.707268       16.062791   0.000000   0.000000
     15         18.523489       18.765991   0.000000   0.000000
     16         18.751926       19.154829   0.000000   0.000000
     17         19.277702       19.703772   0.000000   0.000000
     18         26.102204       26.020630   0.000000   0.000000
     19         27.056935       27.352547   0.000000   0.000000
     20         27.344556       27.643071   0.000000   0.000000
     21         32.930550       32.943025   0.000000   0.000000
     22         35.241891       35.428236   0.000000   0.000000
     23         38.452346       38.402510   0.000000   0.000000
     24         38.568350       38.724927   0.000000   0.000000
 
  0.1666667E+00  0.1666667E+00  0.0000000E+00  0.5208333E-02
      1          1.993314        2.005334   1.000000   1.000000
      2          3.988569        5.291113   1.000000   1.000000
      3          4.279933        5.589390   1.000000   1.000000
      4          4.336845        5.871027   1.000000   1.000000
      5          4.947506        6.717734   1.000000   1.000000
      6          5.058995        6.756007   1.000000   1.000000
      7          5.358021        7.122698   1.000000   1.000000
      8          5.542658        7.407683   1.000000   0.436560
      9          5.887199        7.791025   1.000000   0.000000
     10          6.158340        8.039249   1.000000   0.000000
     11          6.304348        8.342199   1.000000   0.000000
     12         11.678763       12.309360   0.000000   0.000000
     13         12.914672       13.596690   0.000000   0.000000
     14         18.094361       18.436211   0.000000   0.000000
     15         18.150595       18.525755   0.000000   0.000000
     16         25.297747       25.216222   0.000000   0.000000
     17         25.354564       25.563120   0.000000   0.000000
     18         26.052483       26.343032   0.000000   0.000000
     19         26.551478       26.852006   0.000000   0.000000
     20         30.892887       31.067248   0.000000   0.000000
     21         32.765459       33.078042   0.000000   0.000000
     22         33.530872       33.428525   0.000000   0.000000
     23         36.448198       36.569932   0.000000   0.000000
     24         37.617178       37.701029   0.000000   0.000000
 
  0.2500000E+00  0.1666667E+00  0.0000000E+00  0.1041667E-01
      1          2.962736        3.137271   1.000000   1.000000
      2          3.986216        5.381757   1.000000   1.000000
      3          4.016909        5.385869   1.000000   1.000000
      4          4.332028        5.706619   1.000000   1.000000
      5          4.843023        6.573889   1.000000   1.000000
      6          5.164694        6.856115   1.000000   1.000000
      7          5.227649        6.958052   1.000000   1.000000
      8          5.755118        7.649559   1.000000   0.000000
      9          6.187343        8.147138   1.000000   0.000000
     10          6.302929        8.340352   1.000000   0.000000
     11          6.767444        8.552884   1.000000   0.000000
     12         13.263290       13.814395   0.000000   0.000000
     13         13.488353       14.000254   0.000000   0.000000
     14         15.302019       15.798473   0.000000   0.000000
     15         17.072742       17.424123   0.000000   0.000000
     16         22.513949       22.701440   0.000000   0.000000
     17         23.188570       23.537637   0.000000   0.000000
     18         24.447978       24.513387   0.000000   0.000000
     19         25.362796       25.683888   0.000000   0.000000
     20         30.970934       31.180139   0.000000   0.000000
     21         34.831230       34.681616   0.000000   0.000000
     22         35.166334       35.381807   0.000000   0.000000
     23         37.053875       37.140865   0.000000   0.000000
     24         37.481375       37.601429   0.000000   0.000000
 
  0.3333333E+00  0.1666667E+00  0.0000000E+00  0.1041667E-01
      1          3.584571        4.207992   1.000000   1.000000
      2          3.846616        5.236557   1.000000   1.000000
      3          3.855246        5.265958   1.000000   1.000000
      4          4.577948        5.689836   1.000000   1.000000
      5          4.813196        6.529360   1.000000   1.000000
      6          5.088236        6.772855   1.000000   1.000000
      7          5.307438        7.032862   1.000000   1.000000
      8          6.034639        7.969450   1.000000   0.000000
      9          6.301135        8.328866   1.000000   0.000000
     10          6.333921        8.337941   1.000000   0.000000
     11          7.776266        9.237131   0.000000   0.000000
     12         11.900839       12.552551   0.000000   0.000000
     13         15.013044       15.466028   0.000000   0.000000
     14         15.384368       15.807117   0.000000   0.000000
     15         16.413446       16.740389   0.000000   0.000000
     16         20.037236       20.349627   0.000000   0.000000
     17         20.521311       20.924556   0.000000   0.000000
     18         23.917166       23.978756   0.000000   0.000000
     19         24.702318       25.018782   0.000000   0.000000
     20         30.636525       30.863345   0.000000   0.000000
     21         35.567971       35.401850   0.000000   0.000000
     22         37.561861       37.615998   0.000000   0.000000
     23         38.300978       38.462580   0.000000   0.000000
     24         38.318809       38.476909   0.000000   0.000000
 
  0.4166667E+00  0.1666667E+00  0.0000000E+00  0.5208333E-02
      1          3.729000        4.705189   1.000000   1.000000
      2          3.783926        5.132657   1.000000   1.000000
      3          3.801194        5.229573   1.000000   1.000000
      4          4.750785        5.687576   1.000000   1.000000
      5          4.822697        6.556822   1.000000   1.000000
      6          5.017210        6.660658   1.000000   1.000000
      7          5.367398        7.111254   1.000000   1.000000
      8          6.220861        8.192647   1.000000   0.000000
      9          6.300273        8.315402   1.000000   0.000000
     10          6.318610        8.336767   1.000000   0.000000
     11          9.025716       10.023554   0.000000   0.000000
     12         10.100588       11.091735   0.000000   0.000000
     13         16.009967       16.334886   0.000000   0.000000
     14         16.264443       16.615115   0.000000   0.000000
     15         16.490803       16.791970   0.000000   0.000000
     16         18.545835       18.968197   0.000000   0.000000
     17         19.037887       19.514086   0.000000   0.000000
     18         23.739267       23.800416   0.000000   0.000000
     19         24.473662       24.785819   0.000000   0.000000
     20         30.510777       30.742261   0.000000   0.000000
     21         35.655119       35.511070   0.000000   0.000000
     22         38.051269       38.206353   0.000000   0.000000
     23         38.687085       38.600434   0.000000   0.000000
     24         40.154794       40.136560   0.000000   0.000000
 
  0.2500000E+00  0.2500000E+00  0.0000000E+00  0.5208333E-02
      1          3.673941        4.174456   1.000000   1.000000
      2          3.900384        5.320997   1.000000   1.000000
      3          4.124656        5.476449   1.000000   1.000000
      4          4.194979        5.490076   1.000000   1.000000
      5          4.772392        6.464288   1.000000   1.000000
      6          5.097115        6.790816   1.000000   1.000000
      7          5.312260        7.035670   1.000000   1.000000
      8          5.877629        7.798336   1.000000   0.000000
      9          6.274045        8.305735   1.000000   0.000000
     10          6.338657        8.332113   1.000000   0.000000
     11          7.751922        9.256942   0.000000   0.000000
     12         13.536057       13.991354   0.000000   0.000000
     13         14.141123       14.639139   0.000000   0.000000
     14         14.900502       15.381036   0.000000   0.000000
     15         15.646396       16.079433   0.000000   0.000000
     16         21.449419       21.758779   0.000000   0.000000
     17         22.101355       22.274808   0.000000   0.000000
     18         22.197995       22.465359   0.000000   0.000000
     19         22.749730       23.089695   0.000000   0.000000
     20         33.884376       34.022202   0.000000   0.000000
     21         35.134795       35.385266   0.000000   0.000000
     22         36.580216       36.425211   0.000000   0.000000
     23         38.286434       38.317400   0.000000   0.000000
     24         40.220249       40.134345   0.000000   0.000000
 
  0.3333333E+00  0.2500000E+00  0.0000000E+00  0.1041667E-01
      1          3.845580        4.907757   1.000000   1.000000
      2          3.927436        5.307070   1.000000   1.000000
      3          4.035055        5.355756   1.000000   1.000000
      4          4.423184        5.501058   1.000000   1.000000
      5          4.786843        6.463589   1.000000   1.000000
      6          4.962468        6.617652   1.000000   1.000000
      7          5.429124        7.185064   1.000000   1.000000
      8          6.065833        8.015143   1.000000   0.000000
      9          6.256991        8.285281   1.000000   0.000000
     10          6.300980        8.291758   1.000000   0.000000
     11          9.249135       10.307383   0.000000   0.000000
     12         11.433025       12.146040   0.000000   0.000000
     13         13.559071       14.038109   0.000000   0.000000
     14         16.663872       17.059862   0.000000   0.000000
     15         16.841496       17.174016   0.000000   0.000000
     16         19.398556       19.747643   0.000000   0.000000
     17         20.004336       20.415338   0.000000   0.000000
     18         21.652368       21.804680   0.000000   0.000000
     19         22.086476       22.431297   0.000000   0.000000
     20         34.150353       34.326482   0.000000   0.000000
     21         37.912498       37.879135   0.000000   0.000000
     22         38.083915       37.998027   0.000000   0.000000
     23         39.586150       39.623223   0.000000   0.000000
     24         40.452691       40.430086   0.000000   0.000000
 
  0.3333333E+00  0.3333333E+00  0.0000000E+00  0.1736111E-02
      1          3.849651        5.264758   1.000000   1.000000
      2          4.085315        5.264760   1.000000   1.000000
      3          4.085315        5.336437   1.000000   1.000000
      4          4.349800        5.488656   1.000000   1.000000
      5          4.843714        6.493315   1.000000   1.000000
      6          4.843714        6.493315   1.000000   1.000000
      7          5.497719        7.265111   1.000000   0.999946
      8          6.164885        8.133206   1.000000   0.000000
      9          6.164886        8.133207   1.000000   0.000000
     10          6.239354        8.264326   1.000000   0.000000
     11         10.973437       11.668674   0.000000   0.000000
     12         11.352870       12.081931   0.000000   0.000000
     13         11.352873       12.081932   0.000000   0.000000
     14         17.780043       18.062152   0.000000   0.000000
     15         18.365062       18.722832   0.000000   0.000000