       N       E                     dE             d eps       ncg     rms          rms(c)
DAV:   1     0.629634368201E+01    0.62963E+01   -0.83582E+03  9120   0.817E+02
DAV:   2    -0.151544023898E+02   -0.21451E+02   -0.21116E+02 10800   0.703E+01
DAV:   3    -0.153041156789E+02   -0.14971E+00   -0.14964E+00 11976   0.768E+00
DAV:   4    -0.153052096360E+02   -0.10940E-02   -0.10939E-02 12816   0.381E-01
DAV:   5    -0.153052134832E+02   -0.38472E-05   -0.38467E-05 12456   0.146E-02    0.132E+01
DAV:   6    -0.143268479255E+02    0.97837E+00   -0.42667E+01 11160   0.513E+01    0.966E+00
DAV:   7    -0.134777768866E+02    0.84907E+00   -0.71227E+00 11280   0.191E+01    0.333E+00
DAV:   8    -0.134764961758E+02    0.12807E-02   -0.30307E-02 10656   0.764E-01    0.126E+00
DAV:   9    -0.134676564114E+02    0.88398E-02   -0.18810E-02 14232   0.596E-01    0.479E-01
DAV:  10    -0.134658590486E+02    0.17974E-02   -0.35799E-03 15960   0.277E-01    0.109E-01
DAV:  11    -0.134660144337E+02   -0.15539E-03   -0.75582E-04 12768   0.165E-01    0.486E-02
DAV:  12    -0.134659925385E+02    0.21895E-04   -0.62902E-05 12672   0.360E-02    0.300E-02
DAV:  13    -0.134659945988E+02   -0.20603E-05   -0.30569E-06 10392   0.142E-02    0.121E-02
DAV:  14    -0.134659941097E+02    0.48909E-06   -0.22348E-07  5160   0.226E-03
   1 F= -.13465994E+02 E0= -.13464340E+02  d E =-.134660E+02  mag=     3.4948
