 vasp.6.3.2 27Jun22 (build Aug 12 2022 00:53:59) complex                        
  
 executed on               tv2STD date 2024.12.03  01:30:35
 running   24 mpi-ranks, with    1 threads/rank
 distrk:  each k-point on   24 cores,    1 groups
 distr:  one band on NCORE=   1 cores,   24 groups


--------------------------------------------------------------------------------------------------------


 INCAR:
   SYSTEM = Co-hcc
   NWRITE = 2    write-flag
   ISTART = 0    job   : 0-new, 1-cont, 2-samecut
   ICHARG = 2    charge: 0-wave, 1-file, 2-atom, >10-const
   INIWAV = 1    electr: 0-lowe 1-rand  2-diag
   ENCUT = 425.0     energy cutoff in eV
   PREC = Accurate      normal | accurate
   ADDGRID = .FALSE.  (use fine grid)
   NELM = 100     number of ELM steps
   EDIFF = 1E-06    energy stopping-criterion for ELM
   LREAL = .FALSE.      real-space projection (.FALSE., .TRUE., On, Auto)
   ALGO = Normal     Normal, Fast, Very_Fast
   LWAVE = .FALSE.
   LCHARG = .FALSE.
   NSW = 100       max number of geometry steps
   IBRION = 2     ionic relax: 0-MD, 1-quasi-Newton, 2-CG, 3-Damped MD
   EDIFFG = -0.02  force (eV/A) stopping-criterion for geometry steps
   ISIF = 2     (1:force\=y stress\=trace only ions\=y shape\=n volume\=n)
   ISYM = 1     (1-use symmetry, 0-no symmetry)
   ISMEAR = 0     (-1-Fermi, 1-Methfessel/Paxton)
   SIGMA = 0.05   broadening in eV
   LORBIT = 11
   ISPIN = 2
   MAGMOM = 2*3

 POTCAR:    PAW_PBE Co 02Aug2007                  
 POTCAR:    PAW_PBE Co 02Aug2007                  
   SHA256 =  0e690c60710354995174544f52f9f2c30879afabeffe3b3fbd4001cb294e56d4 Co/POTCAR             
   COPYR  = (c) Copyright 02Aug2007 Georg Kresse                                                    
   COPYR  = This file is part of the software VASP. Any use, copying, and all other rights are regul
   COPYR  = If you do not have a valid VASP license, you may not use, copy or distribute this file. 
   VRHFIN =Co: d8 s1                                                                                
   LEXCH  = PE                                                                                      
   EATOM  =   813.3670 eV,   59.7808 Ry                                                             
                                                                                                    
   TITEL  = PAW_PBE Co 02Aug2007                                                                    
   LULTRA =        F    use ultrasoft PP ?                                                          
   IUNSCR =        1    unscreen: 0-lin 1-nonlin 2-no                                               
   RPACOR =    2.000    partial core radius                                                         
   POMASS =   58.933; ZVAL   =    9.000    mass and valenz                                          
   RCORE  =    2.300    outmost cutoff radius                                                       
   RWIGS  =    2.460; RWIGS  =    1.302    wigner-seitz radius (au A)                               
   ENMAX  =  267.968; ENMIN  =  200.976 eV                                                          
   RCLOC  =    1.203    cutoff for local pot                                                        
   LCOR   =        T    correct aug charges                                                         
   LPAW   =        T    paw PP                                                                      
   EAUG   =  477.818                                                                                
   DEXC   =    0.000                                                                                
   RMAX   =    2.360    core radius for proj-oper                                                   
   RAUG   =    1.300    factor for augmentation sphere                                              
   RDEP   =    2.393    radius for radial grids                                                     
   RDEPT  =    1.864    core radius for aug-charge                                                  
                                                                                                    
   Atomic configuration                                                                             
    9 entries                                                                                       
     n  l   j            E        occ.                                                              
     1  0  0.50     -7587.6674   2.0000                                                             
     2  0  0.50      -893.6084   2.0000                                                             
     2  1  1.50      -764.5805   6.0000                                                             
     3  0  0.50       -97.5973   2.0000                                                             
     3  1  1.50       -60.9648   6.0000                                                             
     3  2  2.50        -4.2382   8.0000                                                             
     4  0  0.50        -4.3746   1.0000                                                             
     4  1  1.50        -4.0817   0.0000                                                             
     4  3  2.50        -1.3606   0.0000                                                             
   Description                                                                                      
     l       E           TYP  RCUT    TYP  RCUT                                                     
     2     -4.2382362     23  2.300                                                                 
     2     -5.5988188     23  2.300                                                                 
     0     -4.3745797     23  2.300                                                                 
     0      5.7660125     23  2.300                                                                 
     1     -2.7211652     23  2.300                                                                 
     1     16.9860234     23  2.300                                                                 
  local pseudopotential read in
  partial core-charges read in
  partial kinetic energy density read in
  atomic valenz-charges read in
  non local Contribution for L=           2  read in
    real space projection operators read in
  non local Contribution for L=           2  read in
    real space projection operators read in
  non local Contribution for L=           0  read in
    real space projection operators read in
  non local Contribution for L=           0  read in
    real space projection operators read in
  non local Contribution for L=           1  read in
    real space projection operators read in
  non local Contribution for L=           1  read in
    real space projection operators read in
    PAW grid and wavefunctions read in
 
   number of l-projection  operators is LMAX  =           6
   number of lm-projection operators is LMMAX =          18
 
  PAW_PBE Co 02Aug2007                  :
 energy of atom  1       EATOM= -813.3670
 kinetic energy error for atom=    0.0054 (will be added to EATOM!!)
 
 
 POSCAR: Co
  positions in cartesian coordinates
  No initial velocities read in
 exchange correlation table for  LEXCH =        8
   RHO(1)=    0.500       N(1)  =     2000
   RHO(2)=  100.500       N(2)  =     4000
 


--------------------------------------------------------------------------------------------------------


 ion  position               nearest neighbor table
   1  0.333  0.667  0.250-   2 2.67   2 2.67   2 2.67   2 2.67   2 2.67   2 2.67
   2  0.667  0.333  0.750-   1 2.67   1 2.67   1 2.67   1 2.67   1 2.67   1 2.67
 
  LATTYP: Found a hexagonal cell.
 ALAT       =     2.6916576587
 C/A-ratio  =     1.6130472937
  
  Lattice vectors:
  
 A1 = (   1.3458288293,  -2.3310439107,   0.0000000000)
 A2 = (   1.3458288293,   2.3310439107,   0.0000000000)
 A3 = (   0.0000000000,   0.0000000000,   4.3417711020)


Analysis of symmetry for initial positions (statically):
=====================================================================
 Subroutine PRICEL returns:
 Original cell was already a primitive cell.
 

 Routine SETGRP: Setting up the symmetry group for a 
 hexagonal supercell.


 Subroutine GETGRP returns: Found 24 space group operations
 (whereof 12 operations were pure point group operations)
 out of a pool of 24 trial point group operations.


The static configuration has the point symmetry D_3d.
 The point group associated with its full space group is D_6h.


Analysis of symmetry for dynamics (positions and initial velocities):
=====================================================================
 Subroutine PRICEL returns:
 Original cell was already a primitive cell.
 

 Routine SETGRP: Setting up the symmetry group for a 
 hexagonal supercell.


 Subroutine GETGRP returns: Found 24 space group operations
 (whereof 12 operations were pure point group operations)
 out of a pool of 24 trial point group operations.


The dynamic configuration has the point symmetry D_3d.
 The point group associated with its full space group is D_6h.


Analysis of structural, dynamic, and magnetic symmetry:
=====================================================================
 Subroutine PRICEL returns:
 Original cell was already a primitive cell.
 

 Routine SETGRP: Setting up the symmetry group for a 
 hexagonal supercell.


 Subroutine GETGRP returns: Found 24 space group operations
 (whereof 12 operations were pure point group operations)
 out of a pool of 24 trial point group operations.


The overall configuration has the point symmetry D_3d.
 The point group associated with its full space group is D_6h.


 Subroutine INISYM returns: Found 24 space group operations
 (whereof 12 operations are pure point group operations),
 and found     1 'primitive' translations


----------------------------------------------------------------------------------------

                                     Primitive cell                                     

  volume of cell :      27.2419

  direct lattice vectors                    reciprocal lattice vectors
     1.345828829 -2.331043911  0.000000000     0.371518271 -0.214496174  0.000000000
     1.345828829  2.331043911  0.000000000     0.371518271  0.214496174  0.000000000
     0.000000000  0.000000000  4.341771102     0.000000000  0.000000000  0.230320755

  length of vectors
     2.691657659  2.691657659  4.341771102     0.428992348  0.428992348  0.230320755

  position of ions in fractional coordinates (direct lattice)
     0.333333333  0.666666667  0.250000000
     0.666666667  0.333333333  0.750000000

  ion indices of the primitive-cell ions
   primitive index   ion index
                 1           1
                 2           2

----------------------------------------------------------------------------------------

 
 
 KPOINTS: Automatic mesh                          

Automatic generation of k-mesh.
 Grid dimensions read from file:
 generate k-points for:   12   12    8

 Generating k-lattice:

  Cartesian coordinates                     Fractional coordinates (reciprocal lattice)
     0.030959856 -0.017874681  0.000000000     0.083333333  0.000000000  0.000000000
     0.030959856  0.017874681  0.000000000     0.000000000  0.083333333  0.000000000
     0.000000000  0.000000000  0.028790094     0.000000000  0.000000000  0.125000000

  Length of vectors
     0.035749362  0.035749362  0.028790094

  Shift w.r.t. Gamma in fractional coordinates (k-lattice)
     0.000000000  0.000000000  0.000000000

 
 Subroutine IBZKPT returns following result:
 ===========================================
 
 Found     95 irreducible k-points:
 
 Following reciprocal coordinates:
            Coordinates               Weight
  0.000000  0.000000  0.000000      1.000000
  0.083333 -0.000000  0.000000      6.000000
  0.166667  0.000000  0.000000      6.000000
  0.250000  0.000000  0.000000      6.000000
  0.333333  0.000000  0.000000      6.000000
  0.416667  0.000000  0.000000      6.000000
  0.500000  0.000000  0.000000      3.000000
  0.083333  0.083333  0.000000      6.000000
  0.166667  0.083333  0.000000     12.000000
  0.250000  0.083333  0.000000     12.000000
  0.333333  0.083333  0.000000     12.000000
  0.416667  0.083333  0.000000     12.000000
  0.166667  0.166667  0.000000      6.000000
  0.250000  0.166667  0.000000     12.000000
  0.333333  0.166667  0.000000     12.000000
  0.416667  0.166667  0.000000      6.000000
  0.250000  0.250000  0.000000      6.000000
  0.333333  0.250000  0.000000     12.000000
  0.333333  0.333333  0.000000      2.000000
  0.000000  0.000000  0.125000      2.000000
  0.083333 -0.000000  0.125000     12.000000
  0.166667  0.000000  0.125000     12.000000
  0.250000  0.000000  0.125000     12.000000
  0.333333  0.000000  0.125000     12.000000
  0.416667  0.000000  0.125000     12.000000
  0.500000  0.000000  0.125000      6.000000
  0.083333  0.083333  0.125000     12.000000
  0.166667  0.083333  0.125000     24.000000
  0.250000  0.083333  0.125000     24.000000
  0.333333  0.083333  0.125000     24.000000
  0.416667  0.083333  0.125000     24.000000
  0.166667  0.166667  0.125000     12.000000
  0.250000  0.166667  0.125000     24.000000
  0.333333  0.166667  0.125000     24.000000
  0.416667  0.166667  0.125000     12.000000
  0.250000  0.250000  0.125000     12.000000
  0.333333  0.250000  0.125000     24.000000
  0.333333  0.333333  0.125000      4.000000
  0.000000  0.000000  0.250000      2.000000
  0.083333 -0.000000  0.250000     12.000000
  0.166667  0.000000  0.250000     12.000000
  0.250000  0.000000  0.250000     12.000000
  0.333333  0.000000  0.250000     12.000000
  0.416667  0.000000  0.250000     12.000000
  0.500000  0.000000  0.250000      6.000000
  0.083333  0.083333  0.250000     12.000000
  0.166667  0.083333  0.250000     24.000000
  0.250000  0.083333  0.250000     24.000000
  0.333333  0.083333  0.250000     24.000000
  0.416667  0.083333  0.250000     24.000000
  0.166667  0.166667  0.250000     12.000000
  0.250000  0.166667  0.250000     24.000000
  0.333333  0.166667  0.250000     24.000000
  0.416667  0.166667  0.250000     12.000000
  0.250000  0.250000  0.250000     12.000000
  0.333333  0.250000  0.250000     24.000000
  0.333333  0.333333  0.250000      4.000000
  0.000000  0.000000  0.375000      2.000000
  0.083333 -0.000000  0.375000     12.000000
  0.166667  0.000000  0.375000     12.000000
  0.250000  0.000000  0.375000     12.000000
  0.333333  0.000000  0.375000     12.000000
  0.416667  0.000000  0.375000     12.000000
  0.500000  0.000000  0.375000      6.000000
  0.083333  0.083333  0.375000     12.000000
  0.166667  0.083333  0.375000     24.000000
  0.250000  0.083333  0.375000     24.000000
  0.333333  0.083333  0.375000     24.000000
  0.416667  0.083333  0.375000     24.000000
  0.166667  0.166667  0.375000     12.000000
  0.250000  0.166667  0.375000     24.000000
  0.333333  0.166667  0.375000     24.000000
  0.416667  0.166667  0.375000     12.000000
  0.250000  0.250000  0.375000     12.000000
  0.333333  0.250000  0.375000     24.000000
  0.333333  0.333333  0.375000      4.000000
  0.000000  0.000000  0.500000      1.000000
  0.083333 -0.000000  0.500000      6.000000
  0.166667  0.000000  0.500000      6.000000
  0.250000  0.000000  0.500000      6.000000
  0.333333  0.000000  0.500000      6.000000
  0.416667  0.000000  0.500000      6.000000
  0.500000  0.000000  0.500000      3.000000
  0.083333  0.083333  0.500000      6.000000
  0.166667  0.083333  0.500000     12.000000
  0.250000  0.083333  0.500000     12.000000
  0.333333  0.083333  0.500000     12.000000
  0.416667  0.083333  0.500000     12.000000
  0.166667  0.166667  0.500000      6.000000
  0.250000  0.166667  0.500000     12.000000
  0.333333  0.166667  0.500000     12.000000
  0.416667  0.166667  0.500000      6.000000
  0.250000  0.250000  0.500000      6.000000
  0.333333  0.250000  0.500000     12.000000
  0.333333  0.333333  0.500000      2.000000
 
 Following cartesian coordinates:
            Coordinates               Weight
  0.000000  0.000000  0.000000      1.000000
  0.030960 -0.017875  0.000000      6.000000
  0.061920 -0.035749  0.000000      6.000000
  0.092880 -0.053624  0.000000      6.000000
  0.123839 -0.071499  0.000000      6.000000
  0.154799 -0.089373  0.000000      6.000000
  0.185759 -0.107248  0.000000      3.000000
  0.061920  0.000000  0.000000      6.000000
  0.092880 -0.017875  0.000000     12.000000
  0.123839 -0.035749  0.000000     12.000000
  0.154799 -0.053624  0.000000     12.000000
  0.185759 -0.071499  0.000000     12.000000
  0.123839  0.000000  0.000000      6.000000
  0.154799 -0.017875  0.000000     12.000000
  0.185759 -0.035749  0.000000     12.000000
  0.216719 -0.053624  0.000000      6.000000
  0.185759  0.000000  0.000000      6.000000
  0.216719 -0.017875  0.000000     12.000000
  0.247679  0.000000  0.000000      2.000000
  0.000000  0.000000  0.028790      2.000000
  0.030960 -0.017875  0.028790     12.000000
  0.061920 -0.035749  0.028790     12.000000
  0.092880 -0.053624  0.028790     12.000000
  0.123839 -0.071499  0.028790     12.000000
  0.154799 -0.089373  0.028790     12.000000
  0.185759 -0.107248  0.028790      6.000000
  0.061920  0.000000  0.028790     12.000000
  0.092880 -0.017875  0.028790     24.000000
  0.123839 -0.035749  0.028790     24.000000
  0.154799 -0.053624  0.028790     24.000000
  0.185759 -0.071499  0.028790     24.000000
  0.123839  0.000000  0.028790     12.000000
  0.154799 -0.017875  0.028790     24.000000
  0.185759 -0.035749  0.028790     24.000000
  0.216719 -0.053624  0.028790     12.000000
  0.185759  0.000000  0.028790     12.000000
  0.216719 -0.017875  0.028790     24.000000
  0.247679  0.000000  0.028790      4.000000
  0.000000  0.000000  0.057580      2.000000
  0.030960 -0.017875  0.057580     12.000000
  0.061920 -0.035749  0.057580     12.000000
  0.092880 -0.053624  0.057580     12.000000
  0.123839 -0.071499  0.057580     12.000000
  0.154799 -0.089373  0.057580     12.000000
  0.185759 -0.107248  0.057580      6.000000
  0.061920  0.000000  0.057580     12.000000
  0.092880 -0.017875  0.057580     24.000000
  0.123839 -0.035749  0.057580     24.000000
  0.154799 -0.053624  0.057580     24.000000
  0.185759 -0.071499  0.057580     24.000000
  0.123839  0.000000  0.057580     12.000000
  0.154799 -0.017875  0.057580     24.000000
  0.185759 -0.035749  0.057580     24.000000
  0.216719 -0.053624  0.057580     12.000000
  0.185759  0.000000  0.057580     12.000000
  0.216719 -0.017875  0.057580     24.000000
  0.247679  0.000000  0.057580      4.000000
  0.000000  0.000000  0.086370      2.000000
  0.030960 -0.017875  0.086370     12.000000
  0.061920 -0.035749  0.086370     12.000000
  0.092880 -0.053624  0.086370     12.000000
  0.123839 -0.071499  0.086370     12.000000
  0.154799 -0.089373  0.086370     12.000000
  0.185759 -0.107248  0.086370      6.000000
  0.061920  0.000000  0.086370     12.000000
  0.092880 -0.017875  0.086370     24.000000
  0.123839 -0.035749  0.086370     24.000000
  0.154799 -0.053624  0.086370     24.000000
  0.185759 -0.071499  0.086370     24.000000
  0.123839  0.000000  0.086370     12.000000
  0.154799 -0.017875  0.086370     24.000000
  0.185759 -0.035749  0.086370     24.000000
  0.216719 -0.053624  0.086370     12.000000
  0.185759  0.000000  0.086370     12.000000
  0.216719 -0.017875  0.086370     24.000000
  0.247679  0.000000  0.086370      4.000000
  0.000000  0.000000  0.115160      1.000000
  0.030960 -0.017875  0.115160      6.000000
  0.061920 -0.035749  0.115160      6.000000
  0.092880 -0.053624  0.115160      6.000000
  0.123839 -0.071499  0.115160      6.000000
  0.154799 -0.089373  0.115160      6.000000
  0.185759 -0.107248  0.115160      3.000000
  0.061920  0.000000  0.115160      6.000000
  0.092880 -0.017875  0.115160     12.000000
  0.123839 -0.035749  0.115160     12.000000
  0.154799 -0.053624  0.115160     12.000000
  0.185759 -0.071499  0.115160     12.000000
  0.123839  0.000000  0.115160      6.000000
  0.154799 -0.017875  0.115160     12.000000
  0.185759 -0.035749  0.115160     12.000000
  0.216719 -0.053624  0.115160      6.000000
  0.185759  0.000000  0.115160      6.000000
  0.216719 -0.017875  0.115160     12.000000
  0.247679  0.000000  0.115160      2.000000
 


--------------------------------------------------------------------------------------------------------




 Dimension of arrays:
   k-points           NKPTS =     95   k-points in BZ     NKDIM =     95   number of bands    NBANDS=     24
   number of dos      NEDOS =    301   number of ions     NIONS =      2
   non local maximal  LDIM  =      6   non local SUM 2l+1 LMDIM =     18
   total plane-waves  NPLWV =   9720
   max r-space proj   IRMAX =      1   max aug-charges    IRDMAX=  14270
   dimension x,y,z NGX =    18 NGY =   18 NGZ =   30
   dimension x,y,z NGXF=    36 NGYF=   36 NGZF=   60
   support grid    NGXF=    36 NGYF=   36 NGZF=   60
   ions per type =               2
   NGX,Y,Z   is equivalent  to a cutoff of  11.12, 11.12, 11.49 a.u.
   NGXF,Y,Z  is equivalent  to a cutoff of  22.23, 22.23, 22.97 a.u.

 SYSTEM =  Co-hcc                                  
 POSCAR =  Co                                      

 Startparameter for this run:
   NWRITE =      2    write-flag & timer
   PREC   = accura    normal or accurate (medium, high low for compatibility)
   ISTART =      0    job   : 0-new  1-cont  2-samecut
   ICHARG =      2    charge: 1-file 2-atom 10-const
   ISPIN  =      2    spin polarized calculation?
   LNONCOLLINEAR =      F non collinear calculations
   LSORBIT =      F    spin-orbit coupling
   INIWAV =      1    electr: 0-lowe 1-rand  2-diag
   LASPH  =      F    aspherical Exc in radial PAW
 Electronic Relaxation 1
   ENCUT  =  425.0 eV  31.24 Ry    5.59 a.u.   4.52  4.52  7.30*2*pi/ulx,y,z
   ENINI  =  425.0     initial cutoff
   ENAUG  =  477.8 eV  augmentation charge cutoff
   NELM   =    100;   NELMIN=  2; NELMDL= -5     # of ELM steps 
   EDIFF  = 0.1E-05   stopping-criterion for ELM
   LREAL  =      F    real-space projection
   NLSPLINE    = F    spline interpolate recip. space projectors
   LCOMPAT=      F    compatible to vasp.4.4
   GGA_COMPAT  = T    GGA compatible to vasp.4.4-vasp.4.6
   LMAXPAW     = -100 max onsite density
   LMAXMIX     =    2 max onsite mixed and CHGCAR
   VOSKOWN=      0    Vosko Wilk Nusair interpolation
   ROPT   =    0.00000
 Ionic relaxation
   EDIFFG = -.2E-01   stopping-criterion for IOM
   NSW    =    100    number of steps for IOM
   NBLOCK =      1;   KBLOCK =    100    inner block; outer block 
   IBRION =      2    ionic relax: 0-MD 1-quasi-New 2-CG
   NFREE  =      1    steps in history (QN), initial steepest desc. (CG)
   ISIF   =      2    stress and relaxation
   IWAVPR =     11    prediction:  0-non 1-charg 2-wave 3-comb
   ISYM   =      1    0-nonsym 1-usesym 2-fastsym
   LCORR  =      T    Harris-Foulkes like correction to forces

   POTIM  = 0.5000    time-step for ionic-motion
   TEIN   =    0.0    initial temperature
   TEBEG  =    0.0;   TEEND  =   0.0 temperature during run
   SMASS  =  -3.00    Nose mass-parameter (am)
   estimated Nose-frequenzy (Omega)   =  0.10E-29 period in steps = 0.13E+47 mass=  -0.166E-27a.u.
   SCALEE = 1.0000    scale energy and forces
   NPACO  =    256;   APACO  = 10.0  distance and # of slots for P.C.
   PSTRESS=    0.0 pullay stress

  Mass of Ions in am
   POMASS =  58.93
  Ionic Valenz
   ZVAL   =   9.00
  Atomic Wigner-Seitz radii
   RWIGS  =  -1.00
  virtual crystal weights 
   VCA    =   1.00
   NELECT =      18.0000    total number of electrons
   NUPDOWN=      -1.0000    fix difference up-down

 DOS related values:
   EMIN   =  10.00;   EMAX   =-10.00  energy-range for DOS
   EFERMI =   0.00
   ISMEAR =     0;   SIGMA  =   0.05  broadening in eV -4-tet -1-fermi 0-gaus

 Electronic relaxation 2 (details)
   IALGO  =     38    algorithm
   LDIAG  =      T    sub-space diagonalisation (order eigenvalues)
   LSUBROT=      F    optimize rotation matrix (better conditioning)
   TURBO    =      0    0=normal 1=particle mesh
   IRESTART =      0    0=no restart 2=restart with 2 vectors
   NREBOOT  =      0    no. of reboots
   NMIN     =      0    reboot dimension
   EREF     =   0.00    reference energy to select bands
   IMIX   =      4    mixing-type and parameters
     AMIX     =   0.40;   BMIX     =  1.00
     AMIX_MAG =   1.60;   BMIX_MAG =  1.00
     AMIN     =   0.10
     WC   =   100.;   INIMIX=   1;  MIXPRE=   1;  MAXMIX= -45

 Intra band minimization:
   WEIMIN = 0.0010     energy-eigenvalue tresh-hold
   EBREAK =  0.10E-07  absolut break condition
   DEPER  =   0.30     relativ break condition  

   TIME   =   0.40     timestep for ELM

  volume/ion in A,a.u.               =      13.62        91.92
  Fermi-wavevector in a.u.,A,eV,Ry     =   1.425892  2.694545 27.662926  2.033168
  Thomas-Fermi vector in A             =   2.546227
 
 Write flags
   LWAVE        =      F    write WAVECAR
   LDOWNSAMPLE  =      F    k-point downsampling of WAVECAR
   LCHARG       =      F    write CHGCAR
   LVTOT        =      F    write LOCPOT, total local potential
   LVHAR        =      F    write LOCPOT, Hartree potential only
   LELF         =      F    write electronic localiz. function (ELF)
   LORBIT       =     11    0 simple, 1 ext, 2 COOP (PROOUT), +10 PAW based schemes


 Dipole corrections
   LMONO  =      F    monopole corrections only (constant potential shift)
   LDIPOL =      F    correct potential (dipole corrections)
   IDIPOL =      0    1-x, 2-y, 3-z, 4-all directions 
   EPSILON=  1.0000000 bulk dielectric constant

 Exchange correlation treatment:
   GGA     =    --    GGA type
   LEXCH   =     8    internal setting for exchange type
   LIBXC   =     F    Libxc                    
   VOSKOWN =     0    Vosko Wilk Nusair interpolation
   LHFCALC =     F    Hartree Fock is set to
   LHFONE  =     F    Hartree Fock one center treatment
   AEXX    =    0.0000 exact exchange contribution

 Linear response parameters
   LEPSILON=     F    determine dielectric tensor
   LRPA    =     F    only Hartree local field effects (RPA)
   LNABLA  =     F    use nabla operator in PAW spheres
   LVEL    =     F    velocity operator in full k-point grid
   CSHIFT  =0.1000    complex shift for real part using Kramers Kronig
   OMEGAMAX=  -1.0    maximum frequency
   DEG_THRESHOLD= 0.2000000E-02 threshold for treating states as degnerate
   RTIME   =   -0.100 relaxation time in fs
  (WPLASMAI=    0.000 imaginary part of plasma frequency in eV, 0.658/RTIME)
   DFIELD  = 0.0000000 0.0000000 0.0000000 field for delta impulse in time
 
  Optional k-point grid parameters
   LKPOINTS_OPT  =     F    use optional k-point grid
   KPOINTS_OPT_MODE=     1    mode for optional k-point grid
 
 Orbital magnetization related:
   ORBITALMAG=     F  switch on orbital magnetization
   LCHIMAG   =     F  perturbation theory with respect to B field
   DQ        =  0.001000  dq finite difference perturbation B field
   LLRAUG    =     F  two centre corrections for induced B field



--------------------------------------------------------------------------------------------------------


 conjugate gradient relaxation of ions
 charge density and potential will be updated during run
 spin polarized calculation
 Variant of blocked Davidson
 Davidson routine will perform the subspace rotation
 perform sub-space diagonalisation
    after iterative eigenvector-optimisation
 modified Broyden-mixing scheme, WC =      100.0
 initial mixing is a Kerker type mixing with AMIX =  0.4000 and BMIX =      1.0000
 Hartree-type preconditioning will be used
 using additional bands           15
 reciprocal scheme for non local part
 use partial core corrections
 calculate Harris-corrections to forces 
   (improved forces if not selfconsistent)
 use gradient corrections 
 use of overlap-Matrix (Vanderbilt PP)
 Gauss-broadening in eV      SIGMA  =   0.05


--------------------------------------------------------------------------------------------------------


  energy-cutoff  :      425.00
  volume of cell :       27.24
      direct lattice vectors                 reciprocal lattice vectors
     1.345828829 -2.331043911  0.000000000     0.371518271 -0.214496174  0.000000000
     1.345828829  2.331043911  0.000000000     0.371518271  0.214496174  0.000000000
     0.000000000  0.000000000  4.341771102     0.000000000  0.000000000  0.230320755

  length of vectors
     2.691657659  2.691657659  4.341771102     0.428992348  0.428992348  0.230320755


 
 k-points in units of 2pi/SCALE and weight: Automatic mesh                          
   0.00000000  0.00000000  0.00000000       0.001
   0.03095986 -0.01787468  0.00000000       0.005
   0.06191971 -0.03574936  0.00000000       0.005
   0.09287957 -0.05362404  0.00000000       0.005
   0.12383942 -0.07149872  0.00000000       0.005
   0.15479928 -0.08937341  0.00000000       0.005
   0.18575914 -0.10724809  0.00000000       0.003
   0.06191971  0.00000000  0.00000000       0.005
   0.09287957 -0.01787468  0.00000000       0.010
   0.12383942 -0.03574936  0.00000000       0.010
   0.15479928 -0.05362404  0.00000000       0.010
   0.18575914 -0.07149872  0.00000000       0.010
   0.12383942  0.00000000  0.00000000       0.005
   0.15479928 -0.01787468  0.00000000       0.010
   0.18575914 -0.03574936  0.00000000       0.010
   0.21671899 -0.05362404  0.00000000       0.005
   0.18575914  0.00000000  0.00000000       0.005
   0.21671899 -0.01787468  0.00000000       0.010
   0.24767885  0.00000000  0.00000000       0.002
   0.00000000  0.00000000  0.02879009       0.002
   0.03095986 -0.01787468  0.02879009       0.010
   0.06191971 -0.03574936  0.02879009       0.010
   0.09287957 -0.05362404  0.02879009       0.010
   0.12383942 -0.07149872  0.02879009       0.010
   0.15479928 -0.08937341  0.02879009       0.010
   0.18575914 -0.10724809  0.02879009       0.005
   0.06191971  0.00000000  0.02879009       0.010
   0.09287957 -0.01787468  0.02879009       0.021
   0.12383942 -0.03574936  0.02879009       0.021
   0.15479928 -0.05362404  0.02879009       0.021
   0.18575914 -0.07149872  0.02879009       0.021
   0.12383942  0.00000000  0.02879009       0.010
   0.15479928 -0.01787468  0.02879009       0.021
   0.18575914 -0.03574936  0.02879009       0.021
   0.21671899 -0.05362404  0.02879009       0.010
   0.18575914  0.00000000  0.02879009       0.010
   0.21671899 -0.01787468  0.02879009       0.021
   0.24767885  0.00000000  0.02879009       0.003
   0.00000000  0.00000000  0.05758019       0.002
   0.03095986 -0.01787468  0.05758019       0.010
   0.06191971 -0.03574936  0.05758019       0.010
   0.09287957 -0.05362404  0.05758019       0.010
   0.12383942 -0.07149872  0.05758019       0.010
   0.15479928 -0.08937341  0.05758019       0.010
   0.18575914 -0.10724809  0.05758019       0.005
   0.06191971  0.00000000  0.05758019       0.010
   0.09287957 -0.01787468  0.05758019       0.021
   0.12383942 -0.03574936  0.05758019       0.021
   0.15479928 -0.05362404  0.05758019       0.021
   0.18575914 -0.07149872  0.05758019       0.021
   0.12383942  0.00000000  0.05758019       0.010
   0.15479928 -0.01787468  0.05758019       0.021
   0.18575914 -0.03574936  0.05758019       0.021
   0.21671899 -0.05362404  0.05758019       0.010
   0.18575914  0.00000000  0.05758019       0.010
   0.21671899 -0.01787468  0.05758019       0.021
   0.24767885  0.00000000  0.05758019       0.003
   0.00000000  0.00000000  0.08637028       0.002
   0.03095986 -0.01787468  0.08637028       0.010
   0.06191971 -0.03574936  0.08637028       0.010
   0.09287957 -0.05362404  0.08637028       0.010
   0.12383942 -0.07149872  0.08637028       0.010
   0.15479928 -0.08937341  0.08637028       0.010
   0.18575914 -0.10724809  0.08637028       0.005
   0.06191971  0.00000000  0.08637028       0.010
   0.09287957 -0.01787468  0.08637028       0.021
   0.12383942 -0.03574936  0.08637028       0.021
   0.15479928 -0.05362404  0.08637028       0.021
   0.18575914 -0.07149872  0.08637028       0.021
   0.12383942  0.00000000  0.08637028       0.010
   0.15479928 -0.01787468  0.08637028       0.021
   0.18575914 -0.03574936  0.08637028       0.021
   0.21671899 -0.05362404  0.08637028       0.010
   0.18575914  0.00000000  0.08637028       0.010
   0.21671899 -0.01787468  0.08637028       0.021
   0.24767885  0.00000000  0.08637028       0.003
   0.00000000  0.00000000  0.11516038       0.001
   0.03095986 -0.01787468  0.11516038       0.005
   0.06191971 -0.03574936  0.11516038       0.005
   0.09287957 -0.05362404  0.11516038       0.005
   0.12383942 -0.07149872  0.11516038       0.005
   0.15479928 -0.08937341  0.11516038       0.005
   0.18575914 -0.10724809  0.11516038       0.003
   0.06191971  0.00000000  0.11516038       0.005
   0.09287957 -0.01787468  0.11516038       0.010
   0.12383942 -0.03574936  0.11516038       0.010
   0.15479928 -0.05362404  0.11516038       0.010
   0.18575914 -0.07149872  0.11516038       0.010
   0.12383942  0.00000000  0.11516038       0.005
   0.15479928 -0.01787468  0.11516038       0.010
   0.18575914 -0.03574936  0.11516038       0.010
   0.21671899 -0.05362404  0.11516038       0.005
   0.18575914  0.00000000  0.11516038       0.005
   0.21671899 -0.01787468  0.11516038       0.010
   0.24767885  0.00000000  0.11516038       0.002
 
 k-points in reciprocal lattice and weights: Automatic mesh                          
   0.00000000  0.00000000  0.00000000       0.001
   0.08333333 -0.00000000  0.00000000       0.005
   0.16666667  0.00000000  0.00000000       0.005
   0.25000000  0.00000000  0.00000000       0.005
   0.33333333  0.00000000  0.00000000       0.005
   0.41666667  0.00000000  0.00000000       0.005
   0.50000000  0.00000000  0.00000000       0.003
   0.08333333  0.08333333  0.00000000       0.005
   0.16666667  0.08333333  0.00000000       0.010
   0.25000000  0.08333333  0.00000000       0.010
   0.33333333  0.08333333  0.00000000       0.010
   0.41666667  0.08333333  0.00000000       0.010
   0.16666667  0.16666667  0.00000000       0.005
   0.25000000  0.16666667  0.00000000       0.010
   0.33333333  0.16666667  0.00000000       0.010
   0.41666667  0.16666667  0.00000000       0.005
   0.25000000  0.25000000  0.00000000       0.005
   0.33333333  0.25000000  0.00000000       0.010
   0.33333333  0.33333333  0.00000000       0.002
   0.00000000  0.00000000  0.12500000       0.002
   0.08333333 -0.00000000  0.12500000       0.010
   0.16666667  0.00000000  0.12500000       0.010
   0.25000000  0.00000000  0.12500000       0.010
   0.33333333  0.00000000  0.12500000       0.010
   0.41666667  0.00000000  0.12500000       0.010
   0.50000000  0.00000000  0.12500000       0.005
   0.08333333  0.08333333  0.12500000       0.010
   0.16666667  0.08333333  0.12500000       0.021
   0.25000000  0.08333333  0.12500000       0.021
   0.33333333  0.08333333  0.12500000       0.021
   0.41666667  0.08333333  0.12500000       0.021
   0.16666667  0.16666667  0.12500000       0.010
   0.25000000  0.16666667  0.12500000       0.021
   0.33333333  0.16666667  0.12500000       0.021
   0.41666667  0.16666667  0.12500000       0.010
   0.25000000  0.25000000  0.12500000       0.010
   0.33333333  0.25000000  0.12500000       0.021
   0.33333333  0.33333333  0.12500000       0.003
   0.00000000  0.00000000  0.25000000       0.002
   0.08333333 -0.00000000  0.25000000       0.010
   0.16666667  0.00000000  0.25000000       0.010
   0.25000000  0.00000000  0.25000000       0.010
   0.33333333  0.00000000  0.25000000       0.010
   0.41666667  0.00000000  0.25000000       0.010
   0.50000000  0.00000000  0.25000000       0.005
   0.08333333  0.08333333  0.25000000       0.010
   0.16666667  0.08333333  0.25000000       0.021
   0.25000000  0.08333333  0.25000000       0.021
   0.33333333  0.08333333  0.25000000       0.021
   0.41666667  0.08333333  0.25000000       0.021
   0.16666667  0.16666667  0.25000000       0.010
   0.25000000  0.16666667  0.25000000       0.021
   0.33333333  0.16666667  0.25000000       0.021
   0.41666667  0.16666667  0.25000000       0.010
   0.25000000  0.25000000  0.25000000       0.010
   0.33333333  0.25000000  0.25000000       0.021
   0.33333333  0.33333333  0.25000000       0.003
   0.00000000  0.00000000  0.37500000       0.002
   0.08333333 -0.00000000  0.37500000       0.010
   0.16666667  0.00000000  0.37500000       0.010
   0.25000000  0.00000000  0.37500000       0.010
   0.33333333  0.00000000  0.37500000       0.010
   0.41666667  0.00000000  0.37500000       0.010
   0.50000000  0.00000000  0.37500000       0.005
   0.08333333  0.08333333  0.37500000       0.010
   0.16666667  0.08333333  0.37500000       0.021
   0.25000000  0.08333333  0.37500000       0.021
   0.33333333  0.08333333  0.37500000       0.021
   0.41666667  0.08333333  0.37500000       0.021
   0.16666667  0.16666667  0.37500000       0.010
   0.25000000  0.16666667  0.37500000       0.021
   0.33333333  0.16666667  0.37500000       0.021
   0.41666667  0.16666667  0.37500000       0.010
   0.25000000  0.25000000  0.37500000       0.010
   0.33333333  0.25000000  0.37500000       0.021
   0.33333333  0.33333333  0.37500000       0.003
   0.00000000  0.00000000  0.50000000       0.001
   0.08333333 -0.00000000  0.50000000       0.005
   0.16666667  0.00000000  0.50000000       0.005
   0.25000000  0.00000000  0.50000000       0.005
   0.33333333  0.00000000  0.50000000       0.005
   0.41666667  0.00000000  0.50000000       0.005
   0.50000000  0.00000000  0.50000000       0.003
   0.08333333  0.08333333  0.50000000       0.005
   0.16666667  0.08333333  0.50000000       0.010
   0.25000000  0.08333333  0.50000000       0.010
   0.33333333  0.08333333  0.50000000       0.010
   0.41666667  0.08333333  0.50000000       0.010
   0.16666667  0.16666667  0.50000000       0.005
   0.25000000  0.16666667  0.50000000       0.010
   0.33333333  0.16666667  0.50000000       0.010
   0.41666667  0.16666667  0.50000000       0.005
   0.25000000  0.25000000  0.50000000       0.005
   0.33333333  0.25000000  0.50000000       0.010
   0.33333333  0.33333333  0.50000000       0.002
 
 position of ions in fractional coordinates (direct lattice) 
   0.33333333  0.66666667  0.25000000
   0.66666667  0.33333333  0.75000000
 
 position of ions in cartesian coordinates  (Angst):
   1.34582883  0.77701464  1.08544278
   1.34582883 -0.77701464  3.25632833
 


--------------------------------------------------------------------------------------------------------


 k-point   1 :   0.0000 0.0000 0.0000  plane waves:     549
 k-point   2 :   0.0833-0.0000 0.0000  plane waves:     558
 k-point   3 :   0.1667 0.0000 0.0000  plane waves:     560
 k-point   4 :   0.2500 0.0000 0.0000  plane waves:     554
 k-point   5 :   0.3333 0.0000 0.0000  plane waves:     546
 k-point   6 :   0.4167 0.0000 0.0000  plane waves:     538
 k-point   7 :   0.5000 0.0000 0.0000  plane waves:     532
 k-point   8 :   0.0833 0.0833 0.0000  plane waves:     557
 k-point   9 :   0.1667 0.0833 0.0000  plane waves:     555
 k-point  10 :   0.2500 0.0833 0.0000  plane waves:     547
 k-point  11 :   0.3333 0.0833 0.0000  plane waves:     537
 k-point  12 :   0.4167 0.0833 0.0000  plane waves:     538
 k-point  13 :   0.1667 0.1667 0.0000  plane waves:     547
 k-point  14 :   0.2500 0.1667 0.0000  plane waves:     537
 k-point  15 :   0.3333 0.1667 0.0000  plane waves:     532
 k-point  16 :   0.4167 0.1667 0.0000  plane waves:     536
 k-point  17 :   0.2500 0.2500 0.0000  plane waves:     539
 k-point  18 :   0.3333 0.2500 0.0000  plane waves:     536
 k-point  19 :   0.3333 0.3333 0.0000  plane waves:     534
 k-point  20 :   0.0000 0.0000 0.1250  plane waves:     543
 k-point  21 :   0.0833-0.0000 0.1250  plane waves:     552
 k-point  22 :   0.1667 0.0000 0.1250  plane waves:     549
 k-point  23 :   0.2500 0.0000 0.1250  plane waves:     550
 k-point  24 :   0.3333 0.0000 0.1250  plane waves:     544
 k-point  25 :   0.4167 0.0000 0.1250  plane waves:     541
 k-point  26 :   0.5000 0.0000 0.1250  plane waves:     538
 k-point  27 :   0.0833 0.0833 0.1250  plane waves:     558
 k-point  28 :   0.1667 0.0833 0.1250  plane waves:     549
 k-point  29 :   0.2500 0.0833 0.1250  plane waves:     544
 k-point  30 :   0.3333 0.0833 0.1250  plane waves:     539
 k-point  31 :   0.4167 0.0833 0.1250  plane waves:     539
 k-point  32 :   0.1667 0.1667 0.1250  plane waves:     542
 k-point  33 :   0.2500 0.1667 0.1250  plane waves:     538
 k-point  34 :   0.3333 0.1667 0.1250  plane waves:     533
 k-point  35 :   0.4167 0.1667 0.1250  plane waves:     535
 k-point  36 :   0.2500 0.2500 0.1250  plane waves:     533
 k-point  37 :   0.3333 0.2500 0.1250  plane waves:     539
 k-point  38 :   0.3333 0.3333 0.1250  plane waves:     549
 k-point  39 :   0.0000 0.0000 0.2500  plane waves:     555
 k-point  40 :   0.0833-0.0000 0.2500  plane waves:     545
 k-point  41 :   0.1667 0.0000 0.2500  plane waves:     550
 k-point  42 :   0.2500 0.0000 0.2500  plane waves:     550
 k-point  43 :   0.3333 0.0000 0.2500  plane waves:     548
 k-point  44 :   0.4167 0.0000 0.2500  plane waves:     537
 k-point  45 :   0.5000 0.0000 0.2500  plane waves:     536
 k-point  46 :   0.0833 0.0833 0.2500  plane waves:     549
 k-point  47 :   0.1667 0.0833 0.2500  plane waves:     548
 k-point  48 :   0.2500 0.0833 0.2500  plane waves:     549
 k-point  49 :   0.3333 0.0833 0.2500  plane waves:     540
 k-point  50 :   0.4167 0.0833 0.2500  plane waves:     539
 k-point  51 :   0.1667 0.1667 0.2500  plane waves:     547
 k-point  52 :   0.2500 0.1667 0.2500  plane waves:     541
 k-point  53 :   0.3333 0.1667 0.2500  plane waves:     534
 k-point  54 :   0.4167 0.1667 0.2500  plane waves:     539
 k-point  55 :   0.2500 0.2500 0.2500  plane waves:     532
 k-point  56 :   0.3333 0.2500 0.2500  plane waves:     537
 k-point  57 :   0.3333 0.3333 0.2500  plane waves:     528
 k-point  58 :   0.0000 0.0000 0.3750  plane waves:     554
 k-point  59 :   0.0833-0.0000 0.3750  plane waves:     541
 k-point  60 :   0.1667 0.0000 0.3750  plane waves:     546
 k-point  61 :   0.2500 0.0000 0.3750  plane waves:     549
 k-point  62 :   0.3333 0.0000 0.3750  plane waves:     540
 k-point  63 :   0.4167 0.0000 0.3750  plane waves:     538
 k-point  64 :   0.5000 0.0000 0.3750  plane waves:     532
 k-point  65 :   0.0833 0.0833 0.3750  plane waves:     547
 k-point  66 :   0.1667 0.0833 0.3750  plane waves:     549
 k-point  67 :   0.2500 0.0833 0.3750  plane waves:     544
 k-point  68 :   0.3333 0.0833 0.3750  plane waves:     540
 k-point  69 :   0.4167 0.0833 0.3750  plane waves:     536
 k-point  70 :   0.1667 0.1667 0.3750  plane waves:     550
 k-point  71 :   0.2500 0.1667 0.3750  plane waves:     542
 k-point  72 :   0.3333 0.1667 0.3750  plane waves:     540
 k-point  73 :   0.4167 0.1667 0.3750  plane waves:     540
 k-point  74 :   0.2500 0.2500 0.3750  plane waves:     540
 k-point  75 :   0.3333 0.2500 0.3750  plane waves:     537
 k-point  76 :   0.3333 0.3333 0.3750  plane waves:     534
 k-point  77 :   0.0000 0.0000 0.5000  plane waves:     542
 k-point  78 :   0.0833-0.0000 0.5000  plane waves:     542
 k-point  79 :   0.1667 0.0000 0.5000  plane waves:     540
 k-point  80 :   0.2500 0.0000 0.5000  plane waves:     542
 k-point  81 :   0.3333 0.0000 0.5000  plane waves:     536
 k-point  82 :   0.4167 0.0000 0.5000  plane waves:     540
 k-point  83 :   0.5000 0.0000 0.5000  plane waves:     532
 k-point  84 :   0.0833 0.0833 0.5000  plane waves:     542
 k-point  85 :   0.1667 0.0833 0.5000  plane waves:     550
 k-point  86 :   0.2500 0.0833 0.5000  plane waves:     542
 k-point  87 :   0.3333 0.0833 0.5000  plane waves:     544
 k-point  88 :   0.4167 0.0833 0.5000  plane waves:     538
 k-point  89 :   0.1667 0.1667 0.5000  plane waves:     552
 k-point  90 :   0.2500 0.1667 0.5000  plane waves:     544
 k-point  91 :   0.3333 0.1667 0.5000  plane waves:     540
 k-point  92 :   0.4167 0.1667 0.5000  plane waves:     538
 k-point  93 :   0.2500 0.2500 0.5000  plane waves:     540
 k-point  94 :   0.3333 0.2500 0.5000  plane waves:     538
 k-point  95 :   0.3333 0.3333 0.5000  plane waves:     546

 maximum and minimum number of plane-waves per node :       560      528

 maximum number of plane-waves:       560
 maximum index in each direction: 
   IXMAX=    4   IYMAX=    4   IZMAX=    7
   IXMIN=   -5   IYMIN=   -4   IZMIN=   -7


 serial   3D FFT for wavefunctions
 parallel 3D FFT for charge:
    minimum data exchange during FFTs selected (reduces bandwidth)


 total amount of memory used by VASP MPI-rank0    41146. kBytes
=======================================================================

   base      :      30000. kBytes
   nonl-proj :       7898. kBytes
   fftplans  :        183. kBytes
   grid      :       1107. kBytes
   one-center:         62. kBytes
   wavefun   :       1896. kBytes
 
     INWAV:  cpu time      0.0000: real time      0.0004
 Broyden mixing: mesh for mixing (old mesh)
   NGX =  9   NGY =  9   NGZ = 15
  (NGX  = 36   NGY  = 36   NGZ  = 60)
  gives a total of   1215 points

 initial charge density was supplied:
 charge density of overlapping atoms calculated
 number of electron      18.0000000 magnetization       6.0000000
 keeping initial charge density in first step


--------------------------------------------------------------------------------------------------------


 Maximum index for augmentation-charges          924 (set IRDMAX)


--------------------------------------------------------------------------------------------------------


 First call to EWALD:  gamma=   0.589
 Maximum number of real-space cells 3x 3x 2
 Maximum number of reciprocal cells 3x 3x 4

    FEWALD:  cpu time      0.0015: real time      0.0015


--------------------------------------- Iteration      1(   1)  ---------------------------------------


    POTLOK:  cpu time      0.0072: real time      0.0074
    SETDIJ:  cpu time      0.0053: real time      0.0053
     EDDAV:  cpu time      0.7648: real time      0.7691
       DOS:  cpu time      0.0013: real time      0.0014
    --------------------------------------------
      LOOP:  cpu time      0.7786: real time      0.7832

 eigenvalue-minimisations  :  9120
 total energy-change (2. order) : 0.6296344E+01  (-0.8358177E+03)
 number of electron      18.0000000 magnetization       6.0000000
 augmentation part       18.0000000 magnetization       6.0000000

 Free energy of the ion-electron system (eV)
  ---------------------------------------------------
  alpha Z        PSCENC =        62.19494198
  Ewald energy   TEWEN  =     -1410.53198614
  -Hartree energ DENC   =      -349.35160163
  -exchange      EXHF   =         0.00000000
  -V(xc)+E(xc)   XCENC  =        34.30210648
  PAW double counting   =      1439.98163886    -1545.88690193
  entropy T*S    EENTRO =        -0.00322956
  eigenvalues    EBANDS =       148.86814573
  atomic energy  EATOM  =      1626.72322989
  Solvation  Ediel_sol  =         0.00000000
  ---------------------------------------------------
  free energy    TOTEN  =         6.29634368 eV

  energy without entropy =        6.29957324  energy(sigma->0) =        6.29795846


--------------------------------------------------------------------------------------------------------




--------------------------------------- Iteration      1(   2)  ---------------------------------------


     EDDAV:  cpu time      1.0064: real time      1.0120
       DOS:  cpu time      0.0009: real time      0.0009
    --------------------------------------------
      LOOP:  cpu time      1.0072: real time      1.0129

 eigenvalue-minimisations  : 10800
 total energy-change (2. order) :-0.2145075E+02  (-0.2111598E+02)
 number of electron      18.0000000 magnetization       6.0000000
 augmentation part       18.0000000 magnetization       6.0000000

 Free energy of the ion-electron system (eV)
  ---------------------------------------------------
  alpha Z        PSCENC =        62.19494198
  Ewald energy   TEWEN  =     -1410.53198614
  -Hartree energ DENC   =      -349.35160163
  -exchange      EXHF   =         0.00000000
  -V(xc)+E(xc)   XCENC  =        34.30210648
  PAW double counting   =      1439.98163886    -1545.88690193
  entropy T*S    EENTRO =        -0.00338080
  eigenvalues    EBANDS =       127.41755089
  atomic energy  EATOM  =      1626.72322989
  Solvation  Ediel_sol  =         0.00000000
  ---------------------------------------------------
  free energy    TOTEN  =       -15.15440239 eV

  energy without entropy =      -15.15102159  energy(sigma->0) =      -15.15271199


--------------------------------------------------------------------------------------------------------




--------------------------------------- Iteration      1(   3)  ---------------------------------------


     EDDAV:  cpu time      1.2310: real time      1.2372
       DOS:  cpu time      0.0009: real time      0.0009
    --------------------------------------------
      LOOP:  cpu time      1.2319: real time      1.2381

 eigenvalue-minimisations  : 11976
 total energy-change (2. order) :-0.1497133E+00  (-0.1496410E+00)
 number of electron      18.0000000 magnetization       6.0000000
 augmentation part       18.0000000 magnetization       6.0000000

 Free energy of the ion-electron system (eV)
  ---------------------------------------------------
  alpha Z        PSCENC =        62.19494198
  Ewald energy   TEWEN  =     -1410.53198614
  -Hartree energ DENC   =      -349.35160163
  -exchange      EXHF   =         0.00000000
  -V(xc)+E(xc)   XCENC  =        34.30210648
  PAW double counting   =      1439.98163886    -1545.88690193
  entropy T*S    EENTRO =        -0.00341031
  eigenvalues    EBANDS =       127.26786712
  atomic energy  EATOM  =      1626.72322989
  Solvation  Ediel_sol  =         0.00000000
  ---------------------------------------------------
  free energy    TOTEN  =       -15.30411568 eV

  energy without entropy =      -15.30070537  energy(sigma->0) =      -15.30241052


--------------------------------------------------------------------------------------------------------




--------------------------------------- Iteration      1(   4)  ---------------------------------------


     EDDAV:  cpu time      1.3633: real time      1.3705
       DOS:  cpu time      0.0009: real time      0.0009
    --------------------------------------------
      LOOP:  cpu time      1.3642: real time      1.3714

 eigenvalue-minimisations  : 12816
 total energy-change (2. order) :-0.1093957E-02  (-0.1093939E-02)
 number of electron      18.0000000 magnetization       6.0000000
 augmentation part       18.0000000 magnetization       6.0000000

 Free energy of the ion-electron system (eV)
  ---------------------------------------------------
  alpha Z        PSCENC =        62.19494198
  Ewald energy   TEWEN  =     -1410.53198614
  -Hartree energ DENC   =      -349.35160163
  -exchange      EXHF   =         0.00000000
  -V(xc)+E(xc)   XCENC  =        34.30210648
  PAW double counting   =      1439.98163886    -1545.88690193
  entropy T*S    EENTRO =        -0.00340902
  eigenvalues    EBANDS =       127.26677187
  atomic energy  EATOM  =      1626.72322989
  Solvation  Ediel_sol  =         0.00000000
  ---------------------------------------------------
  free energy    TOTEN  =       -15.30520964 eV

  energy without entropy =      -15.30180062  energy(sigma->0) =      -15.30350513


--------------------------------------------------------------------------------------------------------




--------------------------------------- Iteration      1(   5)  ---------------------------------------


     EDDAV:  cpu time      1.3432: real time      1.3498
       DOS:  cpu time      0.0008: real time      0.0008
    CHARGE:  cpu time      0.0354: real time      0.0355
    MIXING:  cpu time      0.0003: real time      0.0003
    --------------------------------------------
      LOOP:  cpu time      1.3797: real time      1.3864

 eigenvalue-minimisations  : 12456
 total energy-change (2. order) :-0.3847205E-05  (-0.3846654E-05)
 number of electron      18.0000014 magnetization       4.1074969
 augmentation part        9.1007199 magnetization       3.1818382

 Broyden mixing:
  rms(total) = 0.13238E+01    rms(broyden)= 0.13238E+01
  rms(prec ) = 0.25386E+01
  weight for this iteration     100.00

 Free energy of the ion-electron system (eV)
  ---------------------------------------------------
  alpha Z        PSCENC =        62.19494198
  Ewald energy   TEWEN  =     -1410.53198614
  -Hartree energ DENC   =      -349.35160163
  -exchange      EXHF   =         0.00000000
  -V(xc)+E(xc)   XCENC  =        34.30210648
  PAW double counting   =      1439.98163886    -1545.88690193
  entropy T*S    EENTRO =        -0.00340903
  eigenvalues    EBANDS =       127.26676804
  atomic energy  EATOM  =      1626.72322989
  Solvation  Ediel_sol  =         0.00000000
  ---------------------------------------------------
  free energy    TOTEN  =       -15.30521348 eV

  energy without entropy =      -15.30180445  energy(sigma->0) =      -15.30350897


--------------------------------------------------------------------------------------------------------




--------------------------------------- Iteration      1(   6)  ---------------------------------------


    POTLOK:  cpu time      0.0061: real time      0.0063
    SETDIJ:  cpu time      0.0052: real time      0.0052
     EDDAV:  cpu time      1.0934: real time      1.0990
       DOS:  cpu time      0.0009: real time      0.0009
    CHARGE:  cpu time      0.0351: real time      0.0352
    MIXING:  cpu time      0.0003: real time      0.0003
    --------------------------------------------
      LOOP:  cpu time      1.1410: real time      1.1468

 eigenvalue-minimisations  : 11160
 total energy-change (2. order) : 0.9783656E+00  (-0.4266732E+01)
 number of electron      18.0000017 magnetization       3.6280698
 augmentation part       11.0470463 magnetization       3.2135548

 Broyden mixing:
  rms(total) = 0.96605E+00    rms(broyden)= 0.96602E+00
  rms(prec ) = 0.14145E+01
  weight for this iteration     100.00

 eigenvalues of (default mixing * dielectric matrix)
  average eigenvalue GAMMA=   0.5749
  0.5749

 Free energy of the ion-electron system (eV)
  ---------------------------------------------------
  alpha Z        PSCENC =        62.19494198
  Ewald energy   TEWEN  =     -1410.53198614
  -Hartree energ DENC   =      -306.59013193
  -exchange      EXHF   =         0.00000000
  -V(xc)+E(xc)   XCENC  =        31.48441974
  PAW double counting   =      1481.40035791    -1575.19007240
  entropy T*S    EENTRO =        -0.00304504
  eigenvalues    EBANDS =        76.18543807
  atomic energy  EATOM  =      1626.72322989
  Solvation  Ediel_sol  =         0.00000000
  ---------------------------------------------------
  free energy    TOTEN  =       -14.32684793 eV

  energy without entropy =      -14.32380288  energy(sigma->0) =      -14.32532540


--------------------------------------------------------------------------------------------------------




--------------------------------------- Iteration      1(   7)  ---------------------------------------


    POTLOK:  cpu time      0.0060: real time      0.0062
    SETDIJ:  cpu time      0.0050: real time      0.0050
     EDDAV:  cpu time      1.1209: real time      1.1266
       DOS:  cpu time      0.0008: real time      0.0008
    CHARGE:  cpu time      0.0341: real time      0.0342
    MIXING:  cpu time      0.0003: real time      0.0003
    --------------------------------------------
      LOOP:  cpu time      1.1670: real time      1.1731

 eigenvalue-minimisations  : 11280
 total energy-change (2. order) : 0.8490710E+00  (-0.7122705E+00)
 number of electron      18.0000016 magnetization       3.4819882
 augmentation part       10.2793055 magnetization       3.0774720

 Broyden mixing:
  rms(total) = 0.33303E+00    rms(broyden)= 0.33302E+00
  rms(prec ) = 0.37581E+00
  weight for this iteration     100.00

 eigenvalues of (default mixing * dielectric matrix)
  average eigenvalue GAMMA=   0.6932
  0.8818  0.5045

 Free energy of the ion-electron system (eV)
  ---------------------------------------------------
  alpha Z        PSCENC =        62.19494198
  Ewald energy   TEWEN  =     -1410.53198614
  -Hartree energ DENC   =      -319.83461796
  -exchange      EXHF   =         0.00000000
  -V(xc)+E(xc)   XCENC  =        31.96311453
  PAW double counting   =      1532.37288383    -1633.88619276
  entropy T*S    EENTRO =        -0.00347086
  eigenvalues    EBANDS =        97.52432061
  atomic energy  EATOM  =      1626.72322989
  Solvation  Ediel_sol  =         0.00000000
  ---------------------------------------------------
  free energy    TOTEN  =       -13.47777689 eV

  energy without entropy =      -13.47430603  energy(sigma->0) =      -13.47604146


--------------------------------------------------------------------------------------------------------




--------------------------------------- Iteration      1(   8)  ---------------------------------------


    POTLOK:  cpu time      0.0057: real time      0.0059
    SETDIJ:  cpu time      0.0048: real time      0.0048
     EDDAV:  cpu time      1.0192: real time      1.0243
       DOS:  cpu time      0.0008: real time      0.0008
    CHARGE:  cpu time      0.0342: real time      0.0344
    MIXING:  cpu time      0.0003: real time      0.0003
    --------------------------------------------
      LOOP:  cpu time      1.0650: real time      1.0705

 eigenvalue-minimisations  : 10656
 total energy-change (2. order) : 0.1280711E-02  (-0.3030687E-02)
 number of electron      18.0000016 magnetization       3.4471883
 augmentation part       10.2883756 magnetization       3.0846017

 Broyden mixing:
  rms(total) = 0.12605E+00    rms(broyden)= 0.12605E+00
  rms(prec ) = 0.17892E+00
  weight for this iteration     100.00

 eigenvalues of (default mixing * dielectric matrix)
  average eigenvalue GAMMA=   0.8665
  1.3612  0.6191  0.6191

 Free energy of the ion-electron system (eV)
  ---------------------------------------------------
  alpha Z        PSCENC =        62.19494198
  Ewald energy   TEWEN  =     -1410.53198614
  -Hartree energ DENC   =      -318.06980757
  -exchange      EXHF   =         0.00000000
  -V(xc)+E(xc)   XCENC  =        31.92963396
  PAW double counting   =      1559.39593370    -1662.12859268
  entropy T*S    EENTRO =        -0.00328635
  eigenvalues    EBANDS =        97.01343704
  atomic energy  EATOM  =      1626.72322989
  Solvation  Ediel_sol  =         0.00000000
  ---------------------------------------------------
  free energy    TOTEN  =       -13.47649618 eV

  energy without entropy =      -13.47320983  energy(sigma->0) =      -13.47485300


--------------------------------------------------------------------------------------------------------




--------------------------------------- Iteration      1(   9)  ---------------------------------------


    POTLOK:  cpu time      0.0057: real time      0.0059
    SETDIJ:  cpu time      0.0049: real time      0.0049
     EDDAV:  cpu time      1.6186: real time      1.6264
       DOS:  cpu time      0.0009: real time      0.0009
    CHARGE:  cpu time      0.0349: real time      0.0350
    MIXING:  cpu time      0.0003: real time      0.0003
    --------------------------------------------
      LOOP:  cpu time      1.6653: real time      1.6734

 eigenvalue-minimisations  : 14232
 total energy-change (2. order) : 0.8839764E-02  (-0.1880992E-02)
 number of electron      18.0000016 magnetization       3.4981160
 augmentation part       10.3147498 magnetization       3.1603424

 Broyden mixing:
  rms(total) = 0.47853E-01    rms(broyden)= 0.47853E-01
  rms(prec ) = 0.72150E-01
  weight for this iteration     100.00

 eigenvalues of (default mixing * dielectric matrix)
  average eigenvalue GAMMA=   1.0785
  2.0987  0.9632  0.6260  0.6260

 Free energy of the ion-electron system (eV)
  ---------------------------------------------------
  alpha Z        PSCENC =        62.19494198
  Ewald energy   TEWEN  =     -1410.53198614
  -Hartree energ DENC   =      -316.00971080
  -exchange      EXHF   =         0.00000000
  -V(xc)+E(xc)   XCENC  =        31.88871728
  PAW double counting   =      1587.01081638    -1690.81667444
  entropy T*S    EENTRO =        -0.00327506
  eigenvalues    EBANDS =        96.07628449
  atomic energy  EATOM  =      1626.72322989
  Solvation  Ediel_sol  =         0.00000000
  ---------------------------------------------------
  free energy    TOTEN  =       -13.46765641 eV

  energy without entropy =      -13.46438136  energy(sigma->0) =      -13.46601888


--------------------------------------------------------------------------------------------------------




--------------------------------------- Iteration      1(  10)  ---------------------------------------


    POTLOK:  cpu time      0.0057: real time      0.0059
    SETDIJ:  cpu time      0.0049: real time      0.0050
     EDDAV:  cpu time      1.9366: real time      1.9463
       DOS:  cpu time      0.0009: real time      0.0009
    CHARGE:  cpu time      0.0347: real time      0.0349
    MIXING:  cpu time      0.0003: real time      0.0003
    --------------------------------------------
      LOOP:  cpu time      1.9833: real time      1.9933

 eigenvalue-minimisations  : 15960
 total energy-change (2. order) : 0.1797363E-02  (-0.3579919E-03)
 number of electron      18.0000016 magnetization       3.4874892
 augmentation part       10.3314304 magnetization       3.1447362

 Broyden mixing:
  rms(total) = 0.10851E-01    rms(broyden)= 0.10851E-01
  rms(prec ) = 0.11633E-01
  weight for this iteration     100.00

 eigenvalues of (default mixing * dielectric matrix)
  average eigenvalue GAMMA=   1.1025
  1.9376  0.6262  0.6262  1.1613  1.1613

 Free energy of the ion-electron system (eV)
  ---------------------------------------------------
  alpha Z        PSCENC =        62.19494198
  Ewald energy   TEWEN  =     -1410.53198614
  -Hartree energ DENC   =      -314.55358050
  -exchange      EXHF   =         0.00000000
  -V(xc)+E(xc)   XCENC  =        31.84269720
  PAW double counting   =      1609.68902062    -1714.34953031
  entropy T*S    EENTRO =        -0.00331694
  eigenvalues    EBANDS =        95.52266516
  atomic energy  EATOM  =      1626.72322989
  Solvation  Ediel_sol  =         0.00000000
  ---------------------------------------------------
  free energy    TOTEN  =       -13.46585905 eV

  energy without entropy =      -13.46254211  energy(sigma->0) =      -13.46420058


--------------------------------------------------------------------------------------------------------




--------------------------------------- Iteration      1(  11)  ---------------------------------------


    POTLOK:  cpu time      0.0057: real time      0.0059
    SETDIJ:  cpu time      0.0050: real time      0.0050
     EDDAV:  cpu time      1.3844: real time      1.3916
       DOS:  cpu time      0.0009: real time      0.0009
    CHARGE:  cpu time      0.0342: real time      0.0343
    MIXING:  cpu time      0.0003: real time      0.0003
    --------------------------------------------
      LOOP:  cpu time      1.4305: real time      1.4380

 eigenvalue-minimisations  : 12768
 total energy-change (2. order) :-0.1553851E-03  (-0.7558231E-04)
 number of electron      18.0000016 magnetization       3.4975234
 augmentation part       10.3301289 magnetization       3.1472706

 Broyden mixing:
  rms(total) = 0.48646E-02    rms(broyden)= 0.48645E-02
  rms(prec ) = 0.83426E-02
  weight for this iteration     100.00

 eigenvalues of (default mixing * dielectric matrix)
  average eigenvalue GAMMA=   1.0811
  2.2306  1.0826  1.0826  0.6113  0.6539  0.8258

 Free energy of the ion-electron system (eV)
  ---------------------------------------------------
  alpha Z        PSCENC =        62.19494198
  Ewald energy   TEWEN  =     -1410.53198614
  -Hartree energ DENC   =      -314.64585458
  -exchange      EXHF   =         0.00000000
  -V(xc)+E(xc)   XCENC  =        31.82372384
  PAW double counting   =      1609.66869145    -1714.30184801
  entropy T*S    EENTRO =        -0.00330902
  eigenvalues    EBANDS =        95.60639616
  atomic energy  EATOM  =      1626.72322989
  Solvation  Ediel_sol  =         0.00000000
  ---------------------------------------------------
  free energy    TOTEN  =       -13.46601443 eV

  energy without entropy =      -13.46270542  energy(sigma->0) =      -13.46435992


--------------------------------------------------------------------------------------------------------




--------------------------------------- Iteration      1(  12)  ---------------------------------------


    POTLOK:  cpu time      0.0055: real time      0.0057
    SETDIJ:  cpu time      0.0048: real time      0.0048
     EDDAV:  cpu time      1.3608: real time      1.3674
       DOS:  cpu time      0.0009: real time      0.0009
    CHARGE:  cpu time      0.0350: real time      0.0351
    MIXING:  cpu time      0.0004: real time      0.0004
    --------------------------------------------
      LOOP:  cpu time      1.4074: real time      1.4143

 eigenvalue-minimisations  : 12672
 total energy-change (2. order) : 0.2189521E-04  (-0.6290210E-05)
 number of electron      18.0000016 magnetization       3.4963748
 augmentation part       10.3321318 magnetization       3.1455390

 Broyden mixing:
  rms(total) = 0.29959E-02    rms(broyden)= 0.29959E-02
  rms(prec ) = 0.30698E-02
  weight for this iteration     100.00

 eigenvalues of (default mixing * dielectric matrix)
  average eigenvalue GAMMA=   1.1804
  2.4101  1.7176  1.0932  1.0932  0.6256  0.6256  0.6972

 Free energy of the ion-electron system (eV)
  ---------------------------------------------------
  alpha Z        PSCENC =        62.19494198
  Ewald energy   TEWEN  =     -1410.53198614
  -Hartree energ DENC   =      -314.46564817
  -exchange      EXHF   =         0.00000000
  -V(xc)+E(xc)   XCENC  =        31.82106264
  PAW double counting   =      1613.15286967    -1717.89348211
  entropy T*S    EENTRO =        -0.00330962
  eigenvalues    EBANDS =        95.53632933
  atomic energy  EATOM  =      1626.72322989
  Solvation  Ediel_sol  =         0.00000000
  ---------------------------------------------------
  free energy    TOTEN  =       -13.46599254 eV

  energy without entropy =      -13.46268292  energy(sigma->0) =      -13.46433773


--------------------------------------------------------------------------------------------------------




--------------------------------------- Iteration      1(  13)  ---------------------------------------


    POTLOK:  cpu time      0.0057: real time      0.0059
    SETDIJ:  cpu time      0.0051: real time      0.0051
     EDDAV:  cpu time      0.9758: real time      0.9808
       DOS:  cpu time      0.0008: real time      0.0008
    CHARGE:  cpu time      0.0341: real time      0.0342
    MIXING:  cpu time      0.0003: real time      0.0003
    --------------------------------------------
      LOOP:  cpu time      1.0218: real time      1.0271

 eigenvalue-minimisations  : 10392
 total energy-change (2. order) :-0.2060294E-05  (-0.3056947E-06)
 number of electron      18.0000016 magnetization       3.4945764
 augmentation part       10.3321675 magnetization       3.1435832

 Broyden mixing:
  rms(total) = 0.12128E-02    rms(broyden)= 0.12128E-02
  rms(prec ) = 0.12166E-02
  weight for this iteration     100.00

 eigenvalues of (default mixing * dielectric matrix)
  average eigenvalue GAMMA=   1.2426
  2.4746  2.4746  1.1209  0.9689  0.9689  0.6190  0.6497  0.6645

 Free energy of the ion-electron system (eV)
  ---------------------------------------------------
  alpha Z        PSCENC =        62.19494198
  Ewald energy   TEWEN  =     -1410.53198614
  -Hartree energ DENC   =      -314.45226401
  -exchange      EXHF   =         0.00000000
  -V(xc)+E(xc)   XCENC  =        31.81933674
  PAW double counting   =      1614.03183218    -1718.78066392
  entropy T*S    EENTRO =        -0.00330868
  eigenvalues    EBANDS =        95.53288736
  atomic energy  EATOM  =      1626.72322989
  Solvation  Ediel_sol  =         0.00000000
  ---------------------------------------------------
  free energy    TOTEN  =       -13.46599460 eV

  energy without entropy =      -13.46268591  energy(sigma->0) =      -13.46434026


--------------------------------------------------------------------------------------------------------




--------------------------------------- Iteration      1(  14)  ---------------------------------------


    POTLOK:  cpu time      0.0055: real time      0.0057
    SETDIJ:  cpu time      0.0048: real time      0.0048
     EDDAV:  cpu time      0.4529: real time      0.4554
       DOS:  cpu time      0.0008: real time      0.0008
    --------------------------------------------
      LOOP:  cpu time      0.4640: real time      0.4667

 eigenvalue-minimisations  :  5160
 total energy-change (2. order) : 0.4890896E-06  (-0.2234761E-07)
 number of electron      18.0000016 magnetization       3.4945764
 augmentation part       10.3321675 magnetization       3.1435832

 Free energy of the ion-electron system (eV)
  ---------------------------------------------------
  alpha Z        PSCENC =        62.19494198
  Ewald energy   TEWEN  =     -1410.53198614
  -Hartree energ DENC   =      -314.45802957
  -exchange      EXHF   =         0.00000000
  -V(xc)+E(xc)   XCENC  =        31.81923705
  PAW double counting   =      1614.19325604    -1718.93442943
  entropy T*S    EENTRO =        -0.00330855
  eigenvalues    EBANDS =        95.53109463
  atomic energy  EATOM  =      1626.72322989
  Solvation  Ediel_sol  =         0.00000000
  ---------------------------------------------------
  free energy    TOTEN  =       -13.46599411 eV

  energy without entropy =      -13.46268556  energy(sigma->0) =      -13.46433983


--------------------------------------------------------------------------------------------------------




 average (electrostatic) potential at core
  the test charge radii are     1.0452
  (the norm of the test charge is              1.0000)
       1 -81.0769       2 -81.0769
 
 
 
 E-fermi :   7.4020     XC(G=0): -12.1224     alpha+bet :-14.1212

 Fermi energy:         7.4020372693

 spin component 1

 k-point     1 :       0.0000    0.0000    0.0000
  band No.  band energies     occupation 
      1      -0.2464      1.00000
      2       3.1647      1.00000
      3       5.0061      1.00000
      4       5.0139      1.00000
      5       5.0139      1.00000
      6       5.2256      1.00000
      7       5.2256      1.00000
      8       5.4506      1.00000
      9       5.4506      1.00000
     10       6.2273      1.00000
     11       6.2273      1.00000
     12       7.5111      0.00102
     13      11.9732      0.00000
     14      27.4003      0.00000
     15      27.9792      0.00000
     16      27.9792      0.00000
     17      29.5483      0.00000
     18      29.5483      0.00000
     19      29.8389      0.00000
     20      30.4108      0.00000
     21      34.4520      0.00000
     22      34.5895      0.00000
     23      34.5895      0.00000
     24      35.7345      0.00000

 k-point     2 :       0.0833   -0.0000    0.0000
  band No.  band energies     occupation 
      1      -0.0417      1.00000
      2       3.2771      1.00000
      3       4.8559      1.00000
      4       5.0931      1.00000
      5       5.1410      1.00000
      6       5.1967      1.00000
      7       5.2953      1.00000
      8       5.3615      1.00000
      9       5.4030      1.00000
     10       5.8041      1.00000
     11       6.2470      1.00000
     12       8.1825      0.00000
     13      12.0295      0.00000
     14      24.7476      0.00000
     15      26.2998      0.00000
     16      27.0922      0.00000
     17      30.4196      0.00000
     18      30.4508      0.00000
     19      31.4775      0.00000
     20      31.6725      0.00000
     21      32.1410      0.00000
     22      33.8001      0.00000
     23      33.8836      0.00000
     24      34.0215      0.00000

 k-point     3 :       0.1667    0.0000    0.0000
  band No.  band energies     occupation 
      1       0.5550      1.00000
      2       3.5553      1.00000
      3       4.6751      1.00000
      4       4.9317      1.00000
      5       5.0818      1.00000
      6       5.2848      1.00000
      7       5.3163      1.00000
      8       5.3540      1.00000
      9       5.4763      1.00000
     10       5.4906      1.00000
     11       6.2895      1.00000
     12       9.4228      0.00000
     13      12.2207      0.00000
     14      21.1242      0.00000
     15      24.2926      0.00000
     16      26.2562      0.00000
     17      28.0211      0.00000
     18      29.7028      0.00000
     19      30.5577      0.00000
     20      32.0711      0.00000
     21      32.7098      0.00000
     22      32.9282      0.00000
     23      33.0715      0.00000
     24      34.2557      0.00000

 k-point     4 :       0.2500    0.0000    0.0000
  band No.  band energies     occupation 
      1       1.4736      1.00000
      2       3.7819      1.00000
      3       4.4206      1.00000
      4       4.5775      1.00000
      5       5.0226      1.00000
      6       5.1413      1.00000
      7       5.3267      1.00000
      8       5.6370      1.00000
      9       5.6548      1.00000
     10       5.7698      1.00000
     11       6.3304      1.00000
     12      10.9025      0.00000
     13      12.5957      0.00000
     14      17.7358      0.00000
     15      22.5654      0.00000
     16      24.8934      0.00000
     17      25.0380      0.00000
     18      27.1253      0.00000
     19      29.4638      0.00000
     20      31.1734      0.00000
     21      32.1809      0.00000
     22      32.8645      0.00000
     23      33.4848      0.00000
     24      36.2336      0.00000

 k-point     5 :       0.3333    0.0000    0.0000
  band No.  band energies     occupation 
      1       2.5098      1.00000
      2       3.7433      1.00000
      3       4.0420      1.00000
      4       4.6839      1.00000
      5       5.0112      1.00000
      6       5.1149      1.00000
      7       5.2044      1.00000
      8       5.9740      1.00000
      9       6.0711      1.00000
     10       6.1531      1.00000
     11       6.3587      1.00000
     12      12.5637      0.00000
     13      12.9453      0.00000
     14      15.0024      0.00000
     15      21.2162      0.00000
     16      22.0629      0.00000
     17      22.5738      0.00000
     18      26.0798      0.00000
     19      28.4194      0.00000
     20      29.7070      0.00000
     21      31.6658      0.00000
     22      33.3173      0.00000
     23      35.1014      0.00000
     24      37.4326      0.00000

 k-point     6 :       0.4167    0.0000    0.0000
  band No.  band energies     occupation 
      1       3.2191      1.00000
      2       3.6095      1.00000
      3       3.8160      1.00000
      4       4.9219      1.00000
      5       4.9866      1.00000
      6       5.1191      1.00000
      7       5.2607      1.00000
      8       6.2226      1.00000
      9       6.3184      1.00000
     10       6.3742      1.00000
     11       7.0588      1.00000
     12      11.3119      0.00000
     13      14.3207      0.00000
     14      15.0257      0.00000
     15      19.6126      0.00000
     16      20.0039      0.00000
     17      20.3434      0.00000
     18      25.7493      0.00000
     19      27.7518      0.00000
     20      28.7739      0.00000
     21      31.3670      0.00000
     22      33.5768      0.00000
     23      37.1781      0.00000
     24      38.1921      0.00000

 k-point     7 :       0.5000    0.0000    0.0000
  band No.  band energies     occupation 
      1       3.4380      1.00000
      2       3.5185      1.00000
      3       3.7412      1.00000
      4       4.8903      1.00000
      5       5.0883      1.00000
      6       5.1873      1.00000
      7       5.3122      1.00000
      8       6.3121      1.00000
      9       6.3790      1.00000
     10       6.4175      1.00000
     11       8.1567      0.00000
     12       9.6486      0.00000
     13      15.4863      0.00000
     14      15.8568      0.00000
     15      18.2175      0.00000
     16      18.5795      0.00000
     17      20.0393      0.00000
     18      25.6588      0.00000
     19      27.5244      0.00000
     20      28.4526      0.00000
     21      31.2693      0.00000
     22      33.6713      0.00000
     23      38.4438      0.00000
     24      39.5029      0.00000

 k-point     8 :       0.0833    0.0833    0.0000
  band No.  band energies     occupation 
      1       0.3596      1.00000
      2       3.4766      1.00000
      3       4.7119      1.00000
      4       5.1013      1.00000
      5       5.1263      1.00000
      6       5.2507      1.00000
      7       5.2548      1.00000
      8       5.2693      1.00000
      9       5.4503      1.00000
     10       5.5606      1.00000
     11       6.2720      1.00000
     12       9.0641      0.00000
     13      12.1544      0.00000
     14      22.8968      0.00000
     15      23.1060      0.00000
     16      28.3539      0.00000
     17      29.5899      0.00000
     18      29.6208      0.00000
     19      29.7380      0.00000
     20      31.7364      0.00000
     21      31.8653      0.00000
     22      32.1073      0.00000
     23      35.2330      0.00000
     24      35.6284      0.00000

 k-point     9 :       0.1667    0.0833    0.0000
  band No.  band energies     occupation 
      1       1.1232      1.00000
      2       3.7611      1.00000
      3       4.5336      1.00000
      4       4.6127      1.00000
      5       5.0481      1.00000
      6       5.1204      1.00000
      7       5.4273      1.00000
      8       5.4328      1.00000
      9       5.5486      1.00000
     10       5.7406      1.00000
     11       6.3030      1.00000
     12      10.3605      0.00000
     13      12.4500      0.00000
     14      19.4843      0.00000
     15      21.4428      0.00000
     16      26.5239      0.00000
     17      27.1029      0.00000
     18      28.3685      0.00000
     19      29.0011      0.00000
     20      29.7037      0.00000
     21      32.4776      0.00000
     22      32.9749      0.00000
     23      35.0694      0.00000
     24      35.4511      0.00000

 k-point    10 :       0.2500    0.0833    0.0000
  band No.  band energies     occupation 
      1       2.1293      1.00000
      2       3.8612      1.00000
      3       4.1975      1.00000
      4       4.5038      1.00000
      5       4.9931      1.00000
      6       5.0620      1.00000
      7       5.2972      1.00000
      8       5.7061      1.00000
      9       5.8931      1.00000
     10       6.1432      1.00000
     11       6.3294      1.00000
     12      11.9033      0.00000
     13      12.9421      0.00000
     14      16.3060      0.00000
     15      20.1361      0.00000
     16      23.5516      0.00000
     17      24.2741      0.00000
     18      27.2633      0.00000
     19      28.1017      0.00000
     20      28.4967      0.00000
     21      33.2154      0.00000
     22      34.7643      0.00000
     23      34.9488      0.00000
     24      36.0387      0.00000

 k-point    11 :       0.3333    0.0833    0.0000
[...]
     22      32.9731      0.00000
     23      35.3282      0.00000
     24      35.3282      0.00000

 k-point    90 :       0.2500    0.1667    0.5000
  band No.  band energies     occupation 
      1       4.2978      1.00000
      2       4.2978      1.00000
      3       5.9253      1.00000
      4       5.9253      1.00000
      5       6.4306      1.00000
      6       6.4306      1.00000
      7       7.3242      0.98617
      8       7.3242      0.98617
      9       8.3500      0.00000
     10       8.3500      0.00000
     11       8.9966      0.00000
     12       8.9966      0.00000
     13      17.4981      0.00000
     14      17.4981      0.00000
     15      19.5334      0.00000
     16      19.5334      0.00000
     17      23.4833      0.00000
     18      23.4833      0.00000
     19      31.3360      0.00000
     20      31.3360      0.00000
     21      33.0430      0.00000
     22      33.0430      0.00000
     23      34.4800      0.00000
     24      34.4800      0.00000

 k-point    91 :       0.3333    0.1667    0.5000
  band No.  band energies     occupation 
      1       4.7144      1.00000
      2       4.7144      1.00000
      3       5.9046      1.00000
      4       5.9046      1.00000
      5       6.5305      1.00000
      6       6.5305      1.00000
      7       7.4237      0.27046
      8       7.4237      0.27046
      9       8.3472      0.00000
     10       8.3472      0.00000
     11       9.9011      0.00000
     12       9.9011      0.00000
     13      15.0790      0.00000
     14      15.0790      0.00000
     15      18.9382      0.00000
     16      18.9382      0.00000
     17      24.6836      0.00000
     18      24.6836      0.00000
     19      29.8772      0.00000
     20      29.8772      0.00000
     21      31.7401      0.00000
     22      31.7401      0.00000
     23      35.2108      0.00000
     24      35.2108      0.00000

 k-point    92 :       0.4167    0.1667    0.5000
  band No.  band energies     occupation 
      1       4.8230      1.00000
      2       4.8230      1.00000
      3       5.9067      1.00000
      4       5.9067      1.00000
      5       6.5702      1.00000
      6       6.5702      1.00000
      7       7.5438      0.00003
      8       7.5438      0.00003
      9       8.3015      0.00000
     10       8.3015      0.00000
     11      10.5742      0.00000
     12      10.5742      0.00000
     13      13.8769      0.00000
     14      13.8769      0.00000
     15      18.7315      0.00000
     16      18.7315      0.00000
     17      25.4184      0.00000
     18      25.4184      0.00000
     19      28.9627      0.00000
     20      28.9627      0.00000
     21      31.3689      0.00000
     22      31.3689      0.00000
     23      35.3491      0.00000
     24      35.3491      0.00000

 k-point    93 :       0.2500    0.2500    0.5000
  band No.  band energies     occupation 
      1       4.8438      1.00000
      2       4.8438      1.00000
      3       5.9300      1.00000
      4       5.9300      1.00000
      5       6.3013      1.00000
      6       6.3013      1.00000
      7       7.3075      0.99625
      8       7.3075      0.99625
      9       8.3633      0.00000
     10       8.3633      0.00000
     11      10.0450      0.00000
     12      10.0450      0.00000
     13      16.4877      0.00000
     14      16.4877      0.00000
     15      17.0604      0.00000
     16      17.0604      0.00000
     17      24.6978      0.00000
     18      24.6978      0.00000
     19      30.8790      0.00000
     20      30.8790      0.00000
     21      32.0837      0.00000
     22      32.0837      0.00000
     23      35.5677      0.00000
     24      35.5677      0.00000

 k-point    94 :       0.3333    0.2500    0.5000
  band No.  band energies     occupation 
      1       5.1597      1.00000
      2       5.1597      1.00000
      3       5.9279      1.00000
      4       5.9279      1.00000
      5       6.2048      1.00000
      6       6.2048      1.00000
      7       7.3842      0.69260
      8       7.3842      0.69260
      9       8.2922      0.00000
     10       8.2922      0.00000
     11      11.3481      0.00000
     12      11.3481      0.00000
     13      14.5133      0.00000
     14      14.5133      0.00000
     15      16.4870      0.00000
     16      16.4870      0.00000
     17      26.0191      0.00000
     18      26.0191      0.00000
     19      29.1917      0.00000
     20      29.1917      0.00000
     21      31.6131      0.00000
     22      31.6131      0.00000
     23      36.7253      0.00000
     24      36.7253      0.00000

 k-point    95 :       0.3333    0.3333    0.5000
  band No.  band energies     occupation 
      1       5.5850      1.00000
      2       5.5850      1.00000
      3       5.6042      1.00000
      4       5.6042      1.00000
      5       6.1660      1.00000
      6       6.1660      1.00000
      7       7.3666      0.84193
      8       7.3666      0.84193
      9       8.2533      0.00000
     10       8.2533      0.00000
     11      12.5117      0.00000
     12      12.5117      0.00000
     13      13.9906      0.00000
     14      13.9906      0.00000
     15      15.3268      0.00000
     16      15.3268      0.00000
     17      27.2001      0.00000
     18      27.2001      0.00000
     19      28.1400      0.00000
     20      28.1400      0.00000
     21      31.2423      0.00000
     22      31.2423      0.00000
     23      39.8351      0.00000
     24      39.8352      0.00000


--------------------------------------------------------------------------------------------------------


 soft charge-density along one line, spin component           1
         0         1         2         3         4         5         6         7         8         9
 total charge-density along one line
 
 soft charge-density along one line, spin component           2
         0         1         2         3         4         5         6         7         8         9
 total charge-density along one line
 
 pseudopotential strength for first ion, spin component:           1
 -2.572   0.000  -0.000   0.000   0.000  -3.135   0.000  -0.000
  0.000  -2.581   0.000  -0.000  -0.000   0.000  -3.144   0.000
 -0.000   0.000  -2.568   0.000   0.000  -0.000   0.000  -3.132
  0.000  -0.000   0.000  -2.581   0.000   0.000  -0.000   0.000
  0.000  -0.000   0.000   0.000  -2.572   0.000  -0.000   0.000
 -3.135   0.000  -0.000   0.000   0.000  -3.641   0.000  -0.000
  0.000  -3.144   0.000  -0.000  -0.000   0.000  -3.650   0.000
 -0.000   0.000  -3.132   0.000   0.000  -0.000   0.000  -3.638
  0.000  -0.000   0.000  -3.144   0.000   0.000  -0.000   0.000
  0.000  -0.000   0.000   0.000  -3.135   0.000  -0.000   0.000
  0.000  -0.000   0.000  -0.000   0.000   0.000  -0.000   0.000
  0.000  -0.000   0.001  -0.000   0.000   0.000  -0.000   0.001
 -0.000  -0.000  -0.000   0.000   0.001  -0.000  -0.000  -0.000
  0.000   0.000  -0.000  -0.000   0.000   0.000   0.000  -0.000
  0.001   0.000   0.000  -0.000  -0.000   0.001   0.000   0.000
 -0.000  -0.000  -0.000   0.000   0.001  -0.000  -0.000  -0.000
  0.000   0.000  -0.000  -0.000   0.000   0.000   0.000  -0.000
  0.001   0.000   0.000  -0.000  -0.000   0.001   0.000   0.000
 pseudopotential strength for first ion, spin component:           2
 -1.131   0.000  -0.000   0.000   0.000  -1.755   0.000  -0.000
  0.000  -1.121   0.000  -0.000  -0.000   0.000  -1.745   0.000
 -0.000   0.000  -1.142   0.000   0.000  -0.000   0.000  -1.766
  0.000  -0.000   0.000  -1.121   0.000   0.000  -0.000   0.000
  0.000  -0.000   0.000   0.000  -1.131   0.000  -0.000   0.000
 -1.755   0.000  -0.000   0.000   0.000  -2.320   0.000  -0.000
  0.000  -1.745   0.000  -0.000  -0.000   0.000  -2.311   0.000
 -0.000   0.000  -1.766   0.000   0.000  -0.000   0.000  -2.331
  0.000  -0.000   0.000  -1.745   0.000   0.000  -0.000   0.000
  0.000  -0.000   0.000   0.000  -1.755   0.000  -0.000   0.000
  0.000  -0.000  -0.000  -0.000   0.000   0.000  -0.000  -0.000
  0.000  -0.000  -0.000  -0.000   0.000   0.000  -0.000  -0.000
 -0.000  -0.000   0.000   0.000   0.000  -0.000  -0.000   0.000
  0.000  -0.000  -0.000  -0.000   0.000   0.000  -0.000  -0.000
  0.000   0.000   0.000  -0.000  -0.000   0.000   0.000   0.000
 -0.000  -0.000   0.000   0.000  -0.000  -0.000  -0.000   0.000
  0.000  -0.000  -0.000  -0.000   0.000   0.000  -0.000  -0.000
 -0.000   0.000   0.000  -0.000  -0.000  -0.000   0.000   0.000
 total augmentation occupancy for first ion, spin component:           1
  2.702   0.000  -0.000  -0.000   0.000  -1.098  -0.000  -0.000   0.000  -0.000  -0.000   0.000   0.000  -0.000  -0.027  -0.000
  0.000   2.797   0.000   0.000  -0.000  -0.000  -1.150   0.000   0.000   0.000   0.000  -0.000  -0.000   0.000  -0.000   0.000
  0.000   0.000   2.590   0.000   0.000   0.000   0.000  -1.051   0.000  -0.000  -0.012   0.001   0.000  -0.000  -0.000   0.000
 -0.000  -0.000  -0.000   2.797   0.000   0.000   0.000   0.000  -1.150   0.000   0.000   0.000   0.000   0.000   0.000   0.000
  0.000  -0.000   0.000  -0.000   2.702   0.000   0.000  -0.000   0.000  -1.098   0.000   0.000  -0.027  -0.000   0.000   0.001
 -1.098   0.000   0.000   0.000   0.000   1.034  -0.000  -0.000   0.000   0.000   0.000  -0.000   0.000   0.000   0.041   0.000
  0.000  -1.150   0.000   0.000  -0.000   0.000   1.039   0.000   0.000   0.000   0.000   0.000   0.000   0.000   0.000  -0.000
  0.000  -0.000  -1.051   0.000  -0.000   0.000   0.000   1.053   0.000   0.000   0.017  -0.002   0.000   0.000  -0.000  -0.000
  0.000   0.000   0.000  -1.150   0.000  -0.000   0.000  -0.000   1.039   0.000  -0.000  -0.000  -0.000  -0.000   0.000  -0.000
  0.000   0.000  -0.000   0.000  -1.098   0.000  -0.000   0.000  -0.000   1.034  -0.000   0.000   0.041   0.000   0.000  -0.003
  0.000   0.000  -0.012  -0.000   0.000   0.000   0.000   0.017  -0.000  -0.000   1.754  -0.167  -0.000   0.000   0.000   0.000
  0.000  -0.000   0.001  -0.000   0.000   0.000   0.000  -0.002  -0.000   0.000  -0.167   0.023   0.000   0.000  -0.000  -0.000
 -0.000   0.000  -0.000   0.000  -0.027  -0.000   0.000   0.000   0.000   0.041  -0.000  -0.000   0.209  -0.000   0.000  -0.019
 -0.000   0.000  -0.000  -0.000   0.000   0.000   0.000  -0.000   0.000  -0.000   0.000  -0.000  -0.000   0.215  -0.000   0.000
 -0.027  -0.000  -0.000  -0.000   0.000   0.041   0.000   0.000   0.000   0.000   0.000   0.000   0.000   0.000   0.209   0.000
 -0.000   0.000   0.000   0.000   0.001  -0.000   0.000  -0.000  -0.000  -0.003  -0.000   0.000  -0.019   0.000   0.000   0.002
  0.000   0.000   0.000   0.000  -0.000  -0.000  -0.000  -0.000  -0.000   0.000   0.000   0.000   0.000  -0.019   0.000  -0.000
  0.001   0.000   0.000   0.000   0.000  -0.003  -0.000  -0.000   0.000  -0.000   0.000  -0.000   0.000   0.000  -0.019   0.000
 total augmentation occupancy for first ion, spin component:           2
  2.016  -0.000   0.000  -0.000  -0.000  -0.931   0.000   0.000   0.000   0.000   0.000  -0.000   0.000  -0.000   0.003   0.000
  0.000   2.067   0.000   0.000  -0.000   0.000  -0.960   0.000  -0.000   0.000   0.000  -0.000  -0.000   0.000  -0.000   0.000
 -0.000   0.000   2.015  -0.000   0.000   0.000  -0.000  -0.932   0.000  -0.000   0.004   0.000  -0.000   0.000  -0.000  -0.000
  0.000   0.000   0.000   2.067   0.000  -0.000  -0.000  -0.000  -0.960   0.000   0.000  -0.000   0.000   0.000  -0.000   0.000
 -0.000   0.000   0.000   0.000   2.016  -0.000  -0.000  -0.000   0.000  -0.931   0.000   0.000   0.003   0.000   0.000  -0.001
 -0.931   0.000   0.000  -0.000  -0.000   0.254  -0.000   0.000   0.000  -0.000  -0.000  -0.000  -0.000   0.000  -0.007   0.000
  0.000  -0.960   0.000   0.000  -0.000  -0.000   0.279  -0.000   0.000   0.000   0.000   0.000   0.000   0.000  -0.000   0.000
  0.000  -0.000  -0.932   0.000  -0.000  -0.000   0.000   0.244  -0.000   0.000  -0.005   0.000  -0.000  -0.000   0.000   0.000
  0.000   0.000   0.000  -0.960  -0.000  -0.000  -0.000  -0.000   0.279  -0.000   0.000   0.000  -0.000  -0.000  -0.000   0.000
  0.000  -0.000  -0.000  -0.000  -0.931   0.000   0.000   0.000   0.000   0.254   0.000   0.000  -0.007  -0.000   0.000   0.001
 -0.000   0.000   0.004   0.000   0.000  -0.000   0.000  -0.005   0.000   0.000  -0.256   0.075   0.000  -0.000  -0.000   0.000
  0.000  -0.000   0.000   0.000   0.000  -0.000   0.000   0.000  -0.000   0.000   0.075  -0.011  -0.000  -0.000   0.000   0.000
  0.000   0.000   0.000   0.000   0.003   0.000  -0.000  -0.000  -0.000  -0.007   0.000   0.000  -0.030   0.000  -0.000   0.004
  0.000  -0.000   0.000  -0.000  -0.000  -0.000   0.000  -0.000   0.000   0.000  -0.000  -0.000  -0.000  -0.034   0.000   0.000
  0.003   0.000  -0.000   0.000  -0.000  -0.007  -0.000   0.000   0.000   0.000  -0.000   0.000   0.000   0.000  -0.030   0.000
 -0.000   0.000  -0.000   0.000  -0.001   0.000   0.000   0.000  -0.000   0.001  -0.000   0.000   0.004  -0.000   0.000  -0.000
  0.000   0.000   0.000   0.000   0.000   0.000   0.000   0.000   0.000   0.000   0.000   0.000   0.000   0.004   0.000  -0.000
 -0.001   0.000   0.000   0.000   0.000   0.001  -0.000  -0.000   0.000   0.000   0.000   0.000   0.000  -0.000   0.004   0.000


------------------------ aborting loop because EDIFF is reached ----------------------------------------





 total charge

# of ion       s       p       d       tot
------------------------------------------
    1        0.408   0.355   7.153   7.916
    2        0.408   0.355   7.153   7.916
--------------------------------------------------
tot          0.816   0.710  14.307  15.833



 magnetization (x)

# of ion       s       p       d       tot
------------------------------------------
    1       -0.012  -0.049   1.873   1.812
    2       -0.012  -0.049   1.873   1.812
--------------------------------------------------
tot         -0.024  -0.097   3.746   3.625
 
    CHARGE:  cpu time      0.0337: real time      0.0338
    FORLOC:  cpu time      0.0001: real time      0.0001
    FORNL :  cpu time      0.0323: real time      0.0325
    STRESS:  cpu time      0.2196: real time      0.2203
    FORCOR:  cpu time      0.0050: real time      0.0050
    FORHAR:  cpu time      0.0005: real time      0.0005
    MIXING:  cpu time      0.0003: real time      0.0003
    OFIELD:  cpu time      0.0000: real time      0.0000

  FORCE on cell =-STRESS in cart. coord.  units (eV):
  Direction    XX          YY          ZZ          XY          YZ          ZX
  --------------------------------------------------------------------------------------
  Alpha Z    62.19494    62.19494    62.19494
  Ewald    -472.87759  -472.87759  -464.77778    -0.00000    -0.00000    -0.00000
  Hartree   103.44779   103.44779   107.56431    -0.00000    -0.00000    -0.00000
  E(xc)     -91.21256   -91.21258   -91.21339    -0.00000     0.00000    -0.00000
  Local     -51.11938   -51.11919   -63.17862    -0.00000    -0.00000     0.00000
  n-local   -20.44188   -11.55826   -15.81775     2.97474    -0.54309     2.06519
  augment   313.31500   313.31488   313.18418     0.00000    -0.00000     0.00000
  Kinetic   150.15675   144.65582   147.28524    -2.97886    -0.62153     0.48573
  Fock        0.00000     0.00000     0.00000     0.00000     0.00000     0.00000
  -------------------------------------------------------------------------------------
  Total      -4.84556    -4.84556    -4.75887     0.00000    -0.00000    -0.00000
  in kB    -284.98185  -284.98185  -279.88325     0.00000    -0.00000    -0.00000
  external pressure =     -283.28 kB  Pullay stress =        0.00 kB


 VOLUME and BASIS-vectors are now :
 -----------------------------------------------------------------------------
  energy-cutoff  :      425.00
  volume of cell :       27.24
      direct lattice vectors                 reciprocal lattice vectors
     1.345828829 -2.331043911  0.000000000     0.371518271 -0.214496174  0.000000000
     1.345828829  2.331043911  0.000000000     0.371518271  0.214496174  0.000000000
     0.000000000  0.000000000  4.341771102     0.000000000  0.000000000  0.230320755

  length of vectors
     2.691657659  2.691657659  4.341771102     0.428992348  0.428992348  0.230320755


 FORCES acting on ions
    electron-ion (+dipol)            ewald-force                    non-local-force                 convergence-correction
 -----------------------------------------------------------------------------------------------
   0.235E-10 -.576E-07 -.536E-12   0.359E-16 0.212E-11 -.183E-13   0.781E-17 0.121E-16 0.217E-18   -.245E-13 -.232E-08 0.353E-13
   0.218E-10 0.576E-07 -.527E-11   0.406E-14 -.212E-11 0.183E-13   -.260E-17 -.121E-16 -.217E-18   -.966E-14 0.232E-08 -.709E-13
 -----------------------------------------------------------------------------------------------
   0.453E-10 0.219E-11 -.580E-11   0.410E-14 0.181E-15 0.000E+00   0.520E-17 0.000E+00 0.000E+00   -.342E-13 0.525E-15 -.356E-13
 
 
 POSITION                                       TOTAL-FORCE (eV/Angst)
 -----------------------------------------------------------------------------------
      1.34583      0.77701      1.08544         0.000000      0.000000     -0.000000
      1.34583     -0.77701      3.25633        -0.000000     -0.000000      0.000000
 -----------------------------------------------------------------------------------
    total drift:                                0.000000      0.000000     -0.000000


--------------------------------------------------------------------------------------------------------



  FREE ENERGIE OF THE ION-ELECTRON SYSTEM (eV)
  ---------------------------------------------------
  free  energy   TOTEN  =       -13.46599411 eV

  energy  without entropy=      -13.46268556  energy(sigma->0) =      -13.46433983
 


--------------------------------------------------------------------------------------------------------


    POTLOK:  cpu time      0.0105: real time      0.0105


--------------------------------------------------------------------------------------------------------




--------------------------------------------------------------------------------------------------------


  
 reached required accuracy - stopping structural energy minimisation
     LOOP+:  cpu time     17.4264: real time     17.5645
    4ORBIT:  cpu time      0.0000: real time      0.0000



 total charge

# of ion       s       p       d       tot
------------------------------------------
    1        0.408   0.355   7.153   7.916
    2        0.408   0.355   7.153   7.916
--------------------------------------------------
tot          0.816   0.710  14.307  15.833



 magnetization (x)

# of ion       s       p       d       tot
------------------------------------------
    1       -0.012  -0.049   1.873   1.812
    2       -0.012  -0.049   1.873   1.812
--------------------------------------------------
tot         -0.024  -0.097   3.746   3.625
 

 total amount of memory used by VASP MPI-rank0    41146. kBytes
=======================================================================

   base      :      30000. kBytes
   nonl-proj :       7898. kBytes
   fftplans  :        183. kBytes
   grid      :       1107. kBytes
   one-center:         62. kBytes
   wavefun   :       1896. kBytes
 
  
  
 General timing and accounting informations for this job:
 ========================================================
  
                  Total CPU time used (sec):       18.481
                            User time (sec):       17.942
                          System time (sec):        0.539
                         Elapsed time (sec):       20.370
  
                   Maximum memory used (kb):      235588.
                   Average memory used (kb):          N/A
  
                          Minor page faults:        35164
                          Major page faults:           74
                 Voluntary context switches:         2151
