PROCAR lm decomposed
# of k-points:   95         # of bands:   24         # of ions:    2

 k-point     1 :    0.00000000 0.00000000 0.00000000     weight = 0.00086806

band     1 # energy   -0.24640064 # occ.  1.00000000
 
ion      s     py     pz     px    dxy    dyz    dz2    dxz  x2-y2    tot
    1  0.284  0.000  0.000  0.000  0.000  0.000  0.000  0.000  0.000  0.284
    2  0.284  0.000  0.000  0.000  0.000  0.000  0.000  0.000  0.000  0.284
tot    0.567  0.000  0.000  0.000  0.000  0.000  0.000  0.000  0.000  0.567
 
band     2 # energy    3.16472333 # occ.  1.00000000
 
ion      s     py     pz     px    dxy    dyz    dz2    dxz  x2-y2    tot
    1  0.061  0.000  0.000  0.000  0.000  0.000  0.354  0.000  0.000  0.415
    2  0.061  0.000  0.000  0.000  0.000  0.000  0.354  0.000  0.000  0.415
tot    0.123  0.000  0.000  0.000  0.000  0.000  0.708  0.000  0.000  0.831
 
band     3 # energy    5.00609863 # occ.  1.00000000
 
ion      s     py     pz     px    dxy    dyz    dz2    dxz  x2-y2    tot
    1  0.000  0.000  0.000  0.000  0.000  0.000  0.479  0.000  0.000  0.479
    2  0.000  0.000  0.000  0.000  0.000  0.000  0.479  0.000  0.000  0.479
tot    0.000  0.000  0.000  0.000  0.000  0.000  0.957  0.000  0.000  0.957
 
band     4 # energy    5.01388630 # occ.  1.00000000
 
ion      s     py     pz     px    dxy    dyz    dz2    dxz  x2-y2    tot
    1  0.000  0.000  0.000  0.000  0.000  0.000  0.000  0.000  0.476  0.476
    2  0.000  0.000  0.000  0.000  0.000  0.000  0.000  0.000  0.476  0.476
tot    0.000  0.001  0.000  0.000  0.000  0.000  0.000  0.000  0.952  0.952
 
band     5 # energy    5.01388719 # occ.  1.00000000
 
ion      s     py     pz     px    dxy    dyz    dz2    dxz  x2-y2    tot
    1  0.000  0.000  0.000  0.000  0.476  0.000  0.000  0.000  0.000  0.476
    2  0.000  0.000  0.000  0.000  0.476  0.000  0.000  0.000  0.000  0.476
tot    0.000  0.000  0.000  0.001  0.952  0.000  0.000  0.000  0.000  0.952
 
band     6 # energy    5.22556043 # occ.  1.00000000
 
ion      s     py     pz     px    dxy    dyz    dz2    dxz  x2-y2    tot
    1  0.000  0.000  0.000  0.000  0.000  0.000  0.000  0.000  0.481  0.481
    2  0.000  0.000  0.000  0.000  0.000  0.000  0.000  0.000  0.481  0.481
tot    0.000  0.001  0.000  0.000  0.000  0.000  0.000  0.000  0.962  0.962
 
band     7 # energy    5.22556125 # occ.  1.00000000
 
ion      s     py     pz     px    dxy    dyz    dz2    dxz  x2-y2    tot
    1  0.000  0.000  0.000  0.000  0.481  0.000  0.000  0.000  0.000  0.481
    2  0.000  0.000  0.000  0.000  0.481  0.000  0.000  0.000  0.000  0.481
tot    0.000  0.000  0.000  0.001  0.962  0.000  0.000  0.000  0.000  0.962
 
band     8 # energy    5.45064048 # occ.  1.00000000
 
ion      s     py     pz     px    dxy    dyz    dz2    dxz  x2-y2    tot
    1  0.000  0.000  0.000  0.000  0.000  0.485  0.000  0.000  0.000  0.485
    2  0.000  0.000  0.000  0.000  0.000  0.485  0.000  0.000  0.000  0.485
tot    0.000  0.000  0.000  0.000  0.000  0.970  0.000  0.000  0.000  0.970
 
band     9 # energy    5.45064065 # occ.  1.00000000
 
ion      s     py     pz     px    dxy    dyz    dz2    dxz  x2-y2    tot
    1  0.000  0.000  0.000  0.000  0.000  0.000  0.000  0.485  0.000  0.485
    2  0.000  0.000  0.000  0.000  0.000  0.000  0.000  0.485  0.000  0.485
tot    0.000  0.000  0.000  0.000  0.000  0.000  0.000  0.970  0.000  0.970
 
band    10 # energy    6.22725839 # occ.  1.00000000
 
ion      s     py     pz     px    dxy    dyz    dz2    dxz  x2-y2    tot
    1  0.000  0.000  0.000  0.000  0.000  0.491  0.000  0.000  0.000  0.491
    2  0.000  0.000  0.000  0.000  0.000  0.491  0.000  0.000  0.000  0.491
tot    0.000  0.000  0.000  0.000  0.000  0.982  0.000  0.000  0.000  0.982
 
band    11 # energy    6.22725852 # occ.  1.00000000
 
ion      s     py     pz     px    dxy    dyz    dz2    dxz  x2-y2    tot
    1  0.000  0.000  0.000  0.000  0.000  0.000  0.000  0.491  0.000  0.491
    2  0.000  0.000  0.000  0.000  0.000  0.000  0.000  0.491  0.000  0.491
tot    0.000  0.000  0.000  0.000  0.000  0.000  0.000  0.982  0.000  0.982
 
band    12 # energy    7.51113461 # occ.  0.00101524
 
ion      s     py     pz     px    dxy    dyz    dz2    dxz  x2-y2    tot
    1  0.000  0.000  0.261  0.000  0.000  0.000  0.000  0.000  0.000  0.261
    2  0.000  0.000  0.261  0.000  0.000  0.000  0.000  0.000  0.000  0.261
tot    0.000  0.000  0.521  0.000  0.000  0.000  0.000  0.000  0.000  0.521
 
band    13 # energy   11.97321976 # occ.  0.00000000
 
ion      s     py     pz     px    dxy    dyz    dz2    dxz  x2-y2    tot
    1  0.211  0.000  0.000  0.000  0.000  0.000  0.190  0.000  0.000  0.401
    2  0.211  0.000  0.000  0.000  0.000  0.000  0.190  0.000  0.000  0.401
tot    0.421  0.000  0.000  0.000  0.000  0.000  0.381  0.000  0.000  0.802
 
band    14 # energy   27.40025854 # occ.  0.00000000
 
ion      s     py     pz     px    dxy    dyz    dz2    dxz  x2-y2    tot
    1  0.007  0.000  0.000  0.000  0.000  0.000  0.031  0.000  0.000  0.038
    2  0.007  0.000  0.000  0.000  0.000  0.000  0.031  0.000  0.000  0.038
tot    0.013  0.000  0.000  0.000  0.000  0.000  0.063  0.000  0.000  0.076
 
band    15 # energy   27.97918308 # occ.  0.00000000
 
ion      s     py     pz     px    dxy    dyz    dz2    dxz  x2-y2    tot
    1  0.000  0.275  0.000  0.000  0.000  0.000  0.000  0.000  0.069  0.344
    2  0.000  0.275  0.000  0.000  0.000  0.000  0.000  0.000  0.069  0.344
tot    0.000  0.550  0.000  0.000  0.000  0.000  0.000  0.000  0.139  0.689
 
band    16 # energy   27.97918603 # occ.  0.00000000
 
ion      s     py     pz     px    dxy    dyz    dz2    dxz  x2-y2    tot
    1  0.000  0.000  0.000  0.275  0.069  0.000  0.000  0.000  0.000  0.344
    2  0.000  0.000  0.000  0.275  0.069  0.000  0.000  0.000  0.000  0.344
tot    0.000  0.000  0.000  0.550  0.139  0.000  0.000  0.000  0.000  0.689
 
band    17 # energy   29.54825106 # occ.  0.00000000
 
ion      s     py     pz     px    dxy    dyz    dz2    dxz  x2-y2    tot
    1  0.000  0.107  0.000  0.000  0.000  0.000  0.000  0.000  0.250  0.357
    2  0.000  0.107  0.000  0.000  0.000  0.000  0.000  0.000  0.250  0.357
tot    0.000  0.214  0.000  0.000  0.000  0.000  0.000  0.000  0.500  0.713
 
band    18 # energy   29.54825705 # occ.  0.00000000
 
ion      s     py     pz     px    dxy    dyz    dz2    dxz  x2-y2    tot
    1  0.000  0.000  0.000  0.107  0.250  0.000  0.000  0.000  0.000  0.357
    2  0.000  0.000  0.000  0.107  0.250  0.000  0.000  0.000  0.000  0.357
tot    0.000  0.000  0.000  0.214  0.500  0.000  0.000  0.000  0.000  0.713
 
band    19 # energy   29.83891311 # occ.  0.00000000
 
ion      s     py     pz     px    dxy    dyz    dz2    dxz  x2-y2    tot
    1  0.028  0.000  0.000  0.000  0.000  0.000  0.072  0.000  0.000  0.100
    2  0.028  0.000  0.000  0.000  0.000  0.000  0.072  0.000  0.000  0.100
tot    0.057  0.000  0.000  0.000  0.000  0.000  0.143  0.000  0.000  0.200
 
band    20 # energy   30.41077126 # occ.  0.00000000
 
ion      s     py     pz     px    dxy    dyz    dz2    dxz  x2-y2    tot
    1  0.000  0.000  0.053  0.000  0.000  0.000  0.000  0.000  0.000  0.053
    2  0.000  0.000  0.053  0.000  0.000  0.000  0.000  0.000  0.000  0.053
tot    0.000  0.000  0.105  0.000  0.000  0.000  0.000  0.000  0.000  0.105
 
band    21 # energy   34.45196651 # occ.  0.00000000
 
ion      s     py     pz     px    dxy    dyz    dz2    dxz  x2-y2    tot
    1  0.002  0.000  0.000  0.000  0.000  0.000  0.440  0.000  0.000  0.442
    2  0.002  0.000  0.000  0.000  0.000  0.000  0.440  0.000  0.000  0.442
tot    0.005  0.000  0.000  0.000  0.000  0.000  0.879  0.000  0.000  0.884
 
band    22 # energy   34.58951974 # occ.  0.00000000
 
ion      s     py     pz     px    dxy    dyz    dz2    dxz  x2-y2    tot
    1  0.000  0.000  0.000  0.000  0.000  0.107  0.000  0.000  0.000  0.107
    2  0.000  0.000  0.000  0.000  0.000  0.107  0.000  0.000  0.000  0.107
tot    0.000  0.000  0.000  0.000  0.000  0.214  0.000  0.000  0.000  0.214
 
band    23 # energy   34.58952210 # occ.  0.00000000
 
ion      s     py     pz     px    dxy    dyz    dz2    dxz  x2-y2    tot
    1  0.000  0.000  0.000  0.000  0.000  0.000  0.000  0.107  0.000  0.107
    2  0.000  0.000  0.000  0.000  0.000  0.000  0.000  0.107  0.000  0.107
tot    0.000  0.000  0.000  0.000  0.000  0.000  0.000  0.214  0.000  0.214
 
band    24 # energy   35.73447821 # occ.  0.00000000
 
ion      s     py     pz     px    dxy    dyz    dz2    dxz  x2-y2    tot
    1  0.000  0.000  0.046  0.000  0.000  0.000  0.000  0.000  0.000  0.046
    2  0.000  0.000  0.046  0.000  0.000  0.000  0.000  0.000  0.000  0.046
tot    0.000  0.000  0.092  0.000  0.000  0.000  0.000  0.000  0.000  0.092
 

 k-point     2 :    0.08333333-0.00000000 0.00000000     weight = 0.00520833

band     1 # energy   -0.04165820 # occ.  1.00000000
 
ion      s     py     pz     px    dxy    dyz    dz2    dxz  x2-y2    tot
    1  0.278  0.001  0.000  0.004  0.000  0.000  0.000  0.000  0.000  0.284
    2  0.278  0.001  0.000  0.004  0.000  0.000  0.000  0.000  0.000  0.284
tot    0.556  0.003  0.000  0.008  0.000  0.000  0.000  0.000  0.000  0.567
 
band     2 # energy    3.27714210 # occ.  1.00000000
 
ion      s     py     pz     px    dxy    dyz    dz2    dxz  x2-y2    tot
    1  0.055  0.001  0.000  0.002  0.002  0.000  0.357  0.000  0.001  0.418
    2  0.055  0.001  0.000  0.002  0.002  0.000  0.357  0.000  0.001  0.418
tot    0.111  0.002  0.000  0.005  0.003  0.000  0.713  0.000  0.001  0.835
 
band     3 # energy    4.85589633 # occ.  1.00000000
 
ion      s     py     pz     px    dxy    dyz    dz2    dxz  x2-y2    tot
    1  0.000  0.000  0.000  0.001  0.232  0.000  0.163  0.000  0.077  0.473
    2  0.000  0.000  0.000  0.001  0.232  0.000  0.163  0.000  0.077  0.473
tot    0.000  0.000  0.000  0.001  0.464  0.000  0.326  0.000  0.155  0.947
 
band     4 # energy    5.09312993 # occ.  1.00000000
 
ion      s     py     pz     px    dxy    dyz    dz2    dxz  x2-y2    tot
    1  0.000  0.000  0.000  0.000  0.119  0.000  0.000  0.000  0.357  0.477
    2  0.000  0.000  0.000  0.000  0.119  0.000  0.000  0.000  0.357  0.477
tot    0.000  0.001  0.000  0.000  0.238  0.000  0.000  0.000  0.714  0.954
 
band     5 # energy    5.14097653 # occ.  1.00000000
 
ion      s     py     pz     px    dxy    dyz    dz2    dxz  x2-y2    tot
    1  0.000  0.000  0.000  0.000  0.156  0.000  0.271  0.000  0.052  0.480
    2  0.000  0.000  0.000  0.000  0.156  0.000  0.271  0.000  0.052  0.480
tot    0.000  0.000  0.000  0.000  0.312  0.000  0.542  0.000  0.104  0.959
 
band     6 # energy    5.19665764 # occ.  1.00000000
 
ion      s     py     pz     px    dxy    dyz    dz2    dxz  x2-y2    tot
    1  0.001  0.000  0.000  0.000  0.324  0.000  0.046  0.000  0.108  0.480
    2  0.001  0.000  0.000  0.000  0.324  0.000  0.046  0.000  0.108  0.480
tot    0.001  0.000  0.000  0.001  0.649  0.000  0.092  0.000  0.216  0.960
 
band     7 # energy    5.29532616 # occ.  1.00000000
 
ion      s     py     pz     px    dxy    dyz    dz2    dxz  x2-y2    tot
    1  0.000  0.000  0.000  0.000  0.120  0.000  0.000  0.000  0.361  0.482
    2  0.000  0.000  0.000  0.000  0.120  0.000  0.000  0.000  0.361  0.482
tot    0.000  0.001  0.000  0.000  0.241  0.000  0.000  0.000  0.722  0.964
 
band     8 # energy    5.36145362 # occ.  1.00000000
 
ion      s     py     pz     px    dxy    dyz    dz2    dxz  x2-y2    tot
    1  0.000  0.000  0.003  0.000  0.000  0.119  0.000  0.357  0.000  0.480
    2  0.000  0.000  0.003  0.000  0.000  0.119  0.000  0.357  0.000  0.480
tot    0.000  0.000  0.006  0.000  0.000  0.238  0.000  0.714  0.000  0.959
 
band     9 # energy    5.40303602 # occ.  1.00000000
 
ion      s     py     pz     px    dxy    dyz    dz2    dxz  x2-y2    tot
    1  0.000  0.000  0.000  0.000  0.000  0.363  0.000  0.121  0.000  0.484
    2  0.000  0.000  0.000  0.000  0.000  0.363  0.000  0.121  0.000  0.484
tot    0.000  0.000  0.000  0.000  0.000  0.726  0.000  0.242  0.000  0.968
 
band    10 # energy    5.80412367 # occ.  1.00000000
 
ion      s     py     pz     px    dxy    dyz    dz2    dxz  x2-y2    tot
    1  0.000  0.000  0.041  0.000  0.000  0.102  0.000  0.305  0.000  0.448
    2  0.000  0.000  0.041  0.000  0.000  0.102  0.000  0.305  0.000  0.448
tot    0.000  0.000  0.082  0.000  0.000  0.204  0.000  0.611  0.000  0.896
 
band    11 # energy    6.24696562 # occ.  1.00000000
 
ion      s     py     pz     px    dxy    dyz    dz2    dxz  x2-y2    tot
    1  0.000  0.000  0.000  0.000  0.000  0.369  0.000  0.123  0.000  0.492
    2  0.000  0.000  0.000  0.000  0.000  0.369  0.000  0.123  0.000  0.492
tot    0.000  0.000  0.000  0.000  0.000  0.738  0.000  0.246  0.000  0.984
 
band    12 # energy    8.18246065 # occ.  0.00000000
 
ion      s     py     pz     px    dxy    dyz    dz2    dxz  x2-y2    tot
    1  0.000  0.000  0.215  0.000  0.000  0.023  0.000  0.070  0.000  0.309
    2  0.000  0.000  0.215  0.000  0.000  0.023  0.000  0.070  0.000  0.309
tot    0.000  0.000  0.429  0.000  0.000  0.047  0.000  0.141  0.000  0.617
 
band    13 # energy   12.02947186 # occ.  0.00000000
 
ion      s     py     pz     px    dxy    dyz    dz2    dxz  x2-y2    tot
    1  0.208  0.001  0.000  0.004  0.000  0.000  0.184  0.000  0.000  0.398
    2  0.208  0.001  0.000  0.004  0.000  0.000  0.184  0.000  0.000  0.398
tot    0.416  0.003  0.000  0.008  0.000  0.000  0.369  0.000  0.000  0.796
 
band    14 # energy   24.74763791 # occ.  0.00000000
 
ion      s     py     pz     px    dxy    dyz    dz2    dxz  x2-y2    tot
    1  0.018  0.036  0.000  0.109  0.079  0.000  0.017  0.000  0.026  0.285
    2  0.018  0.036  0.000  0.109  0.079  0.000  0.017  0.000  0.026  0.285
tot    0.036  0.072  0.000  0.217  0.157  0.000  0.034  0.000  0.052  0.569
 
band    15 # energy   26.29981481 # occ.  0.00000000
 
ion      s     py     pz     px    dxy    dyz    dz2    dxz  x2-y2    tot
    1  0.000  0.176  0.000  0.059  0.026  0.000  0.000  0.000  0.077  0.338
    2  0.000  0.176  0.000  0.059  0.026  0.000  0.000  0.000  0.077  0.338
tot    0.000  0.353  0.000  0.118  0.051  0.000  0.000  0.000  0.154  0.676
 
band    16 # energy   27.09217548 # occ.  0.00000000
 
ion      s     py     pz     px    dxy    dyz    dz2    dxz  x2-y2    tot
    1  0.020  0.015  0.000  0.046  0.049  0.000  0.034  0.000  0.016  0.180
    2  0.020  0.015  0.000  0.046  0.049  0.000  0.034  0.000  0.016  0.180
tot    0.039  0.030  0.000  0.091  0.098  0.000  0.068  0.000  0.033  0.360
 
band    17 # energy   30.41961384 # occ.  0.00000000
 
ion      s     py     pz     px    dxy    dyz    dz2    dxz  x2-y2    tot
    1  0.006  0.012  0.000  0.037  0.027  0.000  0.037  0.000  0.009  0.130
    2  0.006  0.012  0.000  0.037  0.027  0.000  0.037  0.000  0.009  0.130
tot    0.012  0.025  0.000  0.075  0.055  0.000  0.074  0.000  0.018  0.259
 
band    18 # energy   30.45079764 # occ.  0.00000000
 
ion      s     py     pz     px    dxy    dyz    dz2    dxz  x2-y2    tot
    1  0.000  0.000  0.018  0.000  0.000  0.011  0.000  0.032  0.000  0.061
    2  0.000  0.000  0.018  0.000  0.000  0.011  0.000  0.032  0.000  0.061
tot    0.000  0.000  0.036  0.000  0.000  0.022  0.000  0.065  0.000  0.123
 
band    19 # energy   31.47749165 # occ.  0.00000000
 
ion      s     py     pz     px    dxy    dyz    dz2    dxz  x2-y2    tot
    1  0.000  0.112  0.000  0.037  0.053  0.000  0.000  0.000  0.158  0.360
    2  0.000  0.112  0.000  0.037  0.053  0.000  0.000  0.000  0.158  0.360
tot    0.000  0.224  0.000  0.075  0.106  0.000  0.000  0.000  0.317  0.720
 
band    20 # energy   31.67253177 # occ.  0.00000000
 
ion      s     py     pz     px    dxy    dyz    dz2    dxz  x2-y2    tot
    1  0.000  0.000  0.054  0.000  0.000  0.024  0.000  0.073  0.000  0.151
    2  0.000  0.000  0.054  0.000  0.000  0.024  0.000  0.073  0.000  0.151
tot    0.000  0.000  0.107  0.000  0.000  0.049  0.000  0.146  0.000  0.301
 
band    21 # energy   32.14101469 # occ.  0.00000000
 
ion      s     py     pz     px    dxy    dyz    dz2    dxz  x2-y2    tot
    1  0.006  0.052  0.000  0.157  0.045  0.000  0.007  0.000  0.015  0.281
    2  0.006  0.052  0.000  0.157  0.045  0.000  0.007  0.000  0.015  0.281
tot    0.011  0.104  0.000  0.313  0.090  0.000  0.013  0.000  0.030  0.563
 
band    22 # energy   33.80011362 # occ.  0.00000000
 
ion      s     py     pz     px    dxy    dyz    dz2    dxz  x2-y2    tot
    1  0.000  0.000  0.222  0.000  0.000  0.019  0.000  0.058  0.000  0.298
    2  0.000  0.000  0.222  0.000  0.000  0.019  0.000  0.058  0.000  0.298
tot    0.000  0.000  0.443  0.000  0.000  0.038  0.000  0.115  0.000  0.597
 
band    23 # energy   33.88362913 # occ.  0.00000000
 
ion      s     py     pz     px    dxy    dyz    dz2    dxz  x2-y2    tot
    1  0.000  0.000  0.000  0.000  0.000  0.161  0.000  0.054  0.000  0.214
    2  0.000  0.000  0.000  0.000  0.000  0.161  0.000  0.054  0.000  0.214
tot    0.000  0.000  0.000  0.000  0.000  0.322  0.000  0.107  0.000  0.429
 
band    24 # energy   34.02145686 # occ.  0.00000000
 
ion      s     py     pz     px    dxy    dyz    dz2    dxz  x2-y2    tot
    1  0.001  0.006  0.000  0.019  0.070  0.000  0.302  0.000  0.023  0.422
    2  0.001  0.006  0.000  0.019  0.070  0.000  0.302  0.000  0.023  0.422
tot    0.002  0.013  0.000  0.038  0.139  0.000  0.605  0.000  0.046  0.844
 

 k-point     3 :    0.16666667 0.00000000 0.00000000     weight = 0.00520833

band     1 # energy    0.55499868 # occ.  1.00000000
 
ion      s     py     pz     px    dxy    dyz    dz2    dxz  x2-y2    tot
    1  0.261  0.005  0.000  0.016  0.002  0.000  0.001  0.000  0.001  0.285
    2  0.261  0.005  0.000  0.016  0.002  0.000  0.001  0.000  0.001  0.285
tot    0.522  0.010  0.000  0.031  0.003  0.000  0.002  0.000  0.001  0.570
 
band     2 # energy    3.55528278 # occ.  1.00000000
 
ion      s     py     pz     px    dxy    dyz    dz2    dxz  x2-y2    tot
    1  0.039  0.002  0.000  0.007  0.018  0.000  0.352  0.000  0.006  0.425
    2  0.039  0.002  0.000  0.007  0.018  0.000  0.352  0.000  0.006  0.425
tot    0.079  0.005  0.000  0.015  0.035  0.000  0.704  0.000  0.012  0.849
 
band     3 # energy    4.67513771 # occ.  1.00000000
 
ion      s     py     pz     px    dxy    dyz    dz2    dxz  x2-y2    tot
    1  0.000  0.001  0.000  0.003  0.259  0.000  0.116  0.000  0.086  0.466
    2  0.000  0.001  0.000  0.003  0.259  0.000  0.116  0.000  0.086  0.466
tot    0.000  0.002  0.000  0.005  0.519  0.000  0.233  0.000  0.173  0.931
 
band     4 # energy    4.93173327 # occ.  1.00000000
 
ion      s     py     pz     px    dxy    dyz    dz2    dxz  x2-y2    tot
    1  0.000  0.000  0.030  0.000  0.000  0.104  0.000  0.311  0.000  0.444
    2  0.000  0.000  0.030  0.000  0.000  0.104  0.000  0.311  0.000  0.444
tot    0.000  0.000  0.059  0.000  0.000  0.207  0.000  0.622  0.000  0.889
 
band     5 # energy    5.08182202 # occ.  1.00000000
 
ion      s     py     pz     px    dxy    dyz    dz2    dxz  x2-y2    tot
    1  0.003  0.000  0.000  0.001  0.313  0.000  0.054  0.000  0.104  0.476
    2  0.003  0.000  0.000  0.001  0.313  0.000  0.054  0.000  0.104  0.476
tot    0.006  0.001  0.000  0.002  0.626  0.000  0.108  0.000  0.209  0.951
 
band     6 # energy    5.28475693 # occ.  1.00000000
 
ion      s     py     pz     px    dxy    dyz    dz2    dxz  x2-y2    tot
    1  0.000  0.000  0.000  0.000  0.000  0.361  0.000  0.120  0.000  0.482
    2  0.000  0.000  0.000  0.000  0.000  0.361  0.000  0.120  0.000  0.482
tot    0.000  0.000  0.000  0.000  0.000  0.722  0.000  0.241  0.000  0.963
 
band     7 # energy    5.31625223 # occ.  1.00000000
 
ion      s     py     pz     px    dxy    dyz    dz2    dxz  x2-y2    tot
    1  0.000  0.001  0.000  0.000  0.119  0.000  0.000  0.000  0.358  0.479
    2  0.000  0.001  0.000  0.000  0.119  0.000  0.000  0.000  0.358  0.479
tot    0.000  0.002  0.000  0.001  0.239  0.000  0.000  0.000  0.717  0.958
 
band     8 # energy    5.35400003 # occ.  1.00000000
 
ion      s     py     pz     px    dxy    dyz    dz2    dxz  x2-y2    tot
    1  0.001  0.000  0.000  0.001  0.113  0.000  0.328  0.000  0.038  0.481
    2  0.001  0.000  0.000  0.001  0.113  0.000  0.328  0.000  0.038  0.481
tot    0.002  0.000  0.000  0.001  0.227  0.000  0.656  0.000  0.076  0.962
 
band     9 # energy    5.47634087 # occ.  1.00000000
 
ion      s     py     pz     px    dxy    dyz    dz2    dxz  x2-y2    tot
    1  0.000  0.000  0.023  0.000  0.000  0.110  0.000  0.330  0.000  0.463
    2  0.000  0.000  0.023  0.000  0.000  0.110  0.000  0.330  0.000  0.463
tot    0.000  0.000  0.046  0.000  0.000  0.220  0.000  0.659  0.000  0.926
 
band    10 # energy    5.49064368 # occ.  1.00000000
 
ion      s     py     pz     px    dxy    dyz    dz2    dxz  x2-y2    tot
    1  0.000  0.001  0.000  0.000  0.121  0.000  0.000  0.000  0.362  0.484
    2  0.000  0.001  0.000  0.000  0.121  0.000  0.000  0.000  0.362  0.484
tot    0.000  0.002  0.000  0.001  0.241  0.000  0.000  0.000  0.724  0.967
 
band    11 # energy    6.28948740 # occ.  1.00000000
 
ion      s     py     pz     px    dxy    dyz    dz2    dxz  x2-y2    tot
    1  0.000  0.000  0.000  0.000  0.000  0.370  0.000  0.123  0.000  0.493
    2  0.000  0.000  0.000  0.000  0.000  0.370  0.000  0.123  0.000  0.493
tot    0.000  0.000  0.000  0.000  0.000  0.739  0.000  0.246  0.000  0.986
 
band    12 # energy    9.42276728 # occ.  0.00000000
 
ion      s     py     pz     px    dxy    dyz    dz2    dxz  x2-y2    tot
    1  0.000  0.000  0.201  0.000  0.000  0.032  0.000  0.095  0.000  0.328
    2  0.000  0.000  0.201  0.000  0.000  0.032  0.000  0.095  0.000  0.328
tot    0.000  0.000  0.402  0.000  0.000  0.064  0.000  0.191  0.000  0.656
 
band    13 # energy   12.22067476 # occ.  0.00000000
 
ion      s     py     pz     px    dxy    dyz    dz2    dxz  x2-y2    tot
    1  0.198  0.006  0.000  0.017  0.001  0.000  0.166  0.000  0.000  0.388
    2  0.198  0.006  0.000  0.017  0.001  0.000  0.166  0.000  0.000  0.388
tot    0.397  0.012  0.000  0.035  0.001  0.000  0.332  0.000  0.000  0.776
 
band    14 # energy   21.12416027 # occ.  0.00000000
 
ion      s     py     pz     px    dxy    dyz    dz2    dxz  x2-y2    tot
    1  0.044  0.038  0.000  0.114  0.075  0.000  0.018  0.000  0.025  0.314
    2  0.044  0.038  0.000  0.114  0.075  0.000  0.018  0.000  0.025  0.314
tot    0.088  0.076  0.000  0.227  0.150  0.000  0.036  0.000  0.050  0.628
 
band    15 # energy   24.29264806 # occ.  0.00000000
 
ion      s     py     pz     px    dxy    dyz    dz2    dxz  x2-y2    tot
    1  0.000  0.182  0.000  0.061  0.021  0.000  0.000  0.000  0.062  0.325
    2  0.000  0.182  0.000  0.061  0.021  0.000  0.000  0.000  0.062  0.325
tot    0.000  0.364  0.000  0.121  0.041  0.000  0.000  0.000  0.123  0.650
 
band    16 # energy   26.25616318 # occ.  0.00000000
 
ion      s     py     pz     px    dxy    dyz    dz2    dxz  x2-y2    tot
    1  0.024  0.004  0.000  0.013  0.109  0.000  0.041  0.000  0.036  0.227
    2  0.024  0.004  0.000  0.013  0.109  0.000  0.041  0.000  0.036  0.227
tot    0.049  0.008  0.000  0.025  0.218  0.000  0.082  0.000  0.073  0.455
 
band    17 # energy   28.02112400 # occ.  0.00000000
 
ion      s     py     pz     px    dxy    dyz    dz2    dxz  x2-y2    tot
    1  0.000  0.000  0.053  0.000  0.000  0.042  0.000  0.126  0.000  0.222
    2  0.000  0.000  0.053  0.000  0.000  0.042  0.000  0.126  0.000  0.222
tot    0.000  0.000  0.106  0.000  0.000  0.084  0.000  0.253  0.000  0.443
 
band    18 # energy   29.70277941 # occ.  0.00000000
 
ion      s     py     pz     px    dxy    dyz    dz2    dxz  x2-y2    tot
    1  0.046  0.055  0.000  0.164  0.041  0.000  0.028  0.000  0.014  0.348
    2  0.046  0.055  0.000  0.164  0.041  0.000  0.028  0.000  0.014  0.348
tot    0.093  0.109  0.000  0.327  0.083  0.000  0.056  0.000  0.028  0.696
 
band    19 # energy   30.55773868 # occ.  0.00000000
 
ion      s     py     pz     px    dxy    dyz    dz2    dxz  x2-y2    tot
    1  0.000  0.000  0.010  0.000  0.000  0.011  0.000  0.032  0.000  0.053
    2  0.000  0.000  0.010  0.000  0.000  0.011  0.000  0.032  0.000  0.053
tot    0.000  0.000  0.020  0.000  0.000  0.021  0.000  0.064  0.000  0.105
 
band    20 # energy   32.07111629 # occ.  0.00000000
 
ion      s     py     pz     px    dxy    dyz    dz2    dxz  x2-y2    tot
    1  0.012  0.027  0.000  0.081  0.009  0.000  0.041  0.000  0.003  0.173
    2  0.012  0.027  0.000  0.081  0.009  0.000  0.041  0.000  0.003  0.173
tot    0.025  0.054  0.000  0.162  0.018  0.000  0.081  0.000  0.006  0.347
 
band    21 # energy   32.70982391 # occ.  0.00000000
 
ion      s     py     pz     px    dxy    dyz    dz2    dxz  x2-y2    tot
    1  0.000  0.000  0.251  0.000  0.000  0.001  0.000  0.004  0.000  0.256
    2  0.000  0.000  0.251  0.000  0.000  0.001  0.000  0.004  0.000  0.256
tot    0.000  0.000  0.502  0.000  0.000  0.003  0.000  0.008  0.000  0.513
 
band    22 # energy   32.92817452 # occ.  0.00000000
 
ion      s     py     pz     px    dxy    dyz    dz2    dxz  x2-y2    tot
    1  0.000  0.000  0.000  0.000  0.000  0.221  0.000  0.074  0.000  0.294
    2  0.000  0.000  0.000  0.000  0.000  0.221  0.000  0.074  0.000  0.294
tot    0.000  0.000  0.000  0.000  0.000  0.442  0.000  0.147  0.000  0.589
 
band    23 # energy   33.07148125 # occ.  0.00000000
 
ion      s     py     pz     px    dxy    dyz    dz2    dxz  x2-y2    tot
    1  0.000  0.205  0.000  0.068  0.033  0.000  0.000  0.000  0.098  0.404
    2  0.000  0.205  0.000  0.068  0.033  0.000  0.000  0.000  0.098  0.404
tot    0.000  0.410  0.000  0.137  0.065  0.000  0.000  0.000  0.196  0.808
 
band    24 # energy   34.25573437 # occ.  0.00000000
 
ion      s     py     pz     px    dxy    dyz    dz2    dxz  x2-y2    tot
    1  0.000  0.080  0.000  0.027  0.064  0.000  0.000  0.000  0.191  0.362
    2  0.000  0.080  0.000  0.027  0.064  0.000  0.000  0.000  0.191  0.362
tot    0.000  0.160  0.000  0.053  0.128  0.000  0.000  0.000  0.383  0.724
 

 k-point     4 :    0.25000000 0.00000000 0.00000000     weight = 0.00520833

band     1 # energy    1.47360482 # occ.  1.00000000
 
ion      s     py     pz     px    dxy    dyz    dz2    dxz  x2-y2    tot
    1  0.230  0.010  0.000  0.031  0.011  0.000  0.004  0.000  0.004  0.291
    2  0.230  0.010  0.000  0.031  0.011  0.000  0.004  0.000  0.004  0.291
tot    0.460  0.021  0.000  0.062  0.022  0.000  0.009  0.000  0.007  0.581
 
band     2 # energy    3.78190228 # occ.  1.00000000
 
ion      s     py     pz     px    dxy    dyz    dz2    dxz  x2-y2    tot
    1  0.019  0.002  0.000  0.007  0.100  0.000  0.275  0.000  0.033  0.438
    2  0.019  0.002  0.000  0.007  0.100  0.000  0.275  0.000  0.033  0.438
tot    0.038  0.005  0.000  0.015  0.201  0.000  0.550  0.000  0.067  0.875
 
band     3 # energy    4.42055366 # occ.  1.00000000
 
ion      s     py     pz     px    dxy    dyz    dz2    dxz  x2-y2    tot
    1  0.000  0.000  0.029  0.000  0.000  0.101  0.000  0.304  0.000  0.434
    2  0.000  0.000  0.029  0.000  0.000  0.101  0.000  0.304  0.000  0.434
tot    0.000  0.000  0.058  0.000  0.000  0.202  0.000  0.607  0.000  0.868
 
band     4 # energy    4.57746003 # occ.  1.00000000
 
ion      s     py     pz     px    dxy    dyz    dz2    dxz  x2-y2    tot
    1  0.001  0.004  0.000  0.012  0.227  0.000  0.132  0.000  0.076  0.451
    2  0.001  0.004  0.000  0.012  0.227  0.000  0.132  0.000  0.076  0.451
tot    0.002  0.008  0.000  0.024  0.454  0.000  0.264  0.000  0.151  0.903
 
band     5 # energy    5.02261272 # occ.  1.00000000
 
ion      s     py     pz     px    dxy    dyz    dz2    dxz  x2-y2    tot
    1  0.007  0.001  0.000  0.002  0.250  0.000  0.126  0.000  0.083  0.471
    2  0.007  0.001  0.000  0.002  0.250  0.000  0.126  0.000  0.083  0.471
tot    0.014  0.002  0.000  0.005  0.501  0.000  0.253  0.000  0.167  0.941
 
band     6 # energy    5.14130974 # occ.  1.00000000
 
ion      s     py     pz     px    dxy    dyz    dz2    dxz  x2-y2    tot
    1  0.000  0.000  0.000  0.000  0.000  0.359  0.000  0.120  0.000  0.479
    2  0.000  0.000  0.000  0.000  0.000  0.359  0.000  0.120  0.000  0.479
tot    0.000  0.000  0.000  0.000  0.000  0.719  0.000  0.240  0.000  0.958
 
band     7 # energy    5.32669480 # occ.  1.00000000
 
ion      s     py     pz     px    dxy    dyz    dz2    dxz  x2-y2    tot
    1  0.000  0.000  0.017  0.000  0.000  0.113  0.000  0.338  0.000  0.467
    2  0.000  0.000  0.017  0.000  0.000  0.113  0.000  0.338  0.000  0.467
tot    0.000  0.000  0.034  0.000  0.000  0.225  0.000  0.675  0.000  0.934
 
band     8 # energy    5.63698074 # occ.  1.00000000
 
ion      s     py     pz     px    dxy    dyz    dz2    dxz  x2-y2    tot
    1  0.000  0.001  0.000  0.000  0.120  0.000  0.000  0.000  0.361  0.483
    2  0.000  0.001  0.000  0.000  0.120  0.000  0.000  0.000  0.361  0.483
tot    0.000  0.002  0.000  0.001  0.241  0.000  0.000  0.000  0.722  0.966
 
band     9 # energy    5.65483795 # occ.  1.00000000
 
ion      s     py     pz     px    dxy    dyz    dz2    dxz  x2-y2    tot
    1  0.004  0.001  0.000  0.003  0.103  0.000  0.335  0.000  0.034  0.480
    2  0.004  0.001  0.000  0.003  0.103  0.000  0.335  0.000  0.034  0.480
tot    0.009  0.002  0.000  0.006  0.206  0.000  0.670  0.000  0.069  0.961
 
band    10 # energy    5.76984227 # occ.  1.00000000
 
ion      s     py     pz     px    dxy    dyz    dz2    dxz  x2-y2    tot
    1  0.000  0.001  0.000  0.000  0.121  0.000  0.000  0.000  0.363  0.486
    2  0.000  0.001  0.000  0.000  0.121  0.000  0.000  0.000  0.363  0.486
tot    0.000  0.003  0.000  0.001  0.242  0.000  0.000  0.000  0.727  0.973
 
band    11 # energy    6.33035485 # occ.  1.00000000
 
ion      s     py     pz     px    dxy    dyz    dz2    dxz  x2-y2    tot