Co-fcc                                  
   1.00000000000000     
     0.000000    1.754268    1.754268
     1.754268    0.000000    1.754268
     1.754268    1.754268    0.000000
   Co
     1
Direct
  0.000000  0.000000  0.000000
 
   32   32   32
 0.10235498085E+03 0.10008914102E+03 0.93603529509E+02 0.83750553050E+02 0.71710402590E+02
 0.58738423190E+02 0.45962700406E+02 0.34275929172E+02 0.24307233711E+02 0.16427397400E+02
 0.10750325643E+02 0.71285518721E+01 0.51693783554E+01 0.42989640485E+01 0.38908045458E+01
 0.36494998327E+01 0.35692916221E+01 0.36494998327E+01 0.38908045458E+01 0.42989640485E+01
 0.51693783554E+01 0.71285518721E+01 0.10750325643E+02 0.16427397400E+02 0.24307233711E+02
 0.34275929172E+02 0.45962700406E+02 0.58738423190E+02 0.71710402590E+02 0.83750553050E+02
 0.93603529509E+02 0.10008914102E+03 0.10008914102E+03 0.95714875651E+02 0.87556106415E+02
 0.76639451721E+02 0.64189344547E+02 0.51396977709E+02 0.39266381942E+02 0.28550887491E+02
 0.19745673048E+02 0.13091530990E+02 0.85702493294E+01 0.59066638734E+01 0.46075042460E+01
 0.40531051679E+01 0.37357079635E+01 0.35768586838E+01 0.35768586921E+01 0.37357079620E+01
 0.40531051016E+01 0.46075040739E+01 0.59066636130E+01 0.85702490518E+01 0.13091530782E+02
 0.19745672937E+02 0.28550887414E+02 0.39266381745E+02 0.51396977227E+02 0.64189343703E+02
 0.76639450590E+02 0.87556105247E+02 0.95714874766E+02 0.10008914069E+03 0.93603529509E+02
 0.87556106415E+02 0.78357385731E+02 0.67098460938E+02 0.54948078508E+02 0.42967404776E+02
 0.32007111164E+02 0.22674048961E+02 0.15327296042E+02 0.10073020778E+02 0.67590210936E+01
 0.49940871760E+01 0.42156158013E+01 0.38287836502E+01 0.35980913243E+01 0.35216691766E+01
 0.35980914159E+01 0.38287837301E+01 0.42156157399E+01 0.49940869178E+01 0.67590207124E+01
 0.10073020434E+02 0.15327295871E+02 0.22674048946E+02 0.32007111103E+02 0.42967404349E+02
 0.54948077454E+02 0.67098459232E+02 0.78357383664E+02 0.87556104528E+02 0.93603528380E+02
 0.95714874766E+02 0.83750553050E+02 0.76639451721E+02 0.67098460938E+02 0.56183589647E+02
 0.44939798292E+02 0.34267939218E+02 0.24860227513E+02 0.17178303636E+02 0.11442023405E+02
 0.76186355964E+01 0.54283248120E+01 0.43903518633E+01 0.39204664553E+01 0.36289754385E+01
 0.34845551088E+01 0.34845552432E+01 0.36289757467E+01 0.39204667179E+01 0.43903518884E+01
 0.54283245724E+01 0.76186352559E+01 0.11442023207E+02 0.17178303720E+02 0.24860227766E+02
 0.34267939281E+02 0.44939797727E+02 0.56183588198E+02 0.67098458730E+02 0.76639449288E+02
 0.83750551151E+02 0.87556104528E+02 0.87556105247E+02 0.71710402590E+02 0.64189344547E+02
 0.54948078508E+02 0.44939798292E+02 0.35054608161E+02 0.26028901229E+02 0.18400484855E+02
 0.12484845435E+02 0.83573833734E+01 0.58485956810E+01 0.45726181719E+01 0.40026085167E+01
 0.36639896670E+01 0.34632959100E+01 0.33974231940E+01 0.34632962960E+01 0.36639902009E+01
 0.40026088775E+01 0.45726181689E+01 0.58485953821E+01 0.83573830652E+01 0.12484845427E+02
 0.18400485248E+02 0.26028901797E+02 0.35054608424E+02 0.44939797783E+02 0.54948077053E+02
 0.64189342433E+02 0.71710400496E+02 0.76639449288E+02 0.78357383664E+02 0.76639450590E+02
 0.58738423190E+02 0.51396977709E+02 0.42967404776E+02 0.34267939218E+02 0.26028901229E+02
 0.18827537809E+02 0.13048502384E+02 0.88565159214E+01 0.61824018413E+01 0.47374618971E+01
 0.40703365126E+01 0.36974201930E+01 0.34538636097E+01 0.33352790384E+01 0.33352792725E+01
 0.34538641614E+01 0.36974207096E+01 0.40703366595E+01 0.47374615807E+01 0.61824012731E+01
 0.88565155009E+01 0.13048502441E+02 0.18827538387E+02 0.26028902017E+02 0.34267939706E+02
 0.42967404546E+02 0.51396976690E+02 0.58738421735E+02 0.64189342433E+02 0.67098458730E+02
 0.67098459232E+02 0.64189343703E+02 0.45962700406E+02 0.39266381942E+02 0.32007111164E+02
 0.24860227513E+02 0.18400484855E+02 0.13048502384E+02 0.90328373605E+01 0.63672290741E+01
 0.48533228351E+01 0.41213588410E+01 0.37244811276E+01 0.34516729832E+01 0.32942510356E+01
 0.32432406010E+01 0.32942513856E+01 0.34516734224E+01 0.37244812965E+01 0.41213585042E+01
 0.48533220403E+01 0.63672281392E+01 0.90328367114E+01 0.13048502313E+02 0.18400485359E+02
 0.24860228301E+02 0.32007111808E+02 0.39266382132E+02 0.45962700106E+02 0.51396976690E+02
 0.54948077053E+02 0.56183588198E+02 0.54948077454E+02 0.51396977227E+02 0.34275929172E+02
 0.28550887491E+02 0.22674048961E+02 0.17178303636E+02 0.12484845435E+02 0.88565159214E+01
 0.63672290741E+01 0.48950973673E+01 0.41494325429E+01 0.37418908879E+01 0.34526472746E+01
 0.32695305922E+01 0.31821834705E+01 0.31821835847E+01 0.32695308362E+01 0.34526474015E+01
 0.37418906519E+01 0.41494318366E+01 0.48950963045E+01 0.63672279395E+01 0.88565150492E+01
 0.12484845057E+02 0.17178303785E+02 0.22674049489E+02 0.28550888155E+02 0.34275929752E+02
 0.39266382132E+02 0.42967404546E+02 0.44939797783E+02 0.44939797727E+02 0.42967404349E+02
 0.39266381745E+02 0.24307233711E+02 0.19745673048E+02 0.15327296042E+02 0.11442023405E+02
 0.83573833734E+01 0.61824018413E+01 0.48533228351E+01 0.41494325429E+01 0.37478745512E+01
 0.34538750741E+01 0.32567194918E+01 0.31459964600E+01 0.31105978524E+01 0.31459965207E+01
 0.32567195492E+01 0.34538750197E+01 0.37478742764E+01 0.41494319793E+01 0.48533219965E+01
 0.61824008352E+01 0.83573823814E+01 0.11442022645E+02 0.15327295681E+02 0.19745673159E+02
 0.24307234232E+02 0.28550888155E+02 0.32007111808E+02 0.34267939706E+02 0.35054608424E+02
 0.34267939281E+02 0.32007111103E+02 0.28550887414E+02 0.16427397400E+02 0.13091530990E+02
 0.10073020778E+02 0.76186355964E+01 0.58485956810E+01 0.47374618971E+01 0.41213588410E+01
 0.37418908879E+01 0.34538750741E+01 0.32528041675E+01 0.31294077070E+01 0.30716302459E+01
 0.30716302190E+01 0.31294076617E+01 0.32528041917E+01 0.34538752135E+01 0.37418910928E+01
 0.41213589490E+01 0.47374617174E+01 0.58485951095E+01 0.76186346910E+01 0.10073019786E+02
 0.13091530230E+02 0.16427397109E+02 0.19745673159E+02 0.22674049489E+02 0.24860228301E+02
 0.26028902017E+02 0.26028901797E+02 0.24860227766E+02 0.22674048946E+02 0.19745672937E+02
 0.10750325643E+02 0.85702493294E+01 0.67590210936E+01 0.54283248120E+01 0.45726181719E+01
 0.40703365126E+01 0.37244811276E+01 0.34526472746E+01 0.32567194918E+01 0.31294077070E+01
 0.30593667900E+01 0.30372081907E+01 0.30593666584E+01 0.31294076122E+01 0.32567196597E+01
 0.34526478306E+01 0.37244819923E+01 0.40703374172E+01 0.45726187682E+01 0.54283248749E+01
 0.67590206022E+01 0.85702485051E+01 0.10750324819E+02 0.13091530230E+02 0.15327295681E+02
 0.17178303785E+02 0.18400485359E+02 0.18827538387E+02 0.18400485248E+02 0.17178303720E+02
 0.15327295871E+02 0.13091530782E+02 0.71285518721E+01 0.59066638734E+01 0.49940871760E+01
 0.43903518633E+01 0.40026085167E+01 0.36974201930E+01 0.34516729832E+01 0.32695305922E+01
 0.31459964600E+01 0.30716302459E+01 0.30372081907E+01 0.30372080770E+01 0.30716300040E+01
 0.31459963258E+01 0.32695308224E+01 0.34516737138E+01 0.36974213571E+01 0.40026098763E+01
 0.43903530804E+01 0.49940879815E+01 0.59066641403E+01 0.71285516412E+01 0.85702485051E+01
 0.10073019786E+02 0.11442022645E+02 0.12484845057E+02 0.13048502313E+02 0.13048502441E+02
 0.12484845427E+02 0.11442023207E+02 0.10073020434E+02 0.85702490518E+01 0.51693783554E+01
 0.46075042460E+01 0.42156158013E+01 0.39204664553E+01 0.36639896670E+01 0.34538636097E+01
 0.32942510356E+01 0.31821834705E+01 0.31105978524E+01 0.30716302190E+01 0.30593666584E+01
 0.30716300040E+01 0.31105975068E+01 0.31821831533E+01 0.32942509392E+01 0.34538639220E+01
 0.36639904780E+01 0.39204677370E+01 0.42156173511E+01 0.46075057453E+01 0.51693794863E+01
 0.59066641403E+01 0.67590206022E+01 0.76186346910E+01 0.83573823814E+01 0.88565150492E+01
 0.90328367114E+01 0.88565155009E+01 0.83573830652E+01 0.76186352559E+01 0.67590207124E+01
 0.59066636130E+01 0.42989640485E+01 0.40531051679E+01 0.38287836502E+01 0.36289754385E+01
 0.34632959100E+01 0.33352790384E+01 0.32432406010E+01 0.31821835847E+01 0.31459965207E+01
 0.31294076617E+01 0.31294076122E+01 0.31459963258E+01 0.31821831533E+01 0.32432399172E+01
 0.33352782491E+01 0.34632953375E+01 0.36289754363E+01 0.38287844314E+01 0.40531066743E+01
 0.42989658973E+01 0.46075057453E+01 0.49940879815E+01 0.54283248749E+01 0.58485951095E+01
 0.61824008352E+01 0.63672279395E+01 0.63672281392E+01 0.61824012731E+01 0.58485953821E+01
 0.54283245724E+01 0.49940869178E+01 0.46075040739E+01 0.38908045458E+01 0.37357079635E+01
 0.35980913243E+01 0.34845551088E+01 0.33974231940E+01 0.33352792725E+01 0.32942513856E+01
 0.32695308362E+01 0.32567195492E+01 0.32528041917E+01 0.32567196597E+01 0.32695308224E+01
 0.32942509392E+01 0.33352782491E+01 0.33974217497E+01 0.34845536916E+01 0.35980904716E+01
 0.37357080272E+01 0.38908055362E+01 0.40531066743E+01 0.42156173511E+01 0.43903530804E+01
 0.45726187682E+01 0.47374617174E+01 0.48533219965E+01 0.48950963045E+01 0.48533220403E+01
 0.47374615807E+01 0.45726181689E+01 0.43903518884E+01 0.42156157399E+01 0.40531051016E+01
 0.36494998327E+01 0.35768586838E+01 0.35216691766E+01 0.34845552432E+01 0.34632962960E+01
 0.34538641614E+01 0.34516734224E+01 0.34526474015E+01 0.34538750197E+01 0.34538752135E+01
 0.34526478306E+01 0.34516737138E+01 0.34538639220E+01 0.34632953375E+01 0.34845536916E+01
 0.35216674339E+01 0.35768572571E+01 0.36494990997E+01 0.37357080272E+01 0.38287844314E+01
 0.39204677370E+01 0.40026098763E+01 0.40703374172E+01 0.41213589490E+01 0.41494319793E+01
 0.41494318366E+01 0.41213585042E+01 0.40703366595E+01 0.40026088775E+01 0.39204667179E+01
 0.38287837301E+01 0.37357079620E+01 0.35692916221E+01 0.35768586921E+01 0.35980914159E+01
 0.36289757467E+01 0.36639902009E+01 0.36974207096E+01 0.37244812965E+01 0.37418906519E+01
 0.37478742764E+01 0.37418910928E+01 0.37244819923E+01 0.36974213571E+01 0.36639904780E+01
 0.36289754363E+01 0.35980904716E+01 0.35768572571E+01 0.35692900020E+01 0.35768572571E+01
 0.35980904716E+01 0.36289754363E+01 0.36639904780E+01 0.36974213571E+01 0.37244819923E+01
 0.37418910928E+01 0.37478742764E+01 0.37418906519E+01 0.37244812965E+01 0.36974207096E+01
 0.36639902009E+01 0.36289757467E+01 0.35980914159E+01 0.35768586921E+01 0.36494998327E+01
 0.37357079620E+01 0.38287837301E+01 0.39204667179E+01 0.40026088775E+01 0.40703366595E+01
 0.41213585042E+01 0.41494318366E+01 0.41494319793E+01 0.41213589490E+01 0.40703374172E+01
 0.40026098763E+01 0.39204677370E+01 0.38287844314E+01 0.37357080272E+01 0.36494990997E+01
 0.35768572571E+01 0.35216674339E+01 0.34845536916E+01 0.34632953375E+01 0.34538639220E+01
 0.34516737138E+01 0.34526478306E+01 0.34538752135E+01 0.34538750197E+01 0.34526474015E+01
 0.34516734224E+01 0.34538641614E+01 0.34632962960E+01 0.34845552432E+01 0.35216691766E+01
 0.35768586838E+01 0.38908045458E+01 0.40531051016E+01 0.42156157399E+01 0.43903518884E+01
 0.45726181689E+01 0.47374615807E+01 0.48533220403E+01 0.48950963045E+01 0.48533219965E+01
 0.47374617174E+01 0.45726187682E+01 0.43903530804E+01 0.42156173511E+01 0.40531066743E+01
 0.38908055362E+01 0.37357080272E+01 0.35980904716E+01 0.34845536916E+01 0.33974217497E+01
 0.33352782491E+01 0.32942509392E+01 0.32695308224E+01 0.32567196597E+01 0.32528041917E+01
 0.32567195492E+01 0.32695308362E+01 0.32942513856E+01 0.33352792725E+01 0.33974231940E+01
 0.34845551088E+01 0.35980913243E+01 0.37357079635E+01 0.42989640485E+01 0.46075040739E+01
 0.49940869178E+01 0.54283245724E+01 0.58485953821E+01 0.61824012731E+01 0.63672281392E+01
 0.63672279395E+01 0.61824008352E+01 0.58485951095E+01 0.54283248749E+01 0.49940879815E+01
 0.46075057453E+01 0.42989658973E+01 0.40531066743E+01 0.38287844314E+01 0.36289754363E+01
 0.34632953375E+01 0.33352782491E+01 0.32432399172E+01 0.31821831533E+01 0.31459963258E+01
 0.31294076122E+01 0.31294076617E+01 0.31459965207E+01 0.31821835847E+01 0.32432406010E+01
 0.33352790384E+01 0.34632959100E+01 0.36289754385E+01 0.38287836502E+01 0.40531051679E+01
 0.51693783554E+01 0.59066636130E+01 0.67590207124E+01 0.76186352559E+01 0.83573830652E+01
 0.88565155009E+01 0.90328367114E+01 0.88565150492E+01 0.83573823814E+01 0.76186346910E+01
 0.67590206022E+01 0.59066641403E+01 0.51693794863E+01 0.46075057453E+01 0.42156173511E+01
 0.39204677370E+01 0.36639904780E+01 0.34538639220E+01 0.32942509392E+01 0.31821831533E+01
 0.31105975068E+01 0.30716300040E+01 0.30593666584E+01 0.30716302190E+01 0.31105978524E+01
 0.31821834705E+01 0.32942510356E+01 0.34538636097E+01 0.36639896670E+01 0.39204664553E+01
 0.42156158013E+01 0.46075042460E+01 0.71285518721E+01 0.85702490518E+01 0.10073020434E+02
 0.11442023207E+02 0.12484845427E+02 0.13048502441E+02 0.13048502313E+02 0.12484845057E+02
 0.11442022645E+02 0.10073019786E+02 0.85702485051E+01 0.71285516412E+01 0.59066641403E+01
 0.49940879815E+01 0.43903530804E+01 0.40026098763E+01 0.36974213571E+01 0.34516737138E+01
 0.32695308224E+01 0.31459963258E+01 0.30716300040E+01 0.30372080770E+01 0.30372081907E+01
 0.30716302459E+01 0.31459964600E+01 0.32695305922E+01 0.34516729832E+01 0.36974201930E+01
 0.40026085167E+01 0.43903518633E+01 0.49940871760E+01 0.59066638734E+01 0.10750325643E+02
 0.13091530782E+02 0.15327295871E+02 0.17178303720E+02 0.18400485248E+02 0.18827538387E+02
 0.18400485359E+02 0.17178303785E+02 0.15327295681E+02 0.13091530230E+02 0.10750324819E+02
 0.85702485051E+01 0.67590206022E+01 0.54283248749E+01 0.45726187682E+01 0.40703374172E+01
 0.37244819923E+01 0.34526478306E+01 0.32567196597E+01 0.31294076122E+01 0.30593666584E+01
 0.30372081907E+01 0.30593667900E+01 0.31294077070E+01 0.32567194918E+01 0.34526472746E+01
 0.37244811276E+01 0.40703365126E+01 0.45726181719E+01 0.54283248120E+01 0.67590210936E+01
 0.85702493294E+01 0.16427397400E+02 0.19745672937E+02 0.22674048946E+02 0.24860227766E+02
 0.26028901797E+02 0.26028902017E+02 0.24860228301E+02 0.22674049489E+02 0.19745673159E+02
 0.16427397109E+02 0.13091530230E+02 0.10073019786E+02 0.76186346910E+01 0.58485951095E+01
 0.47374617174E+01 0.41213589490E+01 0.37418910928E+01 0.34538752135E+01 0.32528041917E+01
 0.31294076617E+01 0.30716302190E+01 0.30716302459E+01 0.31294077070E+01 0.32528041675E+01
 0.34538750741E+01 0.37418908879E+01 0.41213588410E+01 0.47374618971E+01 0.58485956810E+01
 0.76186355964E+01 0.10073020778E+02 0.13091530990E+02 0.24307233711E+02 0.28550887414E+02
 0.32007111103E+02 0.34267939281E+02 0.35054608424E+02 0.34267939706E+02 0.32007111808E+02
 0.28550888155E+02 0.24307234232E+02 0.19745673159E+02 0.15327295681E+02 0.11442022645E+02
 0.83573823814E+01 0.61824008352E+01 0.48533219965E+01 0.41494319793E+01 0.37478742764E+01
 0.34538750197E+01 0.32567195492E+01 0.31459965207E+01 0.31105978524E+01 0.31459964600E+01
 0.32567194918E+01 0.34538750741E+01 0.37478745512E+01 0.41494325429E+01 0.48533228351E+01
 0.61824018413E+01 0.83573833734E+01 0.11442023405E+02 0.15327296042E+02 0.19745673048E+02
 0.34275929172E+02 0.39266381745E+02 0.42967404349E+02 0.44939797727E+02 0.44939797783E+02
 0.42967404546E+02 0.39266382132E+02 0.34275929752E+02 0.28550888155E+02 0.22674049489E+02
 0.17178303785E+02 0.12484845057E+02 0.88565150492E+01 0.63672279395E+01 0.48950963045E+01
 0.41494318366E+01 0.37418906519E+01 0.34526474015E+01 0.32695308362E+01 0.31821835847E+01
 0.31821834705E+01 0.32695305922E+01 0.34526472746E+01 0.37418908879E+01 0.41494325429E+01
 0.48950973673E+01 0.63672290741E+01 0.88565159214E+01 0.12484845435E+02 0.17178303636E+02
 0.22674048961E+02 0.28550887491E+02 0.45962700406E+02 0.51396977227E+02 0.54948077454E+02
 0.56183588198E+02 0.54948077053E+02 0.51396976690E+02 0.45962700106E+02 0.39266382132E+02
 0.32007111808E+02 0.24860228301E+02 0.18400485359E+02 0.13048502313E+02 0.90328367114E+01
 0.63672281392E+01 0.48533220403E+01 0.41213585042E+01 0.37244812965E+01 0.34516734224E+01
 0.32942513856E+01 0.32432406010E+01 0.32942510356E+01 0.34516729832E+01 0.37244811276E+01
 0.41213588410E+01 0.48533228351E+01 0.63672290741E+01 0.90328373605E+01 0.13048502384E+02
 0.18400484855E+02 0.24860227513E+02 0.32007111164E+02 0.39266381942E+02 0.58738423190E+02
 0.64189343703E+02 0.67098459232E+02 0.67098458730E+02 0.64189342433E+02 0.58738421735E+02
 0.51396976690E+02 0.42967404546E+02 0.34267939706E+02 0.26028902017E+02 0.18827538387E+02
 0.13048502441E+02 0.88565155009E+01 0.61824012731E+01 0.47374615807E+01 0.40703366595E+01
 0.36974207096E+01 0.34538641614E+01 0.33352792725E+01 0.33352790384E+01 0.34538636097E+01
 0.36974201930E+01 0.40703365126E+01 0.47374618971E+01 0.61824018413E+01 0.88565159214E+01
 0.13048502384E+02 0.18827537809E+02 0.26028901229E+02 0.34267939218E+02 0.42967404776E+02
 0.51396977709E+02 0.71710402590E+02 0.76639450590E+02 0.78357383664E+02 0.76639449288E+02
 0.71710400496E+02 0.64189342433E+02 0.54948077053E+02 0.44939797783E+02 0.35054608424E+02
 0.26028901797E+02 0.18400485248E+02 0.12484845427E+02 0.83573830652E+01 0.58485953821E+01
 0.45726181689E+01 0.40026088775E+01 0.36639902009E+01 0.34632962960E+01 0.33974231940E+01
 0.34632959100E+01 0.36639896670E+01 0.40026085167E+01 0.45726181719E+01 0.58485956810E+01
 0.83573833734E+01 0.12484845435E+02 0.18400484855E+02 0.26028901229E+02 0.35054608161E+02
 0.44939798292E+02 0.54948078508E+02 0.64189344547E+02 0.83750553050E+02 0.87556105247E+02
 0.87556104528E+02 0.83750551151E+02 0.76639449288E+02 0.67098458730E+02 0.56183588198E+02
 0.44939797727E+02 0.34267939281E+02 0.24860227766E+02 0.17178303720E+02 0.11442023207E+02
 0.76186352559E+01 0.54283245724E+01 0.43903518884E+01 0.39204667179E+01 0.36289757467E+01
 0.34845552432E+01 0.34845551088E+01 0.36289754385E+01 0.39204664553E+01 0.43903518633E+01
 0.54283248120E+01 0.76186355964E+01 0.11442023405E+02 0.17178303636E+02 0.24860227513E+02
 0.34267939218E+02 0.44939798292E+02 0.56183589647E+02 0.67098460938E+02 0.76639451721E+02
 0.93603529509E+02 0.95714874766E+02 0.93603528380E+02 0.87556104528E+02 0.78357383664E+02
 0.67098459232E+02 0.54948077454E+02 0.42967404349E+02 0.32007111103E+02 0.22674048946E+02
 0.15327295871E+02 0.10073020434E+02 0.67590207124E+01 0.49940869178E+01 0.42156157399E+01
 0.38287837301E+01 0.35980914159E+01 0.35216691766E+01 0.35980913243E+01 0.38287836502E+01
 0.42156158013E+01 0.49940871760E+01 0.67590210936E+01 0.10073020778E+02 0.15327296042E+02
 0.22674048961E+02 0.32007111164E+02 0.42967404776E+02 0.54948078508E+02 0.67098460938E+02
 0.78357385731E+02 0.87556106415E+02 0.10008914102E+03 0.10008914069E+03 0.95714874766E+02
 0.87556105247E+02 0.76639450590E+02 0.64189343703E+02 0.51396977227E+02 0.39266381745E+02
 0.28550887414E+02 0.19745672937E+02 0.13091530782E+02 0.85702490518E+01 0.59066636130E+01
 0.46075040739E+01 0.40531051016E+01 0.37357079620E+01 0.35768586921E+01 0.35768586838E+01
 0.37357079635E+01 0.40531051679E+01 0.46075042460E+01 0.59066638734E+01 0.85702493294E+01
 0.13091530990E+02 0.19745673048E+02 0.28550887491E+02 0.39266381942E+02 0.51396977709E+02
 0.64189344547E+02 0.76639451721E+02 0.87556106415E+02 0.95714875651E+02 0.10008914102E+03
 0.95714875651E+02 0.87556106415E+02 0.76639451721E+02 0.64189344547E+02 0.51396977709E+02
 0.39266381942E+02 0.28550887491E+02 0.19745673048E+02 0.13091530990E+02 0.85702493294E+01
 0.59066638734E+01 0.46075042460E+01 0.40531051679E+01 0.37357079635E+01 0.35768586838E+01
 0.35768586921E+01 0.37357079620E+01 0.40531051016E+01 0.46075040739E+01 0.59066636130E+01
 0.85702490518E+01 0.13091530782E+02 0.19745672937E+02 0.28550887414E+02 0.39266381745E+02
 0.51396977227E+02 0.64189343703E+02 0.76639450590E+02 0.87556105247E+02 0.95714874766E+02
 0.10008914069E+03 0.95714875651E+02 0.89533417422E+02 0.80132909120E+02 0.68629952120E+02
 0.56218532943E+02 0.43980156699E+02 0.32779548808E+02 0.23232613266E+02 0.15704605067E+02
 0.10306217208E+02 0.68878288967E+01 0.50577241908E+01 0.42489067862E+01 0.38548650750E+01
 0.36203740433E+01 0.35426096987E+01 0.36203740546E+01 0.38548650184E+01 0.42489065682E+01
 0.50577237856E+01 0.68878283842E+01 0.10306216734E+02 0.15704604739E+02 0.23232613046E+02
 0.32779548494E+02 0.43980155986E+02 0.56218531610E+02 0.68629950173E+02 0.80132906875E+02
 0.89533415423E+02 0.95714874469E+02 0.97873288336E+02 0.87556106415E+02 0.80132909120E+02
 0.70177198946E+02 0.58791653452E+02 0.47063111983E+02 0.35924244498E+02 0.26089216578E+02
 0.18034948230E+02 0.11992689241E+02 0.79375060516E+01 0.55919861126E+01 0.44703782261E+01
 0.39746264189E+01 0.36739034581E+01 0.35244359233E+01 0.35244359573E+01 0.36739035014E+01
 0.39746263419E+01 0.44703779318E+01 0.55919856254E+01 0.79375055188E+01 0.11992688833E+02
 0.18034948000E+02 0.26089216362E+02 0.35924243954E+02 0.47063110745E+02 0.58791651365E+02
 0.70177196224E+02 0.80132906332E+02 0.87556104312E+02 0.91529894576E+02 0.91529895359E+02
 0.76639451721E+02 0.68629952120E+02 0.58791653452E+02 0.48136080076E+02 0.37602488572E+02
 0.27964307725E+02 0.19786561291E+02 0.13405559997E+02 0.89122174754E+01 0.61452324065E+01
 0.47165729855E+01 0.40855815807E+01 0.37313869134E+01 0.35203437367E+01 0.34508742370E+01
 0.35203438553E+01 0.37313870255E+01 0.40855815310E+01 0.47165727121E+01 0.61452320044E+01
 0.89122171432E+01 0.13405559887E+02 0.19786561365E+02 0.27964307696E+02 0.37602488022E+02
 0.48136078666E+02 0.58791651164E+02 0.68629949357E+02 0.76639449202E+02 0.81890621230E+02
 0.83721269340E+02 0.81890622736E+02 0.64189344547E+02 0.56218532943E+02 0.47063111983E+02
 0.37602488572E+02 0.28617802959E+02 0.20726505598E+02 0.14345373149E+02 0.96643303884E+01
 0.66304552466E+01 0.49585308786E+01 0.41854741471E+01 0.37861267683E+01 0.35262678311E+01
 0.33990665312E+01 0.33990666206E+01 0.35262680214E+01 0.37861268841E+01 0.41854740491E+01
 0.49585305807E+01 0.66304549307E+01 0.96643302974E+01 0.14345373408E+02 0.20726506087E+02
 0.28617803314E+02 0.37602488360E+02 0.47063110937E+02 0.56218531154E+02 0.64189342493E+02
 0.70108169543E+02 0.73267646360E+02 0.73267646986E+02 0.70108171183E+02 0.51396977709E+02
 0.43980156699E+02 0.35924244498E+02 0.27964307725E+02 0.20726505598E+02 0.14674927733E+02
 0.10073878287E+02 0.69626850705E+01 0.51539871975E+01 0.42709510423E+01 0.38321218173E+01
 0.35372699246E+01 0.33657513495E+01 0.33099559628E+01 0.33657514882E+01 0.35372700566E+01
 0.38321217592E+01 0.42709507168E+01 0.51539867203E+01 0.69626847078E+01 0.10073878312E+02
 0.14674928243E+02 0.20726506435E+02 0.27964308514E+02 0.35924244845E+02 0.43980156394E+02
 0.51396976869E+02 0.57410801162E+02 0.61339514504E+02 0.62706336682E+02 0.61339515161E+02
 0.57410802150E+02 0.39266381942E+02 0.32779548808E+02 0.26089216578E+02 0.19786561291E+02
 0.14345373149E+02 0.10073878287E+02 0.70808148063E+01 0.52634448749E+01 0.43301845984E+01
 0.38649425453E+01 0.35487005397E+01 0.33463820814E+01 0.32492884538E+01 0.32492885014E+01
 0.33463821520E+01 0.35487004674E+01 0.38649421923E+01 0.43301839705E+01 0.52634441605E+01
 0.70808142982E+01 0.10073878245E+02 0.14345373653E+02 0.19786562197E+02 0.26089217591E+02
 0.32779549613E+02 0.39266382368E+02 0.44905003696E+02 0.49080367473E+02 0.51303974931E+02
 0.51303974990E+02 0.49080367565E+02 0.44905003620E+02 0.28550887491E+02 0.23232613266E+02
 0.18034948230E+02 0.13405559997E+02 0.96643303884E+01 0.69626850705E+01 0.52634448749E+01
 0.43515004662E+01 0.38819347687E+01 0.35569921280E+01 0.33364360516E+01 0.32116139948E+01
 0.31715549813E+01 0.32116140101E+01 0.33364359938E+01 0.35569918773E+01 0.38819342579E+01
 0.43514997370E+01 0.52634440902E+01 0.69626844476E+01 0.96643301221E+01 0.13405560173E+02
 0.18034948798E+02 0.23232614075E+02 0.28550888349E+02 0.33468888490E+02 0.37459159673E+02
 0.40063655584E+02 0.40969021396E+02 0.40063655322E+02 0.37459159151E+02 0.33468887750E+02
 0.19745673048E+02 0.15704605067E+02 0.11992689241E+02 0.89122174754E+01 0.66304552466E+01
 0.51539871975E+01 0.43301845984E+01 0.38819347687E+01 0.35599920126E+01 0.33324067141E+01
 0.31915772618E+01 0.31253158377E+01 0.31253158268E+01 0.31915772199E+01 0.33324066205E+01
 0.35599918315E+01 0.38819344700E+01 0.43301841625E+01 0.51539866494E+01 0.66304546495E+01
 0.89122169368E+01 0.11992688884E+02 0.15704604974E+02 0.19745673240E+02 0.23722582819E+02
 0.27206512280E+02 0.29795238951E+02 0.31175518041E+02 0.31175517897E+02 0.29795238572E+02
 0.27206511800E+02 0.23722582413E+02 0.13091530990E+02 0.10306217208E+02 0.79375060516E+01
 0.61452324065E+01 0.49585308786E+01 0.42709510423E+01 0.38649425453E+01 0.35569921280E+01
 0.33324067141E+01 0.31853574024E+01 0.31040808919E+01 0.30783097858E+01 0.31040808328E+01
 0.31853573475E+01 0.33324067475E+01 0.35569922824E+01 0.38649427722E+01 0.42709512065E+01
 0.49585308323E+01 0.61452320578E+01 0.79375054106E+01 0.10306216408E+02 0.13091530207E+02
 0.16031023852E+02 0.18803132978E+02 0.21078564093E+02 0.22573001438E+02 0.23093859651E+02
 0.22573001495E+02 0.21078564275E+02 0.18803133363E+02 0.16031024468E+02 0.85702493294E+01
 0.68878288967E+01 0.55919861126E+01 0.47165729855E+01 0.41854741471E+01 0.38321218173E+01
 0.35487005397E+01 0.33364360516E+01 0.31915772618E+01 0.31040808919E+01 0.30635173666E+01
 0.30635173003E+01 0.31040807576E+01 0.31915772030E+01 0.33364362297E+01 0.35487010225E+01
 0.38321225482E+01 0.41854749333E+01 0.47165735721E+01 0.55919862852E+01 0.68878285329E+01
 0.85702484654E+01 0.10503910158E+02 0.12479623394E+02 0.14253822667E+02 0.15592408694E+02
 0.16311976231E+02 0.16311976506E+02 0.15592409470E+02 0.14253823808E+02 0.12479624689E+02
 0.10503911358E+02 0.59066638734E+01 0.50577241908E+01 0.44703782261E+01 0.40855815807E+01
 0.37861267683E+01 0.35372699246E+01 0.33463820814E+01 0.32116139948E+01 0.31253158377E+01
 0.30783097858E+01 0.30635173003E+01 0.30783096151E+01 0.31253155848E+01 0.32116138118E+01
 0.33463821467E+01 0.35372703765E+01 0.37861276378E+01 0.40855827599E+01 0.44703794360E+01
 0.50577250979E+01 0.59066641569E+01 0.69913487259E+01 0.82107335201E+01 0.94133459864E+01
 0.10430461701E+02 0.11110702959E+02 0.11349817328E+02 0.11110703827E+02 0.10430463149E+02
 0.94133475515E+01 0.82107347199E+01 0.69913492273E+01 0.46075042460E+01 0.42489067862E+01
 0.39746264189E+01 0.37313869134E+01 0.35262678311E+01 0.33657513495E+01 0.32492884538E+01
 0.31715549813E+01 0.31253158268E+01 0.31040808328E+01 0.31040807576E+01 0.31253155848E+01
 0.31715545659E+01 0.32492879336E+01 0.33657509183E+01 0.35262677725E+01 0.37313874595E+01
 0.39746276301E+01 0.42489084180E+01 0.46075058190E+01 0.51011463580E+01 0.57190447387E+01
 0.63972321224E+01 0.70388809455E+01 0.75400335967E+01 0.78147575116E+01 0.78147579647E+01
 0.75400347398E+01 0.70388822318E+01 0.63972329280E+01 0.57190446554E+01 0.51011453580E+01
 0.40531051679E+01 0.38548650750E+01 0.36739034581E+01 0.35203437367E+01 0.33990665312E+01
 0.33099559628E+01 0.32492885014E+01 0.32116140101E+01 0.31915772199E+01 0.31853573475E+01
 0.31915772030E+01 0.32116138118E+01 0.32492879336E+01 0.33099550014E+01 0.33990654154E+01
 0.35203429223E+01 0.36739033798E+01 0.38548659243E+01 0.40531067585E+01 0.42638049424E+01
 0.45160925327E+01 0.48160087160E+01 0.51335670862E+01 0.54178581228E+01 0.56152382373E+01
 0.56859010798E+01 0.56152387221E+01 0.54178587234E+01 0.51335672766E+01 0.48160081207E+01
 0.45160911437E+01 0.42638031478E+01 0.37357079635E+01 0.36203740433E+01 0.35244359233E+01
 0.34508742370E+01 0.33990666206E+01 0.33657514882E+01 0.33463821520E+01 0.33364359938E+01
 0.33324066205E+01 0.33324067475E+01 0.33364362297E+01 0.33463821467E+01 0.33657509183E+01
 0.33990654154E+01 0.34508726610E+01 0.35244344895E+01 0.36203732632E+01 0.37357080902E+01
 0.38637224683E+01 0.39948884087E+01 0.41203675374E+01 0.42442703389E+01 0.43630397114E+01
 0.44594668767E+01 0.45139251203E+01 0.45139251290E+01 0.44594667997E+01 0.43630393254E+01
 0.42442694762E+01 0.41203662570E+01 0.39948870541E+01 0.38637215324E+01 0.35768586838E+01
 0.35426096987E+01 0.35244359573E+01 0.35203438553E+01 0.35262680214E+01 0.35372700566E+01
 0.35487004674E+01 0.35569918773E+01 0.35599918315E+01 0.35569922824E+01 0.35487010225E+01
 0.35372703765E+01 0.35262677725E+01 0.35203429223E+01 0.35244344895E+01 0.35426080597E+01
 0.35768573016E+01 0.36262905459E+01 0.36870326156E+01 0.37529425465E+01 0.38169514065E+01
 0.38725573274E+01 0.39149196765E+01 0.39414516741E+01 0.39506075900E+01 0.39414512992E+01
 0.39149189933E+01 0.38725564806E+01 0.38169506257E+01 0.37529421099E+01 0.36870327527E+01
 0.36262913561E+01 0.35768586921E+01 0.36203740546E+01 0.36739035014E+01 0.37313870255E+01
 0.37861268841E+01 0.38321217592E+01 0.38649421923E+01 0.38819342579E+01 0.38819344700E+01
 0.38649427722E+01 0.38321225482E+01 0.37861276378E+01 0.37313874595E+01 0.36739033798E+01
 0.36203732632E+01 0.35768573016E+01 0.35474568773E+01 0.35334771868E+01 0.35333428119E+01
 0.35432593292E+01 0.35583603761E+01 0.35739210929E+01 0.35862310650E+01 0.35929312122E+01
 0.35929309680E+01 0.35862304695E+01 0.35739204868E+01 0.35583601571E+01 0.35432597711E+01
 0.35333439478E+01 0.35334788028E+01 0.35474585858E+01 0.37357079620E+01 0.38548650184E+01
 0.39746263419E+01 0.40855815310E+01 0.41854740491E+01 0.42709507168E+01 0.43301839705E+01
 0.43514997370E+01 0.43301841625E+01 0.42709512065E+01 0.41854749333E+01 0.40855827599E+01
 0.39746276301E+01 0.38548659243E+01 0.37357080902E+01 0.36262905459E+01 0.35334771868E+01
 0.34608233933E+01 0.34084770787E+01 0.33739103040E+01 0.33531204526E+01 0.33418683816E+01
 0.33366287284E+01 0.33351392457E+01 0.33366284370E+01 0.33418680976E+01 0.33531206000E+01
 0.33739111695E+01 0.34084786224E+01 0.34608252341E+01 0.35334787545E+01 0.36262913561E+01
 0.40531051016E+01 0.42489065682E+01 0.44703779318E+01 0.47165727121E+01 0.49585305807E+01
 0.51539867203E+01 0.52634441605E+01 0.52634440902E+01 0.51539866494E+01 0.49585308323E+01
 0.47165735721E+01 0.44703794360E+01 0.42489084180E+01 0.40531067585E+01 0.38637224683E+01
 0.36870326156E+01 0.35333428119E+01 0.34084770787E+01 0.33136427034E+01 0.32464110967E+01
 0.32022851203E+01 0.31763214240E+01 0.31644664949E+01 0.31644664597E+01 0.31763214264E+01
 0.32022854093E+01 0.32464118601E+01 0.33136438944E+01 0.34084783601E+01 0.35333436750E+01