<?xml version="1.0" encoding="ISO-8859-1"?>
<modeling>
 <generator>
  <i name="program" type="string">vasp </i>
  <i name="version" type="string">6.3.2  </i>
  <i name="subversion" type="string">27Jun22 (build Aug 12 2022 00:53:59) complex                          parallel </i>
  <i name="platform" type="string">tv2STD </i>
  <i name="date" type="string">2024 11 30 </i>
  <i name="time" type="string">17:12:22 </i>
 </generator>
 <incar>
  <i type="string" name="SYSTEM">Co-fcc</i>
  <i type="int" name="ISTART">     0</i>
  <i type="string" name="PREC">Accurate      normal | accurate</i>
  <i type="string" name="ALGO">Normal     Normal, Fast, Very_Fast</i>
  <i type="logical" name="ADDGRID"> F  </i>
  <i type="int" name="ISPIN">     2</i>
  <i type="int" name="ICHARG">     2</i>
  <i type="int" name="INIWAV">     1</i>
  <i type="int" name="NELM">   100</i>
  <i type="int" name="IBRION">     2</i>
  <i name="EDIFF">      0.00000100</i>
  <i name="EDIFFG">     -0.02000000</i>
  <i type="int" name="NSW">   100</i>
  <i type="int" name="ISIF">     2</i>
  <i type="int" name="ISYM">     1</i>
  <i name="ENCUT">    400.00000000</i>
  <v name="MAGMOM">      3.00000000</v>
  <i type="logical" name="LREAL"> F  </i>
  <i type="int" name="ISMEAR">     0</i>
  <i name="SIGMA">      0.05000000</i>
  <i type="int" name="NWRITE">     2</i>
  <i type="logical" name="LWAVE"> T  </i>
  <i type="logical" name="LCHARG"> T  </i>
  <i type="int" name="LORBIT">    11</i>
 </incar>
 <primitive_cell>
  <structure name="primitive_cell" >
   <crystal>
    <varray name="basis" >
     <v>       0.00000000       1.75426756       1.75426756 </v>
     <v>       1.75426756       0.00000000       1.75426756 </v>
     <v>       1.75426756       1.75426756       0.00000000 </v>
    </varray>
    <i name="volume">     10.79735774 </i>
    <varray name="rec_basis" >
     <v>      -0.28501924       0.28501924       0.28501924 </v>
     <v>       0.28501924      -0.28501924       0.28501924 </v>
     <v>       0.28501924       0.28501924      -0.28501924 </v>
    </varray>
   </crystal>
   <varray name="positions" >
    <v>       0.00000000       0.00000000       0.00000000 </v>
   </varray>
  </structure>
  <varray name="primitive_index" >
   <v type="int" >        1 </v>
  </varray>
 </primitive_cell>
 <kpoints>
  <generation param="Monkhorst-Pack">
   <v type="int" name="divisions">       8        8        8 </v>
   <v name="usershift">      0.00000000       0.00000000       0.00000000 </v>
   <v name="genvec1">      0.12500000       0.00000000       0.00000000 </v>
   <v name="genvec2">      0.00000000       0.12500000       0.00000000 </v>
   <v name="genvec3">      0.00000000       0.00000000       0.12500000 </v>
   <v name="shift">      0.50000000       0.50000000       0.50000000 </v>
  </generation>
  <varray name="kpointlist" >
   <v>       0.06250000       0.06250000       0.06250000 </v>
   <v>       0.18750000       0.06250000       0.06250000 </v>
   <v>       0.31250000       0.06250000       0.06250000 </v>
   <v>       0.43750000       0.06250000       0.06250000 </v>
   <v>      -0.43750000       0.06250000       0.06250000 </v>
   <v>      -0.31250000       0.06250000       0.06250000 </v>
   <v>      -0.18750000       0.06250000       0.06250000 </v>
   <v>      -0.06250000       0.06250000       0.06250000 </v>
   <v>       0.18750000       0.18750000       0.06250000 </v>
   <v>       0.31250000       0.18750000       0.06250000 </v>
   <v>       0.43750000       0.18750000       0.06250000 </v>
   <v>      -0.43750000       0.18750000       0.06250000 </v>
   <v>      -0.31250000       0.18750000       0.06250000 </v>
   <v>      -0.18750000       0.18750000       0.06250000 </v>
   <v>      -0.06250000       0.18750000       0.06250000 </v>
   <v>       0.31250000       0.31250000       0.06250000 </v>
   <v>       0.43750000       0.31250000       0.06250000 </v>
   <v>      -0.43750000       0.31250000       0.06250000 </v>
   <v>      -0.31250000       0.31250000       0.06250000 </v>
   <v>      -0.18750000       0.31250000       0.06250000 </v>
   <v>      -0.06250000       0.31250000       0.06250000 </v>
   <v>       0.43750000       0.43750000       0.06250000 </v>
   <v>      -0.43750000       0.43750000       0.06250000 </v>
   <v>      -0.31250000       0.43750000       0.06250000 </v>
   <v>      -0.18750000       0.43750000       0.06250000 </v>
   <v>      -0.06250000       0.43750000       0.06250000 </v>
   <v>      -0.43750000      -0.43750000       0.06250000 </v>
   <v>      -0.31250000      -0.43750000       0.06250000 </v>
   <v>      -0.18750000      -0.43750000       0.06250000 </v>
   <v>      -0.31250000      -0.31250000       0.06250000 </v>
   <v>      -0.18750000      -0.31250000       0.06250000 </v>
   <v>      -0.18750000      -0.18750000       0.06250000 </v>
   <v>       0.18750000       0.18750000       0.18750000 </v>
   <v>       0.31250000       0.18750000       0.18750000 </v>
   <v>       0.43750000       0.18750000       0.18750000 </v>
   <v>      -0.43750000       0.18750000       0.18750000 </v>
   <v>      -0.31250000       0.18750000       0.18750000 </v>
   <v>      -0.18750000       0.18750000       0.18750000 </v>
   <v>       0.31250000       0.31250000       0.18750000 </v>
   <v>       0.43750000       0.31250000       0.18750000 </v>
   <v>      -0.43750000       0.31250000       0.18750000 </v>
   <v>      -0.31250000       0.31250000       0.18750000 </v>
   <v>      -0.18750000       0.31250000       0.18750000 </v>
   <v>       0.43750000       0.43750000       0.18750000 </v>
   <v>      -0.43750000       0.43750000       0.18750000 </v>
   <v>      -0.31250000       0.43750000       0.18750000 </v>
   <v>      -0.18750000       0.43750000       0.18750000 </v>
   <v>      -0.43750000      -0.43750000       0.18750000 </v>
   <v>      -0.31250000      -0.43750000       0.18750000 </v>
   <v>      -0.31250000      -0.31250000       0.18750000 </v>
   <v>       0.31250000       0.31250000       0.31250000 </v>
   <v>       0.43750000       0.31250000       0.31250000 </v>
   <v>      -0.43750000       0.31250000       0.31250000 </v>
   <v>      -0.31250000       0.31250000       0.31250000 </v>
   <v>       0.43750000       0.43750000       0.31250000 </v>
   <v>      -0.43750000       0.43750000       0.31250000 </v>
   <v>      -0.31250000       0.43750000       0.31250000 </v>
   <v>      -0.43750000      -0.43750000       0.31250000 </v>
   <v>       0.43750000       0.43750000       0.43750000 </v>
   <v>      -0.43750000       0.43750000       0.43750000 </v>
  </varray>
  <varray name="weights" >
   <v>       0.00390625 </v>
   <v>       0.01171875 </v>
   <v>       0.01171875 </v>
   <v>       0.01171875 </v>
   <v>       0.01171875 </v>
   <v>       0.01171875 </v>
   <v>       0.01171875 </v>
   <v>       0.01171875 </v>
   <v>       0.01171875 </v>
   <v>       0.02343750 </v>
   <v>       0.02343750 </v>
   <v>       0.02343750 </v>
   <v>       0.02343750 </v>
   <v>       0.02343750 </v>
   <v>       0.02343750 </v>
   <v>       0.01171875 </v>
   <v>       0.02343750 </v>
   <v>       0.02343750 </v>
   <v>       0.02343750 </v>
   <v>       0.02343750 </v>
   <v>       0.02343750 </v>
   <v>       0.01171875 </v>
   <v>       0.02343750 </v>
   <v>       0.02343750 </v>
   <v>       0.02343750 </v>
   <v>       0.02343750 </v>
   <v>       0.01171875 </v>
   <v>       0.02343750 </v>
   <v>       0.02343750 </v>
   <v>       0.01171875 </v>
   <v>       0.02343750 </v>
   <v>       0.01171875 </v>
   <v>       0.00390625 </v>
   <v>       0.01171875 </v>
   <v>       0.01171875 </v>
   <v>       0.01171875 </v>
   <v>       0.01171875 </v>
   <v>       0.01171875 </v>
   <v>       0.01171875 </v>
   <v>       0.02343750 </v>
   <v>       0.02343750 </v>
   <v>       0.02343750 </v>
   <v>       0.02343750 </v>
   <v>       0.01171875 </v>
   <v>       0.02343750 </v>
   <v>       0.02343750 </v>
   <v>       0.02343750 </v>
   <v>       0.01171875 </v>
   <v>       0.02343750 </v>
   <v>       0.01171875 </v>
   <v>       0.00390625 </v>
   <v>       0.01171875 </v>
   <v>       0.01171875 </v>
   <v>       0.01171875 </v>
   <v>       0.01171875 </v>
   <v>       0.02343750 </v>
   <v>       0.02343750 </v>
   <v>       0.01171875 </v>
   <v>       0.00390625 </v>
   <v>       0.01171875 </v>
  </varray>
 </kpoints>
 <parameters>
  <separator name="general" >
   <i type="string" name="SYSTEM">Co-fcc</i>
   <i type="logical" name="LCOMPAT"> F  </i>
  </separator>
  <separator name="electronic" >
   <i type="string" name="PREC">accura</i>
   <i name="ENMAX">    400.00000000</i>
   <i name="ENAUG">    477.81800000</i>
   <i name="EDIFF">      0.00000100</i>
   <i type="int" name="IALGO">    38</i>
   <i type="int" name="IWAVPR">    11</i>
   <i type="int" name="NBANDS">    12</i>
   <i type="int" name="NBANDSLOW">    -1</i>
   <i type="int" name="NBANDSHIGH">    -1</i>
   <i name="NELECT">      9.00000000</i>
   <i type="int" name="TURBO">     0</i>
   <i type="int" name="IRESTART">     0</i>
   <i type="int" name="NREBOOT">     0</i>
   <i type="int" name="NMIN">     0</i>
   <i name="EREF">      0.00000000</i>
   <separator name="electronic smearing" >
    <i type="int" name="ISMEAR">     0</i>
    <i name="SIGMA">      0.05000000</i>
    <i name="KSPACING">      0.50000000</i>
    <i type="logical" name="KGAMMA"> T  </i>
    <i type="logical" name="KBLOWUP"> T  </i>
   </separator>
   <separator name="electronic projectors" >
    <i type="logical" name="LREAL"> F  </i>
    <v name="ROPT">      0.00000000</v>
    <i type="int" name="LMAXPAW">  -100</i>
    <i type="int" name="LMAXMIX">     2</i>
    <i type="logical" name="NLSPLINE"> F  </i>
   </separator>
   <separator name="electronic startup" >
    <i type="int" name="ISTART">     0</i>
    <i type="int" name="ICHARG">     2</i>
    <i type="int" name="INIWAV">     1</i>
   </separator>
   <separator name="electronic spin" >
    <i type="int" name="ISPIN">     2</i>
    <i type="logical" name="LNONCOLLINEAR"> F  </i>
    <v name="MAGMOM">      3.00000000</v>
    <i name="NUPDOWN">     -1.00000000</i>
    <i type="logical" name="LSORBIT"> F  </i>
    <v name="SAXIS">      0.00000000      0.00000000      1.00000000</v>
    <i type="logical" name="LSPIRAL"> F  </i>
    <v name="QSPIRAL">      0.00000000      0.00000000      0.00000000</v>
    <i type="logical" name="LZEROZ"> F  </i>
   </separator>
   <separator name="electronic exchange-correlation" >
    <i type="logical" name="LASPH"> F  </i>
    <i type="logical" name="LMETAGGA"> F  </i>
   </separator>
   <separator name="electronic convergence" >
    <i type="int" name="NELM">   100</i>
    <i type="int" name="NELMDL">    -5</i>
    <i type="int" name="NELMIN">     2</i>
    <i name="ENINI">    400.00000000</i>
    <separator name="electronic convergence detail" >
     <i type="logical" name="LDIAG"> T  </i>
     <i type="logical" name="LSUBROT"> F  </i>
     <i name="WEIMIN">      0.00100000</i>
     <i name="EBREAK">      0.00000002</i>
     <i name="DEPER">      0.30000000</i>
     <i type="int" name="NRMM">     4</i>
     <i name="TIME">      0.40000000</i>
    </separator>
   </separator>
   <separator name="electronic mixer" >
    <i name="AMIX">      0.40000000</i>
    <i name="BMIX">      1.00000000</i>
    <i name="AMIN">      0.10000000</i>
    <i name="AMIX_MAG">      1.60000000</i>
    <i name="BMIX_MAG">      1.00000000</i>
    <separator name="electronic mixer details" >
     <i type="int" name="IMIX">     4</i>
     <i type="logical" name="MIXFIRST"> F  </i>
     <i type="int" name="MAXMIX">   -45</i>
     <i name="WC">    100.00000000</i>
     <i type="int" name="INIMIX">     1</i>
     <i type="int" name="MIXPRE">     1</i>
     <i type="int" name="MREMOVE">     5</i>
    </separator>
   </separator>
   <separator name="electronic dipolcorrection" >
    <i type="logical" name="LDIPOL"> F  </i>
    <i type="logical" name="LMONO"> F  </i>
    <i type="int" name="IDIPOL">     0</i>
    <i name="EPSILON">      1.00000000</i>
    <v name="DIPOL">   -100.00000000   -100.00000000   -100.00000000</v>
    <i name="EFIELD">      0.00000000</i>
   </separator>
  </separator>
  <separator name="grids" >
   <i type="int" name="NGX">    16</i>
   <i type="int" name="NGY">    16</i>
   <i type="int" name="NGZ">    16</i>
   <i type="int" name="NGXF">    32</i>
   <i type="int" name="NGYF">    32</i>
   <i type="int" name="NGZF">    32</i>
   <i type="logical" name="ADDGRID"> F  </i>
  </separator>
  <separator name="ionic" >
   <i type="int" name="NSW">   100</i>
   <i type="int" name="IBRION">     2</i>
   <i type="int" name="MDALGO">     0</i>
   <i type="int" name="ISIF">     2</i>
   <i name="PSTRESS">      0.00000000</i>
   <i name="EDIFFG">     -0.02000000</i>
   <i type="int" name="NFREE">     1</i>
   <i name="POTIM">      0.50000000</i>
   <i name="SMASS">     -3.00000000</i>
   <i name="SCALEE">      1.00000000</i>
  </separator>
  <separator name="ionic md" >
   <i name="TEBEG">      0.00010000</i>
   <i name="TEEND">      0.00010000</i>
   <i type="int" name="NBLOCK">     1</i>
   <i type="int" name="KBLOCK">   100</i>
   <i type="int" name="NPACO">   256</i>
   <i name="APACO">     10.00000000</i>
  </separator>
  <separator name="symmetry" >
   <i type="int" name="ISYM">     1</i>
   <i name="SYMPREC">      0.00001000</i>
  </separator>
  <separator name="dos" >
   <i type="int" name="LORBIT">    11</i>
   <v name="RWIGS">     -1.00000000</v>
   <i type="int" name="NEDOS">   301</i>
   <i name="EMIN">     10.00000000</i>
   <i name="EMAX">    -10.00000000</i>
   <i name="EFERMI">      0.00000000</i>
  </separator>
  <separator name="writing" >
   <i type="int" name="NWRITE">     2</i>
   <i type="logical" name="LWAVE"> T  </i>
   <i type="logical" name="LDOWNSAMPLE"> F  </i>
   <i type="logical" name="LCHARG"> T  </i>
   <i type="logical" name="LPARD"> F  </i>
   <i type="logical" name="LVTOT"> F  </i>
   <i type="logical" name="LVHAR"> F  </i>
   <i type="logical" name="LELF"> F  </i>
   <i type="logical" name="LOPTICS"> F  </i>
   <v name="STM">      0.00000000      0.00000000      0.00000000      0.00000000      0.00000000      0.00000000      0.00000000</v>
  </separator>
  <separator name="performance" >
   <i type="int" name="NPAR">     4</i>
   <i type="int" name="NSIM">     4</i>
   <i type="int" name="NBLK">    -1</i>
   <i type="logical" name="LPLANE"> T  </i>
   <i type="logical" name="LSCALAPACK"> T  </i>
   <i type="logical" name="LSCAAWARE"> T  </i>
   <i type="logical" name="LSCALU"> F  </i>
   <i type="logical" name="LASYNC"> F  </i>
   <i type="logical" name="LORBITALREAL"> F  </i>
  </separator>
  <separator name="miscellaneous" >
   <i type="int" name="IDIOT">     3</i>
   <i type="int" name="PHON_NSTRUCT">    -1</i>
   <i type="logical" name="LMUSIC"> F  </i>
   <v name="POMASS">     58.93300000</v>
   <v name="DARWINR">      0.00000000</v>
   <v name="DARWINV">      1.00000000</v>
   <i type="logical" name="LCORR"> T  </i>
  </separator>
  <i type="logical" name="GGA_COMPAT"> T  </i>
  <i type="logical" name="LBERRY"> F  </i>
  <i type="int" name="ICORELEVEL">     0</i>
  <i type="logical" name="LDAU"> F  </i>
  <i type="int" name="I_CONSTRAINED_M">     0</i>
  <separator name="electronic exchange-correlation" >
   <i type="string" name="GGA">--</i>
   <i type="int" name="VOSKOWN">     0</i>
   <i type="logical" name="LHFCALC"> F  </i>
   <i type="string" name="PRECFOCK"></i>
   <i type="logical" name="LSYMGRAD"> F  </i>
   <i type="logical" name="LHFONE"> F  </i>
   <i type="logical" name="LRHFCALC"> F  </i>
   <i type="logical" name="LTHOMAS"> F  </i>
   <i type="logical" name="LMODELHF"> F  </i>
   <i type="logical" name="LFOCKACE"> F  </i>
   <i name="ENCUT4O">     -1.00000000</i>
   <i type="int" name="EXXOEP">     0</i>
   <i type="int" name="FOURORBIT">     0</i>
   <i name="AEXX">      0.00000000</i>
   <i name="HFALPHA">      0.00000000</i>
   <i name="MCALPHA">      0.00000000</i>
   <i name="ALDAX">      1.00000000</i>
   <i name="AGGAX">      1.00000000</i>
   <i name="ALDAC">      1.00000000</i>
   <i name="AGGAC">      1.00000000</i>
   <i type="int" name="NKREDX">     1</i>
   <i type="int" name="NKREDY">     1</i>
   <i type="int" name="NKREDZ">     1</i>
   <i type="logical" name="SHIFTRED"> F  </i>
   <i type="logical" name="ODDONLY"> F  </i>
   <i type="logical" name="EVENONLY"> F  </i>
   <i type="int" name="LMAXFOCK">     0</i>
   <i type="int" name="NMAXFOCKAE">     0</i>
   <i type="logical" name="LFOCKAEDFT"> F  </i>
   <i name="HFSCREEN">      0.00000000</i>
   <i name="HFSCREENC">      0.00000000</i>
   <i type="int" name="NBANDSGWLOW">     0</i>
  </separator>
  <separator name="vdW DFT" >
   <i type="logical" name="LUSE_VDW"> F  </i>
   <i name="Zab_VDW">     -0.84910000</i>
   <i name="PARAM1">      0.12340000</i>
   <i name="PARAM2">      1.00000000</i>
   <i name="PARAM3">      0.00000000</i>
  </separator>
  <separator name="model GW" >
   <i type="int" name="MODEL_GW">     0</i>
   <i name="MODEL_EPS0">      6.47841464</i>
   <i name="MODEL_ALPHA">      1.00000000</i>
  </separator>
  <separator name="linear response parameters" >
   <i type="logical" name="LEPSILON"> F  </i>
   <i type="logical" name="LRPA"> F  </i>
   <i type="logical" name="LNABLA"> F  </i>
   <i type="logical" name="LVEL"> F  </i>
   <i name="CSHIFT">      0.10000000</i>
   <i name="OMEGAMAX">     -1.00000000</i>
   <i name="DEG_THRESHOLD">      0.00200000</i>
   <i name="RTIME">     -0.10000000</i>
   <i name="WPLASMAI">      0.00000000</i>
   <v name="DFIELD">      0.00000000      0.00000000      0.00000000</v>
   <v name="WPLASMA">      0.00000000      0.00000000      0.00000000      0.00000000      0.00000000      0.00000000      0.00000000      0.00000000      0.00000000</v>
  </separator>
  <separator name="orbital magnetization" >
   <i type="logical" name="NUCIND"> F  </i>
   <v name="MAGPOS">      0.00000000      0.00000000      0.00000000</v>
   <i type="logical" name="LNICSALL"> T  </i>
   <i type="logical" name="ORBITALMAG"> F  </i>
   <i type="logical" name="LMAGBLOCH"> F  </i>
   <i type="logical" name="LCHIMAG"> F  </i>
   <i type="logical" name="LGAUGE"> T  </i>
   <i type="int" name="MAGATOM">     0</i>
   <v name="MAGDIPOL">      0.00000000      0.00000000      0.00000000</v>
   <v name="AVECCONST">      0.00000000      0.00000000      0.00000000</v>
  </separator>
  <separator name="response functions" >
   <i type="logical" name="LFINITE_TEMPERATURE"> F  </i>
   <i type="logical" name="LADDER"> F  </i>
   <i type="logical" name="LRPAFORCE"> F  </i>
   <i type="logical" name="LFXC"> F  </i>
   <i type="logical" name="LHARTREE"> T  </i>
   <i type="int" name="IBSE">     0</i>
   <v type="int" name="KPOINT">    -1     0     0     0</v>
   <i type="logical" name="LTCTC"> F  </i>
   <i type="logical" name="LTCTE"> F  </i>
   <i type="logical" name="LTETE"> F  </i>
   <i type="logical" name="LTRIPLET"> F  </i>
   <i type="logical" name="LFXCEPS"> F  </i>
   <i type="logical" name="LFXHEG"> F  </i>
   <i type="int" name="NATURALO">     2</i>
   <i type="logical" name="LHOLEGF"> F  </i>
   <i type="logical" name="L2ORDER"> F  </i>
   <i type="logical" name="LDMP1"> F  </i>
   <i type="logical" name="LMP2LT"> F  </i>
   <i type="logical" name="LSMP2LT"> F  </i>
   <i type="logical" name="LGWLF"> F  </i>
   <i name="ENCUTGW">     -2.00000000</i>
   <i name="ENCUTGWSOFT">     -2.00000000</i>
   <i name="ENCUTLF">     -1.00000000</i>
   <i type="logical" name="LESF_SPLINES"> F  </i>
   <i type="int" name="LMAXMP2">    -1</i>
   <i name="SCISSOR">      0.00000000</i>
   <i type="int" name="NOMEGA">     0</i>
   <i type="int" name="NOMEGAR">     0</i>
   <i type="int" name="NBANDSGW">    -1</i>
   <i type="int" name="NBANDSO">    -1</i>
   <i type="int" name="NBANDSV">    -1</i>
   <i type="int" name="NELMGW">     1</i>
   <i type="int" name="NELMHF">     1</i>
   <i type="int" name="DIM">     3</i>
   <i type="int" name="IESPILON">     4</i>
   <i type="int" name="ANTIRES">     0</i>
   <i name="OMEGAMAX">    -30.00000000</i>
   <i name="OMEGAMIN">    -30.00000000</i>
   <i name="OMEGATL">   -200.00000000</i>
   <i type="int" name="OMEGAGRID">     0</i>
   <i name="CSHIFT">     -0.10000000</i>
   <i type="logical" name="LSELFENERGY"> F  </i>
   <i type="logical" name="LSPECTRAL"> F  </i>
   <i type="logical" name="LSPECTRALGW"> F  </i>
   <i type="logical" name="LSINGLES"> F  </i>
   <i type="logical" name="LFERMIGW"> F  </i>
   <i type="logical" name="ODDONLYGW"> F  </i>
   <i type="logical" name="EVENONLYGW"> F  </i>
   <i type="int" name="NKREDLFX">     1</i>
   <i type="int" name="NKREDLFY">     1</i>
   <i type="int" name="NKREDLFZ">     1</i>
   <i type="int" name="MAXMEM">  2800</i>
   <i type="int" name="TELESCOPE">     0</i>
   <i type="int" name="NTAUPAR">    -1</i>
   <i type="int" name="NOMEGAPAR">    -1</i>
   <i name="DAMP_NEWTON">      0.80000001</i>
   <i name="LAMBDA">      1.00000000</i>
  </separator>
  <separator name="External order field" >
   <i name="OFIELD_KAPPA">      0.00000000</i>
   <v name="OFIELD_K">      0.00000000      0.00000000      0.00000000</v>
   <i name="OFIELD_Q6_NEAR">      0.00000000</i>
   <i name="OFIELD_Q6_FAR">      0.00000000</i>
   <i name="OFIELD_A">      0.00000000</i>
  </separator>
  <separator name="optional k-points parameters" >
   <i type="int" name="KPOINTS_OPT_MODE">     1</i>
   <i type="logical" name="LKPOINTS_OPT"> F  </i>
  </separator>
 </parameters>
 <atominfo>
  <atoms>       1 </atoms>
  <types>       1 </types>
  <array name="atoms" >
   <dimension dim="1">ion</dimension>
   <field type="string">element</field>
   <field type="int">atomtype</field>
   <set>
    <rc><c>Co</c><c>   1</c></rc>
   </set>
  </array>
  <array name="atomtypes" >
   <dimension dim="1">type</dimension>
   <field type="int">atomspertype</field>
   <field type="string">element</field>
   <field>mass</field>
   <field>valence</field>
   <field type="string">pseudopotential</field>
   <set>
    <rc><c>   1</c><c>Co</c><c>     58.93300000</c><c>      9.00000000</c><c>  PAW_PBE Co 02Aug2007                  </c></rc>
   </set>
  </array>
 </atominfo>
 <structure name="initialpos" >
  <crystal>
   <varray name="basis" >
    <v>       0.00000000       1.75426756       1.75426756 </v>
    <v>       1.75426756       0.00000000       1.75426756 </v>
    <v>       1.75426756       1.75426756       0.00000000 </v>
   </varray>
   <i name="volume">     10.79735774 </i>
   <varray name="rec_basis" >
    <v>      -0.28501924       0.28501924       0.28501924 </v>
    <v>       0.28501924      -0.28501924       0.28501924 </v>
    <v>       0.28501924       0.28501924      -0.28501924 </v>
   </varray>
  </crystal>
  <varray name="positions" >
   <v>       0.00000000       0.00000000       0.00000000 </v>
  </varray>
 </structure>
 <calculation>
  <scstep>
   <time name="dav">    0.27    0.27</time>
   <time name="total">    0.28    0.28</time>
   <energy>
    <i name="alphaZ">     39.22968187 </i>
    <i name="ewald">   -762.09926778 </i>
    <i name="hartreedc">   -149.45851035 </i>
    <i name="XCdc">     17.83008281 </i>
    <i name="pawpsdc">    719.99081943 </i>
    <i name="pawaedc">   -772.94345096 </i>
    <i name="eentropy">     -0.00119168 </i>
    <i name="bandstr">    117.13124429 </i>
    <i name="atom">    813.35773410 </i>
    <i name="e_fr_energy">     23.03714174 </i>
    <i name="e_wo_entrp">     23.03833342 </i>
    <i name="e_0_energy">     23.03773758 </i>
   </energy>
  </scstep>
  <scstep>
   <time name="dav">    0.26    0.26</time>
   <time name="total">    0.26    0.26</time>
   <energy>
    <i name="e_fr_energy">     -7.03511158 </i>
    <i name="e_wo_entrp">     -7.03403708 </i>
    <i name="e_0_energy">     -7.03457433 </i>
   </energy>
  </scstep>
  <scstep>
   <time name="dav">    0.27    0.27</time>
   <time name="total">    0.27    0.27</time>
   <energy>
    <i name="e_fr_energy">     -7.79901837 </i>
    <i name="e_wo_entrp">     -7.79796260 </i>
    <i name="e_0_energy">     -7.79849049 </i>
   </energy>
  </scstep>
  <scstep>
   <time name="dav">    0.28    0.28</time>
   <time name="total">    0.28    0.28</time>
   <energy>
    <i name="e_fr_energy">     -7.80721353 </i>
    <i name="e_wo_entrp">     -7.80614059 </i>
    <i name="e_0_energy">     -7.80667706 </i>
   </energy>
  </scstep>
  <scstep>
   <time name="dav">    0.31    0.31</time>
   <time name="total">    0.32    0.32</time>
   <energy>
    <i name="e_fr_energy">     -7.80741102 </i>
    <i name="e_wo_entrp">     -7.80633758 </i>
    <i name="e_0_energy">     -7.80687430 </i>
   </energy>
  </scstep>
  <scstep>
   <time name="dav">    0.30    0.30</time>
   <time name="total">    0.32    0.32</time>
   <energy>
    <i name="e_fr_energy">     -7.20220427 </i>
    <i name="e_wo_entrp">     -7.20049224 </i>
    <i name="e_0_energy">     -7.20134826 </i>
   </energy>
  </scstep>
  <scstep>
   <time name="dav">    0.29    0.29</time>
   <time name="total">    0.30    0.31</time>
   <energy>
    <i name="e_fr_energy">     -7.03674823 </i>
    <i name="e_wo_entrp">     -7.03532013 </i>
    <i name="e_0_energy">     -7.03603418 </i>
   </energy>
  </scstep>
  <scstep>
   <time name="dav">    0.30    0.30</time>
   <time name="total">    0.32    0.32</time>
   <energy>
    <i name="e_fr_energy">     -7.02556179 </i>
    <i name="e_wo_entrp">     -7.02412710 </i>
    <i name="e_0_energy">     -7.02484444 </i>
   </energy>
  </scstep>
  <scstep>
   <time name="dav">    0.35    0.35</time>
   <time name="total">    0.37    0.37</time>
   <energy>
    <i name="e_fr_energy">     -7.01966300 </i>
    <i name="e_wo_entrp">     -7.01819210 </i>
    <i name="e_0_energy">     -7.01892755 </i>
   </energy>
  </scstep>
  <scstep>
   <time name="dav">    0.33    0.33</time>
   <time name="total">    0.35    0.35</time>
   <energy>
    <i name="e_fr_energy">     -7.01909526 </i>
    <i name="e_wo_entrp">     -7.01761053 </i>
    <i name="e_0_energy">     -7.01835289 </i>
   </energy>
  </scstep>
  <scstep>
   <time name="dav">    0.29    0.29</time>
   <time name="total">    0.31    0.31</time>
   <energy>
    <i name="e_fr_energy">     -7.01909570 </i>
    <i name="e_wo_entrp">     -7.01761114 </i>
    <i name="e_0_energy">     -7.01835342 </i>
   </energy>
  </scstep>
  <scstep>
   <time name="dav">    0.27    0.27</time>
   <time name="total">    0.28    0.28</time>
   <energy>
    <i name="alphaZ">     39.22968187 </i>
    <i name="ewald">   -762.09926778 </i>
    <i name="hartreedc">   -131.82900507 </i>
    <i name="XCdc">     16.41399362 </i>
    <i name="pawpsdc">    905.33825347 </i>
    <i name="pawaedc">   -958.36495711 </i>
    <i name="eentropy">     -0.00148587 </i>
    <i name="bandstr">     70.93595671 </i>
    <i name="atom">    813.35773410 </i>
    <i name="e_fr_energy">     -7.01909606 </i>
    <i name="e_wo_entrp">     -7.01761019 </i>
    <i name="e_0_energy">     -7.01835313 </i>
   </energy>
  </scstep>
  <structure>
   <crystal>
    <varray name="basis" >
     <v>       0.00000000       1.75426756       1.75426756 </v>
     <v>       1.75426756       0.00000000       1.75426756 </v>
     <v>       1.75426756       1.75426756       0.00000000 </v>
    </varray>
    <i name="volume">     10.79735774 </i>
    <varray name="rec_basis" >
     <v>      -0.28501924       0.28501924       0.28501924 </v>
     <v>       0.28501924      -0.28501924       0.28501924 </v>
     <v>       0.28501924       0.28501924      -0.28501924 </v>
    </varray>
   </crystal>
   <varray name="positions" >
    <v>       0.00000000       0.00000000       0.00000000 </v>
   </varray>
  </structure>
  <varray name="forces" >
   <v>       0.00000000       0.00000000       0.00000000 </v>
  </varray>
  <varray name="stress" >
   <v>      -0.41166873       0.00000000      -0.00000000 </v>
   <v>      -0.00000000      -0.41166873       0.00000000 </v>
   <v>       0.00000000       0.00000000      -0.41166873 </v>
  </varray>
  <energy>
   <i name="e_fr_energy">     -7.01909606 </i>
   <i name="e_wo_entrp">     -7.01761019 </i>
   <i name="e_0_energy">     -7.01835313 </i>
  </energy>
  <time name="totalsc">    3.78    3.84</time>
  <eigenvalues>
   <array>
    <dimension dim="1">band</dimension>
    <dimension dim="2">kpoint</dimension>
    <dimension dim="3">spin</dimension>
    <field>eigene</field>
    <field>occ</field>
    <set>
     <set comment="spin 1">
      <set comment="kpoint 1">
       <r>    1.5418    1.0000 </r>
       <r>    7.6633    1.0000 </r>
       <r>    7.7450    1.0000 </r>
       <r>    7.7450    1.0000 </r>
       <r>    8.7792    1.0000 </r>
       <r>    8.7792    1.0000 </r>
       <r>   33.1607    0.0000 </r>
       <r>   36.1331    0.0000 </r>
       <r>   37.6257    0.0000 </r>
       <r>   37.6257    0.0000 </r>
       <r>   41.5425    0.0000 </r>
       <r>   41.5425    0.0000 </r>
      </set>
      <set comment="kpoint 2">
       <r>    2.3448    1.0000 </r>
       <r>    7.4488    1.0000 </r>
       <r>    7.9044    1.0000 </r>
       <r>    7.9095    1.0000 </r>
       <r>    8.6228    1.0000 </r>
       <r>    8.8694    1.0000 </r>
       <r>   30.3554    0.0000 </r>
       <r>   32.9967    0.0000 </r>
       <r>   36.5188    0.0000 </r>
       <r>   38.6471    0.0000 </r>
       <r>   40.4115    0.0000 </r>
       <r>   41.6666    0.0000 </r>
      </set>
      <set comment="kpoint 3">
       <r>    4.0282    1.0000 </r>
       <r>    7.3367    1.0000 </r>
       <r>    7.8491    1.0000 </r>
       <r>    7.9239    1.0000 </r>
       <r>    8.8374    1.0000 </r>
       <r>    9.2748    1.0000 </r>
       <r>   24.2599    0.0000 </r>
       <r>   31.8980    0.0000 </r>
       <r>   35.4666    0.0000 </r>
       <r>   38.2181    0.0000 </r>
       <r>   39.3990    0.0000 </r>
       <r>   40.3949    0.0000 </r>
      </set>
      <set comment="kpoint 4">
       <r>    5.1608    1.0000 </r>
       <r>    7.6171    1.0000 </r>
       <r>    7.7165    1.0000 </r>
       <r>    8.4080    1.0000 </r>
       <r>    9.3961    1.0000 </r>
       <r>   10.0700    1.0000 </r>
       <r>   18.8969    0.0000 </r>
       <r>   31.3973    0.0000 </r>
       <r>   34.2289    0.0000 </r>
       <r>   36.0629    0.0000 </r>
       <r>   38.5464    0.0000 </r>
       <r>   40.1233    0.0000 </r>
      </set>
      <set comment="kpoint 5">
       <r>    5.2841    1.0000 </r>
       <r>    7.5205    1.0000 </r>
       <r>    7.6629    1.0000 </r>
       <r>    8.9848    1.0000 </r>
       <r>    9.6803    1.0000 </r>
       <r>   10.8639    0.0000 </r>
       <r>   16.7362    0.0000 </r>
       <r>   31.4985    0.0000 </r>
       <r>   34.1993    0.0000 </r>
       <r>   34.3717    0.0000 </r>
       <r>   39.3733    0.0000 </r>
       <r>   39.4039    0.0000 </r>
      </set>
      <set comment="kpoint 6">
       <r>    4.9468    1.0000 </r>
       <r>    7.6547    1.0000 </r>
       <r>    7.8064    1.0000 </r>
       <r>    7.8768    1.0000 </r>
       <r>    9.4724    1.0000 </r>
       <r>    9.5325    1.0000 </r>
       <r>   20.5215    0.0000 </r>
       <r>   32.2237    0.0000 </r>
       <r>   33.6622    0.0000 </r>
       <r>   36.0898    0.0000 </r>
       <r>   39.2215    0.0000 </r>
       <r>   41.0932    0.0000 </r>
      </set>
      <set comment="kpoint 7">
       <r>    3.4242    1.0000 </r>
       <r>    7.2886    1.0000 </r>
       <r>    7.9135    1.0000 </r>
       <r>    7.9725    1.0000 </r>
       <r>    8.7664    1.0000 </r>
       <r>    9.0289    1.0000 </r>
       <r>   26.2721    0.0000 </r>
       <r>   33.3034    0.0000 </r>
       <r>   34.2132    0.0000 </r>
       <r>   38.7383    0.0000 </r>
       <r>   39.0309    0.0000 </r>
       <r>   43.3462    0.0000 </r>
      </set>
      <set comment="kpoint 8">
       <r>    1.9500    1.0000 </r>
       <r>    7.5190    1.0000 </r>
       <r>    7.8556    1.0000 </r>
       <r>    7.8600    1.0000 </r>
       <r>    8.6427    1.0000 </r>
       <r>    8.8463    1.0000 </r>
       <r>   32.1395    0.0000 </r>
       <r>   34.5719    0.0000 </r>
       <r>   35.6068    0.0000 </r>
       <r>   37.4706    0.0000 </r>
       <r>   41.4790    0.0000 </r>
       <r>   43.3126    0.0000 </r>
      </set>
      <set comment="kpoint 9">
       <r>    2.7281    1.0000 </r>
       <r>    7.2404    1.0000 </r>
       <r>    8.0526    1.0000 </r>
       <r>    8.0833    1.0000 </r>
       <r>    8.4570    1.0000 </r>
       <r>    8.9712    1.0000 </r>
       <r>   30.6634    0.0000 </r>
       <r>   33.1458    0.0000 </r>
       <r>   33.3079    0.0000 </r>
       <r>   35.5330    0.0000 </r>
       <r>   41.1585    0.0000 </r>
       <r>   43.8207    0.0000 </r>
      </set>
      <set comment="kpoint 10">
       <r>    4.0867    1.0000 </r>
       <r>    6.9365    1.0000 </r>
       <r>    7.8349    1.0000 </r>
       <r>    8.3441    1.0000 </r>
       <r>    8.7283    1.0000 </r>
       <r>    9.3544    1.0000 </r>
       <r>   26.8222    0.0000 </r>
       <r>   29.4314    0.0000 </r>
       <r>   33.2087    0.0000 </r>
       <r>   35.2125    0.0000 </r>
       <r>   40.0271    0.0000 </r>
       <r>   43.5910    0.0000 </r>
      </set>
      <set comment="kpoint 11">
       <r>    5.4588    1.0000 </r>
       <r>    7.0588    1.0000 </r>
       <r>    7.5258    1.0000 </r>
       <r>    8.1856    1.0000 </r>
       <r>    9.4399    1.0000 </r>
       <r>   10.5588    0.0000 </r>
       <r>   21.0295    0.0000 </r>
       <r>   28.8179    0.0000 </r>
       <r>   30.8160    0.0000 </r>
       <r>   34.8589    0.0000 </r>
       <r>   41.5687    0.0000 </r>
       <r>   44.0501    0.0000 </r>
      </set>
      <set comment="kpoint 12">
       <r>    5.7605    1.0000 </r>
       <r>    7.0936    1.0000 </r>
       <r>    7.9688    1.0000 </r>
       <r>    8.0350    1.0000 </r>
       <r>    9.6431    1.0000 </r>
       <r>   12.7272    0.0000 </r>
       <r>   16.9260    0.0000 </r>
       <r>   28.2245    0.0000 </r>
       <r>   30.1011    0.0000 </r>
       <r>   34.6490    0.0000 </r>
       <r>   40.7075    0.0000 </r>
       <r>   44.3687    0.0000 </r>
      </set>
      <set comment="kpoint 13">
       <r>    5.6941    1.0000 </r>
       <r>    7.2429    1.0000 </r>
       <r>    7.5967    1.0000 </r>
       <r>    8.0733    1.0000 </r>
       <r>    9.3203    1.0000 </r>
       <r>   11.4116    0.0000 </r>
       <r>   19.3647    0.0000 </r>
       <r>   27.4130    0.0000 </r>
       <r>   31.6639    0.0000 </r>
       <r>   35.7535    0.0000 </r>
       <r>   40.0740    0.0000 </r>
       <r>   43.7562    0.0000 </r>
      </set>
      <set comment="kpoint 14">
       <r>    4.6695    1.0000 </r>
       <r>    7.0117    1.0000 </r>
       <r>    7.6592    1.0000 </r>
       <r>    8.2766    1.0000 </r>
       <r>    8.6597    1.0000 </r>
       <r>    9.8583    1.0000 </r>
       <r>   24.8243    0.0000 </r>
       <r>   27.5639    0.0000 </r>
       <r>   34.1956    0.0000 </r>
       <r>   37.7048    0.0000 </r>
       <r>   39.5397    0.0000 </r>
       <r>   42.5803    0.0000 </r>
      </set>
      <set comment="kpoint 15">
       <r>    3.0942    1.0000 </r>
       <r>    7.2384    1.0000 </r>
       <r>    7.9495    1.0000 </r>
       <r>    8.0863    1.0000 </r>
       <r>    8.5357    1.0000 </r>
       <r>    9.0603    1.0000 </r>
       <r>   28.5207    0.0000 </r>
       <r>   31.1641    0.0000 </r>
       <r>   35.5930    0.0000 </r>
       <r>   37.3887    0.0000 </r>
       <r>   40.9304    0.0000 </r>
       <r>   42.3444    0.0000 </r>
      </set>
      <set comment="kpoint 16">
       <r>    4.7581    1.0000 </r>
       <r>    6.5157    1.0000 </r>
       <r>    8.1598    1.0000 </r>
       <r>    8.7738    1.0000 </r>
       <r>    9.1115    1.0000 </r>
       <r>    9.3264    1.0000 </r>
       <r>   27.4092    0.0000 </r>
       <r>   29.1006    0.0000 </r>
       <r>   29.1672    0.0000 </r>
       <r>   31.9940    0.0000 </r>
       <r>   36.5967    0.0000 </r>
       <r>   47.3076    0.0000 </r>
      </set>
      <set comment="kpoint 17">
       <r>    5.4909    1.0000 </r>
       <r>    6.3079    1.0000 </r>
       <r>    8.1013    1.0000 </r>
       <r>    9.0198    1.0000 </r>
       <r>    9.4880    1.0000 </r>
       <r>   10.8188    0.0000 </r>
       <r>   23.9960    0.0000 </r>
       <r>   25.9476    0.0000 </r>
       <r>   26.9344    0.0000 </r>
       <r>   33.2391    0.0000 </r>
       <r>   37.7383    0.0000 </r>
       <r>   46.9105    0.0000 </r>
      </set>
      <set comment="kpoint 18">
       <r>    5.9784    1.0000 </r>
       <r>    6.4433    1.0000 </r>
       <r>    7.7979    1.0000 </r>
       <r>    8.7367    1.0000 </r>
       <r>    9.7077    1.0000 </r>
       <r>   13.9930    0.0000 </r>
       <r>   18.8931    0.0000 </r>
       <r>   23.7659    0.0000 </r>
       <r>   27.1199    0.0000 </r>
       <r>   33.6820    0.0000 </r>
       <r>   42.6366    0.0000 </r>
       <r>   45.4455    0.0000 </r>
      </set>
      <set comment="kpoint 19">
       <r>    6.4600    1.0000 </r>
       <r>    6.6152    1.0000 </r>
       <r>    7.3410    1.0000 </r>
       <r>    8.5365    1.0000 </r>
       <r>    9.3898    1.0000 </r>
       <r>   14.3085    0.0000 </r>
       <r>   18.7354    0.0000 </r>
       <r>   22.4505    0.0000 </r>
       <r>   28.8477    0.0000 </r>
       <r>   34.5542    0.0000 </r>
       <r>   43.3025    0.0000 </r>
       <r>   46.8587    0.0000 </r>
      </set>
      <set comment="kpoint 20">
       <r>    5.9882    1.0000 </r>
       <r>    7.0281    1.0000 </r>
       <r>    7.1833    1.0000 </r>
       <r>    8.3583    1.0000 </r>
       <r>    9.0121    1.0000 </r>
       <r>   11.5083    0.0000 </r>
       <r>   21.5624    0.0000 </r>
       <r>   24.5715    0.0000 </r>
       <r>   31.4238    0.0000 </r>
       <r>   36.3102    0.0000 </r>
       <r>   40.5468    0.0000 </r>
       <r>   45.2025    0.0000 </r>
      </set>
      <set comment="kpoint 21">
       <r>    4.7758    1.0000 </r>
       <r>    7.2931    1.0000 </r>
       <r>    7.6748    1.0000 </r>
       <r>    7.9901    1.0000 </r>
       <r>    9.0709    1.0000 </r>
       <r>    9.7258    1.0000 </r>
       <r>   22.5141    0.0000 </r>
       <r>   30.3107    0.0000 </r>
       <r>   33.8579    0.0000 </r>
       <r>   36.4989    0.0000 </r>
       <r>   40.1717    0.0000 </r>
       <r>   41.7163    0.0000 </r>
      </set>
      <set comment="kpoint 22">
       <r>    5.2682    1.0000 </r>
       <r>    5.9390    1.0000 </r>
       <r>    9.3646    1.0000 </r>
       <r>    9.4078    1.0000 </r>
       <r>    9.7312    1.0000 </r>
       <r>   11.4764    0.0000 </r>
       <r>   22.6838    0.0000 </r>
       <r>   25.0735    0.0000 </r>
       <r>   26.2503    0.0000 </r>
       <r>   31.1288    0.0000 </r>
       <r>   35.1634    0.0000 </r>
       <r>   47.4003    0.0000 </r>
      </set>
      <set comment="kpoint 23">
       <r>    5.4157    1.0000 </r>
       <r>    5.9639    1.0000 </r>
       <r>    8.9447    1.0000 </r>
       <r>    9.3554    1.0000 </r>
       <r>    9.8718    1.0000 </r>
       <r>   14.0224    0.0000 </r>
       <r>   20.5384    0.0000 </r>
       <r>   22.6457    0.0000 </r>
       <r>   25.1052    0.0000 </r>
       <r>   32.6009    0.0000 </r>
       <r>   37.0669    0.0000 </r>
       <r>   47.3923    0.0000 </r>
      </set>
      <set comment="kpoint 24">
       <r>    5.9281    1.0000 </r>
       <r>    6.3489    1.0000 </r>
       <r>    7.9727    1.0000 </r>
       <r>    8.9163    1.0000 </r>
       <r>    9.6963    1.0000 </r>
       <r>   16.0335    0.0000 </r>
       <r>   18.2371    0.0000 </r>
       <r>   21.2833    0.0000 </r>
       <r>   26.6438    0.0000 </r>
       <r>   33.5185    0.0000 </r>
       <r>   42.6118    0.0000 </r>
       <r>   46.5857    0.0000 </r>
      </set>
      <set comment="kpoint 25">
       <r>    6.1350    1.0000 </r>
       <r>    6.7897    1.0000 </r>
       <r>    7.6437    1.0000 </r>
       <r>    8.2928    1.0000 </r>
       <r>    9.5434    1.0000 </r>
       <r>   13.9738    0.0000 </r>
       <r>   17.1761    0.0000 </r>
       <r>   25.2060    0.0000 </r>
       <r>   29.2170    0.0000 </r>
       <r>   34.5660    0.0000 </r>
       <r>   42.0445    0.0000 </r>
       <r>   46.4757    0.0000 </r>
      </set>
      <set comment="kpoint 26">
       <r>    5.4291    1.0000 </r>
       <r>    7.4072    1.0000 </r>
       <r>    7.8039    1.0000 </r>
       <r>    8.3150    1.0000 </r>
       <r>    9.5863    1.0000 </r>
       <r>   11.1797    0.0000 </r>
       <r>   17.6634    0.0000 </r>
       <r>   30.1888    0.0000 </r>
       <r>   32.3512    0.0000 </r>
       <r>   34.9435    0.0000 </r>
       <r>   39.6355    0.0000 </r>
       <r>   41.7978    0.0000 </r>
      </set>
      <set comment="kpoint 27">
       <r>    5.2039    1.0000 </r>
       <r>    5.8087    1.0000 </r>
       <r>    9.5265    1.0000 </r>
       <r>    9.6536    1.0000 </r>
       <r>    9.8844    1.0000 </r>
       <r>   13.0145    0.0000 </r>
       <r>   20.4516    0.0000 </r>
       <r>   24.4786    0.0000 </r>
       <r>   25.6148    0.0000 </r>
       <r>   30.9910    0.0000 </r>
       <r>   34.9847    0.0000 </r>
       <r>   47.4995    0.0000 </r>
      </set>
      <set comment="kpoint 28">
       <r>    5.4938    1.0000 </r>
       <r>    6.0828    1.0000 </r>
       <r>    8.6050    1.0000 </r>
       <r>    9.2782    1.0000 </r>
       <r>    9.7208    1.0000 </r>
       <r>   12.4114    0.0000 </r>
       <r>   22.6693    0.0000 </r>
       <r>   23.3735    0.0000 </r>
       <r>   25.6729    0.0000 </r>
       <r>   32.8026    0.0000 </r>
       <r>   37.2641    0.0000 </r>
       <r>   47.2784    0.0000 </r>
      </set>
      <set comment="kpoint 29">
       <r>    5.8747    1.0000 </r>
       <r>    6.7030    1.0000 </r>
       <r>    7.5921    1.0000 </r>
       <r>    8.4602    1.0000 </r>
       <r>    9.6476    1.0000 </r>
       <r>   12.0292    0.0000 </r>
       <r>   19.8131    0.0000 </r>
       <r>   26.8099    0.0000 </r>
       <r>   28.1808    0.0000 </r>
       <r>   34.0740    0.0000 </r>
       <r>   42.4309    0.0000 </r>
       <r>   44.5386    0.0000 </r>
      </set>
      <set comment="kpoint 30">
       <r>    5.2401    1.0000 </r>
       <r>    6.1849    1.0000 </r>
       <r>    8.7720    1.0000 </r>
       <r>    9.1425    1.0000 </r>
       <r>    9.5249    1.0000 </r>
       <r>    9.9649    1.0000 </r>
       <r>   25.5895    0.0000 </r>
       <r>   26.3261    0.0000 </r>
       <r>   27.4487    0.0000 </r>
       <r>   31.4325    0.0000 </r>
       <r>   35.6281    0.0000 </r>
       <r>   47.3341    0.0000 </r>
      </set>
      <set comment="kpoint 31">
       <r>    5.0369    1.0000 </r>
       <r>    6.6083    1.0000 </r>
       <r>    7.7716    1.0000 </r>
       <r>    8.6694    1.0000 </r>
       <r>    9.1436    1.0000 </r>
       <r>    9.8301    1.0000 </r>
       <r>   25.3009    0.0000 </r>
       <r>   27.8057    0.0000 </r>
       <r>   29.8859    0.0000 </r>
       <r>   33.9847    0.0000 </r>
       <r>   38.6183    0.0000 </r>
       <r>   45.5424    0.0000 </r>
      </set>
      <set comment="kpoint 32">
       <r>    3.7642    1.0000 </r>
       <r>    6.8861    1.0000 </r>
       <r>    8.0584    1.0000 </r>
       <r>    8.3995    1.0000 </r>
       <r>    8.6107    1.0000 </r>
       <r>    9.1377    1.0000 </r>
       <r>   29.0317    0.0000 </r>
       <r>   31.0918    0.0000 </r>
       <r>   31.7294    0.0000 </r>
       <r>   33.2789    0.0000 </r>
       <r>   38.3996    0.0000 </r>
       <r>   46.3083    0.0000 </r>
      </set>
      <set comment="kpoint 33">
       <r>    2.7193    1.0000 </r>
       <r>    7.4206    1.0000 </r>
       <r>    7.9122    1.0000 </r>
       <r>    7.9122    1.0000 </r>
       <r>    8.7818    1.0000 </r>
       <r>    8.7818    1.0000 </r>
       <r>   28.2353    0.0000 </r>
       <r>   34.2754    0.0000 </r>
       <r>   36.5537    0.0000 </r>
       <r>   36.5537    0.0000 </r>
       <r>   41.9755    0.0000 </r>
       <r>   42.4381    0.0000 </r>
      </set>
      <set comment="kpoint 34">
       <r>    3.7807    1.0000 </r>
       <r>    7.1729    1.0000 </r>
       <r>    7.8579    1.0000 </r>
       <r>    8.1473    1.0000 </r>
       <r>    8.4924    1.0000 </r>
       <r>    9.3788    1.0000 </r>
       <r>   26.5593    0.0000 </r>
       <r>   29.2540    0.0000 </r>
       <r>   36.8614    0.0000 </r>
       <r>   38.8183    0.0000 </r>
       <r>   38.9774    0.0000 </r>
       <r>   40.9690    0.0000 </r>
      </set>
      <set comment="kpoint 35">
       <r>    5.3703    1.0000 </r>
       <r>    7.0615    1.0000 </r>
       <r>    7.4848    1.0000 </r>
       <r>    8.2065    1.0000 </r>
       <r>    8.7420    1.0000 </r>
       <r>   10.5366    0.0001 </r>
       <r>   23.0713    0.0000 </r>
       <r>   25.9244    0.0000 </r>
       <r>   34.9039    0.0000 </r>
       <r>   35.4952    0.0000 </r>
       <r>   40.7737    0.0000 </r>
       <r>   42.5664    0.0000 </r>
      </set>
      <set comment="kpoint 36">
       <r>    5.9088    1.0000 </r>
       <r>    7.0862    1.0000 </r>
       <r>    7.7409    1.0000 </r>
       <r>    8.0896    1.0000 </r>
       <r>    9.3831    1.0000 </r>
       <r>   12.5535    0.0000 </r>
       <r>   18.0423    0.0000 </r>
       <r>   26.1659    0.0000 </r>
       <r>   32.3976    0.0000 </r>
       <r>   33.2737    0.0000 </r>
       <r>   42.8003    0.0000 </r>
       <r>   42.8957    0.0000 </r>
      </set>
      <set comment="kpoint 37">
       <r>    5.8077    1.0000 </r>
       <r>    6.9429    1.0000 </r>
       <r>    7.7799    1.0000 </r>
       <r>    8.1666    1.0000 </r>
       <r>    9.7140    1.0000 </r>
       <r>   12.3900    0.0000 </r>
       <r>   18.0024    0.0000 </r>
       <r>   27.5030    0.0000 </r>
       <r>   30.4927    0.0000 </r>
       <r>   32.8196    0.0000 </r>
       <r>   43.8369    0.0000 </r>
       <r>   43.9701    0.0000 </r>
      </set>
      <set comment="kpoint 38">
       <r>    5.2086    1.0000 </r>
       <r>    6.7581    1.0000 </r>
       <r>    7.6640    1.0000 </r>
       <r>    8.3569    1.0000 </r>
       <r>    9.5360    1.0000 </r>
       <r>    9.9342    1.0000 </r>
       <r>   23.0228    0.0000 </r>
       <r>   29.6246    0.0000 </r>
       <r>   30.0807    0.0000 </r>
       <r>   33.2390    0.0000 </r>
       <r>   41.0100    0.0000 </r>
       <r>   45.0754    0.0000 </r>
      </set>
      <set comment="kpoint 39">
       <r>    4.3421    1.0000 </r>
       <r>    7.0546    1.0000 </r>
       <r>    7.7677    1.0000 </r>
       <r>    8.1210    1.0000 </r>
       <r>    9.1220    1.0000 </r>
       <r>    9.2974    1.0000 </r>
       <r>   24.5325    0.0000 </r>
       <r>   31.9414    0.0000 </r>
       <r>   32.0100    0.0000 </r>
       <r>   35.3688    0.0000 </r>
       <r>   41.5590    0.0000 </r>
       <r>   42.8448    0.0000 </r>
      </set>
      <set comment="kpoint 40">
       <r>    5.5095    1.0000 </r>
       <r>    6.7889    1.0000 </r>
       <r>    7.4197    1.0000 </r>
       <r>    8.5390    1.0000 </r>
       <r>    9.0253    1.0000 </r>
       <r>   10.5922    0.0000 </r>
       <r>   23.3219    0.0000 </r>
       <r>   26.1082    0.0000 </r>
       <r>   30.5287    0.0000 </r>
       <r>   36.7650    0.0000 </r>
       <r>   39.9415    0.0000 </r>
       <r>   43.3582    0.0000 </r>
      </set>
      <set comment="kpoint 41">
       <r>    6.3456    1.0000 </r>
       <r>    6.7815    1.0000 </r>
       <r>    7.0895    1.0000 </r>
       <r>    8.6043    1.0000 </r>
       <r>    9.3542    1.0000 </r>
       <r>   12.9665    0.0000 </r>
       <r>   20.3114    0.0000 </r>
       <r>   23.5246    0.0000 </r>
       <r>   27.7896    0.0000 </r>
       <r>   37.6446    0.0000 </r>
       <r>   39.9427    0.0000 </r>
       <r>   45.3276    0.0000 </r>
      </set>
      <set comment="kpoint 42">
       <r>    6.3229    1.0000 </r>
       <r>    6.5646    1.0000 </r>
       <r>    7.4377    1.0000 </r>
       <r>    8.5535    1.0000 </r>
       <r>    9.6421    1.0000 </r>
       <r>   14.9266    0.0000 </r>
       <r>   17.5065    0.0000 </r>
       <r>   24.4766    0.0000 </r>
       <r>   25.9970    0.0000 </r>
       <r>   36.4702    0.0000 </r>
       <r>   41.3161    0.0000 </r>
       <r>   46.2709    0.0000 </r>
      </set>
      <set comment="kpoint 43">
       <r>    5.9154    1.0000 </r>
       <r>    6.5483    1.0000 </r>
       <r>    7.4771    1.0000 </r>
       <r>    8.8402    1.0000 </r>
       <r>    9.3911    1.0000 </r>
       <r>   11.8302    0.0000 </r>
       <r>   22.0741    0.0000 </r>
       <r>   24.8832    0.0000 </r>
       <r>   26.9943    0.0000 </r>
       <r>   36.0304    0.0000 </r>
       <r>   40.0668    0.0000 </r>
       <r>   44.0620    0.0000 </r>
      </set>
      <set comment="kpoint 44">
       <r>    5.6484    1.0000 </r>
       <r>    6.4480    1.0000 </r>
       <r>    7.8932    1.0000 </r>
       <r>    8.6525    1.0000 </r>
       <r>    9.7031    1.0000 </r>
       <r>   11.2551    0.0000 </r>
       <r>   21.7629    0.0000 </r>
       <r>   26.4169    0.0000 </r>
       <r>   28.5211    0.0000 </r>
       <r>   32.4239    0.0000 </r>
       <r>   40.2055    0.0000 </r>
       <r>   46.9438    0.0000 </r>
      </set>
      <set comment="kpoint 45">
       <r>    5.8741    1.0000 </r>
       <r>    6.3651    1.0000 </r>
       <r>    7.8216    1.0000 </r>
       <r>    9.0199    1.0000 </r>
       <r>    9.6842    1.0000 </r>
       <r>   13.6093    0.0000 </r>
       <r>   21.1274    0.0000 </r>
       <r>   23.3028    0.0000 </r>
       <r>   24.4704    0.0000 </r>
       <r>   35.5485    0.0000 </r>
       <r>   40.0696    0.0000 </r>
       <r>   45.1753    0.0000 </r>
      </set>
      <set comment="kpoint 46">
       <r>    6.0773    1.0000 </r>
       <r>    6.7276    1.0000 </r>
       <r>    7.3510    1.0000 </r>
       <r>    8.7697    1.0000 </r>
       <r>    9.8665    1.0000 </r>
       <r>   17.0327    0.0000 </r>
       <r>   18.8046    0.0000 </r>
       <r>   21.3420    0.0000 </r>
       <r>   22.8154    0.0000 </r>
       <r>   38.5287    0.0000 </r>
       <r>   41.9644    0.0000 </r>
       <r>   43.7251    0.0000 </r>
      </set>
      <set comment="kpoint 47">
       <r>    6.2398    1.0000 </r>
       <r>    6.7318    1.0000 </r>
       <r>    7.1989    1.0000 </r>
       <r>    8.7452    1.0000 </r>
       <r>    9.6674    1.0000 </r>
       <r>   14.9204    0.0000 </r>
       <r>   19.3726    0.0000 </r>
       <r>   22.7319    0.0000 </r>
       <r>   24.5184    0.0000 </r>
       <r>   38.5208    0.0000 </r>
       <r>   40.3201    0.0000 </r>
       <r>   44.7212    0.0000 </r>
      </set>
      <set comment="kpoint 48">
       <r>    5.6047    1.0000 </r>
       <r>    6.0994    1.0000 </r>
       <r>    8.5848    1.0000 </r>
       <r>    9.1703    1.0000 </r>
       <r>    9.7661    1.0000 </r>
       <r>   14.8166    0.0000 </r>
       <r>   19.9823    0.0000 </r>
       <r>   21.1317    0.0000 </r>
       <r>   26.8437    0.0000 </r>
       <r>   31.9514    0.0000 </r>
       <r>   39.5002    0.0000 </r>
       <r>   47.3812    0.0000 </r>
      </set>
      <set comment="kpoint 49">
       <r>    5.7666    1.0000 </r>
       <r>    6.2730    1.0000 </r>
       <r>    8.1048    1.0000 </r>
       <r>    9.0472    1.0000 </r>
       <r>    9.8677    1.0000 </r>
       <r>   15.4473    0.0000 </r>
       <r>   20.3593    0.0000 </r>
       <r>   21.1871    0.0000 </r>
       <r>   23.8539    0.0000 </r>
       <r>   35.3120    0.0000 </r>
       <r>   40.0622    0.0000 </r>
       <r>   46.3113    0.0000 </r>
      </set>
      <set comment="kpoint 50">
       <r>    5.6754    1.0000 </r>
       <r>    6.2137    1.0000 </r>
       <r>    8.3087    1.0000 </r>
       <r>    8.9537    1.0000 </r>
       <r>    9.7739    1.0000 </r>
       <r>   13.0441    0.0000 </r>
       <r>   20.7898    0.0000 </r>
       <r>   23.2886    0.0000 </r>
       <r>   27.4176    0.0000 </r>
       <r>   32.0847    0.0000 </r>
       <r>   39.7182    0.0000 </r>
       <r>   47.2583    0.0000 </r>
      </set>
      <set comment="kpoint 51">
       <r>    4.4544    1.0000 </r>
       <r>    7.6497    1.0000 </r>
       <r>    7.8029    1.0000 </r>
       <r>    7.8029    1.0000 </r>
       <r>    9.1831    1.0000 </r>
       <r>    9.1831    1.0000 </r>
       <r>   22.2377    0.0000 </r>
       <r>   33.1266    0.0000 </r>
       <r>   35.8006    0.0000 </r>
       <r>   35.8006    0.0000 </r>
       <r>   40.0706    0.0000 </r>
       <r>   40.0706    0.0000 </r>
      </set>
      <set comment="kpoint 52">
       <r>    5.2582    1.0000 </r>
       <r>    7.5389    1.0000 </r>
       <r>    7.5546    1.0000 </r>
       <r>    7.9298    1.0000 </r>
       <r>    9.0789    1.0000 </r>
       <r>   10.3855    0.6548 </r>
       <r>   20.7932    0.0000 </r>
       <r>   28.7475    0.0000 </r>
       <r>   34.4732    0.0000 </r>
       <r>   35.7533    0.0000 </r>
       <r>   40.3600    0.0000 </r>
       <r>   40.7769    0.0000 </r>
      </set>
      <set comment="kpoint 53">
       <r>    6.2965    1.0000 </r>
       <r>    6.9334    1.0000 </r>
       <r>    7.2456    1.0000 </r>
       <r>    8.3500    1.0000 </r>
       <r>    9.1437    1.0000 </r>
       <r>   12.7026    0.0000 </r>
       <r>   20.0266    0.0000 </r>
       <r>   23.3428    0.0000 </r>
       <r>   32.0306    0.0000 </r>
       <r>   33.3250    0.0000 </r>
       <r>   43.8342    0.0000 </r>
       <r>   44.5322    0.0000 </r>
      </set>
      <set comment="kpoint 54">
       <r>    6.1849    1.0000 </r>
       <r>    6.5012    1.0000 </r>
       <r>    7.6944    1.0000 </r>
       <r>    8.7051    1.0000 </r>
       <r>    9.5075    1.0000 </r>
       <r>   15.8760    0.0000 </r>
       <r>   17.4564    0.0000 </r>
       <r>   21.7163    0.0000 </r>
       <r>   29.0723    0.0000 </r>
       <r>   32.4512    0.0000 </r>
       <r>   45.6286    0.0000 </r>
       <r>   47.0071    0.0000 </r>
      </set>
      <set comment="kpoint 55">
       <r>    5.4129    1.0000 </r>
       <r>    7.3379    1.0000 </r>
       <r>    7.8544    1.0000 </r>
       <r>    7.9343    1.0000 </r>
       <r>    9.6591    1.0000 </r>
       <r>   10.6767    0.0000 </r>
       <r>   19.1065    0.0000 </r>
       <r>   30.4641    0.0000 </r>
       <r>   31.8764    0.0000 </r>
       <r>   33.7513    0.0000 </r>
       <r>   41.7300    0.0000 </r>
       <r>   42.4125    0.0000 </r>
      </set>
      <set comment="kpoint 56">
       <r>    6.0646    1.0000 </r>
       <r>    6.8509    1.0000 </r>
       <r>    7.5302    1.0000 </r>
       <r>    8.3164    1.0000 </r>
       <r>    9.5431    1.0000 </r>
       <r>   12.9784    0.0000 </r>
       <r>   18.2379    0.0000 </r>
       <r>   26.3006    0.0000 </r>
       <r>   28.2063    0.0000 </r>
       <r>   36.2444    0.0000 </r>
       <r>   40.3017    0.0000 </r>
       <r>   46.5907    0.0000 </r>
      </set>
      <set comment="kpoint 57">
       <r>    6.2617    1.0000 </r>
       <r>    6.6339    1.0000 </r>
       <r>    7.3629    1.0000 </r>
       <r>    8.6994    1.0000 </r>
       <r>    9.6691    1.0000 </r>
       <r>   16.2899    0.0000 </r>
       <r>   17.8144    0.0000 </r>
       <r>   21.8588    0.0000 </r>
       <r>   25.5120    0.0000 </r>
       <r>   36.5214    0.0000 </r>
       <r>   42.6420    0.0000 </r>
       <r>   45.8638    0.0000 </r>
      </set>
      <set comment="kpoint 58">
       <r>    6.0873    1.0000 </r>
       <r>    6.6248    1.0000 </r>
       <r>    7.7219    1.0000 </r>
       <r>    8.4571    1.0000 </r>
       <r>    9.6398    1.0000 </r>
       <r>   14.3975    0.0000 </r>
       <r>   17.2944    0.0000 </r>
       <r>   24.3402    0.0000 </r>
       <r>   29.5496    0.0000 </r>
       <r>   32.5339    0.0000 </r>
       <r>   45.3102    0.0000 </r>
       <r>   45.6399    0.0000 </r>
      </set>
      <set comment="kpoint 59">
       <r>    5.1585    1.0000 </r>
       <r>    7.6227    1.0000 </r>
       <r>    7.6227    1.0000 </r>
       <r>    9.5390    1.0000 </r>
       <r>    9.6106    1.0000 </r>
       <r>    9.6106    1.0000 </r>
       <r>   17.5068    0.0000 </r>
       <r>   32.2023    0.0000 </r>
       <r>   35.4581    0.0000 </r>
       <r>   35.4581    0.0000 </r>
       <r>   38.2902    0.0000 </r>
       <r>   38.2902    0.0000 </r>
      </set>
      <set comment="kpoint 60">
       <r>    5.5418    1.0000 </r>
       <r>    7.3179    1.0000 </r>
       <r>    7.8297    1.0000 </r>
       <r>    8.3460    1.0000 </r>
       <r>    9.5947    1.0000 </r>
       <r>   11.9852    0.0000 </r>
       <r>   16.8282    0.0000 </r>
       <r>   29.2022    0.0000 </r>
       <r>   33.1288    0.0000 </r>
       <r>   33.3733    0.0000 </r>
       <r>   40.9518    0.0000 </r>
       <r>   41.4503    0.0000 </r>
      </set>
     </set>
     <set comment="spin 2">
      <set comment="kpoint 1">
       <r>    1.5424    1.0000 </r>
       <r>    9.2109    1.0000 </r>
       <r>    9.3090    1.0000 </r>
       <r>    9.3090    1.0000 </r>
       <r>   10.6627    0.0000 </r>
       <r>   10.6627    0.0000 </r>
       <r>   32.9235    0.0000 </r>
       <r>   36.2288    0.0000 </r>
       <r>   37.7981    0.0000 </r>
       <r>   37.7981    0.0000 </r>
       <r>   41.7853    0.0000 </r>
       <r>   41.7854    0.0000 </r>
      </set>
      <set comment="kpoint 2">
       <r>    2.3526    1.0000 </r>
       <r>    8.9353    1.0000 </r>
       <r>    9.4864    1.0000 </r>
       <r>    9.4947    1.0000 </r>
       <r>   10.4735    0.0183 </r>
       <r>   10.7409    0.0000 </r>
       <r>   30.5412    0.0000 </r>
       <r>   33.0662    0.0000 </r>
       <r>   36.5584    0.0000 </r>
       <r>   38.8212    0.0000 </r>
       <r>   40.3839    0.0000 </r>
       <r>   41.8760    0.0000 </r>
      </set>
      <set comment="kpoint 3">
       <r>    4.1375    1.0000 </r>
       <r>    8.6112    1.0000 </r>
       <r>    9.4705    1.0000 </r>
       <r>    9.5737    1.0000 </r>
       <r>   10.6318    0.0000 </r>
       <r>   11.0953    0.0000 </r>
       <r>   24.6983    0.0000 </r>
       <r>   31.9550    0.0000 </r>
       <r>   35.5212    0.0000 </r>
       <r>   38.5322    0.0000 </r>
       <r>   39.6399    0.0000 </r>
       <r>   40.4491    0.0000 </r>
      </set>
      <set comment="kpoint 4">
       <r>    5.8250    1.0000 </r>
       <r>    9.0515    1.0000 </r>
       <r>    9.2710    1.0000 </r>
       <r>    9.3681    1.0000 </r>
       <r>   11.2220    0.0000 </r>
       <r>   11.6990    0.0000 </r>
       <r>   19.6140    0.0000 </r>
       <r>   31.3341    0.0000 </r>
       <r>   34.3718    0.0000 </r>
       <r>   36.3786    0.0000 </r>
       <r>   38.8121    0.0000 </r>
       <r>   40.3124    0.0000 </r>
      </set>
      <set comment="kpoint 5">
       <r>    6.1803    1.0000 </r>
       <r>    9.1079    1.0000 </r>
       <r>    9.3067    1.0000 </r>
       <r>    9.7359    1.0000 </r>
       <r>   11.5424    0.0000 </r>
       <r>   11.9751    0.0000 </r>
       <r>   17.6965    0.0000 </r>
       <r>   31.3119    0.0000 </r>
       <r>   34.5039    0.0000 </r>
       <r>   34.6361    0.0000 </r>
       <r>   39.6116    0.0000 </r>
       <r>   39.6261    0.0000 </r>
      </set>
      <set comment="kpoint 6">
       <r>    5.3919    1.0000 </r>
       <r>    8.7472    1.0000 </r>
       <r>    9.3084    1.0000 </r>
       <r>    9.4525    1.0000 </r>
       <r>   11.2192    0.0000 </r>
       <r>   11.3268    0.0000 </r>
       <r>   21.1275    0.0000 </r>
       <r>   32.0303    0.0000 </r>
       <r>   33.9905    0.0000 </r>
       <r>   36.4210    0.0000 </r>
       <r>   39.3934    0.0000 </r>
       <r>   41.2903    0.0000 </r>
      </set>
      <set comment="kpoint 7">
       <r>    3.4718    1.0000 </r>
       <r>    8.6667    1.0000 </r>
       <r>    9.5408    1.0000 </r>
       <r>    9.5936    1.0000 </r>
       <r>   10.5473    0.0000 </r>
       <r>   10.8866    0.0000 </r>
       <r>   26.6371    0.0000 </r>
       <r>   33.1593    0.0000 </r>
       <r>   34.5425    0.0000 </r>
       <r>   38.8723    0.0000 </r>
       <r>   39.2448    0.0000 </r>
       <r>   43.4340    0.0000 </r>
      </set>
      <set comment="kpoint 8">
       <r>    1.9531    1.0000 </r>
       <r>    9.0372    1.0000 </r>
       <r>    9.4280    1.0000 </r>
       <r>    9.4333    1.0000 </r>
       <r>   10.4988    0.0025 </r>
       <r>   10.7353    0.0000 </r>
       <r>   32.1324    0.0000 </r>
       <r>   34.5713    0.0000 </r>
       <r>   35.8812    0.0000 </r>
       <r>   37.5444    0.0000 </r>
       <r>   41.6558    0.0000 </r>
       <r>   43.4004    0.0000 </r>
      </set>
      <set comment="kpoint 9">
       <r>    2.7429    1.0000 </r>
       <r>    8.7081    1.0000 </r>
       <r>    9.6539    1.0000 </r>
       <r>    9.6765    1.0000 </r>
       <r>   10.2394    1.0000 </r>
       <r>   10.8695    0.0000 </r>
       <r>   30.8565    0.0000 </r>
       <r>   33.1230    0.0000 </r>
       <r>   33.6226    0.0000 </r>
       <r>   35.5894    0.0000 </r>
       <r>   41.8051    0.0000 </r>
       <r>   43.9197    0.0000 </r>
      </set>
      <set comment="kpoint 10">
       <r>    4.1718    1.0000 </r>
       <r>    8.3208    1.0000 </r>
       <r>    9.4630    1.0000 </r>
       <r>    9.9898    1.0000 </r>
       <r>   10.4221    0.2620 </r>
       <r>   11.1936    0.0000 </r>
       <r>   27.1711    0.0000 </r>
       <r>   29.6763    0.0000 </r>
       <r>   33.3337    0.0000 </r>
       <r>   35.3554    0.0000 </r>
       <r>   40.5522    0.0000 </r>
       <r>   43.6332    0.0000 </r>
      </set>
      <set comment="kpoint 11">
       <r>    5.9693    1.0000 </r>
       <r>    8.2259    1.0000 </r>
       <r>    9.0334    1.0000 </r>
       <r>    9.8629    1.0000 </r>
       <r>   11.2285    0.0000 </r>
       <r>   12.0534    0.0000 </r>
       <r>   21.5775    0.0000 </r>
       <r>   29.0342    0.0000 </r>
       <r>   31.0782    0.0000 </r>
       <r>   35.0516    0.0000 </r>
       <r>   41.6882    0.0000 </r>
       <r>   44.3167    0.0000 </r>
      </set>
      <set comment="kpoint 12">
       <r>    6.7271    1.0000 </r>
       <r>    8.4152    1.0000 </r>
       <r>    9.1394    1.0000 </r>
       <r>    9.7018    1.0000 </r>
       <r>   11.4872    0.0000 </r>
       <r>   13.6157    0.0000 </r>
       <r>   17.7987    0.0000 </r>
       <r>   28.4295    0.0000 </r>
       <r>   30.4254    0.0000 </r>
       <r>   34.7530    0.0000 </r>
       <r>   40.9097    0.0000 </r>
       <r>   44.4646    0.0000 </r>
      </set>
      <set comment="kpoint 13">
       <r>    6.4095    1.0000 </r>
       <r>    8.4641    1.0000 </r>
       <r>    8.9200    1.0000 </r>
       <r>    9.7546    1.0000 </r>
       <r>   11.1062    0.0000 </r>
       <r>   12.7472    0.0000 </r>
       <r>   20.0142    0.0000 </r>
       <r>   27.6906    0.0000 </r>
       <r>   31.8867    0.0000 </r>
       <r>   35.8680    0.0000 </r>
       <r>   40.2648    0.0000 </r>
       <r>   43.8660    0.0000 </r>
      </set>
      <set comment="kpoint 14">
       <r>    4.8112    1.0000 </r>
       <r>    8.3502    1.0000 </r>
       <r>    9.2526    1.0000 </r>
       <r>    9.9694    1.0000 </r>
       <r>   10.3791    0.7190 </r>
       <r>   11.6083    0.0000 </r>
       <r>   25.2425    0.0000 </r>
       <r>   27.8586    0.0000 </r>
       <r>   34.3166    0.0000 </r>
       <r>   37.7986    0.0000 </r>
       <r>   39.6568    0.0000 </r>
       <r>   42.8853    0.0000 </r>
      </set>
      <set comment="kpoint 15">
       <r>    3.1193    1.0000 </r>
       <r>    8.6775    1.0000 </r>
       <r>    9.5582    1.0000 </r>
       <r>    9.6944    1.0000 </r>
       <r>   10.3269    0.9801 </r>
       <r>   10.9226    0.0000 </r>
       <r>   28.8090    0.0000 </r>
       <r>   31.3335    0.0000 </r>
       <r>   35.6496    0.0000 </r>
       <r>   37.4216    0.0000 </r>
       <r>   41.1942    0.0000 </r>
       <r>   42.5775    0.0000 </r>
      </set>
      <set comment="kpoint 16">
       <r>    5.0205    1.0000 </r>
       <r>    7.8642    1.0000 </r>
       <r>    9.6011    1.0000 </r>
       <r>   10.4527    0.0663 </r>
       <r>   10.7071    0.0000 </r>
       <r>   11.2413    0.0000 </r>
       <r>   27.7098    0.0000 </r>
       <r>   29.3887    0.0000 </r>
       <r>   29.3971    0.0000 </r>
       <r>   32.2218    0.0000 </r>
       <r>   37.1041    0.0000 </r>
       <r>   48.9944    0.0000 </r>
      </set>
      <set comment="kpoint 17">
       <r>    6.2003    1.0000 </r>
       <r>    7.5952    1.0000 </r>
       <r>    9.3851    1.0000 </r>
       <r>   10.7681    0.0000 </r>
       <r>   11.2879    0.0000 </r>
       <r>   12.1594    0.0000 </r>
       <r>   24.3691    0.0000 </r>
       <r>   26.3020    0.0000 </r>
       <r>   27.2682    0.0000 </r>
       <r>   33.4619    0.0000 </r>
       <r>   38.1266    0.0000 </r>
       <r>   47.5522    0.0000 </r>
      </set>
      <set comment="kpoint 18">
       <r>    7.1045    1.0000 </r>
       <r>    7.6248    1.0000 </r>
       <r>    9.0435    1.0000 </r>
       <r>   10.5124    0.0007 </r>
       <r>   11.5354    0.0000 </r>
       <r>   14.8368    0.0000 </r>
       <r>   19.4499    0.0000 </r>
       <r>   24.2371    0.0000 </r>
       <r>   27.4256    0.0000 </r>
       <r>   33.8787    0.0000 </r>
       <r>   42.9145    0.0000 </r>
       <r>   45.7783    0.0000 </r>
      </set>
      <set comment="kpoint 19">
       <r>    7.4668    1.0000 </r>
       <r>    7.8928    1.0000 </r>
       <r>    8.5838    1.0000 </r>
       <r>   10.3219    0.9860 </r>
       <r>   11.1461    0.0000 </r>
       <r>   15.1920    0.0000 </r>
       <r>   19.3368    0.0000 </r>
       <r>   22.9470    0.0000 </r>
       <r>   29.1596    0.0000 </r>
       <r>   34.6965    0.0000 </r>
       <r>   43.3597    0.0000 </r>
       <r>   48.1556    0.0000 </r>
      </set>
      <set comment="kpoint 20">
       <r>    6.5071    1.0000 </r>
       <r>    8.2596    1.0000 </r>
       <r>    8.6797    1.0000 </r>
       <r>   10.1013    1.0000 </r>
       <r>   10.7314    0.0000 </r>
       <r>   12.9110    0.0000 </r>
       <r>   22.0889    0.0000 </r>
       <r>   24.9571    0.0000 </r>
       <r>   31.6660    0.0000 </r>
       <r>   36.4390    0.0000 </r>
       <r>   40.6029    0.0000 </r>
       <r>   45.3429    0.0000 </r>
      </set>
      <set comment="kpoint 21">
       <r>    5.0251    1.0000 </r>
       <r>    8.4708    1.0000 </r>
       <r>    9.2919    1.0000 </r>
       <r>    9.6502    1.0000 </r>
       <r>   10.8237    0.0000 </r>
       <r>   11.4802    0.0000 </r>
       <r>   23.0170    0.0000 </r>
       <r>   30.4708    0.0000 </r>
       <r>   33.9459    0.0000 </r>
       <r>   36.7722    0.0000 </r>
       <r>   40.3261    0.0000 </r>
       <r>   41.8617    0.0000 </r>
      </set>
      <set comment="kpoint 22">
       <r>    6.2682    1.0000 </r>
       <r>    7.2031    1.0000 </r>
       <r>   10.7216    0.0000 </r>
       <r>   11.2787    0.0000 </r>
       <r>   11.5841    0.0000 </r>
       <r>   12.2482    0.0000 </r>
       <r>   23.2708    0.0000 </r>
       <r>   25.3258    0.0000 </r>
       <r>   26.4449    0.0000 </r>
       <r>   31.4706    0.0000 </r>
       <r>   35.5840    0.0000 </r>
       <r>   50.9663    0.0000 </r>
      </set>
      <set comment="kpoint 23">
       <r>    6.5556    1.0000 </r>
       <r>    7.2036    1.0000 </r>
       <r>   10.2911    0.9989 </r>
       <r>   11.2673    0.0000 </r>
       <r>   11.6779    0.0000 </r>
       <r>   14.5335    0.0000 </r>
       <r>   21.2916    0.0000 </r>
       <r>   22.9690    0.0000 </r>
       <r>   25.3433    0.0000 </r>
       <r>   32.8775    0.0000 </r>
       <r>   37.4476    0.0000 </r>
       <r>   50.4304    0.0000 </r>
      </set>
      <set comment="kpoint 24">
       <r>    7.1549    1.0000 </r>
       <r>    7.5189    1.0000 </r>
       <r>    9.2183    1.0000 </r>
       <r>   10.7565    0.0000 </r>
       <r>   11.4860    0.0000 </r>
       <r>   16.6425    0.0000 </r>
       <r>   18.7839    0.0000 </r>
       <r>   21.9083    0.0000 </r>
       <r>   26.9418    0.0000 </r>
       <r>   33.7315    0.0000 </r>
       <r>   42.9580    0.0000 </r>
       <r>   46.7383    0.0000 </r>
      </set>
      <set comment="kpoint 25">
       <r>    7.1686    1.0000 </r>
       <r>    8.0365    1.0000 </r>
       <r>    8.8706    1.0000 </r>
       <r>   10.0214    1.0000 </r>
       <r>   11.3543    0.0000 </r>
       <r>   14.7909    0.0000 </r>
       <r>   17.9685    0.0000 </r>
       <r>   25.5786    0.0000 </r>
       <r>   29.5217    0.0000 </r>
       <r>   34.6855    0.0000 </r>
       <r>   42.1858    0.0000 </r>
       <r>   46.6023    0.0000 </r>
      </set>
      <set comment="kpoint 26">
       <r>    6.2727    1.0000 </r>
       <r>    8.8507    1.0000 </r>
       <r>    9.2795    1.0000 </r>
       <r>    9.4686    1.0000 </r>
       <r>   11.4230    0.0000 </r>
       <r>   12.3849    0.0000 </r>
       <r>   18.4804    0.0000 </r>
       <r>   30.2387    0.0000 </r>
       <r>   32.6180    0.0000 </r>
       <r>   35.1129    0.0000 </r>
       <r>   39.8750    0.0000 </r>
       <r>   41.9481    0.0000 </r>
      </set>
      <set comment="kpoint 27">
       <r>    6.3180    1.0000 </r>
       <r>    7.0548    1.0000 </r>
       <r>   11.2075    0.0000 </r>
       <r>   11.4794    0.0000 </r>
       <r>   11.6960    0.0000 </r>
       <r>   13.3151    0.0000 </r>
       <r>   21.2480    0.0000 </r>
       <r>   24.6938    0.0000 </r>
       <r>   25.7762    0.0000 </r>
       <r>   31.3588    0.0000 </r>
       <r>   35.4034    0.0000 </r>
       <r>   51.0831    0.0000 </r>
      </set>
      <set comment="kpoint 28">
       <r>    6.5237    1.0000 </r>
       <r>    7.3389    1.0000 </r>
       <r>    9.8767    1.0000 </r>
       <r>   11.1147    0.0000 </r>
       <r>   11.5386    0.0000 </r>
       <r>   13.2936    0.0000 </r>
       <r>   23.1437    0.0000 </r>
       <r>   23.8020    0.0000 </r>
       <r>   25.9374    0.0000 </r>
       <r>   33.0596    0.0000 </r>
       <r>   37.6429    0.0000 </r>
       <r>   49.2207    0.0000 </r>
      </set>
      <set comment="kpoint 29">
       <r>    6.7297    1.0000 </r>
       <r>    7.9016    1.0000 </r>
       <r>    8.9221    1.0000 </r>
       <r>   10.1754    1.0000 </r>
       <r>   11.4869    0.0000 </r>
       <r>   13.1695    0.0000 </r>
       <r>   20.3784    0.0000 </r>
       <r>   27.1154    0.0000 </r>
       <r>   28.5176    0.0000 </r>
       <r>   34.2522    0.0000 </r>
       <r>   42.5844    0.0000 </r>
       <r>   44.9860    0.0000 </r>
      </set>
      <set comment="kpoint 30">
       <r>    5.9222    1.0000 </r>
       <r>    7.4840    1.0000 </r>
       <r>    9.9469    1.0000 </r>
       <r>   10.9006    0.0000 </r>
       <r>   11.3403    0.0000 </r>
       <r>   11.4271    0.0000 </r>
       <r>   25.9481    0.0000 </r>
       <r>   26.6642    0.0000 </r>
       <r>   27.6922    0.0000 </r>
       <r>   31.7243    0.0000 </r>
       <r>   36.0688    0.0000 </r>
       <r>   50.8140    0.0000 </r>
      </set>
      <set comment="kpoint 31">
       <r>    5.3240    1.0000 </r>
       <r>    7.9392    1.0000 </r>
       <r>    9.2737    1.0000 </r>
       <r>   10.3578    0.8812 </r>
       <r>   10.8453    0.0000 </r>
       <r>   11.5410    0.0000 </r>
       <r>   25.6767    0.0000 </r>
       <r>   28.0849    0.0000 </r>
       <r>   30.1589    0.0000 </r>
       <r>   34.1686    0.0000 </r>
       <r>   39.0496    0.0000 </r>
       <r>   45.6882    0.0000 </r>
      </set>
      <set comment="kpoint 32">
       <r>    3.8299    1.0000 </r>
       <r>    8.2935    1.0000 </r>
       <r>    9.7071    1.0000 </r>
       <r>   10.0264    1.0000 </r>
       <r>   10.2495    1.0000 </r>
       <r>   11.0467    0.0000 </r>
       <r>   29.3150    0.0000 </r>
       <r>   31.4069    0.0000 </r>
       <r>   31.7682    0.0000 </r>
       <r>   33.4318    0.0000 </r>
       <r>   39.0168    0.0000 </r>
       <r>   46.2879    0.0000 </r>
      </set>
      <set comment="kpoint 33">
       <r>    2.7368    1.0000 </r>
       <r>    8.8607    1.0000 </r>
       <r>    9.5124    1.0000 </r>
       <r>    9.5124    1.0000 </r>
       <r>   10.6319    0.0000 </r>
       <r>   10.6319    0.0000 </r>
       <r>   28.5251    0.0000 </r>
       <r>   34.0432    0.0000 </r>
       <r>   36.8481    0.0000 </r>
       <r>   36.8481    0.0000 </r>
       <r>   41.8790    0.0000 </r>
       <r>   42.5401    0.0000 </r>
      </set>
      <set comment="kpoint 34">
       <r>    3.8371    1.0000 </r>
       <r>    8.5637    1.0000 </r>
       <r>    9.4567    1.0000 </r>
       <r>    9.7935    1.0000 </r>
       <r>   10.2768    0.9997 </r>
       <r>   11.1935    0.0000 </r>
       <r>   26.9200    0.0000 </r>
       <r>   29.4922    0.0000 </r>
       <r>   36.8175    0.0000 </r>
       <r>   38.7715    0.0000 </r>
       <r>   39.1511    0.0000 </r>
       <r>   41.3283    0.0000 </r>
      </set>
      <set comment="kpoint 35">
       <r>    5.6461    1.0000 </r>
       <r>    8.3411    1.0000 </r>
       <r>    9.0250    1.0000 </r>
       <r>    9.9499    1.0000 </r>
       <r>   10.4490    0.0809 </r>
       <r>   12.1687    0.0000 </r>
       <r>   23.5526    0.0000 </r>
       <r>   26.2684    0.0000 </r>
       <r>   34.8959    0.0000 </r>
       <r>   35.8216    0.0000 </r>
       <r>   40.7108    0.0000 </r>
       <r>   42.7933    0.0000 </r>
      </set>
      <set comment="kpoint 36">
       <r>    6.8063    1.0000 </r>
       <r>    8.3954    1.0000 </r>
       <r>    8.9155    1.0000 </r>
       <r>    9.7975    1.0000 </r>
       <r>   11.1818    0.0000 </r>
       <r>   13.6248    0.0000 </r>
       <r>   18.7829    0.0000 </r>
       <r>   26.4940    0.0000 </r>
       <r>   32.7234    0.0000 </r>
       <r>   33.3226    0.0000 </r>
       <r>   42.9463    0.0000 </r>
       <r>   43.0107    0.0000 </r>
      </set>
      <set comment="kpoint 37">
       <r>    6.7445    1.0000 </r>
       <r>    8.1558    1.0000 </r>
       <r>    9.0436    1.0000 </r>
       <r>    9.8647    1.0000 </r>
       <r>   11.5759    0.0000 </r>
       <r>   13.3968    0.0000 </r>
       <r>   18.7206    0.0000 </r>
       <r>   27.7761    0.0000 </r>
       <r>   30.7947    0.0000 </r>
       <r>   32.9797    0.0000 </r>
       <r>   43.8882    0.0000 </r>
       <r>   44.1473    0.0000 </r>
      </set>
      <set comment="kpoint 38">
       <r>    5.5652    1.0000 </r>
       <r>    8.0286    1.0000 </r>
       <r>    9.1759    1.0000 </r>
       <r>   10.0449    1.0000 </r>
       <r>   11.4157    0.0000 </r>
       <r>   11.4254    0.0000 </r>
       <r>   23.4767    0.0000 </r>
       <r>   29.7882    0.0000 </r>
       <r>   30.3837    0.0000 </r>
       <r>   33.5021    0.0000 </r>
       <r>   41.3722    0.0000 </r>
       <r>   45.1232    0.0000 </r>
      </set>
      <set comment="kpoint 39">
       <r>    4.4740    1.0000 </r>
       <r>    8.3714    1.0000 </r>
       <r>    9.3981    1.0000 </r>
       <r>    9.7698    1.0000 </r>
       <r>   10.7793    0.0000 </r>
       <r>   11.1676    0.0000 </r>
       <r>   24.9545    0.0000 </r>
       <r>   31.8983    0.0000 </r>
       <r>   32.3358    0.0000 </r>
       <r>   35.6384    0.0000 </r>
       <r>   41.8458    0.0000 </r>
       <r>   42.9884    0.0000 </r>
      </set>
      <set comment="kpoint 40">
       <r>    5.8667    1.0000 </r>
       <r>    8.0814    1.0000 </r>
       <r>    8.9458    1.0000 </r>
       <r>   10.2491    1.0000 </r>
       <r>   10.7440    0.0000 </r>
       <r>   12.1652    0.0000 </r>
       <r>   23.7755    0.0000 </r>
       <r>   26.4394    0.0000 </r>
       <r>   30.7879    0.0000 </r>
       <r>   36.8844    0.0000 </r>
       <r>   40.1068    0.0000 </r>
       <r>   43.7927    0.0000 </r>
      </set>
      <set comment="kpoint 41">
       <r>    7.1790    1.0000 </r>
       <r>    8.0705    1.0000 </r>
       <r>    8.4173    1.0000 </r>
       <r>   10.3677    0.8166 </r>
       <r>   11.1017    0.0000 </r>
       <r>   14.0491    0.0000 </r>
       <r>   20.8550    0.0000 </r>
       <r>   23.9437    0.0000 </r>
       <r>   28.1277    0.0000 </r>
       <r>   37.7428    0.0000 </r>
       <r>   40.0425    0.0000 </r>
       <r>   46.0475    0.0000 </r>
      </set>
      <set comment="kpoint 42">
       <r>    7.4626    1.0000 </r>
       <r>    7.7469    1.0000 </r>
       <r>    8.6898    1.0000 </r>
       <r>   10.3148    0.9917 </r>
       <r>   11.4439    0.0000 </r>
       <r>   15.6807    0.0000 </r>
       <r>   18.2047    0.0000 </r>
       <r>   24.8840    0.0000 </r>
       <r>   26.3680    0.0000 </r>
       <r>   36.5830    0.0000 </r>
       <r>   41.4486    0.0000 </r>
       <r>   47.1365    0.0000 </r>
      </set>
      <set comment="kpoint 43">
       <r>    6.6788    1.0000 </r>
       <r>    7.8133    1.0000 </r>
       <r>    8.8178    1.0000 </r>
       <r>   10.5944    0.0000 </r>
       <r>   11.1515    0.0000 </r>
       <r>   13.0664    0.0000 </r>
       <r>   22.5356    0.0000 </r>
       <r>   25.2343    0.0000 </r>
       <r>   27.3670    0.0000 </r>
       <r>   36.1775    0.0000 </r>
       <r>   40.3066    0.0000 </r>
       <r>   44.4372    0.0000 </r>
      </set>
      <set comment="kpoint 44">
       <r>    6.4104    1.0000 </r>
       <r>    7.6949    1.0000 </r>
       <r>    9.1900    1.0000 </r>
       <r>   10.3935    0.5675 </r>
       <r>   11.5805    0.0000 </r>
       <r>   12.4731    0.0000 </r>
       <r>   22.2193    0.0000 </r>
       <r>   26.7777    0.0000 </r>
       <r>   28.7926    0.0000 </r>
       <r>   32.6760    0.0000 </r>
       <r>   40.5485    0.0000 </r>
       <r>   47.5847    0.0000 </r>
      </set>
      <set comment="kpoint 45">
       <r>    6.9584    1.0000 </r>
       <r>    7.6071    1.0000 </r>
       <r>    9.0632    1.0000 </r>
       <r>   10.8386    0.0000 </r>
       <r>   11.4696    0.0000 </r>
       <r>   14.4821    0.0000 </r>
       <r>   21.5778    0.0000 </r>
       <r>   23.7811    0.0000 </r>
       <r>   24.8425    0.0000 </r>
       <r>   35.7189    0.0000 </r>
       <r>   40.3813    0.0000 </r>
       <r>   45.4688    0.0000 </r>
      </set>
      <set comment="kpoint 46">
       <r>    7.2981    1.0000 </r>
       <r>    7.9493    1.0000 </r>
       <r>    8.5844    1.0000 </r>
       <r>   10.5771    0.0000 </r>
       <r>   11.6676    0.0000 </r>
       <r>   17.6076    0.0000 </r>
       <r>   19.3259    0.0000 </r>
       <r>   21.9236    0.0000 </r>
       <r>   23.2548    0.0000 </r>
       <r>   38.6452    0.0000 </r>
       <r>   42.0664    0.0000 </r>
       <r>   44.0223    0.0000 </r>
      </set>
      <set comment="kpoint 47">
       <r>    7.3908    1.0000 </r>
       <r>    7.9513    1.0000 </r>
       <r>    8.4298    1.0000 </r>
       <r>   10.5410    0.0000 </r>
       <r>   11.4442    0.0000 </r>
       <r>   15.7168    0.0000 </r>
       <r>   19.9067    0.0000 </r>
       <r>   23.1861    0.0000 </r>
       <r>   24.9444    0.0000 </r>
       <r>   38.6226    0.0000 </r>
       <r>   40.4278    0.0000 </r>
       <r>   45.2478    0.0000 </r>
      </set>
      <set comment="kpoint 48">
       <r>    6.7775    1.0000 </r>
       <r>    7.3147    1.0000 </r>
       <r>    9.8622    1.0000 </r>
       <r>   11.0522    0.0000 </r>
       <r>   11.5715    0.0000 </r>
       <r>   15.3959    0.0000 </r>
       <r>   20.4988    0.0000 </r>
[...]
       </set>
       <set comment="band 5">
        <r>  0.0001  0.0000  0.0004  0.0007  0.0025  0.0310  0.0001  0.9518  0.0064 </r>
       </set>
       <set comment="band 6">
        <r>  0.0258  0.0067  0.4681  0.0010  0.0002  0.2979  0.0313  0.0148  0.0019 </r>
       </set>
       <set comment="band 7">
        <r>  0.0016  0.1343  0.0113  0.2740  0.1487  0.0079  0.1944  0.0046  0.0178 </r>
       </set>
       <set comment="band 8">
        <r>  0.3143  0.0124  0.0353  0.0972  0.0767  0.0048  0.2774  0.0004  0.0000 </r>
       </set>
       <set comment="band 9">
        <r>  0.2384  0.1808  0.0032  0.1547  0.0534  0.0013  0.0091  0.0013  0.0882 </r>
       </set>
       <set comment="band 10">
        <r>  0.0241  0.0305  0.0005  0.0689  0.6087  0.0000  0.0162  0.0010  0.0043 </r>
       </set>
       <set comment="band 11">
        <r>  0.1967  0.2514  0.0046  0.0155  0.0721  0.0000  0.1623  0.0002  0.0082 </r>
       </set>
       <set comment="band 12">
        <r>  0.0370  0.0021  0.0300  0.0002  0.0001  0.3653  0.0178  0.0021  0.0286 </r>
       </set>
      </set>
      <set comment="kpoint 50">
       <set comment="band 1">
        <r>  0.0846  0.0092  0.0487  0.0092  0.0550  0.0087  0.6180  0.0087  0.0000 </r>
       </set>
       <set comment="band 2">
        <r>  0.0005  0.0241  0.0002  0.0241  0.8047  0.0079  0.0507  0.0079  0.0000 </r>
       </set>
       <set comment="band 3">
        <r>  0.0353  0.0000  0.1667  0.0000  0.0332  0.2900  0.0908  0.2900  0.0000 </r>
       </set>
       <set comment="band 4">
        <r>  0.0000  0.0049  0.0000  0.0049  0.0000  0.1675  0.0000  0.1675  0.6302 </r>
       </set>
       <set comment="band 5">
        <r>  0.0000  0.0000  0.0000  0.0000  0.0000  0.3243  0.0000  0.3243  0.3447 </r>
       </set>
       <set comment="band 6">
        <r>  0.0743  0.0145  0.2737  0.0145  0.0045  0.1871  0.1288  0.1871  0.0000 </r>
       </set>
       <set comment="band 7">
        <r>  0.1095  0.1918  0.0010  0.1918  0.1645  0.0306  0.0616  0.0306  0.0000 </r>
       </set>
       <set comment="band 8">
        <r>  0.2243  0.0003  0.1710  0.0003  0.0164  0.0052  0.3731  0.0052  0.0000 </r>
       </set>
       <set comment="band 9">
        <r>  0.0000  0.2877  0.0000  0.2877  0.0000  0.0200  0.0000  0.0200  0.0788 </r>
       </set>
       <set comment="band 10">
        <r>  0.1377  0.0014  0.0195  0.0014  0.5851  0.0001  0.0396  0.0001  0.0000 </r>
       </set>
       <set comment="band 11">
        <r>  0.1916  0.0992  0.0290  0.0992  0.1897  0.0051  0.1109  0.0051  0.0000 </r>
       </set>
       <set comment="band 12">
        <r>  0.0000  0.0202  0.0000  0.0201  0.0000  0.1104  0.0000  0.1101  0.2107 </r>
       </set>
      </set>
      <set comment="kpoint 51">
       <set comment="band 1">
        <r>  0.4598  0.0498  0.0498  0.0498  0.0514  0.0514  0.0000  0.0514  0.0000 </r>
       </set>
       <set comment="band 2">
        <r>  0.0187  0.0510  0.0510  0.0510  0.2386  0.2386  0.0000  0.2386  0.0000 </r>
       </set>
       <set comment="band 3">
        <r>  0.0000  0.0004  0.0005  0.0001  0.2546  0.0774  0.2950  0.2136  0.1264 </r>
       </set>
       <set comment="band 4">
        <r>  0.0000  0.0003  0.0002  0.0005  0.1092  0.2864  0.1264  0.1502  0.2950 </r>
       </set>
       <set comment="band 5">
        <r>  0.0000  0.0003  0.0003  0.0011  0.0805  0.2714  0.1555  0.0770  0.3968 </r>
       </set>
       <set comment="band 6">
        <r>  0.0000  0.0009  0.0009  0.0001  0.2054  0.0146  0.3968  0.2089  0.1555 </r>
       </set>
       <set comment="band 7">
        <r>  0.1739  0.0835  0.0835  0.0835  0.1318  0.1318  0.0000  0.1318  0.0000 </r>
       </set>
       <set comment="band 8">
        <r>  0.0101  0.0030  0.0030  0.0030  0.0202  0.0202  0.0000  0.0202  0.0000 </r>
       </set>
       <set comment="band 9">
        <r>  0.0000  0.1129  0.2459  0.0289  0.2264  0.0266  0.0794  0.1040  0.0041 </r>
       </set>
       <set comment="band 10">
        <r>  0.0000  0.1456  0.0126  0.2296  0.0116  0.2114  0.0041  0.1340  0.0794 </r>
       </set>
       <set comment="band 11">
        <r>  0.0000  0.0178  0.0864  0.0280  0.0166  0.0054  0.6105  0.0034  0.0123 </r>
       </set>
       <set comment="band 12">
        <r>  0.0000  0.0703  0.0017  0.0601  0.0003  0.0115  0.0123  0.0135  0.6105 </r>
       </set>
      </set>
      <set comment="kpoint 52">
       <set comment="band 1">
        <r>  0.3407  0.0792  0.0792  0.0040  0.0650  0.1469  0.0032  0.0650  0.0096 </r>
       </set>
       <set comment="band 2">
        <r>  0.0155  0.0531  0.0531  0.0764  0.2982  0.0165  0.0158  0.2982  0.0473 </r>
       </set>
       <set comment="band 3">
        <r>  0.0010  0.0023  0.0023  0.0023  0.0605  0.3433  0.1202  0.0605  0.3606 </r>
       </set>
       <set comment="band 4">
        <r>  0.0000  0.0005  0.0005  0.0000  0.1916  0.0000  0.4361  0.1916  0.1454 </r>
       </set>
       <set comment="band 5">
        <r>  0.0000  0.0010  0.0010  0.0000  0.2974  0.0000  0.2871  0.2974  0.0957 </r>
       </set>
       <set comment="band 6">
        <r>  0.0344  0.0240  0.0240  0.0062  0.0069  0.4526  0.1030  0.0069  0.3091 </r>
       </set>
       <set comment="band 7">
        <r>  0.2009  0.0457  0.0457  0.1546  0.1435  0.0891  0.0039  0.1435  0.0117 </r>
       </set>
       <set comment="band 8">
        <r>  0.0484  0.0302  0.0302  0.1779  0.0854  0.0646  0.0307  0.0854  0.0922 </r>
       </set>
       <set comment="band 9">
        <r>  0.0345  0.0961  0.0961  0.0697  0.0017  0.0001  0.0043  0.0017  0.0129 </r>
       </set>
       <set comment="band 10">
        <r>  0.0000  0.1821  0.1821  0.0000  0.0008  0.0000  0.3376  0.0008  0.1125 </r>
       </set>
       <set comment="band 11">
        <r>  0.0000  0.0752  0.0752  0.0000  0.2558  0.0000  0.1879  0.2558  0.0626 </r>
       </set>
       <set comment="band 12">
        <r>  0.0612  0.0087  0.0087  0.0259  0.0160  0.1397  0.0601  0.0160  0.1802 </r>
       </set>
      </set>
      <set comment="kpoint 53">
       <set comment="band 1">
        <r>  0.1627  0.0965  0.0965  0.0013  0.0259  0.3879  0.0093  0.0259  0.0279 </r>
       </set>
       <set comment="band 2">
        <r>  0.0004  0.0291  0.0291  0.0279  0.0760  0.0993  0.1374  0.0760  0.4121 </r>
       </set>
       <set comment="band 3">
        <r>  0.0033  0.0005  0.0005  0.0726  0.3068  0.1213  0.0290  0.3068  0.0869 </r>
       </set>
       <set comment="band 4">
        <r>  0.0000  0.0039  0.0039  0.0000  0.0460  0.0000  0.6484  0.0460  0.2161 </r>
       </set>
       <set comment="band 5">
        <r>  0.0000  0.0003  0.0003  0.0000  0.4444  0.0000  0.0686  0.4444  0.0229 </r>
       </set>
       <set comment="band 6">
        <r>  0.1178  0.0787  0.0787  0.0049  0.0002  0.3905  0.0596  0.0002  0.1787 </r>
       </set>
       <set comment="band 7">
        <r>  0.1060  0.0105  0.0105  0.3397  0.1685  0.0247  0.0071  0.1685  0.0214 </r>
       </set>
       <set comment="band 8">
        <r>  0.2217  0.0468  0.0468  0.1130  0.0361  0.0588  0.0483  0.0361  0.1448 </r>
       </set>
       <set comment="band 9">
        <r>  0.0000  0.2235  0.2235  0.0000  0.0008  0.0000  0.2677  0.0008  0.0892 </r>
       </set>
       <set comment="band 10">
        <r>  0.1027  0.0625  0.0625  0.0046  0.0000  0.1445  0.0226  0.0000  0.0678 </r>
       </set>
       <set comment="band 11">
        <r>  0.0125  0.0002  0.0002  0.0806  0.0491  0.0316  0.0067  0.0491  0.0202 </r>
       </set>
       <set comment="band 12">
        <r>  0.0000  0.0135  0.0135  0.0000  0.3376  0.0000  0.0445  0.3376  0.0148 </r>
       </set>
      </set>
      <set comment="kpoint 54">
       <set comment="band 1">
        <r>  0.0496  0.0025  0.0025  0.0060  0.0113  0.5559  0.0682  0.0113  0.2045 </r>
       </set>
       <set comment="band 2">
        <r>  0.0032  0.0773  0.0773  0.0004  0.0022  0.2001  0.1227  0.0022  0.3681 </r>
       </set>
       <set comment="band 3">
        <r>  0.0013  0.0011  0.0011  0.1465  0.3634  0.0309  0.0015  0.3634  0.0045 </r>
       </set>
       <set comment="band 4">
        <r>  0.0000  0.0054  0.0054  0.0000  0.0370  0.0000  0.6626  0.0370  0.2209 </r>
       </set>
       <set comment="band 5">
        <r>  0.0000  0.0001  0.0001  0.0000  0.4560  0.0000  0.0559  0.4560  0.0186 </r>
       </set>
       <set comment="band 6">
        <r>  0.0744  0.1483  0.1483  0.0671  0.0141  0.2062  0.0393  0.0141  0.1179 </r>
       </set>
       <set comment="band 7">
        <r>  0.1205  0.0075  0.0075  0.3601  0.1596  0.0466  0.0003  0.1596  0.0009 </r>
       </set>
       <set comment="band 8">
        <r>  0.3265  0.0196  0.0196  0.0654  0.0105  0.0313  0.0768  0.0105  0.2304 </r>
       </set>
       <set comment="band 9">
        <r>  0.0000  0.2653  0.2653  0.0000  0.0016  0.0000  0.1554  0.0016  0.0518 </r>
       </set>
       <set comment="band 10">
        <r>  0.1407  0.0257  0.0257  0.0031  0.0000  0.3636  0.0205  0.0000  0.0616 </r>
       </set>
       <set comment="band 11">
        <r>  0.1737  0.1003  0.1003  0.0097  0.0010  0.3256  0.0188  0.0010  0.0565 </r>
       </set>
       <set comment="band 12">
        <r>  0.0000  0.0062  0.0062  0.0000  0.2516  0.0000  0.0332  0.2518  0.0110 </r>
       </set>
      </set>
      <set comment="kpoint 55">
       <set comment="band 1">
        <r>  0.2598  0.0089  0.0860  0.0089  0.1594  0.1405  0.0294  0.1405  0.0000 </r>
       </set>
       <set comment="band 2">
        <r>  0.0118  0.0810  0.0579  0.0810  0.2130  0.0465  0.3096  0.0465  0.0000 </r>
       </set>
       <set comment="band 3">
        <r>  0.0120  0.0080  0.0256  0.0080  0.4276  0.0759  0.3134  0.0759  0.0000 </r>
       </set>
       <set comment="band 4">
        <r>  0.0000  0.0026  0.0000  0.0026  0.0000  0.2241  0.0000  0.2241  0.5123 </r>
       </set>
       <set comment="band 5">
        <r>  0.0000  0.0002  0.0000  0.0002  0.0000  0.2651  0.0000  0.2651  0.4613 </r>
       </set>
       <set comment="band 6">
        <r>  0.0344  0.0296  0.0708  0.0296  0.0939  0.1841  0.3069  0.1841  0.0000 </r>
       </set>
       <set comment="band 7">
        <r>  0.2658  0.0890  0.0138  0.0890  0.1725  0.1094  0.0085  0.1094  0.0000 </r>
       </set>
       <set comment="band 8">
        <r>  0.0036  0.0000  0.0877  0.0000  0.0767  0.0076  0.2636  0.0076  0.0000 </r>
       </set>
       <set comment="band 9">
        <r>  0.0000  0.2411  0.0000  0.2411  0.0000  0.0751  0.0000  0.0751  0.1301 </r>
       </set>
       <set comment="band 10">
        <r>  0.1075  0.0406  0.2473  0.0406  0.1444  0.0056  0.0413  0.0056  0.0000 </r>
       </set>
       <set comment="band 11">
        <r>  0.0182  0.0003  0.0136  0.0003  0.2716  0.0204  0.4032  0.0204  0.0000 </r>
       </set>
       <set comment="band 12">
        <r>  0.0000  0.0546  0.0000  0.0546  0.0000  0.0759  0.0000  0.0759  0.5048 </r>
       </set>
      </set>
      <set comment="kpoint 56">
       <set comment="band 1">
        <r>  0.1375  0.0175  0.0787  0.0056  0.2267  0.2445  0.0626  0.0940  0.0019 </r>
       </set>
       <set comment="band 2">
        <r>  0.0001  0.0714  0.0242  0.0513  0.1075  0.0263  0.4439  0.0263  0.1089 </r>
       </set>
       <set comment="band 3">
        <r>  0.0099  0.0061  0.0412  0.0366  0.3929  0.3257  0.0722  0.0041  0.0408 </r>
       </set>
       <set comment="band 4">
        <r>  0.0000  0.0014  0.0111  0.0022  0.0325  0.0107  0.1475  0.2437  0.5146 </r>
       </set>
       <set comment="band 5">
        <r>  0.0006  0.0003  0.0023  0.0016  0.0865  0.0627  0.0644  0.5457  0.2221 </r>
       </set>
       <set comment="band 6">
        <r>  0.0661  0.0650  0.1486  0.0430  0.0210  0.2996  0.1612  0.0118  0.0705 </r>
       </set>
       <set comment="band 7">
        <r>  0.2652  0.0369  0.0001  0.1710  0.1923  0.0700  0.0121  0.1022  0.0117 </r>
       </set>
       <set comment="band 8">
        <r>  0.0389  0.0960  0.0026  0.1776  0.0859  0.0504  0.1329  0.0183  0.1082 </r>
       </set>
       <set comment="band 9">
        <r>  0.1557  0.0022  0.2666  0.0625  0.0005  0.0207  0.1835  0.0243  0.0248 </r>
       </set>
       <set comment="band 10">
        <r>  0.0043  0.2500  0.0386  0.0325  0.0974  0.0052  0.0004  0.0028  0.0003 </r>
       </set>
       <set comment="band 11">
        <r>  0.0540  0.0201  0.0006  0.0052  0.2517  0.1505  0.0698  0.0349  0.2210 </r>
       </set>
       <set comment="band 12">
        <r>  0.0064  0.0429  0.0218  0.0016  0.0615  0.0604  0.2489  0.0231  0.0303 </r>
       </set>
      </set>
      <set comment="kpoint 57">
       <set comment="band 1">
        <r>  0.0005  0.0697  0.0208  0.0029  0.0003  0.0007  0.4435  0.0000  0.3159 </r>
       </set>
       <set comment="band 2">
        <r>  0.0370  0.0063  0.0709  0.0063  0.0371  0.7275  0.0006  0.0127  0.0141 </r>
       </set>
       <set comment="band 3">
        <r>  0.0007  0.0009  0.0048  0.1195  0.6711  0.0520  0.0051  0.0618  0.0013 </r>
       </set>
       <set comment="band 4">
        <r>  0.0075  0.0010  0.0069  0.0014  0.0004  0.0035  0.3877  0.0279  0.5288 </r>
       </set>
       <set comment="band 5">
        <r>  0.0007  0.0000  0.0000  0.0025  0.1101  0.0060  0.0113  0.8433  0.0148 </r>
       </set>
       <set comment="band 6">
        <r>  0.0661  0.0963  0.2293  0.0544  0.0222  0.2130  0.1004  0.0005  0.0523 </r>
       </set>
       <set comment="band 7">
        <r>  0.1139  0.0000  0.0192  0.3737  0.2347  0.0408  0.0004  0.0679  0.0050 </r>
       </set>
       <set comment="band 8">
        <r>  0.2658  0.0798  0.0000  0.0740  0.0230  0.0293  0.1043  0.0038  0.2025 </r>
       </set>
       <set comment="band 9">
        <r>  0.1743  0.0772  0.2467  0.0029  0.0004  0.0642  0.1828  0.0018  0.0049 </r>
       </set>
       <set comment="band 10">
        <r>  0.0341  0.1558  0.0346  0.0021  0.0003  0.2997  0.0021  0.0004  0.0710 </r>
       </set>
       <set comment="band 11">
        <r>  0.0048  0.0199  0.0004  0.0468  0.4083  0.0342  0.0129  0.0137  0.0162 </r>
       </set>
       <set comment="band 12">
        <r>  0.0797  0.2546  0.0251  0.0006  0.0431  0.2567  0.0339  0.0001  0.0514 </r>
       </set>
      </set>
      <set comment="kpoint 58">
       <set comment="band 1">
        <r>  0.0872  0.0025  0.0380  0.0025  0.4737  0.0838  0.1275  0.0838  0.0000 </r>
       </set>
       <set comment="band 2">
        <r>  0.0000  0.0707  0.0094  0.0707  0.1113  0.0076  0.5749  0.0076  0.0000 </r>
       </set>
       <set comment="band 3">
        <r>  0.0086  0.0079  0.1110  0.0079  0.2173  0.2587  0.0493  0.2587  0.0000 </r>
       </set>
       <set comment="band 4">
        <r>  0.0000  0.0047  0.0000  0.0047  0.0000  0.1392  0.0000  0.1392  0.6792 </r>
       </set>
       <set comment="band 5">
        <r>  0.0000  0.0002  0.0000  0.0002  0.0000  0.3531  0.0000  0.3531  0.2834 </r>
       </set>
       <set comment="band 6">
        <r>  0.0086  0.0885  0.2160  0.0885  0.0654  0.0925  0.1987  0.0925  0.0000 </r>
       </set>
       <set comment="band 7">
        <r>  0.3149  0.0640  0.0377  0.0640  0.1871  0.0952  0.0069  0.0952  0.0000 </r>
       </set>
       <set comment="band 8">
        <r>  0.1579  0.0151  0.1962  0.0151  0.0215  0.0258  0.3003  0.0258  0.0000 </r>
       </set>
       <set comment="band 9">
        <r>  0.0000  0.2617  0.0000  0.2617  0.0000  0.0141  0.0000  0.0141  0.1904 </r>
       </set>
       <set comment="band 10">
        <r>  0.1355  0.0288  0.0296  0.0288  0.3276  0.0001  0.0508  0.0001  0.0000 </r>
       </set>
       <set comment="band 11">
        <r>  0.0008  0.0588  0.0322  0.0588  0.3536  0.0043  0.0152  0.0043  0.0000 </r>
       </set>
       <set comment="band 12">
        <r>  0.0000  0.0306  0.0000  0.0306  0.0000  0.1832  0.0000  0.1832  0.2380 </r>
       </set>
      </set>
      <set comment="kpoint 59">
       <set comment="band 1">
        <r>  0.2395  0.0093  0.0093  0.0093  0.1995  0.1995  0.0000  0.1995  0.0000 </r>
       </set>
       <set comment="band 2">
        <r>  0.0000  0.0001  0.0001  0.0000  0.1857  0.0186  0.3683  0.2110  0.1808 </r>
       </set>
       <set comment="band 3">
        <r>  0.0000  0.0000  0.0000  0.0001  0.0912  0.2582  0.1808  0.0659  0.3683 </r>
       </set>
       <set comment="band 4">
        <r>  0.0273  0.1879  0.1879  0.1879  0.0442  0.0442  0.0000  0.0442  0.0000 </r>
       </set>
       <set comment="band 5">
        <r>  0.0000  0.0001  0.0001  0.0003  0.1324  0.3503  0.1479  0.0848  0.2745 </r>
       </set>
       <set comment="band 6">
        <r>  0.0000  0.0002  0.0002  0.0000  0.2459  0.0280  0.2745  0.2936  0.1479 </r>
       </set>
       <set comment="band 7">
        <r>  0.3573  0.0250  0.0250  0.0250  0.1558  0.1558  0.0000  0.1558  0.0000 </r>
       </set>
       <set comment="band 8">
        <r>  0.0010  0.0093  0.0093  0.0093  0.0026  0.0026  0.0000  0.0026  0.0000 </r>
       </set>
       <set comment="band 9">
        <r>  0.0000  0.1603  0.1273  0.2681  0.0162  0.0342  0.0059  0.0204  0.0112 </r>
       </set>
       <set comment="band 10">
        <r>  0.0000  0.2102  0.2432  0.1023  0.0310  0.0130  0.0112  0.0268  0.0059 </r>
       </set>
       <set comment="band 11">
        <r>  0.0000  0.0088  0.0060  0.0140  0.0594  0.1399  0.2226  0.0882  0.4958 </r>
       </set>
       <set comment="band 12">
        <r>  0.0000  0.0104  0.0133  0.0052  0.1323  0.0518  0.4958  0.1034  0.2226 </r>
       </set>
      </set>
      <set comment="kpoint 60">
       <set comment="band 1">
        <r>  0.1755  0.0102  0.0102  0.0096  0.2015  0.2772  0.0000  0.2015  0.0000 </r>
       </set>
       <set comment="band 2">
        <r>  0.0002  0.0563  0.0563  0.0277  0.0064  0.0522  0.1671  0.0064  0.5014 </r>
       </set>
       <set comment="band 3">
        <r>  0.0009  0.0728  0.0728  0.1016  0.1493  0.3216  0.0018  0.1493  0.0055 </r>
       </set>
       <set comment="band 4">
        <r>  0.0000  0.0015  0.0015  0.0000  0.1827  0.0000  0.4467  0.1827  0.1489 </r>
       </set>
       <set comment="band 5">
        <r>  0.0000  0.0002  0.0002  0.0000  0.3091  0.0000  0.2781  0.3091  0.0927 </r>
       </set>
       <set comment="band 6">
        <r>  0.0075  0.0891  0.0891  0.0868  0.0326  0.2533  0.0738  0.0326  0.2215 </r>
       </set>
       <set comment="band 7">
        <r>  0.3896  0.0000  0.0000  0.0426  0.1647  0.1465  0.0005  0.1647  0.0016 </r>
       </set>
       <set comment="band 8">
        <r>  0.0289  0.0090  0.0090  0.1721  0.0410  0.0457  0.0532  0.0410  0.1597 </r>
       </set>
       <set comment="band 9">
        <r>  0.0000  0.2334  0.2334  0.0000  0.0197  0.0000  0.1896  0.0197  0.0632 </r>
       </set>
       <set comment="band 10">
        <r>  0.0702  0.0819  0.0819  0.1352  0.0058  0.0440  0.0000  0.0058  0.0001 </r>
       </set>
       <set comment="band 11">
        <r>  0.0000  0.0584  0.0584  0.0000  0.1762  0.0000  0.3125  0.1762  0.1042 </r>
       </set>
       <set comment="band 12">
        <r>  0.0541  0.0002  0.0002  0.0008  0.0000  0.2940  0.1013  0.0000  0.3040 </r>
       </set>
      </set>
     </set>
    </set>
   </array>
  </projected>
 </calculation>
 <structure name="finalpos" >
  <crystal>
   <varray name="basis" >
    <v>       0.00000000       1.75426756       1.75426756 </v>
    <v>       1.75426756       0.00000000       1.75426756 </v>
    <v>       1.75426756       1.75426756       0.00000000 </v>
   </varray>
   <i name="volume">     10.79735774 </i>
   <varray name="rec_basis" >
    <v>      -0.28501924       0.28501924       0.28501924 </v>
    <v>       0.28501924      -0.28501924       0.28501924 </v>
    <v>       0.28501924       0.28501924      -0.28501924 </v>
   </varray>
  </crystal>
  <varray name="positions" >
   <v>       0.00000000       0.00000000       0.00000000 </v>
  </varray>
 </structure>
</modeling>
