   1   1   0   0
  0.1529075E+02  0.2786001E-09  0.2786001E-09  0.2786001E-09  0.5000000E-15
  1.000000000000000E-004
  CAR 
 Pt-fcc                                  
     69.65975322    -46.42485155  301     11.77832973      1.00000000
    -46.425  0.0000E+00  0.0000E+00
    -46.038  0.0000E+00  0.0000E+00
    -45.651  0.0000E+00  0.0000E+00
    -45.264  0.0000E+00  0.0000E+00
    -44.877  0.0000E+00  0.0000E+00
    -44.490  0.0000E+00  0.0000E+00
    -44.103  0.0000E+00  0.0000E+00
    -43.716  0.0000E+00  0.0000E+00
    -43.329  0.0000E+00  0.0000E+00
    -42.942  0.0000E+00  0.0000E+00
    -42.555  0.0000E+00  0.0000E+00
    -42.168  0.0000E+00  0.0000E+00
    -41.781  0.0000E+00  0.0000E+00
    -41.395  0.5202E-13  0.2013E-13
    -41.008  0.3828E+01  0.1481E+01
    -40.621  0.1136E+02  0.5999E+01
    -40.234  0.0000E+00  0.6000E+01
    -39.847  0.0000E+00  0.6000E+01
    -39.460  0.0000E+00  0.6000E+01
    -39.073  0.0000E+00  0.6000E+01
    -38.686  0.0000E+00  0.6000E+01
    -38.299  0.0000E+00  0.6000E+01
    -37.912  0.0000E+00  0.6000E+01
    -37.525  0.0000E+00  0.6000E+01
    -37.138  0.0000E+00  0.6000E+01
    -36.751  0.0000E+00  0.6000E+01
    -36.364  0.0000E+00  0.6000E+01
    -35.977  0.0000E+00  0.6000E+01
    -35.590  0.0000E+00  0.6000E+01
    -35.203  0.0000E+00  0.6000E+01
    -34.816  0.0000E+00  0.6000E+01
    -34.429  0.0000E+00  0.6000E+01
    -34.042  0.0000E+00  0.6000E+01
    -33.656  0.0000E+00  0.6000E+01
    -33.269  0.0000E+00  0.6000E+01
    -32.882  0.0000E+00  0.6000E+01
    -32.495  0.0000E+00  0.6000E+01
    -32.108  0.0000E+00  0.6000E+01
    -31.721  0.0000E+00  0.6000E+01
    -31.334  0.0000E+00  0.6000E+01
    -30.947  0.0000E+00  0.6000E+01
    -30.560  0.0000E+00  0.6000E+01
    -30.173  0.0000E+00  0.6000E+01
    -29.786  0.0000E+00  0.6000E+01
    -29.399  0.0000E+00  0.6000E+01
    -29.012  0.0000E+00  0.6000E+01
    -28.625  0.0000E+00  0.6000E+01
    -28.238  0.0000E+00  0.6000E+01
    -27.851  0.0000E+00  0.6000E+01
    -27.464  0.0000E+00  0.6000E+01
    -27.077  0.0000E+00  0.6000E+01
    -26.690  0.0000E+00  0.6000E+01
    -26.304  0.0000E+00  0.6000E+01
    -25.917  0.0000E+00  0.6000E+01
    -25.530  0.0000E+00  0.6000E+01
    -25.143  0.0000E+00  0.6000E+01
    -24.756  0.0000E+00  0.6000E+01
    -24.369  0.0000E+00  0.6000E+01
    -23.982  0.0000E+00  0.6000E+01
    -23.595  0.0000E+00  0.6000E+01
    -23.208  0.0000E+00  0.6000E+01
    -22.821  0.0000E+00  0.6000E+01
    -22.434  0.0000E+00  0.6000E+01
    -22.047  0.0000E+00  0.6000E+01
    -21.660  0.0000E+00  0.6000E+01
    -21.273  0.0000E+00  0.6000E+01
    -20.886  0.0000E+00  0.6000E+01
    -20.499  0.0000E+00  0.6000E+01
    -20.112  0.0000E+00  0.6000E+01
    -19.725  0.0000E+00  0.6000E+01
    -19.338  0.0000E+00  0.6000E+01
    -18.951  0.0000E+00  0.6000E+01
    -18.565  0.0000E+00  0.6000E+01
    -18.178  0.0000E+00  0.6000E+01
    -17.791  0.0000E+00  0.6000E+01
    -17.404  0.0000E+00  0.6000E+01
    -17.017  0.0000E+00  0.6000E+01
    -16.630  0.0000E+00  0.6000E+01
    -16.243  0.0000E+00  0.6000E+01
    -15.856  0.0000E+00  0.6000E+01
    -15.469  0.0000E+00  0.6000E+01
    -15.082  0.0000E+00  0.6000E+01
    -14.695  0.0000E+00  0.6000E+01
    -14.308  0.0000E+00  0.6000E+01
    -13.921  0.0000E+00  0.6000E+01
    -13.534  0.0000E+00  0.6000E+01
    -13.147  0.0000E+00  0.6000E+01
    -12.760  0.0000E+00  0.6000E+01
    -12.373  0.0000E+00  0.6000E+01
    -11.986  0.0000E+00  0.6000E+01
    -11.599  0.0000E+00  0.6000E+01
    -11.213  0.0000E+00  0.6000E+01
    -10.826  0.0000E+00  0.6000E+01
    -10.439  0.0000E+00  0.6000E+01
    -10.052  0.0000E+00  0.6000E+01
     -9.665  0.0000E+00  0.6000E+01
     -9.278  0.0000E+00  0.6000E+01
     -8.891  0.0000E+00  0.6000E+01
     -8.504  0.0000E+00  0.6000E+01
     -8.117  0.0000E+00  0.6000E+01
     -7.730  0.0000E+00  0.6000E+01
     -7.343  0.0000E+00  0.6000E+01
     -6.956  0.0000E+00  0.6000E+01
     -6.569  0.0000E+00  0.6000E+01
     -6.182  0.0000E+00  0.6000E+01
     -5.795  0.0000E+00  0.6000E+01
     -5.408  0.0000E+00  0.6000E+01
     -5.021  0.0000E+00  0.6000E+01
     -4.634  0.0000E+00  0.6000E+01
     -4.247  0.0000E+00  0.6000E+01
     -3.860  0.0000E+00  0.6000E+01
     -3.474  0.0000E+00  0.6000E+01
     -3.087  0.0000E+00  0.6000E+01
     -2.700  0.0000E+00  0.6000E+01
     -2.313  0.0000E+00  0.6000E+01
     -1.926  0.0000E+00  0.6000E+01
     -1.539  0.0000E+00  0.6000E+01
     -1.152  0.0000E+00  0.6000E+01
     -0.765  0.0000E+00  0.6000E+01
     -0.378  0.0000E+00  0.6000E+01
      0.009  0.0000E+00  0.6000E+01
      0.396  0.0000E+00  0.6000E+01
      0.783  0.0000E+00  0.6000E+01
      1.170  0.0000E+00  0.6000E+01
      1.557  0.1017E-10  0.6000E+01
      1.944  0.1373E-01  0.6005E+01
      2.331  0.4581E-01  0.6023E+01
      2.718  0.5365E-01  0.6046E+01
      3.105  0.9426E-01  0.6083E+01
      3.492  0.1048E+00  0.6123E+01
      3.878  0.1250E+00  0.6173E+01
      4.265  0.1555E+00  0.6234E+01
      4.652  0.3173E+00  0.6356E+01
      5.039  0.6070E+00  0.6595E+01
      5.426  0.1011E+01  0.6993E+01
      5.813  0.1447E+01  0.7559E+01
      6.200  0.1284E+01  0.8063E+01
      6.587  0.1104E+01  0.8496E+01
      6.974  0.1125E+01  0.8941E+01
      7.361  0.1328E+01  0.9472E+01
      7.748  0.1525E+01  0.1007E+02
      8.135  0.1608E+01  0.1071E+02
      8.522  0.2140E+01  0.1157E+02
      8.909  0.1509E+01  0.1217E+02
      9.296  0.1118E+01  0.1262E+02
      9.683  0.1205E+01  0.1309E+02
     10.070  0.1469E+01  0.1367E+02
     10.457  0.1316E+01  0.1419E+02
     10.844  0.1182E+01  0.1465E+02
     11.231  0.1063E+01  0.1507E+02
     11.617  0.1472E+01  0.1565E+02
     12.004  0.1760E+01  0.1636E+02
     12.391  0.7081E+00  0.1666E+02
     12.778  0.1718E+00  0.1673E+02
     13.165  0.3822E+00  0.1688E+02
     13.552  0.1489E+00  0.1693E+02
     13.939  0.3776E+00  0.1708E+02
     14.326  0.2974E+00  0.1720E+02
     14.713  0.1738E+00  0.1727E+02
     15.100  0.3540E+00  0.1741E+02
     15.487  0.1895E+00  0.1749E+02
     15.874  0.2148E+00  0.1758E+02
     16.261  0.2427E+00  0.1767E+02
     16.648  0.2107E+00  0.1776E+02
     17.035  0.2062E+00  0.1784E+02
     17.422  0.3200E+00  0.1796E+02
     17.809  0.3581E+00  0.1810E+02
     18.196  0.3350E+00  0.1823E+02
     18.583  0.2289E+00  0.1832E+02
     18.969  0.4455E+00  0.1849E+02
     19.356  0.2245E+00  0.1858E+02
     19.743  0.3883E+00  0.1874E+02
     20.130  0.2760E+00  0.1885E+02
     20.517  0.2008E+00  0.1892E+02
     20.904  0.3888E+00  0.1908E+02
     21.291  0.2064E+00  0.1916E+02
     21.678  0.3133E+00  0.1928E+02
     22.065  0.4357E+00  0.1945E+02
     22.452  0.2970E+00  0.1957E+02
     22.839  0.2642E+00  0.1968E+02
     23.226  0.5008E+00  0.1987E+02
     23.613  0.3658E+00  0.2001E+02
     24.000  0.5494E+00  0.2023E+02
     24.387  0.3096E+00  0.2035E+02
     24.774  0.5032E+00  0.2055E+02
     25.161  0.5962E+00  0.2079E+02
     25.548  0.3575E+00  0.2094E+02
     25.935  0.4834E+00  0.2113E+02
     26.322  0.5563E+00  0.2134E+02
     26.708  0.8240E+00  0.2167E+02
     27.095  0.7409E+00  0.2197E+02
     27.482  0.5945E+00  0.2220E+02
     27.869  0.6956E+00  0.2247E+02
     28.256  0.7616E+00  0.2277E+02
     28.643  0.5714E+00  0.2300E+02
     29.030  0.6389E+00  0.2325E+02
     29.417  0.4048E+00  0.2342E+02
     29.804  0.3118E+00  0.2354E+02
     30.191  0.3835E+00  0.2369E+02
     30.578  0.4524E+00  0.2387E+02
     30.965  0.5466E+00  0.2408E+02
     31.352  0.8025E+00  0.2440E+02
     31.739  0.6403E+00  0.2465E+02
     32.126  0.9099E+00  0.2501E+02
     32.513  0.6502E+00  0.2526E+02
     32.900  0.6162E+00  0.2551E+02
     33.287  0.4714E+00  0.2570E+02
     33.674  0.4514E+00  0.2588E+02
     34.060  0.3139E+00  0.2601E+02
     34.447  0.2206E+00  0.2610E+02
     34.834  0.4743E+00  0.2629E+02
     35.221  0.4040E+00  0.2644E+02
     35.608  0.4533E+00  0.2663E+02
     35.995  0.5191E+00  0.2683E+02
     36.382  0.5679E+00  0.2706E+02
     36.769  0.5428E+00  0.2728E+02
     37.156  0.4590E+00  0.2746E+02
     37.543  0.5112E+00  0.2766E+02
     37.930  0.6280E+00  0.2790E+02
     38.317  0.6843E+00  0.2817E+02
     38.704  0.5581E+00  0.2839E+02
     39.091  0.1005E+01  0.2878E+02
     39.478  0.1259E+01  0.2928E+02
     39.865  0.1217E+01  0.2975E+02
     40.252  0.1068E+01  0.3018E+02
     40.639  0.5980E+00  0.3042E+02
     41.026  0.7271E+00  0.3071E+02
     41.412  0.7169E+00  0.3099E+02
     41.799  0.4658E+00  0.3118E+02
     42.186  0.6866E+00  0.3145E+02
     42.573  0.7002E+00  0.3172E+02
     42.960  0.8797E+00  0.3207E+02
     43.347  0.7847E+00  0.3238E+02
     43.734  0.7419E+00  0.3267E+02
     44.121  0.8252E+00  0.3300E+02
     44.508  0.5567E+00  0.3323E+02
     44.895  0.6336E+00  0.3347E+02
     45.282  0.5503E+00  0.3369E+02
     45.669  0.5013E+00  0.3389E+02
     46.056  0.7409E+00  0.3418E+02
     46.443  0.5638E+00  0.3441E+02
     46.830  0.5264E+00  0.3462E+02
     47.217  0.1035E+01  0.3502E+02
     47.604  0.9762E+00  0.3540E+02
     47.991  0.1047E+01  0.3582E+02
     48.378  0.1262E+01  0.3632E+02
     48.765  0.9383E+00  0.3669E+02
     49.151  0.9399E+00  0.3706E+02
     49.538  0.9024E+00  0.3742E+02
     49.925  0.1102E+01  0.3786E+02
     50.312  0.6512E+00  0.3811E+02
     50.699  0.5409E+00  0.3833E+02
     51.086  0.6941E+00  0.3860E+02
     51.473  0.7409E+00  0.3889E+02
     51.860  0.8437E+00  0.3922E+02
     52.247  0.7805E+00  0.3953E+02
     52.634  0.5866E+01  0.4181E+02
     53.021  0.8887E+00  0.4215E+02
     53.408  0.7999E+00  0.4247E+02
     53.795  0.8520E+00  0.4280E+02
     54.182  0.8876E+00  0.4315E+02
     54.569  0.8333E+00  0.4348E+02
     54.956  0.7978E+00  0.4380E+02
     55.343  0.5934E+00  0.4403E+02
     55.730  0.1022E+01  0.4443E+02
     56.117  0.5668E+00  0.4465E+02
     56.503  0.1011E+01  0.4505E+02
     56.890  0.8737E+00  0.4539E+02
     57.277  0.8788E+00  0.4573E+02
     57.664  0.8499E+00  0.4607E+02
     58.051  0.6506E+00  0.4633E+02
     58.438  0.8412E+00  0.4666E+02
     58.825  0.8536E+00  0.4700E+02
     59.212  0.5962E+00  0.4724E+02
     59.599  0.4136E+00  0.4740E+02
     59.986  0.2438E+00  0.4750E+02
     60.373  0.2331E+00  0.4759E+02
     60.760  0.2492E+00  0.4769E+02
     61.147  0.2863E+00  0.4781E+02
     61.534  0.1729E+00  0.4788E+02
     61.921  0.1289E+00  0.4793E+02
     62.308  0.4683E-01  0.4794E+02
     62.695  0.5100E-01  0.4796E+02
     63.082  0.3489E-01  0.4798E+02
     63.469  0.8042E-02  0.4798E+02
     63.856  0.2785E-01  0.4799E+02
     64.242  0.6188E-06  0.4799E+02
     64.629  0.1795E-01  0.4800E+02
     65.016  0.0000E+00  0.4800E+02
     65.403  0.0000E+00  0.4800E+02
     65.790  0.0000E+00  0.4800E+02
     66.177  0.0000E+00  0.4800E+02
     66.564  0.0000E+00  0.4800E+02
     66.951  0.0000E+00  0.4800E+02
     67.338  0.0000E+00  0.4800E+02
     67.725  0.0000E+00  0.4800E+02
     68.112  0.0000E+00  0.4800E+02
     68.499  0.0000E+00  0.4800E+02
     68.886  0.0000E+00  0.4800E+02
     69.273  0.0000E+00  0.4800E+02
     69.660  0.0000E+00  0.4800E+02
