    2    2    1    2
  0.2137190E+02  0.2470000E-09  0.2470000E-09  0.8090000E-09  0.5000000E-15
  1.000000000000000E-004
  CAR 
 Co-hcc                                  
     18     70     16
 
  0.0000000E+00  0.0000000E+00  0.0000000E+00  0.1250000E-02
      1         -2.979099       -2.833000   1.000000   1.000000
      2         -2.503176       -2.184812   1.000000   1.000000
      3         -0.023971        1.597803   1.000000   1.000000
      4          0.897541        2.161260   1.000000   1.000000
      5          0.897542        2.524106   1.000000   1.000000
      6          0.898450        2.524107   1.000000   1.000000
      7          0.898451        2.525363   1.000000   1.000000
      8          1.004525        2.525364   1.000000   1.000000
      9          1.807516        2.813659   1.000000   1.000000
     10          1.807517        3.910255   1.000000   0.000000
     11          1.810466        3.910257   1.000000   0.000000
     12          1.810466        3.914169   1.000000   0.000000
     13          2.218939        3.914170   1.000000   0.000000
     14          6.506521        6.653103   0.000000   0.000000
     15         10.932520       11.227591   0.000000   0.000000
     16         18.854517       18.751684   0.000000   0.000000
 
  0.1000000E+00 -0.2775558E-16  0.0000000E+00  0.7500000E-02
      1         -2.614966       -2.465925   1.000000   1.000000
      2         -2.151761       -1.814820   1.000000   1.000000
      3          0.088753        1.742247   1.000000   1.000000
      4          0.789161        2.098526   1.000000   1.000000
      5          0.791273        2.387548   1.000000   1.000000
      6          1.053810        2.390719   1.000000   1.000000
      7          1.054773        2.696193   1.000000   1.000000
      8          1.088726        2.697530   1.000000   1.000000
      9          1.227376        2.893617   1.000000   1.000000
     10          1.526286        3.473602   1.000000   0.000000
     11          1.775636        3.872610   1.000000   0.000000
     12          1.780073        3.878633   1.000000   0.000000
     13          3.041648        4.194529   0.999993   0.000000
     14          7.079460        7.374124   0.000000   0.000000
     15         11.151417       11.416033   0.000000   0.000000
     16         19.275318       19.190580   0.000000   0.000000
 
  0.2000000E+00 -0.5551115E-16  0.0000000E+00  0.7500000E-02
      1         -1.632499       -1.432238   1.000000   1.000000
      2         -1.260739       -0.803536   1.000000   1.000000
      3          0.387279        1.922657   1.000000   1.000000
      4          0.618349        1.970920   1.000000   1.000000
      5          0.624790        2.126043   1.000000   1.000000
      6          0.649334        2.266114   1.000000   1.000000
      7          0.958069        2.749970   1.000000   1.000000
      8          1.368640        3.109552   1.000000   0.992473
      9          1.479525        3.167454   1.000000   0.786212
     10          1.480426        3.168789   1.000000   0.775052
     11          1.693222        3.775572   1.000000   0.000000
     12          1.700581        3.785702   1.000000   0.000000
     13          4.371167        5.067244   0.000000   0.000000
     14          8.521913        8.949930   0.000000   0.000000
     15         11.821977       12.002006   0.000000   0.000000
     16         20.188212       20.482132   0.000000   0.000000
 
  0.3000000E+00 -0.2775558E-16  0.0000000E+00  0.7500000E-02
      1         -0.821306       -0.143273   1.000000   1.000000
      2         -0.713086        0.231355   1.000000   1.000000
      3          0.220141        1.708365   1.000000   1.000000
      4          0.429793        2.062939   1.000000   1.000000
      5          0.802116        2.152410   1.000000   1.000000
      6          0.923488        2.407075   1.000000   1.000000
      7          1.233135        2.751086   1.000000   1.000000
      8          1.592914        3.422144   1.000000   0.000000
      9          1.603103        3.657766   1.000000   0.000000
     10          2.044069        3.671900   1.000000   0.000000
     11          2.044855        3.799049   1.000000   0.000000
     12          2.203541        3.800230   1.000000   0.000000
     13          6.135496        6.550925   0.000000   0.000000
     14         10.485204       10.944757   0.000000   0.000000
     15         12.865569       12.951131   0.000000   0.000000
     16         15.640274       16.007345   0.000000   0.000000
 
  0.4000000E+00 -0.2775558E-16  0.0000000E+00  0.7500000E-02
      1         -0.840909        0.302355   1.000000   1.000000
      2         -0.818621        0.378497   1.000000   1.000000
      3         -0.041235        1.553322   1.000000   1.000000
      4          0.075128        1.766693   1.000000   1.000000
      5          1.119825        3.073606   1.000000   0.999717
      6          1.263692        3.335535   1.000000   0.000037
      7          1.512619        3.563668   1.000000   0.000000
      8          1.524977        3.580869   1.000000   0.000000
      9          2.538477        3.684124   1.000000   0.000000
     10          2.538783        4.359796   1.000000   0.000000
     11          3.348171        4.360272   0.000008   0.000000
     12          4.183032        4.425238   0.000000   0.000000
     13          8.368072        8.616847   0.000000   0.000000
     14         11.428764       11.938743   0.000000   0.000000
     15         12.345886       12.838828   0.000000   0.000000
     16         12.512646       12.908966   0.000000   0.000000
 
  0.5000000E+00 -0.1387779E-15  0.0000000E+00  0.3750000E-02
      1         -0.910460        0.301699   1.000000   1.000000
      2         -0.905988        0.317588   1.000000   1.000000
      3         -0.124008        1.508548   1.000000   1.000000
      4         -0.053336        1.623413   1.000000   1.000000
      5          1.252964        3.322953   1.000000   0.000156
      6          1.351176        3.468015   1.000000   0.000000
      7          1.482220        3.528083   1.000000   0.000000
      8          1.495476        3.546540   1.000000   0.000000
      9          2.737769        4.588232   1.000000   0.000000
     10          2.737980        4.588498   1.000000   0.000000
     11          5.237036        5.197832   0.000000   0.000000
     12          5.585006        5.569626   0.000000   0.000000
     13          9.335636       10.072592   0.000000   0.000000
     14         10.150351       10.722054   0.000000   0.000000
     15         10.545791       10.927287   0.000000   0.000000
     16         11.689392       11.848234   0.000000   0.000000
 
  0.1000000E+00  0.1000000E+00  0.0000000E+00  0.7500000E-02
      1         -1.925090       -1.758792   1.000000   1.000000
      2         -1.506453       -1.112301   1.000000   1.000000
      3          0.297659        1.983718   1.000000   1.000000
      4          0.594682        2.003721   1.000000   1.000000
      5          0.596712        2.143701   1.000000   1.000000
      6          0.799791        2.146620   1.000000   1.000000
      7          1.128150        2.953028   1.000000   1.000000
      8          1.204184        3.035932   1.000000   0.999997
      9          1.383842        3.053231   1.000000   0.999971
     10          1.444836        3.059373   1.000000   0.999941
     11          1.705130        3.788610   1.000000   0.000000
     12          1.709432        3.794560   1.000000   0.000000
     13          3.979339        4.784766   0.000000   0.000000
     14          8.076045        8.482414   0.000000   0.000000
     15         11.599538       11.806683   0.000000   0.000000
     16         20.095017       20.040212   0.000000   0.000000
 
  0.2000000E+00  0.1000000E+00  0.0000000E+00  0.1500000E-01
      1         -0.836969       -0.500779   1.000000   1.000000
      2         -0.609394        0.058265   1.000000   1.000000
      3          0.387428        1.812767   1.000000   1.000000
      4          0.466678        1.845912   1.000000   1.000000
      5          0.474957        1.901519   1.000000   1.000000
      6          0.640357        2.386944   1.000000   1.000000
      7          0.669179        2.463430   1.000000   1.000000
      8          1.459718        3.280417   1.000000   0.008159
      9          1.577473        3.635244   1.000000   0.000000
     10          1.585100        3.645683   1.000000   0.000000
     11          2.030875        3.700996   1.000000   0.000000
     12          2.267287        3.756488   1.000000   0.000000
     13          5.472146        5.985511   0.000000   0.000000
     14          9.764158       10.229947   0.000000   0.000000
     15         12.512323       12.623525   0.000000   0.000000
     16         18.070143       18.383309   0.000000   0.000000
 
  0.3000000E+00  0.1000000E+00  0.0000000E+00  0.1500000E-01
      1         -0.560769        0.468760   1.000000   1.000000
      2         -0.523431        0.637020   1.000000   1.000000
      3          0.099075        1.665999   1.000000   1.000000
      4          0.253968        1.967383   1.000000   1.000000
      5          0.960629        2.306727   1.000000   1.000000
      6          1.016221        2.549852   1.000000   1.000000
      7          1.446817        2.962817   1.000000   1.000000
      8          1.454146        3.477325   1.000000   0.000000
      9          1.457652        3.491693   1.000000   0.000000
     10          1.852687        3.529942   1.000000   0.000000
     11          3.166049        4.544119   0.797603   0.000000
     12          3.797602        4.821326   0.000000   0.000000
     13          7.462904        7.783632   0.000000   0.000000
     14         11.866224       12.332988   0.000000   0.000000
     15         13.185282       13.414405   0.000000   0.000000
     16         13.950106       14.285684   0.000000   0.000000
 
  0.4000000E+00  0.1000000E+00  0.0000000E+00  0.1500000E-01
      1         -0.696473        0.518252   1.000000   1.000000
      2         -0.688861        0.546260   1.000000   1.000000
      3         -0.039624        1.599130   1.000000   1.000000
      4          0.040999        1.736983   1.000000   1.000000
      5          1.224814        3.277672   1.000000   0.010060
      6          1.320587        3.364777   1.000000   0.000001
      7          1.365153        3.378053   1.000000   0.000000
      8          1.377816        3.394590   1.000000   0.000000
      9          2.161674        3.515113   1.000000   0.000000
     10          2.221000        3.737980   1.000000   0.000000
     11          5.221879        5.817441   0.000000   0.000000
     12          5.880847        6.324374   0.000000   0.000000
     13          9.900466       10.109022   0.000000   0.000000
     14         10.110185       10.739412   0.000000   0.000000
     15         11.055523       11.703401   0.000000   0.000000
     16         12.767356       12.993672   0.000000   0.000000
 
  0.2000000E+00  0.2000000E+00  0.0000000E+00  0.7500000E-02
      1          0.151980        0.808478   1.000000   1.000000
      2          0.158355        1.210471   1.000000   1.000000
      3          0.165896        1.555420   1.000000   1.000000
      4          0.202730        1.564359   1.000000   1.000000
      5          0.228609        1.757178   1.000000   1.000000
      6          0.380315        2.110912   1.000000   1.000000
      7          1.055074        2.859596   1.000000   1.000000
      8          1.355714        3.362485   1.000000   0.000001
      9          1.367665        3.380612   1.000000   0.000000
     10          1.566136        3.467988   1.000000   0.000000
     11          3.244549        4.648211   0.082688   0.000000
     12          3.837536        4.971042   0.000000   0.000000
     13          7.171015        7.531686   0.000000   0.000000
     14         11.614048       12.104030   0.000000   0.000000
     15         13.646179       13.699991   0.000000   0.000000
     16         16.366241       16.623653   0.000000   0.000000
 
  0.3000000E+00  0.2000000E+00  0.0000000E+00  0.1500000E-01
      1         -0.107348        1.148447   1.000000   1.000000
      2         -0.100779        1.182726   1.000000   1.000000
      3          0.137027        1.788372   1.000000   1.000000
      4          0.240612        1.975945   1.000000   1.000000
      5          0.927619        2.213153   1.000000   1.000000
      6          0.961762        2.329934   1.000000   1.000000
      7          1.130453        3.082491   1.000000   0.999304
      8          1.147326        3.107682   1.000000   0.993504
      9          1.356297        3.248124   1.000000   0.068331
     10          1.604574        3.555834   1.000000   0.000000
     11          5.258433        6.138108   0.000000   0.000000
     12          6.082923        6.835296   0.000000   0.000000
     13          9.409496        9.662451   0.000000   0.000000
     14         12.243760       12.685853   0.000000   0.000000
     15         13.246136       13.705529   0.000000   0.000000
     16         13.687405       14.176986   0.000000   0.000000
 
  0.4000000E+00  0.2000000E+00  0.0000000E+00  0.7500000E-02
      1         -0.208828        1.057913   1.000000   1.000000
      2         -0.203596        1.059779   1.000000   1.000000
      3          0.139272        1.837956   1.000000   1.000000
      4          0.197280        1.932305   1.000000   1.000000
      5          1.032498        2.726484   1.000000   1.000000
      6          1.049325        2.785527   1.000000   1.000000
      7          1.270678        2.959809   1.000000   1.000000
      8          1.329523        2.982757   1.000000   1.000000
      9          1.459525        3.412644   1.000000   0.000000
     10          1.480411        3.506606   1.000000   0.000000
     11          7.403450        7.872521   0.000000   0.000000
     12          7.751290        8.230968   0.000000   0.000000
     13          9.887583       10.536449   0.000000   0.000000
     14         10.631341       11.321187   0.000000   0.000000
     15         11.707940       11.939123   0.000000   0.000000
     16         12.681560       12.842858   0.000000   0.000000
 
  0.3000000E+00  0.3000000E+00  0.0000000E+00  0.7500000E-02
      1          0.328332        1.621428   1.000000   1.000000
      2          0.337452        1.646456   1.000000   1.000000
      3          0.343025        2.060458   1.000000   1.000000
      4          0.399561        2.077786   1.000000   1.000000
      5          0.756843        2.127732   1.000000   1.000000
      6          0.788558        2.183631   1.000000   1.000000
      7          0.814021        2.615041   1.000000   1.000000
      8          0.818984        2.666216   1.000000   1.000000
      9          1.291212        3.424923   1.000000   0.000000
     10          1.370615        3.511784   1.000000   0.000000
     11          7.932818        8.494009   0.000000   0.000000
     12          8.830192        9.393930   0.000000   0.000000
     13         11.258667       11.655361   0.000000   0.000000
     14         11.582575       12.037516   0.000000   0.000000
     15         11.895813       12.118112   0.000000   0.000000
     16         12.697256       13.263064   0.000000   0.000000
 
  0.0000000E+00  0.0000000E+00  0.1250000E+00  0.2500000E-02
      1         -2.962141       -2.812236   1.000000   1.000000
      2         -2.522290       -2.214609   1.000000   1.000000
      3         -0.008513        1.603961   1.000000   1.000000
      4          0.880203        2.067127   1.000000   1.000000
      5          0.897568        2.524146   1.000000   1.000000
      6          0.897569        2.524147   1.000000   1.000000
      7          0.898422        2.525324   1.000000   1.000000
      8          0.898423        2.525325   1.000000   1.000000
      9          1.807650        3.000344   1.000000   1.000000
     10          1.807650        3.910427   1.000000   0.000000
     11          1.810345        3.910428   1.000000   0.000000
     12          1.810346        3.914012   1.000000   0.000000
     13          2.427413        3.914013   1.000000   0.000000
     14          6.263407        6.435296   0.000000   0.000000
     15         11.242801       11.516037   0.000000   0.000000
     16         18.179276       18.151790   0.000000   0.000000
 
  0.1000000E+00 -0.2775558E-16  0.1250000E+00  0.1500000E-01
      1         -2.598261       -2.445111   1.000000   1.000000
      2         -2.170108       -1.844884   1.000000   1.000000
      3          0.103149        1.746794   1.000000   1.000000
      4          0.788842        2.054471   1.000000   1.000000
      5          0.791234        2.387941   1.000000   1.000000
      6          0.927486        2.390683   1.000000   1.000000
      7          1.053856        2.696257   1.000000   1.000000
      8          1.054704        2.697442   1.000000   1.000000
      9          1.334378        2.972928   1.000000   1.000000
     10          1.525196        3.469396   1.000000   0.000000
     11          1.775756        3.872785   1.000000   0.000000
     12          1.779890        3.878395   1.000000   0.000000
     13          3.180225        4.252607   0.667178   0.000000
     14          6.821333        7.139286   0.000000   0.000000
     15         11.479556       11.727931   0.000000   0.000000
     16         18.554334       18.546900   0.000000   0.000000
 
  0.2000000E+00 -0.5551115E-16  0.1250000E+00  0.1500000E-01
      1         -1.618259       -1.412123   1.000000   1.000000
      2         -1.274430       -0.832575   1.000000   1.000000
      3          0.396216        1.926173   1.000000   1.000000
      4          0.618090        1.969994   1.000000   1.000000
      5          0.624591        2.131002   1.000000   1.000000
      6          0.641134        2.260288   1.000000   1.000000
      7          0.963257        2.759520   1.000000   1.000000
      8          1.330044        3.085292   1.000000   0.999087
      9          1.479569        3.167518   1.000000   0.785686
     10          1.480421        3.168776   1.000000   0.775163
     11          1.693569        3.776037   1.000000   0.000000
     12          1.700359        3.785379   1.000000   0.000000
     13          4.499357        5.178162   0.000000   0.000000
     14          8.214469        8.643143   0.000000   0.000000
     15         12.201464       12.384975   0.000000   0.000000
     16         19.509946       19.605973   0.000000   0.000000
 
  0.3000000E+00 -0.2775558E-16  0.1250000E+00  0.1500000E-01
      1         -0.816968       -0.130106   1.000000   1.000000
      2         -0.716894        0.215927   1.000000   1.000000
      3          0.224730        1.717033   1.000000   1.000000
      4          0.413495        2.020249   1.000000   1.000000
      5          0.818844        2.194837   1.000000   1.000000
      6          0.923135        2.404690   1.000000   1.000000
      7          1.255616        2.763950   1.000000   1.000000
      8          1.593284        3.377173   1.000000   0.000000
      9          1.602706        3.658281   1.000000   0.000000
     10          2.044074        3.671346   1.000000   0.000000
     11          2.044792        3.799062   1.000000   0.000000
     12          2.148281        3.800146   1.000000   0.000000
     13          6.258738        6.672959   0.000000   0.000000
     14         10.100928       10.518618   0.000000   0.000000
     15         13.302311       13.436135   0.000000   0.000000
     16         15.664110       16.032438   0.000000   0.000000
 
  0.4000000E+00 -0.2775558E-16  0.1250000E+00  0.1500000E-01
      1         -0.840091        0.305150   1.000000   1.000000
      2         -0.819491        0.375481   1.000000   1.000000
      3         -0.037566        1.559791   1.000000   1.000000
      4          0.069675        1.755910   1.000000   1.000000
      5          1.127426        3.096522   1.000000   0.997442
      6          1.260121        3.335730   1.000000   0.000037
      7          1.513165        3.564414   1.000000   0.000000
      8          1.524524        3.580237   1.000000   0.000000
      9          2.538517        3.692484   1.000000   0.000000
     10          2.538798        4.359848   1.000000   0.000000
     11          3.370441        4.360290   0.000000   0.000000
     12          4.136592        4.375782   0.000000   0.000000
     13          8.479440        8.728834   0.000000   0.000000
     14         11.389201       11.858048   0.000000   0.000000
     15         12.122939       12.542331   0.000000   0.000000
     16         12.485554       12.981116   0.000000   0.000000
 
  0.5000000E+00 -0.1387779E-15  0.1250000E+00  0.7500000E-02
      1         -0.910360        0.302183   1.000000   1.000000
      2         -0.906272        0.316810   1.000000   1.000000
      3         -0.121940        1.512037   1.000000   1.000000
      4         -0.056507        1.618229   1.000000   1.000000
      5          1.257688        3.331283   1.000000   0.000061
      6          1.348507        3.466370   1.000000   0.000000
      7          1.482627        3.528663   1.000000   0.000000
      8          1.494821        3.545661   1.000000   0.000000
      9          2.737747        4.588205   1.000000   0.000000
     10          2.737912        4.588416   1.000000   0.000000
     11          5.247431        5.205266   0.000000   0.000000
     12          5.568814        5.549504   0.000000   0.000000
     13          9.334687       10.068910   0.000000   0.000000
     14          9.975577       10.544176   0.000000   0.000000
     15         10.779315       11.164401   0.000000   0.000000
     16         11.745375       11.904893   0.000000   0.000000
 
  0.1000000E+00  0.1000000E+00  0.1250000E+00  0.1500000E-01
      1         -1.909501       -1.738207   1.000000   1.000000
      2         -1.522338       -1.142286   1.000000   1.000000
      3          0.309053        1.984404   1.000000   1.000000
      4          0.594781        2.002911   1.000000   1.000000
      5          0.596660        2.143825   1.000000   1.000000
      6          0.771255        2.146560   1.000000   1.000000
      7          1.129264        2.955105   1.000000   1.000000
      8          1.196001        3.031537   1.000000   0.999998
      9          1.384223        3.053190   1.000000   0.999972
     10          1.434638        3.057088   1.000000   0.999955
     11          1.705351        3.788910   1.000000   0.000000
     12          1.709297        3.794371   1.000000   0.000000
     13          4.109044        4.886161   0.000000   0.000000
     14          7.785089        8.200194   0.000000   0.000000
     15         11.962505       12.166143   0.000000   0.000000
     16         19.264783       19.296183   0.000000   0.000000
 
  0.2000000E+00  0.1000000E+00  0.1250000E+00  0.3000000E-01
      1         -0.827626       -0.482638   1.000000   1.000000
      2         -0.617248        0.032768   1.000000   1.000000
      3          0.390439        1.817800   1.000000   1.000000
      4          0.466111        1.845638   1.000000   1.000000
      5          0.475098        1.911152   1.000000   1.000000
      6          0.584770        2.319543   1.000000   1.000000
      7          0.741280        2.537491   1.000000   1.000000
      8          1.432653        3.246096   1.000000   0.076218
      9          1.577800        3.635680   1.000000   0.000000
     10          1.584829        3.645240   1.000000   0.000000
     11          2.033441        3.701401   1.000000   0.000000
     12          2.241379        3.747884   1.000000   0.000000
     13          5.597653        6.106537   0.000000   0.000000
     14          9.409139        9.850073   0.000000   0.000000
     15         12.937671       13.076346   0.000000   0.000000
     16         18.081535       18.399942   0.000000   0.000000
 
  0.3000000E+00  0.1000000E+00  0.1250000E+00  0.3000000E-01
      1         -0.559387        0.474987   1.000000   1.000000
      2         -0.524855        0.630428   1.000000   1.000000
      3          0.103478        1.673627   1.000000   1.000000
      4          0.245719        1.944709   1.000000   1.000000
      5          0.965711        2.331518   1.000000   1.000000
      6          1.015943        2.547077   1.000000   1.000000
      7          1.446048        2.976604   1.000000   1.000000
      8          1.456898        3.478001   1.000000   0.000000
      9          1.471095        3.485336   1.000000   0.000000
     10          1.839378        3.508919   1.000000   0.000000
     11          3.179038        4.547815   0.679289   0.000000
     12          3.754819        4.795369   0.000000   0.000000
     13          7.583965        7.905826   0.000000   0.000000
     14         11.423796       11.811501   0.000000   0.000000
     15         13.444930       13.804607   0.000000   0.000000
     16         14.047912       14.378357   0.000000   0.000000
 
  0.4000000E+00  0.1000000E+00  0.1250000E+00  0.3000000E-01
      1         -0.696246        0.519191   1.000000   1.000000
      2         -0.689198        0.545099   1.000000   1.000000
      3         -0.036999        1.603586   1.000000   1.000000
      4          0.037425        1.730696   1.000000   1.000000
      5          1.229527        3.287303   1.000000   0.004709
      6          1.317993        3.371093   1.000000   0.000000
      7          1.365859        3.379747   1.000000   0.000000
      8          1.377658        3.393291   1.000000   0.000000
      9          2.163698        3.514578   1.000000   0.000000
     10          2.218567        3.726341   1.000000   0.000000
     11          5.239919        5.828988   0.000000   0.000000
     12          5.845266        6.293469   0.000000   0.000000
     13          9.939280       10.182010   0.000000   0.000000
     14         10.158437       10.757468   0.000000   0.000000
     15         11.031598       11.665052   0.000000   0.000000
     16         12.732828       12.971113   0.000000   0.000000
 
  0.2000000E+00  0.2000000E+00  0.1250000E+00  0.1500000E-01
      1          0.152240        0.821089   1.000000   1.000000
      2          0.158151        1.189776   1.000000   1.000000
      3          0.166446        1.555723   1.000000   1.000000
      4          0.197646        1.563906   1.000000   1.000000
      5          0.236088        1.773804   1.000000   1.000000
      6          0.372182        2.096223   1.000000   1.000000
      7          1.077661        2.883296   1.000000   1.000000
      8          1.355999        3.362529   1.000000   0.000001
      9          1.367094        3.379777   1.000000   0.000000
     10          1.549058        3.444231   1.000000   0.000000
     11          3.256562        4.652803   0.042085   0.000000
     12          3.795746        4.941201   0.000000   0.000000
     13          7.295365        7.657565   0.000000   0.000000
     14         11.190135       11.610249   0.000000   0.000000
     15         14.119002       14.250687   0.000000   0.000000
     16         16.392174       16.650440   0.000000   0.000000
 
  0.3000000E+00  0.2000000E+00  0.1250000E+00  0.3000000E-01
      1         -0.107153        1.149714   1.000000   1.000000
      2         -0.101139        1.181304   1.000000   1.000000
      3          0.140388        1.793369   1.000000   1.000000
      4          0.235797        1.963808   1.000000   1.000000
      5          0.928871        2.222801   1.000000   1.000000
      6          0.960406        2.327840   1.000000   1.000000
      7          1.131022        3.082924   1.000000   0.999274
      8          1.146720        3.106295   1.000000   0.994185
      9          1.367074        3.260527   1.000000   0.032948
     10          1.596243        3.544766   1.000000   0.000000
     11          5.279124        6.153138   0.000000   0.000000
     12          6.032435        6.786626   0.000000   0.000000
     13          9.529162        9.786322   0.000000   0.000000
     14         12.246533       12.682259   0.000000   0.000000
     15         13.099187       13.507301   0.000000   0.000000
     16         13.470592       13.956698   0.000000   0.000000
 
  0.4000000E+00  0.2000000E+00  0.1250000E+00  0.1500000E-01
      1         -0.208678        1.057827   1.000000   1.000000
      2         -0.203922        1.059638   1.000000   1.000000
      3          0.141260        1.841156   1.000000   1.000000
      4          0.194841        1.928199   1.000000   1.000000
      5          1.032621        2.729588   1.000000   1.000000
      6          1.048377        2.783736   1.000000   1.000000
      7          1.275062        2.960861   1.000000   1.000000
      8          1.330103        2.981829   1.000000   1.000000
      9          1.458422        3.416510   1.000000   0.000000
     10          1.478517        3.503384   1.000000   0.000000
     11          7.416438        7.884122   0.000000   0.000000
     12          7.738650        8.215542   0.000000   0.000000
     13          9.880264       10.526406   0.000000   0.000000
     14         10.518236       11.160925   0.000000   0.000000
     15         11.883905       12.165355   0.000000   0.000000
     16         12.758791       12.927623   0.000000   0.000000
 
  0.3000000E+00  0.3000000E+00  0.1250000E+00  0.1500000E-01
      1          0.328602        1.622270   1.000000   1.000000
      2          0.335923        1.645463   1.000000   1.000000
      3          0.346010        2.060887   1.000000   1.000000
      4          0.397035        2.076520   1.000000   1.000000
      5          0.757123        2.130254   1.000000   1.000000
      6          0.785828        2.181598   1.000000   1.000000