       N       E                     dE             d eps       ncg     rms          rms(c)
DAV:   1     0.770982994508E+02    0.77098E+02   -0.65605E+03  4480   0.988E+02
DAV:   2    -0.105896887079E+02   -0.87688E+02   -0.80969E+02  4520   0.211E+02
DAV:   3    -0.127006302331E+02   -0.21109E+01   -0.20784E+01  5440   0.455E+01
DAV:   4    -0.127347398064E+02   -0.34110E-01   -0.34097E-01  6208   0.470E+00
DAV:   5    -0.127349843362E+02   -0.24453E-03   -0.24453E-03  5440   0.387E-01    0.124E+01
DAV:   6    -0.125448185523E+02    0.19017E+00   -0.21688E+01  5184   0.767E+01    0.131E+01
DAV:   7    -0.111270969947E+02    0.14177E+01   -0.49889E+00  5312   0.340E+01    0.302E+00
DAV:   8    -0.111868170750E+02   -0.59720E-01   -0.14159E-01  5552   0.382E+00    0.154E+00
DAV:   9    -0.112243864633E+02   -0.37569E-01   -0.38125E-02  5472   0.180E+00    0.686E-01
DAV:  10    -0.112304041543E+02   -0.60177E-02   -0.37338E-03  5488   0.850E-01    0.479E-01
DAV:  11    -0.112318821402E+02   -0.14780E-02   -0.20913E-03  5592   0.696E-01    0.176E-01
DAV:  12    -0.112335870174E+02   -0.17049E-02   -0.96710E-04  5144   0.295E-01    0.112E-01
DAV:  13    -0.112336792317E+02   -0.92214E-04   -0.51839E-05  5312   0.683E-02    0.661E-02
DAV:  14    -0.112337506165E+02   -0.71385E-04   -0.85919E-05  4856   0.103E-01    0.226E-02
DAV:  15    -0.112337594436E+02   -0.88271E-05   -0.19533E-05  4960   0.533E-02    0.115E-02
DAV:  16    -0.112337597138E+02   -0.27024E-06   -0.16987E-06  4240   0.156E-02
   1 F= -.11233760E+02 E0= -.11231750E+02  d E =-.402039E-02  mag=     3.6105
