Co-fcc                                  
   1.00000000000000     
     0.000000    1.824438    1.824438
     1.824438    0.000000    1.824438
     1.824438    1.824438    0.000000
   Co
     1
Direct
  0.000000  0.000000  0.000000
 
   36   36   36
  115.44      113.25      106.94      97.224      85.127      71.771      58.215      45.344      33.830      24.134    
  16.507      10.993      7.4196      5.4129      4.4525      3.9658      3.6376      3.4475      3.3857      3.4475    
  3.6376      3.9658      4.4525      5.4129      7.4196      10.993      16.507      24.134      33.830      45.344    
  58.215      71.771      85.127      97.224      106.94      113.25      113.25      109.00      100.99      90.111    
  77.428      64.037      50.907      38.810      28.308      19.754      13.295      8.8652      6.1880      4.8083    
  4.1664      3.7709      3.5154      3.3918      3.3918      3.5154      3.7709      4.1664      4.8083      6.1880    
  8.8652      13.295      19.754      28.308      38.810      50.907      64.037      77.428      90.111      100.99    
  109.00      113.25      106.94      100.99      91.838      80.420      67.796      54.967      42.779      31.882    
  22.722      15.546      10.392      7.0818      5.2456      4.3709      3.9075      3.5916      3.4093      3.3501    
  3.4093      3.5916      3.9075      4.3709      5.2456      7.0818      10.392      15.546      22.722      31.882    
  42.779      54.967      67.796      80.420      91.838      100.99      106.94      109.00      97.224      90.111    
  80.420      69.096      57.111      45.340      34.496      25.108      17.509      11.832      8.0010      5.7364    
  4.5936      4.0391      3.6708      3.4352      3.3220      3.3220      3.4352      3.6708      4.0391      4.5936    
  5.7364      8.0010      11.832      17.509      25.108      34.496      45.340      57.111      69.096      80.420    
  90.111      97.224      100.99      100.99      85.127      77.428      67.796      57.111      46.224      35.878    
  26.654      18.960      13.014      8.8311      6.2245      4.8279      4.1575      3.7468      3.4657      3.3052    
  3.2534      3.3052      3.4657      3.7468      4.1575      4.8279      6.2245      8.8311      13.014      18.960    
  26.654      35.878      46.224      57.111      67.796      77.428      85.127      90.111      91.838      90.111    
  71.771      64.037      54.967      45.340      35.878      27.189      19.731      13.790      9.4600      6.6409    
  5.0482      4.2610      3.8140      3.4966      3.2970      3.2019      3.2019      3.2970      3.4966      3.8140    
  4.2610      5.0482      6.6409      9.4600      13.790      19.732      27.189      35.878      45.340      54.967    
  64.037      71.771      77.428      80.420      80.420      77.428      58.215      50.907      42.779      34.496    
  26.654      19.731      14.060      9.7989      6.9212      5.2209      4.3459      3.8677      3.5240      3.2940    
  3.1646      3.1232      3.1646      3.2940      3.5240      3.8677      4.3459      5.2208      6.9212      9.7989    
  14.060      19.731      26.654      34.496      42.779      50.907      58.215      64.037      67.796      69.096    
  67.796      64.037      45.344      38.810      31.882      25.108      18.960      13.790      9.7989      7.0201    
  5.3160      4.4029      3.9049      3.5452      3.2938      3.1387      3.0658      3.0658      3.1388      3.2938    
  3.5452      3.9049      4.4029      5.3159      7.0201      9.7989      13.790      18.960      25.108      31.882    
  38.810      45.344      50.907      54.967      57.111      57.111      54.967      50.907      33.830      28.308    
  22.722      17.509      13.014      9.4600      6.9212      5.3160      4.4230      3.9238      3.5585      3.2944    
  3.1219      3.0262      2.9958      3.0262      3.1219      3.2944      3.5585      3.9238      4.4230      5.3159    
  6.9212      9.4600      13.014      17.509      22.722      28.308      33.830      38.810      42.779      45.340    
  46.224      45.340      42.779      38.810      24.134      19.754      15.546      11.832      8.8311      6.6409    
  5.2209      4.4029      3.9238      3.5630      3.2950      3.1123      3.0016      2.9499      2.9499      3.0016    
  3.1123      3.2950      3.5630      3.9238      4.4029      5.2208      6.6409      8.8311      11.832      15.546    
  19.754      24.134      28.308      31.882      34.496      35.878      35.878      34.496      31.882      28.308    
  16.507      13.295      10.392      8.0010      6.2245      5.0482      4.3459      3.9049      3.5585      3.2950    
  3.1093      2.9898      2.9242      2.9034      2.9242      2.9898      3.1093      3.2950      3.5585      3.9049    
  4.3459      5.0482      6.2245      8.0009      10.392      13.295      16.507      19.754      22.722      25.108    
  26.654      27.189      26.654      25.108      22.722      19.754      10.993      8.8652      7.0818      5.7364    
  4.8279      4.2610      3.8677      3.5452      3.2944      3.1123      2.9898      2.9159      2.8815      2.8815    
  2.9159      2.9898      3.1123      3.2944      3.5452      3.8677      4.2610      4.8279      5.7364      7.0818    
  8.8652      10.993      13.295      15.546      17.509      18.960      19.731      19.732      18.960      17.509    
  15.546      13.295      7.4196      6.1880      5.2456      4.5936      4.1575      3.8140      3.5240      3.2938    
  3.1219      3.0016      2.9242      2.8815      2.8680      2.8815      2.9242      3.0016      3.1219      3.2938    
  3.5240      3.8140      4.1575      4.5936      5.2456      6.1880      7.4195      8.8652      10.392      11.832    
  13.014      13.790      14.060      13.790      13.014      11.832      10.392      8.8652      5.4129      4.8083    
  4.3709      4.0391      3.7468      3.4966      3.2940      3.1387      3.0262      2.9499      2.9034      2.8815    
  2.8815      2.9034      2.9499      3.0262      3.1387      3.2940      3.4966      3.7469      4.0391      4.3709    
  4.8083      5.4129      6.1880      7.0818      8.0009      8.8311      9.4600      9.7989      9.7989      9.4600    
  8.8311      8.0010      7.0818      6.1880      4.4525      4.1664      3.9075      3.6708      3.4657      3.2970    
  3.1646      3.0658      2.9958      2.9499      2.9242      2.9159      2.9242      2.9499      2.9958      3.0658    
  3.1646      3.2970      3.4658      3.6708      3.9076      4.1664      4.4525      4.8083      5.2456      5.7364    
  6.2245      6.6409      6.9212      7.0201      6.9212      6.6409      6.2245      5.7364      5.2456      4.8083    
  3.9658      3.7709      3.5916      3.4352      3.3052      3.2019      3.1232      3.0658      3.0262      3.0016    
  2.9898      2.9898      3.0016      3.0262      3.0658      3.1232      3.2019      3.3052      3.4352      3.5916    
  3.7709      3.9659      4.1664      4.3709      4.5936      4.8279      5.0482      5.2208      5.3159      5.3159    
  5.2208      5.0482      4.8279      4.5936      4.3709      4.1664      3.6376      3.5154      3.4093      3.3220    
  3.2534      3.2019      3.1646      3.1388      3.1219      3.1123      3.1093      3.1123      3.1219      3.1387    
  3.1646      3.2019      3.2534      3.3219      3.4093      3.5154      3.6377      3.7709      3.9076      4.0391    
  4.1575      4.2610      4.3459      4.4029      4.4230      4.4029      4.3459      4.2610      4.1575      4.0391    
  3.9075      3.7709      3.4475      3.3918      3.3501      3.3220      3.3052      3.2970      3.2940      3.2938    
  3.2944      3.2950      3.2950      3.2944      3.2938      3.2940      3.2970      3.3052      3.3219      3.3501    
  3.3918      3.4475      3.5154      3.5916      3.6708      3.7469      3.8140      3.8677      3.9049      3.9238    
  3.9238      3.9049      3.8677      3.8140      3.7468      3.6708      3.5916      3.5154      3.3857      3.3918    
  3.4093      3.4352      3.4657      3.4966      3.5240      3.5452      3.5585      3.5630      3.5585      3.5452    
  3.5240      3.4966      3.4658      3.4352      3.4093      3.3918      3.3857      3.3918      3.4093      3.4352    
  3.4658      3.4966      3.5240      3.5452      3.5585      3.5630      3.5585      3.5452      3.5240      3.4966    
  3.4657      3.4352      3.4093      3.3918      3.4475      3.5154      3.5916      3.6708      3.7468      3.8140    
  3.8677      3.9049      3.9238      3.9238      3.9049      3.8677      3.8140      3.7469      3.6708      3.5916    
  3.5154      3.4475      3.3918      3.3501      3.3219      3.3052      3.2970      3.2940      3.2938      3.2944    
  3.2950      3.2950      3.2944      3.2938      3.2940      3.2970      3.3052      3.3220      3.3501      3.3918    
  3.6376      3.7709      3.9075      4.0391      4.1575      4.2610      4.3459      4.4029      4.4230      4.4029    
  4.3459      4.2610      4.1575      4.0391      3.9076      3.7709      3.6377      3.5154      3.4093      3.3219    
  3.2534      3.2019      3.1646      3.1387      3.1219      3.1123      3.1093      3.1123      3.1219      3.1388    
  3.1646      3.2019      3.2534      3.3220      3.4093      3.5154      3.9658      4.1664      4.3709      4.5936    
  4.8279      5.0482      5.2208      5.3159      5.3159      5.2208      5.0482      4.8279      4.5936      4.3709    
  4.1664      3.9659      3.7709      3.5916      3.4352      3.3052      3.2019      3.1232      3.0658      3.0262    
  3.0016      2.9898      2.9898      3.0016      3.0262      3.0658      3.1232      3.2019      3.3052      3.4352    
  3.5916      3.7709      4.4525      4.8083      5.2456      5.7364      6.2245      6.6409      6.9212      7.0201    
  6.9212      6.6409      6.2245      5.7364      5.2456      4.8083      4.4525      4.1664      3.9076      3.6708    
  3.4658      3.2970      3.1646      3.0658      2.9958      2.9499      2.9242      2.9159      2.9242      2.9499    
  2.9958      3.0658      3.1646      3.2970      3.4657      3.6708      3.9075      4.1664      5.4129      6.1880    
  7.0818      8.0010      8.8311      9.4600      9.7989      9.7989      9.4600      8.8311      8.0009      7.0818    
  6.1880      5.4129      4.8083      4.3709      4.0391      3.7469      3.4966      3.2940      3.1387      3.0262    
  2.9499      2.9034      2.8815      2.8815      2.9034      2.9499      3.0262      3.1387      3.2940      3.4966    
  3.7468      4.0391      4.3709      4.8083      7.4196      8.8652      10.392      11.832      13.014      13.790    
  14.060      13.790      13.014      11.832      10.392      8.8652      7.4195      6.1880      5.2456      4.5936    
  4.1575      3.8140      3.5240      3.2938      3.1219      3.0016      2.9242      2.8815      2.8680      2.8815    
  2.9242      3.0016      3.1219      3.2938      3.5240      3.8140      4.1575      4.5936      5.2456      6.1880    
  10.993      13.295      15.546      17.509      18.960      19.732      19.731      18.960      17.509      15.546    
  13.295      10.993      8.8652      7.0818      5.7364      4.8279      4.2610      3.8677      3.5452      3.2944    
  3.1123      2.9898      2.9159      2.8815      2.8815      2.9159      2.9898      3.1123      3.2944      3.5452    
  3.8677      4.2610      4.8279      5.7364      7.0818      8.8652      16.507      19.754      22.722      25.108    
  26.654      27.189      26.654      25.108      22.722      19.754      16.507      13.295      10.392      8.0009    
  6.2245      5.0482      4.3459      3.9049      3.5585      3.2950      3.1093      2.9898      2.9242      2.9034    
  2.9242      2.9898      3.1093      3.2950      3.5585      3.9049      4.3459      5.0482      6.2245      8.0010    
  10.392      13.295      24.134      28.308      31.882      34.496      35.878      35.878      34.496      31.882    
  28.308      24.134      19.754      15.546      11.832      8.8311      6.6409      5.2208      4.4029      3.9238    
  3.5630      3.2950      3.1123      3.0016      2.9499      2.9499      3.0016      3.1123      3.2950      3.5630    
  3.9238      4.4029      5.2209      6.6409      8.8311      11.832      15.546      19.754      33.830      38.810    
  42.779      45.340      46.224      45.340      42.779      38.810      33.830      28.308      22.722      17.509    
  13.014      9.4600      6.9212      5.3159      4.4230      3.9238      3.5585      3.2944      3.1219      3.0262    
  2.9958      3.0262      3.1219      3.2944      3.5585      3.9238      4.4230      5.3160      6.9212      9.4600    
  13.014      17.509      22.722      28.308      45.344      50.907      54.967      57.111      57.111      54.967    
  50.907      45.344      38.810      31.882      25.108      18.960      13.790      9.7989      7.0201      5.3159    
  4.4029      3.9049      3.5452      3.2938      3.1388      3.0658      3.0658      3.1387      3.2938      3.5452    
  3.9049      4.4029      5.3160      7.0201      9.7989      13.790      18.960      25.108      31.882      38.810    
  58.215      64.037      67.796      69.096      67.796      64.037      58.215      50.907      42.779      34.496    
  26.654      19.731      14.060      9.7989      6.9212      5.2208      4.3459      3.8677      3.5240      3.2940    
  3.1646      3.1232      3.1646      3.2940      3.5240      3.8677      4.3459      5.2209      6.9212      9.7989    
  14.060      19.731      26.654      34.496      42.779      50.907      71.771      77.428      80.420      80.420    
  77.428      71.771      64.037      54.967      45.340      35.878      27.189      19.732      13.790      9.4600    
  6.6409      5.0482      4.2610      3.8140      3.4966      3.2970      3.2019      3.2019      3.2970      3.4966    
  3.8140      4.2610      5.0482      6.6409      9.4600      13.790      19.731      27.189      35.878      45.340    
  54.967      64.037      85.127      90.111      91.838      90.111      85.127      77.428      67.796      57.111    
  46.224      35.878      26.654      18.960      13.014      8.8311      6.2245      4.8279      4.1575      3.7468    
  3.4657      3.3052      3.2534      3.3052      3.4657      3.7468      4.1575      4.8279      6.2245      8.8311    
  13.014      18.960      26.654      35.878      46.224      57.111      67.796      77.428      97.224      100.99    
  100.99      97.224      90.111      80.420      69.096      57.111      45.340      34.496      25.108      17.509    
  11.832      8.0010      5.7364      4.5936      4.0391      3.6708      3.4352      3.3220      3.3220      3.4352    
  3.6708      4.0391      4.5936      5.7364      8.0010      11.832      17.509      25.108      34.496      45.340    
  57.111      69.096      80.420      90.111      106.94      109.00      106.94      100.99      91.838      80.420    
  67.796      54.967      42.779      31.882      22.722      15.546      10.392      7.0818      5.2456      4.3709    
  3.9075      3.5916      3.4093      3.3501      3.4093      3.5916      3.9075      4.3709      5.2456      7.0818    
  10.392      15.546      22.722      31.882      42.779      54.967      67.796      80.420      91.838      100.99    
  113.25      113.25      109.00      100.99      90.111      77.428      64.037      50.907      38.810      28.308    
  19.754      13.295      8.8652      6.1880      4.8083      4.1664      3.7709      3.5154      3.3918      3.3918    
  3.5154      3.7709      4.1664      4.8083      6.1880      8.8652      13.295      19.754      28.308      38.810    
  50.907      64.037      77.428      90.111      100.99      109.00      113.25      109.00      100.99      90.111    
  77.428      64.037      50.907      38.810      28.308      19.754      13.295      8.8652      6.1880      4.8083    
  4.1664      3.7709      3.5154      3.3918      3.3918      3.5154      3.7709      4.1664      4.8083      6.1880    
  8.8652      13.295      19.754      28.308      38.810      50.907      64.037      77.428      90.111      100.99    
  109.00      113.25      109.00      102.95      93.622      81.997      69.144      56.082      43.668      32.562    
  23.217      15.884      10.603      7.2018      5.3071      4.4034      3.9319      3.6115      3.4263      3.3662    
  3.4263      3.6115      3.9319      4.4034      5.3071      7.2018      10.603      15.884      23.217      32.562    
  43.668      56.082      69.144      81.997      93.622      102.95      109.00      111.10      100.99      93.622    
  83.579      71.845      59.425      47.221      35.966      26.203      18.278      12.333      8.2978      5.8943    
  4.6735      4.0911      3.7128      3.4700      3.3531      3.3531      3.4700      3.7127      4.0911      4.6735    
  5.8943      8.2978      12.333      18.278      26.203      35.966      47.221      59.425      71.845      83.579    
  93.622      100.99      104.90      104.90      90.111      81.997      71.845      60.582      49.098      38.168    
  28.398      20.217      13.859      9.3509      6.5120      4.9737      4.2404      3.8125      3.5189      3.3507    
  3.2964      3.3507      3.5189      3.8124      4.2404      4.9737      6.5120      9.3509      13.859      20.217    
  28.398      38.168      49.098      60.582      71.845      81.997      90.111      95.365      97.186      95.365    
  77.428      69.144      59.425      49.098      38.929      29.561      21.481      14.997      10.227      7.0804    
  5.2756      4.3815      3.9036      3.5681      3.3561      3.2548      3.2548      3.3561      3.5681      3.9036    
  4.3815      5.2756      7.0804      10.227      14.997      21.481      29.561      38.929      49.098      59.425    
  69.144      77.428      83.487      86.691      86.691      83.487      64.037      56.082      47.221      38.168    
  29.561      21.919      15.605      10.807      7.5167      5.5369      4.5088      3.9802      3.6130      3.3656    
  3.2258      3.1809      3.2258      3.3656      3.6130      3.9802      4.5088      5.5369      7.5167      10.807    
  15.605      21.919      29.561      38.168      47.221      56.082      64.037      70.371      74.458      75.871    
  74.458      70.371      50.907      43.668      35.966      28.398      21.481      15.605      11.009      7.7537    
  5.7147      4.6075      4.0376      3.6497      3.3761      3.2065      3.1264      3.1264      3.2065      3.3761    
  3.6497      4.0376      4.6075      5.7147      7.7537      11.009      15.605      21.481      28.398      35.966    
  43.668      50.907      57.058      61.542      63.907      63.907      61.542      57.058      38.810      32.562    
  26.203      20.217      14.997      10.807      7.7537      5.7777      4.6618      4.0731      3.6754      3.3851    
  3.1942      3.0879      3.0540      3.0879      3.1942      3.3851      3.6754      4.0731      4.6618      5.7777    
  7.7537      10.807      14.997      20.217      26.203      32.562      38.810      44.421      48.880      51.753    
  52.745      51.753      48.880      44.421      28.308      23.217      18.278      13.859      10.227      7.5167    
  5.7147      4.6618      4.0852      3.6885      3.3910      3.1869      3.0626      3.0045      3.0045      3.0626    
  3.1869      3.3910      3.6885      4.0852      4.6618      5.7147      7.5167      10.227      13.859      18.278    
  23.217      28.308      33.124      37.226      40.217      41.795      41.795      40.217      37.226      33.124    
  19.754      15.884      12.333      9.3509      7.0804      5.5369      4.6075      4.0731      3.6885      3.3931    
  3.1836      3.0483      2.9739      2.9504      2.9739      3.0483      3.1836      3.3931      3.6885      4.0731    
  4.6075      5.5369      7.0804      9.3509      12.333      15.884      19.754      23.619      27.124      29.924    
  31.732      32.357      31.732      29.924      27.124      23.619      13.295      10.603      8.2978      6.5120    
  5.2756      4.5088      4.0376      3.6754      3.3910      3.1836      3.0437      2.9594      2.9202      2.9202    
  2.9594      3.0437      3.1836      3.3910      3.6754      4.0376      4.5088      5.2756      6.5120      8.2977    
  10.603      13.295      16.155      18.918      21.302      23.054      23.982      23.982      23.054      21.302    
  18.918      16.155      8.8652      7.2018      5.8943      4.9737      4.3815      3.9802      3.6497      3.3851    
  3.1869      3.0483      2.9594      2.9106      2.8951      2.9106      2.9594      3.0483      3.1869      3.3851    
  3.6497      3.9802      4.3815      4.9737      5.8943      7.2017      8.8652      10.771      12.746      14.582    
  16.073      17.046      17.383      17.046      16.073      14.582      12.746      10.772      6.1880      5.3071    
  4.6735      4.2404      3.9036      3.6130      3.3761      3.1942      3.0626      2.9739      2.9202      2.8951    
  2.8951      2.9202      2.9739      3.0626      3.1942      3.3761      3.6130      3.9036      4.2404      4.6735    
  5.3071      6.1880      7.2930      8.5365      9.7892      10.903      11.738      12.184      12.184      11.738    
  10.903      9.7892      8.5365      7.2930      4.8083      4.4034      4.0911      3.8125      3.5681      3.3656    
  3.2065      3.0879      3.0045      2.9504      2.9202      2.9106      2.9202      2.9504      3.0045      3.0879    
  3.2065      3.3656      3.5681      3.8125      4.0911      4.4034      4.8083      5.3477      6.0110      6.7422    
  7.4553      8.0543      8.4533      8.5933      8.4533      8.0543      7.4553      6.7422      6.0111      5.3477    
  4.1664      3.9319      3.7128      3.5189      3.3561      3.2258      3.1264      3.0540      3.0045      2.9739    
  2.9594      2.9594      2.9739      3.0045      3.0540      3.1263      3.2258      3.3561      3.5189      3.7128    
  3.9319      4.1664      4.4185      4.7192      5.0719      5.4482      5.7995      6.0722      6.2212      6.2212    
  6.0722      5.7995      5.4482      5.0719      4.7192      4.4185      3.7709      3.6115      3.4700      3.3507    
  3.2548      3.1809      3.1264      3.0879      3.0626      3.0483      3.0437      3.0483      3.0626      3.0879    
  3.1263      3.1809      3.2548      3.3507      3.4700      3.6115      3.7709      3.9408      4.1117      4.2777    
  4.4465      4.6122      4.7556      4.8537      4.8886      4.8536      4.7556      4.6122      4.4464      4.2776    
  4.1116      3.9408      3.5154      3.4263      3.3531      3.2964      3.2548      3.2258      3.2065      3.1942    
  3.1869      3.1836      3.1836      3.1869      3.1942      3.2065      3.2258      3.2548      3.2963      3.3531    
  3.4263      3.5154      3.6173      3.7266      3.8363      3.9390      4.0279      4.0987      4.1496      4.1766    
  4.1766      4.1496      4.0987      4.0279      3.9390      3.8363      3.7265      3.6172      3.3918      3.3662    
  3.3531      3.3507      3.3561      3.3656      3.3761      3.3851      3.3910      3.3931      3.3910      3.3851    
  3.3761      3.3656      3.3561      3.3507      3.3531      3.3662      3.3918      3.4300      3.4786      3.5336    
  3.5902      3.6432      3.6882      3.7221      3.7430      3.7500      3.7430      3.7221      3.6882      3.6432    
  3.5902      3.5336      3.4786      3.4300      3.3918      3.4263      3.4700      3.5189      3.5681      3.6130    
  3.6497      3.6754      3.6885      3.6885      3.6754      3.6497      3.6130      3.5681      3.5189      3.4700    
  3.4263      3.3918      3.3692      3.3589      3.3596      3.3684      3.3817      3.3962      3.4089      3.4182    
  3.4230      3.4230      3.4182      3.4089      3.3961      3.3817      3.3684      3.3596      3.3589      3.3692    
  3.5154      3.6115      3.7127      3.8124      3.9036      3.9802      4.0376      4.0731      4.0852      4.0731    
  4.0376      3.9802      3.9036      3.8125      3.7128      3.6115      3.5154      3.4300      3.3589      3.3032    
  3.2620      3.2332      3.2138      3.2012      3.1934      3.1891      3.1877      3.1891      3.1934      3.2012    
  3.2138      3.2332      3.2621      3.3032      3.3589      3.4300      3.7709      3.9319      4.0911      4.2404    
  4.3815      4.5088      4.6075      4.6618      4.6618      4.6075      4.5088      4.3815      4.2404      4.0911    
  3.9319      3.7709      3.6173      3.4786      3.3596      3.2620      3.1854      3.1273      3.0850      3.0557    
  3.0373      3.0284      3.0284      3.0373      3.0557      3.0850      3.1273      3.1854      3.2621      3.3596    
  3.4786      3.6172      4.1664      4.4034      4.6735      4.9737      5.2756      5.5369      5.7147      5.7777    
  5.7147      5.5369      5.2756      4.9737      4.6735      4.4034      4.1664      3.9408      3.7266      3.5336    
  3.3684      3.2332      3.1273      3.0478      2.9911      2.9535      2.9321      2.9252      2.9321      2.9535    
  2.9911      3.0479      3.1273      3.2332      3.3684      3.5336      3.7265      3.9408      4.8083      5.3071    
  5.8943      6.5120      7.0804      7.5167      7.7537      7.7537      7.5167      7.0804      6.5120      5.8943    
  5.3071      4.8083      4.4185      4.1117      3.8363      3.5902      3.3817      3.2138      3.0850      2.9911    
  2.9269      2.8872      2.8685      2.8685      2.8872      2.9269      2.9911      3.0850      3.2138      3.3817    
  3.5902      3.8363      4.1116      4.4185      6.1880      7.2018      8.2978      9.3509      10.227      10.807    
  11.009      10.807      10.227      9.3509      8.2977      7.2017      6.1880      5.3477      4.7192      4.2777    
  3.9390      3.6432      3.3962      3.2012      3.0557      2.9535      2.8872      2.8505      2.8388      2.8505    
  2.8872      2.9535      3.0557      3.2012      3.3961      3.6432      3.9390      4.2776      4.7192      5.3477    
  8.8652      10.603      12.333      13.859      14.997      15.605      15.605      14.997      13.859      12.333    
  10.603      8.8652      7.2930      6.0110      5.0719      4.4465      4.0279      3.6882      3.4089      3.1934    
  3.0373      2.9321      2.8685      2.8388      2.8388      2.8685      2.9321      3.0373      3.1934      3.4089    
  3.6882      4.0279      4.4464      5.0719      6.0111      7.2930      13.295      15.884      18.278      20.217    
  21.481      21.919      21.481      20.217      18.278      15.884      13.295      10.771      8.5365      6.7422    
  5.4482      4.6122      4.0987      3.7221      3.4182      3.1891      3.0284      2.9252      2.8685      2.8505    
  2.8685      2.9252      3.0284      3.1891      3.4182      3.7221      4.0987      4.6122      5.4482      6.7422    
  8.5365      10.772      19.754      23.217      26.203      28.398      29.561      29.561      28.398      26.203    
  23.217      19.754      16.155      12.746      9.7892      7.4553      5.7995      4.7556      4.1496      3.7430    
  3.4230      3.1877      3.0284      2.9321      2.8872      2.8872      2.9321      3.0284      3.1877      3.4230    
  3.7430      4.1496      4.7556      5.7995      7.4553      9.7892      12.746      16.155      28.308      32.562    
  35.966      38.168      38.929      38.168      35.966      32.562      28.308      23.619      18.918      14.582    
  10.903      8.0543      6.0722      4.8537      4.1766      3.7500      3.4230      3.1891      3.0373      2.9535    
  2.9269      2.9535      3.0373      3.1891      3.4230      3.7500      4.1767      4.8537      6.0722      8.0543    
  10.903      14.582      18.918      23.619      38.810      43.668      47.221      49.098      49.098      47.221    
  43.668      38.810      33.124      27.124      21.302      16.073      11.738      8.4533      6.2212      4.8886    
  4.1766      3.7430      3.4182      3.1934      3.0557      2.9911      2.9911      3.0557      3.1934      3.4182    
  3.7430      4.1767      4.8886      6.2212      8.4533      11.738      16.073      21.302      27.124      33.124    
  50.907      56.082      59.425      60.582      59.425      56.082      50.907      44.421      37.226      29.924    
  23.054      17.046      12.184      8.5933      6.2212      4.8536      4.1496      3.7221      3.4089      3.2012    
  3.0850      3.0479      3.0850      3.2012      3.4089      3.7221      4.1496      4.8537      6.2212      8.5933    
  12.184      17.046      23.054      29.924      37.226      44.421      64.037      69.144      71.845      71.845    
  69.144      64.037      57.058      48.880      40.217      31.732      23.982      17.383      12.184      8.4533    
  6.0722      4.7556      4.0987      3.6882      3.3961      3.2138      3.1273      3.1273      3.2138      3.3961    
  3.6882      4.0987      4.7556      6.0722      8.4533      12.184      17.383      23.982      31.732      40.217    
  48.880      57.058      77.428      81.997      83.579      81.997      77.428      70.371      61.542      51.753    
  41.795      32.357      23.982      17.046      11.738      8.0543      5.7995      4.6122      4.0279      3.6432    
  3.3817      3.2332      3.1854      3.2332      3.3817      3.6432      4.0279      4.6122      5.7995      8.0543    
  11.738      17.046      23.982      32.357      41.795      51.753      61.542      70.371      90.111      93.622    