Co-fcc                                  
   1.00000000000000     
     0.000000    1.824438    1.824438
     1.824438    0.000000    1.824438
     1.824438    1.824438    0.000000
   Co
     1
Direct
  0.000000  0.000000  0.000000
 
   36   36   36
 0.11543811193E+03 0.11324799207E+03 0.10693709697E+03 0.97223553786E+02 0.85126782679E+02
 0.71771253663E+02 0.58215197772E+02 0.45344019850E+02 0.33830399212E+02 0.24133918490E+02
 0.16507363496E+02 0.10993424442E+02 0.74195634791E+01 0.54128717555E+01 0.44524881290E+01
 0.39658323993E+01 0.36376458060E+01 0.34475005656E+01 0.33856978837E+01 0.34475005656E+01
 0.36376458060E+01 0.39658323993E+01 0.44524881290E+01 0.54128717555E+01 0.74195634791E+01
 0.10993424442E+02 0.16507363496E+02 0.24133918490E+02 0.33830399212E+02 0.45344019850E+02
 0.58215197772E+02 0.71771253663E+02 0.85126782679E+02 0.97223553786E+02 0.10693709697E+03
 0.11324799207E+03 0.11324799207E+03 0.10899853563E+03 0.10099397795E+03 0.90111118901E+02
 0.77428050840E+02 0.64037363837E+02 0.50907142227E+02 0.38810325929E+02 0.28307899369E+02
 0.19753633097E+02 0.13294772641E+02 0.88652253498E+01 0.61879979194E+01 0.48083001011E+01
 0.41663800916E+01 0.37708573305E+01 0.35153715578E+01 0.33918482644E+01 0.33918476893E+01
 0.35153698353E+01 0.37708545475E+01 0.41663765873E+01 0.48082965789E+01 0.61879953506E+01
 0.88652246274E+01 0.13294774089E+02 0.19753636058E+02 0.28307902124E+02 0.38810326079E+02
 0.50907137498E+02 0.64037353010E+02 0.77428034488E+02 0.90111099546E+02 0.10099395952E+03
 0.10899852238E+03 0.11324798725E+03 0.10693709697E+03 0.10099397795E+03 0.91837624219E+02
 0.80419883257E+02 0.67796126074E+02 0.54967214414E+02 0.42779073033E+02 0.31881523992E+02
 0.22722135746E+02 0.15546474085E+02 0.10391667422E+02 0.70818174584E+01 0.52455614937E+01
 0.43709092148E+01 0.39075329647E+01 0.35916158514E+01 0.34092907738E+01 0.33501393819E+01
 0.34092889036E+01 0.35916120977E+01 0.39075275953E+01 0.43709031337E+01 0.52455563244E+01
 0.70818151332E+01 0.10391669326E+02 0.15546480088E+02 0.22722143627E+02 0.31881529676E+02
 0.42779071737E+02 0.54967202415E+02 0.67796102422E+02 0.80419850732E+02 0.91837589016E+02
 0.10099394807E+03 0.10693707982E+03 0.10899852238E+03 0.97223553786E+02 0.90111118901E+02
 0.80419883257E+02 0.69096028648E+02 0.57110708182E+02 0.45339542401E+02 0.34496110758E+02
 0.25107738566E+02 0.17508588894E+02 0.11831814500E+02 0.80009769331E+01 0.57363938481E+01
 0.45936095703E+01 0.40390676251E+01 0.36708042506E+01 0.34352355488E+01 0.33219676135E+01
 0.33219667624E+01 0.34352328312E+01 0.36707994533E+01 0.40390611336E+01 0.45936028925E+01
 0.57363895321E+01 0.80009776793E+01 0.11831821738E+02 0.17508601471E+02 0.25107752292E+02
 0.34496119265E+02 0.45339539218E+02 0.57110689338E+02 0.69095994762E+02 0.80419840161E+02
 0.90111076350E+02 0.97223522592E+02 0.10099394807E+03 0.10099395952E+03 0.85126782679E+02
 0.77428050840E+02 0.67796126074E+02 0.57110708182E+02 0.46224493185E+02 0.35877698917E+02
 0.26653819315E+02 0.18959985280E+02 0.13013807183E+02 0.88311386565E+01 0.62244733685E+01
 0.48279070824E+01 0.41574796421E+01 0.37468442700E+01 0.34657482718E+01 0.33052480105E+01
 0.32534453613E+01 0.33052474033E+01 0.34657462338E+01 0.37468399736E+01 0.41574733712E+01
 0.48279008839E+01 0.62244706656E+01 0.88311427872E+01 0.13013819444E+02 0.18960003447E+02
 0.26653837527E+02 0.35877709275E+02 0.46224488645E+02 0.57110685622E+02 0.67796088257E+02
 0.77428006254E+02 0.85126743144E+02 0.90111076350E+02 0.91837589016E+02 0.90111099546E+02
 0.71771253663E+02 0.64037363837E+02 0.54967214414E+02 0.45339542401E+02 0.35877698917E+02
 0.27189217986E+02 0.19731484272E+02 0.13789776942E+02 0.94600217821E+01 0.66409131814E+01
 0.50481608768E+01 0.42609973677E+01 0.38140049449E+01 0.34965913615E+01 0.32969741019E+01
 0.32019201385E+01 0.32019208626E+01 0.32969753768E+01 0.34965911177E+01 0.38140014607E+01
 0.42609908002E+01 0.50481538641E+01 0.66409100073E+01 0.94600263501E+01 0.13789790462E+02
 0.19731503857E+02 0.27189237001E+02 0.35877709197E+02 0.45339537547E+02 0.54967192782E+02
 0.64037329883E+02 0.71771216887E+02 0.77428006254E+02 0.80419840161E+02 0.80419850732E+02
 0.77428034488E+02 0.58215197772E+02 0.50907142227E+02 0.42779073033E+02 0.34496110758E+02
 0.26653819315E+02 0.19731484272E+02 0.14060132657E+02 0.97988700635E+01 0.69212336520E+01
 0.52208543908E+01 0.43459438725E+01 0.38677128028E+01 0.35240064757E+01 0.32940228898E+01
 0.31646400661E+01 0.31231833116E+01 0.31646429194E+01 0.32940262891E+01 0.35240071501E+01
 0.38677085036E+01 0.43459349419E+01 0.52208440385E+01 0.69212266756E+01 0.97988705578E+01
 0.14060141774E+02 0.19731499184E+02 0.26653833977E+02 0.34496118288E+02 0.42779068721E+02
 0.50907125819E+02 0.58215173976E+02 0.64037329883E+02 0.67796088257E+02 0.69095994762E+02
 0.67796102422E+02 0.64037353010E+02 0.45344019850E+02 0.38810325929E+02 0.31881523992E+02
 0.25107738566E+02 0.18959985280E+02 0.13789776942E+02 0.97988700635E+01 0.70200986544E+01
 0.53159533689E+01 0.44028974207E+01 0.39048903986E+01 0.35452060455E+01 0.32937789929E+01
 0.31387487820E+01 0.30657677314E+01 0.30657695879E+01 0.31387530936E+01 0.32937826158E+01
 0.35452055324E+01 0.39048837768E+01 0.44028852983E+01 0.53159388299E+01 0.70200859509E+01
 0.97988627240E+01 0.13789776151E+02 0.18959989329E+02 0.25107743633E+02 0.31881525902E+02
 0.38810322116E+02 0.45344010586E+02 0.50907125819E+02 0.54967192782E+02 0.57110685622E+02
 0.57110689338E+02 0.54967202415E+02 0.50907137498E+02 0.33830399212E+02 0.28307899369E+02
 0.22722135746E+02 0.17508588894E+02 0.13013807183E+02 0.94600217821E+01 0.69212336520E+01
 0.53159533689E+01 0.44230483485E+01 0.39238314201E+01 0.35584762923E+01 0.32944356028E+01
 0.31218661425E+01 0.30262174732E+01 0.29957945043E+01 0.30262199479E+01 0.31218695662E+01
 0.32944375282E+01 0.35584743085E+01 0.39238240846E+01 0.44230357146E+01 0.53159369410E+01
 0.69212157964E+01 0.94600049012E+01 0.13013792965E+02 0.17508577946E+02 0.22722127710E+02
 0.28307893369E+02 0.33830394423E+02 0.38810322116E+02 0.42779068721E+02 0.45339537547E+02
 0.46224488645E+02 0.45339539218E+02 0.42779071737E+02 0.38810326079E+02 0.24133918490E+02
 0.19753633097E+02 0.15546474085E+02 0.11831814500E+02 0.88311386565E+01 0.66409131814E+01
 0.52208543908E+01 0.44028974207E+01 0.39238314201E+01 0.35629790723E+01 0.32949756004E+01
 0.31123439640E+01 0.30015825165E+01 0.29499367869E+01 0.29499371058E+01 0.30015834486E+01
 0.31123453212E+01 0.32949767904E+01 0.35629789034E+01 0.39238281800E+01 0.44028892789E+01
 0.52208400709E+01 0.66408925977E+01 0.88311132597E+01 0.11831787091E+02 0.15546448095E+02
 0.19753611612E+02 0.24133903323E+02 0.28307893369E+02 0.31881525902E+02 0.34496118288E+02
 0.35877709197E+02 0.35877709275E+02 0.34496119265E+02 0.31881529676E+02 0.28307902124E+02
 0.16507363496E+02 0.13294772641E+02 0.10391667422E+02 0.80009769331E+01 0.62244733685E+01
 0.50481608768E+01 0.43459438725E+01 0.39048903986E+01 0.35584762923E+01 0.32949756004E+01
 0.31092656781E+01 0.29897910159E+01 0.29241816622E+01 0.29034027106E+01 0.29241805278E+01
 0.29897900728E+01 0.31092667133E+01 0.32949795830E+01 0.35584823352E+01 0.39048955662E+01
 0.43459439873E+01 0.50481520797E+01 0.62244537307E+01 0.80009474222E+01 0.10391631791E+02
 0.13294736203E+02 0.16507331377E+02 0.19753611612E+02 0.22722127710E+02 0.25107743633E+02
 0.26653833977E+02 0.27189237001E+02 0.26653837527E+02 0.25107752292E+02 0.22722143627E+02
 0.19753636058E+02 0.10993424442E+02 0.88652253498E+01 0.70818174584E+01 0.57363938481E+01
 0.48279070824E+01 0.42609973677E+01 0.38677128028E+01 0.35452060455E+01 0.32944356028E+01
 0.31123439640E+01 0.29897910159E+01 0.29159002900E+01 0.28815219658E+01 0.28815207726E+01
 0.29158977985E+01 0.29897899311E+01 0.31123471400E+01 0.32944443950E+01 0.35452191925E+01
 0.38677264372E+01 0.42610061376E+01 0.48279059885E+01 0.57363800284E+01 0.70817911774E+01
 0.88651899092E+01 0.10993385037E+02 0.13294736203E+02 0.15546448095E+02 0.17508577946E+02
 0.18959989329E+02 0.19731499184E+02 0.19731503857E+02 0.18960003447E+02 0.17508601471E+02
 0.15546480088E+02 0.13294774089E+02 0.74195634791E+01 0.61879979194E+01 0.52455614937E+01
 0.45936095703E+01 0.41574796421E+01 0.38140049449E+01 0.35240064757E+01 0.32937789929E+01
 0.31218661425E+01 0.30015825165E+01 0.29241816622E+01 0.28815219658E+01 0.28679686750E+01
 0.28815196978E+01 0.29241789025E+01 0.30015820704E+01 0.31218706276E+01 0.32937896262E+01
 0.35240223067E+01 0.38140228351E+01 0.41574950111E+01 0.45936176119E+01 0.52455585595E+01
 0.61879825025E+01 0.74195366759E+01 0.88651899092E+01 0.10391631791E+02 0.11831787091E+02
 0.13013792965E+02 0.13789776151E+02 0.14060141774E+02 0.13789790462E+02 0.13013819444E+02
 0.11831821738E+02 0.10391669326E+02 0.88652246274E+01 0.54128717555E+01 0.48083001011E+01
 0.43709092148E+01 0.40390676251E+01 0.37468442700E+01 0.34965913615E+01 0.32940228898E+01
 0.31387487820E+01 0.30262174732E+01 0.29499367869E+01 0.29034027106E+01 0.28815207726E+01
 0.28815196978E+01 0.29033998721E+01 0.29499333103E+01 0.30262151068E+01 0.31387495819E+01
 0.32940286770E+01 0.34966030101E+01 0.37468610295E+01 0.40390868399E+01 0.43709265899E+01
 0.48083107167E+01 0.54128715296E+01 0.61879825025E+01 0.70817911774E+01 0.80009474222E+01
 0.88311132597E+01 0.94600049012E+01 0.97988627240E+01 0.97988705578E+01 0.94600263501E+01
 0.88311427872E+01 0.80009776793E+01 0.70818151332E+01 0.61879953506E+01 0.44524881290E+01
 0.41663800916E+01 0.39075329647E+01 0.36708042506E+01 0.34657482718E+01 0.32969741019E+01
 0.31646400661E+01 0.30657677314E+01 0.29957945043E+01 0.29499371058E+01 0.29241805278E+01
 0.29158977985E+01 0.29241789025E+01 0.29499333103E+01 0.29957881099E+01 0.30657593348E+01
 0.31646318338E+01 0.32969694695E+01 0.34657507782E+01 0.36708158840E+01 0.39075528627E+01
 0.41664042338E+01 0.44525103520E+01 0.48083107167E+01 0.52455585595E+01 0.57363800284E+01
 0.62244537307E+01 0.66408925977E+01 0.69212157964E+01 0.70200859509E+01 0.69212266756E+01
 0.66409100073E+01 0.62244706656E+01 0.57363895321E+01 0.52455563244E+01 0.48082965789E+01
 0.39658323993E+01 0.37708573305E+01 0.35916158514E+01 0.34352355488E+01 0.33052480105E+01
 0.32019201385E+01 0.31231833116E+01 0.30657695879E+01 0.30262199479E+01 0.30015834486E+01
 0.29897900728E+01 0.29897899311E+01 0.30015820704E+01 0.30262151068E+01 0.30657593348E+01
 0.31231676381E+01 0.32019018298E+01 0.33052321397E+01 0.34352277348E+01 0.35916199731E+01
 0.37708737496E+01 0.39658575694E+01 0.41664042338E+01 0.43709265899E+01 0.45936176119E+01
 0.48279059885E+01 0.50481520797E+01 0.52208400709E+01 0.53159369410E+01 0.53159388299E+01
 0.52208440385E+01 0.50481538641E+01 0.48279008839E+01 0.45936028925E+01 0.43709031337E+01
 0.41663765873E+01 0.36376458060E+01 0.35153715578E+01 0.34092907738E+01 0.33219676135E+01
 0.32534453613E+01 0.32019208626E+01 0.31646429194E+01 0.31387530936E+01 0.31218695662E+01
 0.31123453212E+01 0.31092667133E+01 0.31123471400E+01 0.31218706276E+01 0.31387495819E+01
 0.31646318338E+01 0.32019018298E+01 0.32534213658E+01 0.33219442434E+01 0.34092743223E+01
 0.35153667473E+01 0.36376540989E+01 0.37708737496E+01 0.39075528627E+01 0.40390868399E+01
 0.41574950111E+01 0.42610061376E+01 0.43459439873E+01 0.44028892789E+01 0.44230357146E+01
 0.44028852983E+01 0.43459349419E+01 0.42609908002E+01 0.41574733712E+01 0.40390611336E+01
 0.39075275953E+01 0.37708545475E+01 0.34475005656E+01 0.33918482644E+01 0.33501393819E+01
 0.33219667624E+01 0.33052474033E+01 0.32969753768E+01 0.32940262891E+01 0.32937826158E+01
 0.32944375282E+01 0.32949767904E+01 0.32949795830E+01 0.32944443950E+01 0.32937896262E+01
 0.32940286770E+01 0.32969694695E+01 0.33052321397E+01 0.33219442434E+01 0.33501142527E+01
 0.33918262202E+01 0.34474865828E+01 0.35153667473E+01 0.35916199731E+01 0.36708158840E+01
 0.37468610295E+01 0.38140228351E+01 0.38677264372E+01 0.39048955662E+01 0.39238281800E+01
 0.39238240846E+01 0.39048837768E+01 0.38677085036E+01 0.38140014607E+01 0.37468399736E+01
 0.36707994533E+01 0.35916120977E+01 0.35153698353E+01 0.33856978837E+01 0.33918476893E+01
 0.34092889036E+01 0.34352328312E+01 0.34657462338E+01 0.34965911177E+01 0.35240071501E+01
 0.35452055324E+01 0.35584743085E+01 0.35629789034E+01 0.35584823352E+01 0.35452191925E+01
 0.35240223067E+01 0.34966030101E+01 0.34657507782E+01 0.34352277348E+01 0.34092743223E+01
 0.33918262202E+01 0.33856739029E+01 0.33918262202E+01 0.34092743223E+01 0.34352277348E+01
 0.34657507782E+01 0.34966030101E+01 0.35240223067E+01 0.35452191925E+01 0.35584823352E+01
 0.35629789034E+01 0.35584743085E+01 0.35452055324E+01 0.35240071501E+01 0.34965911177E+01
 0.34657462338E+01 0.34352328312E+01 0.34092889036E+01 0.33918476893E+01 0.34475005656E+01
 0.35153698353E+01 0.35916120977E+01 0.36707994533E+01 0.37468399736E+01 0.38140014607E+01
 0.38677085036E+01 0.39048837768E+01 0.39238240846E+01 0.39238281800E+01 0.39048955662E+01
 0.38677264372E+01 0.38140228351E+01 0.37468610295E+01 0.36708158840E+01 0.35916199731E+01
 0.35153667473E+01 0.34474865828E+01 0.33918262202E+01 0.33501142527E+01 0.33219442434E+01
 0.33052321397E+01 0.32969694695E+01 0.32940286770E+01 0.32937896262E+01 0.32944443950E+01
 0.32949795830E+01 0.32949767904E+01 0.32944375282E+01 0.32937826158E+01 0.32940262891E+01
 0.32969753768E+01 0.33052474033E+01 0.33219667624E+01 0.33501393819E+01 0.33918482644E+01
 0.36376458060E+01 0.37708545475E+01 0.39075275953E+01 0.40390611336E+01 0.41574733712E+01
 0.42609908002E+01 0.43459349419E+01 0.44028852983E+01 0.44230357146E+01 0.44028892789E+01
 0.43459439873E+01 0.42610061376E+01 0.41574950111E+01 0.40390868399E+01 0.39075528627E+01
 0.37708737496E+01 0.36376540989E+01 0.35153667473E+01 0.34092743223E+01 0.33219442434E+01
 0.32534213658E+01 0.32019018298E+01 0.31646318338E+01 0.31387495819E+01 0.31218706276E+01
 0.31123471400E+01 0.31092667133E+01 0.31123453212E+01 0.31218695662E+01 0.31387530936E+01
 0.31646429194E+01 0.32019208626E+01 0.32534453613E+01 0.33219676135E+01 0.34092907738E+01
 0.35153715578E+01 0.39658323993E+01 0.41663765873E+01 0.43709031337E+01 0.45936028925E+01
 0.48279008839E+01 0.50481538641E+01 0.52208440385E+01 0.53159388299E+01 0.53159369410E+01
 0.52208400709E+01 0.50481520797E+01 0.48279059885E+01 0.45936176119E+01 0.43709265899E+01
 0.41664042338E+01 0.39658575694E+01 0.37708737496E+01 0.35916199731E+01 0.34352277348E+01
 0.33052321397E+01 0.32019018298E+01 0.31231676381E+01 0.30657593348E+01 0.30262151068E+01
 0.30015820704E+01 0.29897899311E+01 0.29897900728E+01 0.30015834486E+01 0.30262199479E+01
 0.30657695879E+01 0.31231833116E+01 0.32019201385E+01 0.33052480105E+01 0.34352355488E+01
 0.35916158514E+01 0.37708573305E+01 0.44524881290E+01 0.48082965789E+01 0.52455563244E+01
 0.57363895321E+01 0.62244706656E+01 0.66409100073E+01 0.69212266756E+01 0.70200859509E+01
 0.69212157964E+01 0.66408925977E+01 0.62244537307E+01 0.57363800284E+01 0.52455585595E+01
 0.48083107167E+01 0.44525103520E+01 0.41664042338E+01 0.39075528627E+01 0.36708158840E+01
 0.34657507782E+01 0.32969694695E+01 0.31646318338E+01 0.30657593348E+01 0.29957881099E+01
 0.29499333103E+01 0.29241789025E+01 0.29158977985E+01 0.29241805278E+01 0.29499371058E+01
 0.29957945043E+01 0.30657677314E+01 0.31646400661E+01 0.32969741019E+01 0.34657482718E+01
 0.36708042506E+01 0.39075329647E+01 0.41663800916E+01 0.54128717555E+01 0.61879953506E+01
 0.70818151332E+01 0.80009776793E+01 0.88311427872E+01 0.94600263501E+01 0.97988705578E+01
 0.97988627240E+01 0.94600049012E+01 0.88311132597E+01 0.80009474222E+01 0.70817911774E+01
 0.61879825025E+01 0.54128715296E+01 0.48083107167E+01 0.43709265899E+01 0.40390868399E+01
 0.37468610295E+01 0.34966030101E+01 0.32940286770E+01 0.31387495819E+01 0.30262151068E+01
 0.29499333103E+01 0.29033998721E+01 0.28815196978E+01 0.28815207726E+01 0.29034027106E+01
 0.29499367869E+01 0.30262174732E+01 0.31387487820E+01 0.32940228898E+01 0.34965913615E+01
 0.37468442700E+01 0.40390676251E+01 0.43709092148E+01 0.48083001011E+01 0.74195634791E+01
 0.88652246274E+01 0.10391669326E+02 0.11831821738E+02 0.13013819444E+02 0.13789790462E+02
 0.14060141774E+02 0.13789776151E+02 0.13013792965E+02 0.11831787091E+02 0.10391631791E+02
 0.88651899092E+01 0.74195366759E+01 0.61879825025E+01 0.52455585595E+01 0.45936176119E+01
 0.41574950111E+01 0.38140228351E+01 0.35240223067E+01 0.32937896262E+01 0.31218706276E+01
 0.30015820704E+01 0.29241789025E+01 0.28815196978E+01 0.28679686750E+01 0.28815219658E+01
 0.29241816622E+01 0.30015825165E+01 0.31218661425E+01 0.32937789929E+01 0.35240064757E+01
 0.38140049449E+01 0.41574796421E+01 0.45936095703E+01 0.52455614937E+01 0.61879979194E+01
 0.10993424442E+02 0.13294774089E+02 0.15546480088E+02 0.17508601471E+02 0.18960003447E+02
 0.19731503857E+02 0.19731499184E+02 0.18959989329E+02 0.17508577946E+02 0.15546448095E+02
 0.13294736203E+02 0.10993385037E+02 0.88651899092E+01 0.70817911774E+01 0.57363800284E+01
 0.48279059885E+01 0.42610061376E+01 0.38677264372E+01 0.35452191925E+01 0.32944443950E+01
 0.31123471400E+01 0.29897899311E+01 0.29158977985E+01 0.28815207726E+01 0.28815219658E+01
 0.29159002900E+01 0.29897910159E+01 0.31123439640E+01 0.32944356028E+01 0.35452060455E+01
 0.38677128028E+01 0.42609973677E+01 0.48279070824E+01 0.57363938481E+01 0.70818174584E+01
 0.88652253498E+01 0.16507363496E+02 0.19753636058E+02 0.22722143627E+02 0.25107752292E+02
 0.26653837527E+02 0.27189237001E+02 0.26653833977E+02 0.25107743633E+02 0.22722127710E+02
 0.19753611612E+02 0.16507331377E+02 0.13294736203E+02 0.10391631791E+02 0.80009474222E+01
 0.62244537307E+01 0.50481520797E+01 0.43459439873E+01 0.39048955662E+01 0.35584823352E+01
 0.32949795830E+01 0.31092667133E+01 0.29897900728E+01 0.29241805278E+01 0.29034027106E+01
 0.29241816622E+01 0.29897910159E+01 0.31092656781E+01 0.32949756004E+01 0.35584762923E+01
 0.39048903986E+01 0.43459438725E+01 0.50481608768E+01 0.62244733685E+01 0.80009769331E+01
 0.10391667422E+02 0.13294772641E+02 0.24133918490E+02 0.28307902124E+02 0.31881529676E+02
 0.34496119265E+02 0.35877709275E+02 0.35877709197E+02 0.34496118288E+02 0.31881525902E+02
 0.28307893369E+02 0.24133903323E+02 0.19753611612E+02 0.15546448095E+02 0.11831787091E+02
 0.88311132597E+01 0.66408925977E+01 0.52208400709E+01 0.44028892789E+01 0.39238281800E+01
 0.35629789034E+01 0.32949767904E+01 0.31123453212E+01 0.30015834486E+01 0.29499371058E+01
 0.29499367869E+01 0.30015825165E+01 0.31123439640E+01 0.32949756004E+01 0.35629790723E+01
 0.39238314201E+01 0.44028974207E+01 0.52208543908E+01 0.66409131814E+01 0.88311386565E+01
 0.11831814500E+02 0.15546474085E+02 0.19753633097E+02 0.33830399212E+02 0.38810326079E+02
 0.42779071737E+02 0.45339539218E+02 0.46224488645E+02 0.45339537547E+02 0.42779068721E+02
 0.38810322116E+02 0.33830394423E+02 0.28307893369E+02 0.22722127710E+02 0.17508577946E+02
 0.13013792965E+02 0.94600049012E+01 0.69212157964E+01 0.53159369410E+01 0.44230357146E+01
 0.39238240846E+01 0.35584743085E+01 0.32944375282E+01 0.31218695662E+01 0.30262199479E+01
 0.29957945043E+01 0.30262174732E+01 0.31218661425E+01 0.32944356028E+01 0.35584762923E+01
 0.39238314201E+01 0.44230483485E+01 0.53159533689E+01 0.69212336520E+01 0.94600217821E+01
 0.13013807183E+02 0.17508588894E+02 0.22722135746E+02 0.28307899369E+02 0.45344019850E+02
 0.50907137498E+02 0.54967202415E+02 0.57110689338E+02 0.57110685622E+02 0.54967192782E+02
 0.50907125819E+02 0.45344010586E+02 0.38810322116E+02 0.31881525902E+02 0.25107743633E+02
 0.18959989329E+02 0.13789776151E+02 0.97988627240E+01 0.70200859509E+01 0.53159388299E+01
 0.44028852983E+01 0.39048837768E+01 0.35452055324E+01 0.32937826158E+01 0.31387530936E+01
 0.30657695879E+01 0.30657677314E+01 0.31387487820E+01 0.32937789929E+01 0.35452060455E+01
 0.39048903986E+01 0.44028974207E+01 0.53159533689E+01 0.70200986544E+01 0.97988700635E+01
 0.13789776942E+02 0.18959985280E+02 0.25107738566E+02 0.31881523992E+02 0.38810325929E+02
 0.58215197772E+02 0.64037353010E+02 0.67796102422E+02 0.69095994762E+02 0.67796088257E+02
 0.64037329883E+02 0.58215173976E+02 0.50907125819E+02 0.42779068721E+02 0.34496118288E+02
 0.26653833977E+02 0.19731499184E+02 0.14060141774E+02 0.97988705578E+01 0.69212266756E+01
 0.52208440385E+01 0.43459349419E+01 0.38677085036E+01 0.35240071501E+01 0.32940262891E+01
 0.31646429194E+01 0.31231833116E+01 0.31646400661E+01 0.32940228898E+01 0.35240064757E+01
 0.38677128028E+01 0.43459438725E+01 0.52208543908E+01 0.69212336520E+01 0.97988700635E+01
 0.14060132657E+02 0.19731484272E+02 0.26653819315E+02 0.34496110758E+02 0.42779073033E+02
 0.50907142227E+02 0.71771253663E+02 0.77428034488E+02 0.80419850732E+02 0.80419840161E+02
 0.77428006254E+02 0.71771216887E+02 0.64037329883E+02 0.54967192782E+02 0.45339537547E+02
 0.35877709197E+02 0.27189237001E+02 0.19731503857E+02 0.13789790462E+02 0.94600263501E+01
 0.66409100073E+01 0.50481538641E+01 0.42609908002E+01 0.38140014607E+01 0.34965911177E+01
 0.32969753768E+01 0.32019208626E+01 0.32019201385E+01 0.32969741019E+01 0.34965913615E+01
 0.38140049449E+01 0.42609973677E+01 0.50481608768E+01 0.66409131814E+01 0.94600217821E+01
 0.13789776942E+02 0.19731484272E+02 0.27189217986E+02 0.35877698917E+02 0.45339542401E+02
 0.54967214414E+02 0.64037363837E+02 0.85126782679E+02 0.90111099546E+02 0.91837589016E+02
 0.90111076350E+02 0.85126743144E+02 0.77428006254E+02 0.67796088257E+02 0.57110685622E+02
 0.46224488645E+02 0.35877709275E+02 0.26653837527E+02 0.18960003447E+02 0.13013819444E+02
 0.88311427872E+01 0.62244706656E+01 0.48279008839E+01 0.41574733712E+01 0.37468399736E+01
 0.34657462338E+01 0.33052474033E+01 0.32534453613E+01 0.33052480105E+01 0.34657482718E+01
 0.37468442700E+01 0.41574796421E+01 0.48279070824E+01 0.62244733685E+01 0.88311386565E+01
 0.13013807183E+02 0.18959985280E+02 0.26653819315E+02 0.35877698917E+02 0.46224493185E+02
 0.57110708182E+02 0.67796126074E+02 0.77428050840E+02 0.97223553786E+02 0.10099395952E+03
 0.10099394807E+03 0.97223522592E+02 0.90111076350E+02 0.80419840161E+02 0.69095994762E+02
 0.57110689338E+02 0.45339539218E+02 0.34496119265E+02 0.25107752292E+02 0.17508601471E+02
 0.11831821738E+02 0.80009776793E+01 0.57363895321E+01 0.45936028925E+01 0.40390611336E+01
 0.36707994533E+01 0.34352328312E+01 0.33219667624E+01 0.33219676135E+01 0.34352355488E+01
 0.36708042506E+01 0.40390676251E+01 0.45936095703E+01 0.57363938481E+01 0.80009769331E+01
 0.11831814500E+02 0.17508588894E+02 0.25107738566E+02 0.34496110758E+02 0.45339542401E+02
 0.57110708182E+02 0.69096028648E+02 0.80419883257E+02 0.90111118901E+02 0.10693709697E+03
 0.10899852238E+03 0.10693707982E+03 0.10099394807E+03 0.91837589016E+02 0.80419850732E+02
 0.67796102422E+02 0.54967202415E+02 0.42779071737E+02 0.31881529676E+02 0.22722143627E+02
 0.15546480088E+02 0.10391669326E+02 0.70818151332E+01 0.52455563244E+01 0.43709031337E+01
 0.39075275953E+01 0.35916120977E+01 0.34092889036E+01 0.33501393819E+01 0.34092907738E+01
 0.35916158514E+01 0.39075329647E+01 0.43709092148E+01 0.52455614937E+01 0.70818174584E+01
 0.10391667422E+02 0.15546474085E+02 0.22722135746E+02 0.31881523992E+02 0.42779073033E+02
 0.54967214414E+02 0.67796126074E+02 0.80419883257E+02 0.91837624219E+02 0.10099397795E+03
 0.11324799207E+03 0.11324798725E+03 0.10899852238E+03 0.10099395952E+03 0.90111099546E+02
 0.77428034488E+02 0.64037353010E+02 0.50907137498E+02 0.38810326079E+02 0.28307902124E+02
 0.19753636058E+02 0.13294774089E+02 0.88652246274E+01 0.61879953506E+01 0.48082965789E+01
 0.41663765873E+01 0.37708545475E+01 0.35153698353E+01 0.33918476893E+01 0.33918482644E+01
 0.35153715578E+01 0.37708573305E+01 0.41663800916E+01 0.48083001011E+01 0.61879979194E+01
 0.88652253498E+01 0.13294772641E+02 0.19753633097E+02 0.28307899369E+02 0.38810325929E+02
 0.50907142227E+02 0.64037363837E+02 0.77428050840E+02 0.90111118901E+02 0.10099397795E+03
 0.10899853563E+03 0.11324799207E+03 0.10899853563E+03 0.10099397795E+03 0.90111118901E+02
 0.77428050840E+02 0.64037363837E+02 0.50907142227E+02 0.38810325929E+02 0.28307899369E+02
 0.19753633097E+02 0.13294772641E+02 0.88652253498E+01 0.61879979194E+01 0.48083001011E+01
 0.41663800916E+01 0.37708573305E+01 0.35153715578E+01 0.33918482644E+01 0.33918476893E+01
 0.35153698353E+01 0.37708545475E+01 0.41663765873E+01 0.48082965789E+01 0.61879953506E+01
 0.88652246274E+01 0.13294774089E+02 0.19753636058E+02 0.28307902124E+02 0.38810326079E+02
 0.50907137498E+02 0.64037353010E+02 0.77428034488E+02 0.90111099546E+02 0.10099395952E+03
 0.10899852238E+03 0.11324798725E+03 0.10899853563E+03 0.10294598476E+03 0.93622049443E+02
 0.81996693693E+02 0.69144213507E+02 0.56081929408E+02 0.43668282192E+02 0.32561948484E+02
 0.23216903817E+02 0.15883714856E+02 0.10603310623E+02 0.72017772053E+01 0.53070613499E+01
 0.44034101388E+01 0.39319216485E+01 0.36114634148E+01 0.34262922961E+01 0.33661825485E+01
 0.34262904767E+01 0.36114597605E+01 0.39319164013E+01 0.44034041210E+01 0.53070560348E+01
 0.72017743226E+01 0.10603311353E+02 0.15883718929E+02 0.23216909009E+02 0.32561950870E+02
 0.43668277278E+02 0.56081913825E+02 0.69144186630E+02 0.81996658543E+02 0.93622012319E+02
 0.10294595366E+03 0.10899851789E+03 0.11109805093E+03 0.10099397795E+03 0.93622049443E+02
 0.83579032685E+02 0.71845437668E+02 0.59425177233E+02 0.47220796848E+02 0.35966046461E+02
 0.26203160948E+02 0.18277965505E+02 0.12332917203E+02 0.82977772179E+01 0.58943021993E+01
 0.46734749020E+01 0.40911054478E+01 0.37127515349E+01 0.34699969387E+01 0.33530744345E+01
 0.33530736280E+01 0.34699943928E+01 0.37127471027E+01 0.40910994936E+01 0.46734687097E+01
 0.58942978516E+01 0.82977767884E+01 0.12332921520E+02 0.18277973066E+02 0.26203167629E+02
 0.35966046416E+02 0.47220784469E+02 0.59425149527E+02 0.71845396088E+02 0.83578983581E+02
 0.93622002743E+02 0.10099394438E+03 0.10490250267E+03 0.10490251489E+03 0.90111118901E+02
 0.81996693693E+02 0.71845437668E+02 0.60581717444E+02 0.49098284199E+02 0.38167627868E+02
 0.28398271793E+02 0.20217335554E+02 0.13858841858E+02 0.93509196886E+01 0.65120195931E+01
 0.49736921460E+01 0.42403869337E+01 0.38124506065E+01 0.35188896276E+01 0.33507224425E+01
 0.32963592023E+01 0.33507220102E+01 0.35188881509E+01 0.38124474916E+01 0.42403824468E+01
 0.49736878534E+01 0.65120179619E+01 0.93509228494E+01 0.13858850044E+02 0.20217346024E+02
 0.28398278962E+02 0.38167624891E+02 0.49098265567E+02 0.60581681646E+02 0.71845388719E+02
 0.81996640772E+02 0.90111073980E+02 0.95365335487E+02 0.97185541599E+02 0.95365361285E+02
 0.77428050840E+02 0.69144213507E+02 0.59425177233E+02 0.49098284199E+02 0.38929413291E+02
 0.29561284630E+02 0.21480517740E+02 0.14997111663E+02 0.10226744411E+02 0.70804002727E+01
 0.52756031456E+01 0.43814568515E+01 0.39036174508E+01 0.35681359382E+01 0.33560731419E+01
 0.32547955020E+01 0.32547963974E+01 0.33560751181E+01 0.35681373521E+01 0.39036168921E+01
 0.43814543007E+01 0.52756003707E+01 0.70804001022E+01 0.10226749102E+02 0.14997121144E+02
 0.21480528676E+02 0.29561290982E+02 0.38929408388E+02 0.49098263590E+02 0.59425141147E+02
 0.69144167756E+02 0.77428005605E+02 0.83486576958E+02 0.86691033796E+02 0.86691046002E+02
 0.83486610178E+02 0.64037363837E+02 0.56081929408E+02 0.47220796848E+02 0.38167627868E+02
 0.29561284630E+02 0.21919009399E+02 0.15605120418E+02 0.10806616668E+02 0.75167250855E+01
 0.55368757426E+01 0.45087886428E+01 0.39801844857E+01 0.36130219846E+01 0.33656142222E+01
 0.32258142025E+01 0.31809227434E+01 0.32258178378E+01 0.33656194965E+01 0.36130260107E+01
 0.39801851114E+01 0.45087857279E+01 0.55368713656E+01 0.75167224944E+01 0.10806618429E+02
 0.15605126676E+02 0.21919017187E+02 0.29561288698E+02 0.38167622828E+02 0.47220779739E+02
 0.56081901538E+02 0.64037330984E+02 0.70370500425E+02 0.74457846767E+02 0.75871238166E+02
 0.74457863984E+02 0.70370529674E+02 0.50907142227E+02 0.43668282192E+02 0.35966046461E+02
 0.28398271793E+02 0.21480517740E+02 0.15605120418E+02 0.11009490160E+02 0.77536773438E+01
 0.57146801108E+01 0.46075231415E+01 0.40376151461E+01 0.36496654703E+01 0.33761146807E+01
 0.32064773371E+01 0.31263548301E+01 0.31263572422E+01 0.32064833739E+01 0.33761213068E+01
 0.36496692460E+01 0.40376138386E+01 0.46075167567E+01 0.57146708466E+01 0.77536684917E+01
 0.11009484476E+02 0.15605118743E+02 0.21480518555E+02 0.28398271925E+02 0.35966042652E+02
 0.43668272796E+02 0.50907128226E+02 0.57057890521E+02 0.61541511772E+02 0.63907225057E+02
 0.63907229465E+02 0.61541523493E+02 0.57057905683E+02 0.38810325929E+02 0.32561948484E+02
 0.26203160948E+02 0.20217335554E+02 0.14997111663E+02 0.10806616668E+02 0.77536773438E+01
 0.57777498696E+01 0.46618235105E+01 0.40731129832E+01 0.36753614854E+01 0.33851066027E+01
 0.31941571975E+01 0.30878877511E+01 0.30540191295E+01 0.30878912640E+01 0.31941625573E+01
 0.33851110973E+01 0.36753623546E+01 0.40731084104E+01 0.46618132383E+01 0.57777352364E+01
 0.77536607606E+01 0.10806600795E+02 0.14997098589E+02 0.20217326312E+02 0.26203155463E+02
 0.32561945894E+02 0.38810325101E+02 0.44421076740E+02 0.48880311744E+02 0.51752580666E+02
 0.52744561718E+02 0.51752580561E+02 0.48880311590E+02 0.44421076780E+02 0.28307899369E+02
 0.23216903817E+02 0.18277965505E+02 0.13858841858E+02 0.10226744411E+02 0.75167250855E+01
 0.57146801108E+01 0.46618235105E+01 0.40851833530E+01 0.36885463607E+01 0.33910243178E+01
 0.31869116890E+01 0.30626085254E+01 0.30045164879E+01 0.30045169727E+01 0.30626098645E+01
 0.31869134465E+01 0.33910255405E+01 0.36885454902E+01 0.40851784384E+01 0.46618127814E+01
 0.57146627635E+01 0.75167019379E+01 0.10226718111E+02 0.13858816386E+02 0.18277945094E+02
 0.23216891594E+02 0.28307896250E+02 0.33123733100E+02 0.37225772426E+02 0.40216921216E+02
 0.41794521069E+02 0.41794518211E+02 0.40216914002E+02 0.37225764434E+02 0.33123728796E+02
 0.19753633097E+02 0.15883714856E+02 0.12332917203E+02 0.93509196886E+01 0.70804002727E+01
 0.55368757426E+01 0.46075231415E+01 0.40731129832E+01 0.36885463607E+01 0.33930742501E+01