    1    1  100    2
  0.1214556E+02  0.2580145E-09  0.2580145E-09  0.2580145E-09  0.5000000E-15
  1.000000000000000E-004
  CAR 
 Co-fcc                                  
      9     60     12
 
  0.6250000E-01  0.6250000E-01  0.6250000E-01  0.3906250E-02
      1          0.622596        0.614528   1.000000   1.000000
      2          6.203207        7.873371   1.000000   1.000000
      3          6.269940        7.956370   1.000000   1.000000
      4          6.269940        7.956370   1.000000   1.000000
      5          7.081032        9.137303   1.000000   0.000000
      6          7.081032        9.137303   1.000000   0.000000
      7         30.462542       30.210255   0.000000   0.000000
      8         32.798383       32.900153   0.000000   0.000000
      9         34.095378       34.311870   0.000000   0.000000
     10         34.095378       34.311870   0.000000   0.000000
     11         37.685668       37.913924   0.000000   0.000000
     12         37.685668       37.913972   0.000000   0.000000
 
  0.1875000E+00  0.6250000E-01  0.6250000E-01  0.1171875E-01
      1          1.359983        1.358369   1.000000   1.000000
      2          6.030350        7.640474   1.000000   1.000000
      3          6.400332        8.109450   1.000000   1.000000
      4          6.406360        8.115252   1.000000   1.000000
      5          6.956542        8.979801   1.000000   0.000326
      6          7.161541        9.202198   1.000000   0.000000
      7         27.315868       27.516479   0.000000   0.000000
      8         29.854868       29.964520   0.000000   0.000000
      9         33.279805       33.271099   0.000000   0.000000
     10         35.054664       35.275131   0.000000   0.000000
     11         36.896189       36.815460   0.000000   0.000000
     12         37.879091       38.055678   0.000000   0.000000
 
  0.3125000E+00  0.6250000E-01  0.6250000E-01  0.1171875E-01
      1          2.933279        3.028983   1.000000   1.000000
      2          5.950589        7.351290   1.000000   1.000000
      3          6.343731        8.108694   1.000000   1.000000
      4          6.402991        8.196550   1.000000   1.000000
      5          7.155061        9.103100   1.000000   0.000000
      6          7.517165        9.490705   1.000000   0.000000
      7         21.413772       21.850870   0.000000   0.000000
      8         28.839649       28.950677   0.000000   0.000000
      9         32.270679       32.242137   0.000000   0.000000
     10         34.382325       34.745956   0.000000   0.000000
     11         35.703221       35.915336   0.000000   0.000000
     12         36.794420       36.838365   0.000000   0.000000
 
  0.4375000E+00  0.6250000E-01  0.6250000E-01  0.1171875E-01
      1          4.046794        4.737672   1.000000   1.000000
      2          6.146718        7.680179   1.000000   1.000000
      3          6.226030        7.936359   1.000000   1.000000
      4          6.909451        8.030752   1.000000   1.000000
      5          7.622291        9.591950   1.000000   0.000000
      6          8.260438        9.992983   1.000000   0.000000
      7         16.283660       17.006749   0.000000   0.000000
      8         28.516917       28.514478   0.000000   0.000000
      9         30.972234       31.027721   0.000000   0.000000
     10         32.336316       32.670896   0.000000   0.000000
     11         34.896732       35.154755   0.000000   0.000000
     12         36.426626       36.606832   0.000000   0.000000
 
 -0.4375000E+00  0.6250000E-01  0.6250000E-01  0.1171875E-01
      1          4.176774        5.147335   1.000000   1.000000
      2          6.065728        7.808344   1.000000   1.000000
      3          6.181674        7.978859   1.000000   1.000000
      4          7.365660        8.268968   1.000000   1.000000
      5          7.855276        9.860070   1.000000   0.000000
      6          9.157942       10.241290   0.000000   0.000000
      7         14.158552       15.161392   0.000000   0.000000
      8         28.836004       28.650312   0.000000   0.000000
      9         30.646704       30.961697   0.000000   0.000000
     10         30.846623       31.094953   0.000000   0.000000
     11         35.650770       35.902738   0.000000   0.000000
     12         35.763723       35.950661   0.000000   0.000000
 
 -0.3125000E+00  0.6250000E-01  0.6250000E-01  0.1171875E-01
      1          3.830263        4.272964   1.000000   1.000000
      2          6.179459        7.430776   1.000000   1.000000
      3          6.303026        7.978054   1.000000   1.000000
      4          6.433153        8.097909   1.000000   1.000000
      5          7.680619        9.587489   1.000000   0.000000
      6          7.768089        9.682885   1.000000   0.000000
      7         17.844478       18.450126   0.000000   0.000000
      8         29.551433       29.331622   0.000000   0.000000
      9         30.149927       30.485405   0.000000   0.000000
     10         32.314695       32.666511   0.000000   0.000000
     11         35.666325       35.812554   0.000000   0.000000
     12         37.311677       37.512177   0.000000   0.000000
 
 -0.1875000E+00  0.6250000E-01  0.6250000E-01  0.1171875E-01
      1          2.362970        2.398944   1.000000   1.000000
      2          5.904278        7.407340   1.000000   1.000000
      3          6.397963        8.165371   1.000000   1.000000
      4          6.449589        8.205802   1.000000   1.000000
      5          7.094404        9.032690   1.000000   0.000000
      6          7.302640        9.321812   1.000000   0.000000
      7         23.339372       23.705604   0.000000   0.000000
      8         30.473989       30.319829   0.000000   0.000000
      9         30.687737       31.028377   0.000000   0.000000
     10         34.923129       35.193975   0.000000   0.000000
     11         35.556046       35.630126   0.000000   0.000000
     12         39.437096       39.583216   0.000000   0.000000
 
 -0.6250000E-01  0.6250000E-01  0.6250000E-01  0.1171875E-01
      1          0.996869        0.990913   1.000000   1.000000
      2          6.086124        7.727440   1.000000   1.000000
      3          6.362222        8.057606   1.000000   1.000000
      4          6.365532        8.061882   1.000000   1.000000
      5          6.971476        9.000577   1.000000   0.000032
      6          7.137325        9.198629   1.000000   0.000000
      7         29.191813       29.216449   0.000000   0.000000
      8         31.479109       31.453844   0.000000   0.000000
      9         32.066097       32.365213   0.000000   0.000000
     10         34.089104       34.173179   0.000000   0.000000
     11         37.661640       37.820132   0.000000   0.000000
     12         39.506790       39.605458   0.000000   0.000000
 
  0.1875000E+00  0.1875000E+00  0.6250000E-01  0.1171875E-01
      1          1.714211        1.719243   1.000000   1.000000
      2          5.858551        7.450025   1.000000   1.000000
      3          6.521735        8.252150   1.000000   1.000000
      4          6.551195        8.269002   1.000000   1.000000
      5          6.828847        8.779908   1.000000   0.987598
      6          7.242163        9.312030   1.000000   0.000000
      7         27.593069       27.802453   0.000000   0.000000
      8         29.870429       30.153775   0.000000   0.000000
      9         30.186794       30.197477   0.000000   0.000000
     10         32.335116       32.359624   0.000000   0.000000
     11         36.569200       37.218386   0.000000   0.000000
     12         40.033895       40.088456   0.000000   0.000000
 
  0.3125000E+00  0.1875000E+00  0.6250000E-01  0.2343750E-01
      1          2.981679        3.056331   1.000000   1.000000
      2          5.610257        7.117877   1.000000   1.000000
      3          6.328139        8.110894   1.000000   1.000000
      4          6.759644        8.539998   1.000000   1.000000
      5          7.071483        8.916233   1.000000   0.053542
      6          7.580881        9.575670   1.000000   0.000000
      7         23.865916       24.214627   0.000000   0.000000
      8         26.366121       26.627159   0.000000   0.000000
      9         30.062376       30.165142   0.000000   0.000000
     10         31.857803       32.007657   0.000000   0.000000
     11         35.701975       36.200116   0.000000   0.000000
     12         39.898641       39.908084   0.000000   0.000000
 
  0.4375000E+00  0.1875000E+00  0.6250000E-01  0.2343750E-01
      1          4.295773        4.816858   1.000000   1.000000
      2          5.714430        7.012877   1.000000   1.000000
      3          6.084355        7.740838   1.000000   1.000000
      4          6.618063        8.446387   1.000000   1.000000
      5          7.661160        9.596693   1.000000   0.000000
      6          8.678188       10.285715   1.000000   0.000000
      7         18.351105       18.896378   0.000000   0.000000
      8         25.850810       26.085178   0.000000   0.000000
      9         27.595333       27.853776   0.000000   0.000000
     10         31.426399       31.607467   0.000000   0.000000
     11         37.819201       37.926836   0.000000   0.000000
     12         39.965538       40.222092   0.000000   0.000000
 
 -0.4375000E+00  0.1875000E+00  0.6250000E-01  0.2343750E-01
      1          4.593949        5.643801   1.000000   1.000000
      2          5.724185        7.195017   1.000000   1.000000
      3          6.460799        7.787574   1.000000   1.000000
      4          6.525489        8.315684   1.000000   1.000000
      5          7.827903        9.812088   1.000000   0.000000
      6         10.800337       11.698618   0.000000   0.000000
      7         14.378438       15.283008   0.000000   0.000000
      8         25.337427       25.557159   0.000000   0.000000
      9         26.813606       27.137462   0.000000   0.000000
     10         31.342622       31.429560   0.000000   0.000000
     11         36.946823       37.138836   0.000000   0.000000
     12         40.530487       40.601125   0.000000   0.000000
 
 -0.3125000E+00  0.1875000E+00  0.6250000E-01  0.2343750E-01
      1          4.520023        5.272651   1.000000   1.000000
      2          5.849523        7.209479   1.000000   1.000000
      3          6.174764        7.636773   1.000000   1.000000
      4          6.523447        8.360689   1.000000   1.000000
      5          7.565722        9.491768   1.000000   0.000000
      6          9.464153       10.884028   0.000000   0.000000
      7         16.758478       17.408986   0.000000   0.000000
      8         24.467957       24.756988   0.000000   0.000000
      9         28.412087       28.642047   0.000000   0.000000
     10         32.365784       32.457196   0.000000   0.000000
     11         36.368456       36.554495   0.000000   0.000000
     12         39.925389       40.017075   0.000000   0.000000
 
 -0.1875000E+00  0.1875000E+00  0.6250000E-01  0.2343750E-01
      1          3.526441        3.659683   1.000000   1.000000
      2          5.674732        7.136241   1.000000   1.000000
      3          6.186552        7.933174   1.000000   1.000000
      4          6.691060        8.533412   1.000000   1.000000
      5          7.018883        8.884313   1.000000   0.239293
      6          8.019587        9.913513   1.000000   0.000000
      7         21.959375       22.373898   0.000000   0.000000
      8         24.580698       24.885024   0.000000   0.000000
      9         30.913862       31.034972   0.000000   0.000000
     10         34.219128       34.325400   0.000000   0.000000
     11         35.918727       36.020083   0.000000   0.000000
     12         38.509373       38.819352   0.000000   0.000000
 
 -0.6250000E-01  0.1875000E+00  0.6250000E-01  0.2343750E-01
      1          2.053222        2.068120   1.000000   1.000000
      2          5.858667        7.421549   1.000000   1.000000
      3          6.430961        8.176740   1.000000   1.000000
      4          6.550999        8.286114   1.000000   1.000000
      5          6.894752        8.852574   1.000000   0.575002
      6          7.326314        9.352209   1.000000   0.000000
      7         25.503704       25.796509   0.000000   0.000000
      8         28.044380       28.243909   0.000000   0.000000
      9         32.375977       32.399481   0.000000   0.000000
     10         34.062540       34.076777   0.000000   0.000000
     11         36.819122       37.235062   0.000000   0.000000
     12         38.410904       38.575078   0.000000   0.000000
 
  0.3125000E+00  0.3125000E+00  0.6250000E-01  0.1171875E-01
      1          3.636951        3.892322   1.000000   1.000000
      2          5.260598        6.731628   1.000000   1.000000
      3          6.605830        8.211434   1.000000   1.000000
      4          7.118894        8.930021   1.000000   0.022674
      5          7.413105        9.139663   1.000000   0.000000
      6          7.543625        9.623865   1.000000   0.000000
      7         24.447996       24.750424   0.000000   0.000000
      8         25.975109       26.263853   0.000000   0.000000
      9         26.218381       26.447128   0.000000   0.000000
     10         28.845747       29.058864   0.000000   0.000000
     11         32.437230       32.923182   0.000000   0.000000
     12         45.083081       45.057046   0.000000   0.000000
 
  0.4375000E+00  0.3125000E+00  0.6250000E-01  0.2343750E-01
      1          4.348753        5.106784   1.000000   1.000000
      2          5.087573        6.495487   1.000000   1.000000
      3          6.575957        7.999403   1.000000   1.000000
      4          7.308511        9.207740   1.000000   0.000000
      5          7.701001        9.647915   1.000000   0.000000
      6          8.932235       10.369333   0.019508   0.000000
      7         21.229314       21.596467   0.000000   0.000000
      8         23.111562       23.468590   0.000000   0.000000
      9         23.849829       24.186358   0.000000   0.000000
     10         29.978170       30.189166   0.000000   0.000000
     11         33.723335       34.088157   0.000000   0.000000
     12         43.409855       43.535143   0.000000   0.000000
 
 -0.4375000E+00  0.3125000E+00  0.6250000E-01  0.2343750E-01
      1          4.791977        6.038695   1.000000   1.000000
      2          5.198114        6.504461   1.000000   1.000000
      3          6.333467        7.701274   1.000000   1.000000
      4          7.066168        9.004927   1.000000   0.000019
      5          7.887034        9.848826   1.000000   0.000000
      6         11.885562       12.755109   0.000000   0.000000
      7         16.386610       16.943073   0.000000   0.000000
      8         20.933182       21.410524   0.000000   0.000000
      9         24.101246       24.405399   0.000000   0.000000
     10         30.354232       30.543488   0.000000   0.000000
     11         38.557972       38.808014   0.000000   0.000000
     12         41.599845       41.771123   0.000000   0.000000
 
 -0.3125000E+00  0.3125000E+00  0.6250000E-01  0.2343750E-01
      1          5.197640        6.291332   1.000000   1.000000
      2          5.336836        6.776194   1.000000   1.000000
      3          5.954799        7.315431   1.000000   1.000000
      4          6.894823        8.852138   1.000000   0.579834
      5          7.632373        9.514661   1.000000   0.000000
      6         12.149372       13.059849   0.000000   0.000000
      7         16.246863       16.842885   0.000000   0.000000
      8         19.665054       20.169547   0.000000   0.000000
      9         25.712057       26.025344   0.000000   0.000000
     10         31.215207       31.349237   0.000000   0.000000
     11         39.584572       39.626064   0.000000   0.000000
     12         44.171635       44.170150   0.000000   0.000000
 
 -0.1875000E+00  0.3125000E+00  0.6250000E-01  0.2343750E-01
      1          4.765274        5.310887   1.000000   1.000000
      2          5.690656        7.046835   1.000000   1.000000
      3          5.798683        7.450313   1.000000   1.000000
      4          6.750980        8.661646   1.000000   1.000000
      5          7.319195        9.168771   1.000000   0.000000
      6          9.513499       11.013367   0.000000   0.000000
      7         18.876268       19.395640   0.000000   0.000000
      8         21.718832       22.109011   0.000000   0.000000
      9         28.174541       28.425827   0.000000   0.000000
     10         32.864299       32.976718   0.000000   0.000000
     11         36.990230       37.037332   0.000000   0.000000
     12         41.162716       41.357261   0.000000   0.000000
 
 -0.6250000E-01  0.3125000E+00  0.6250000E-01  0.2343750E-01
      1          3.644666        3.882809   1.000000   1.000000
      2          5.917938        7.222875   1.000000   1.000000
      3          6.196559        7.965390   1.000000   1.000000
      4          6.456551        8.264627   1.000000   1.000000
      5          7.357317        9.257146   1.000000   0.000000
      6          7.911915        9.808241   1.000000   0.000000
      7         19.751566       20.251759   0.000000   0.000000
      8         27.265308       27.459926   0.000000   0.000000
      9         30.693941       30.741750   0.000000   0.000000
     10         32.806495       33.097749   0.000000   0.000000
     11         36.545674       36.678110   0.000000   0.000000
     12         37.917148       38.053630   0.000000   0.000000
 
  0.4375000E+00  0.4375000E+00  0.6250000E-01  0.1171875E-01
      1          4.182376        5.297657   1.000000   1.000000
      2          4.779354        6.163034   1.000000   1.000000
      3          7.611895        9.128094   1.000000   0.000000
      4          7.634827        9.640788   1.000000   0.000000
      5          7.907215        9.899252   1.000000   0.000000
      6          9.655065       10.451938   0.000000   0.000000
      7         19.897998       20.494678   0.000000   0.000000
      8         22.254948       22.503505   0.000000   0.000000
      9         23.397855       23.589809   0.000000   0.000000
     10         27.963540       28.284726   0.000000   0.000000
     11         31.212536       31.622531   0.000000   0.000000
     12         45.767353       48.595720   0.000000   0.000000
 
 -0.4375000E+00  0.4375000E+00  0.6250000E-01  0.2343750E-01
      1          4.318494        5.606395   1.000000   1.000000
      2          4.799448        6.157102   1.000000   1.000000
      3          7.292588        8.769531   1.000000   0.994425
      4          7.565891        9.649848   1.000000   0.000000
      5          8.030388        9.959537   1.000000   0.000000
      6         12.030975       12.521710   0.000000   0.000000
      7         17.820802       18.601569   0.000000   0.000000
      8         19.944218       20.261420   0.000000   0.000000
      9         22.282907       22.520810   0.000000   0.000000
     10         29.348049       29.609403   0.000000   0.000000
     11         33.093067       33.455822   0.000000   0.000000
     12         45.685681       46.386891   0.000000   0.000000
 
 -0.3125000E+00  0.4375000E+00  0.6250000E-01  0.2343750E-01
      1          4.754008        6.134705   1.000000   1.000000
      2          5.119710        6.403906   1.000000   1.000000
      3          6.485494        7.848992   1.000000   1.000000
      4          7.205963        9.219223   1.000000   0.000000
      5          7.885220        9.799396   1.000000   0.000000
      6         13.823030       14.423106   0.000000   0.000000
      7         15.834977       16.378654   0.000000   0.000000
      8         18.485734       19.132048   0.000000   0.000000
      9         23.673555       23.970285   0.000000   0.000000
     10         30.189535       30.395295   0.000000   0.000000
     11         38.486891       38.777818   0.000000   0.000000
     12         42.774016       42.822140   0.000000   0.000000
 
 -0.1875000E+00  0.4375000E+00  0.6250000E-01  0.2343750E-01
      1          4.919815        6.043356   1.000000   1.000000
      2          5.477820        6.877568   1.000000   1.000000
      3          6.214160        7.561966   1.000000   1.000000
      4          6.699480        8.590248   1.000000   1.000000
      5          7.750936        9.697122   1.000000   0.000000
      6         11.921452       12.748598   0.000000   0.000000
      7         14.657870       15.472051   0.000000   0.000000
      8         22.340760       22.718500   0.000000   0.000000
      9         26.052090       26.357779   0.000000   0.000000
     10         31.249788       31.359508   0.000000   0.000000
     11         38.280704       38.409706   0.000000   0.000000
     12         42.598020       42.643727   0.000000   0.000000
 
 -0.6250000E-01  0.4375000E+00  0.6250000E-01  0.2343750E-01
      1          4.298174        5.202392   1.000000   1.000000
      2          5.976536        7.560688   1.000000   1.000000
      3          6.298545        7.903331   1.000000   1.000000
      4          6.803883        8.115556   1.000000   1.000000
      5          7.780242        9.759877   1.000000   0.000000
      6          9.338381       10.588867   0.000000   0.000000
      7         15.093811       15.928418   0.000000   0.000000
      8         27.301940       27.389516   0.000000   0.000000
      9         28.987668       29.244713   0.000000   0.000000
     10         31.539236       31.677193   0.000000   0.000000
     11         35.909334       36.141744   0.000000   0.000000
     12         38.050353       38.181905   0.000000   0.000000
 
 -0.4375000E+00 -0.4375000E+00  0.6250000E-01  0.1171875E-01
      1          4.137252        5.396039   1.000000   1.000000
      2          4.669699        6.034488   1.000000   1.000000
      3          7.701197        9.559212   1.000000   0.000000
      4          7.866278        9.825608   1.000000   0.000000
      5          8.040381        9.976735   1.000000   0.000000
      6         11.173053       11.442437   0.000000   0.000000
      7         17.691843       18.516248   0.000000   0.000000
      8         21.729764       21.943539   0.000000   0.000000
      9         22.829899       22.988682   0.000000   0.000000
     10         27.813484       28.160353   0.000000   0.000000
     11         31.047074       31.458682   0.000000   0.000000
     12         45.761352       49.639459   0.000000   0.000000
 
 -0.3125000E+00 -0.4375000E+00  0.6250000E-01  0.2343750E-01
      1          4.376836        5.526214   1.000000   1.000000
      2          4.899324        6.274273   1.000000   1.000000
      3          7.006203        8.405176   1.000000   1.000000
      4          7.512303        9.510756   1.000000   0.000000
      5          7.901317        9.852485   1.000000   0.000000
      6         10.452755       11.367955   0.000000   0.000000
      7         20.011058       20.503494   0.000000   0.000000
      8         20.519741       20.933375   0.000000   0.000000
      9         22.783046       23.046329   0.000000   0.000000
     10         29.549434       29.792283   0.000000   0.000000
     11         33.284654       33.643759   0.000000   0.000000
     12         44.935796       45.167798   0.000000   0.000000
 
 -0.1875000E+00 -0.4375000E+00  0.6250000E-01  0.2343750E-01
      1          4.689729        5.606498   1.000000   1.000000
      2          5.413652        6.743257   1.000000   1.000000
      3          6.151993        7.619763   1.000000   1.000000
      4          6.843419        8.714175   1.000000   0.999980
      5          7.832013        9.813316   1.000000   0.000000
      6         10.044722       11.254287   0.000000   0.000000
      7         17.220533       17.784282   0.000000   0.000000
      8         23.946941       24.257656   0.000000   0.000000
      9         25.014078       25.351861   0.000000   0.000000
     10         30.729176       30.898547   0.000000   0.000000
     11         38.499143       38.656418   0.000000   0.000000
     12         40.529005       40.819944   0.000000   0.000000
 
 -0.3125000E+00 -0.3125000E+00  0.6250000E-01  0.1171875E-01
      1          4.128033        4.853850   1.000000   1.000000
      2          4.985190        6.405309   1.000000   1.000000
      3          7.148746        8.462019   1.000000   1.000000
      4          7.411620        9.312574   1.000000   0.000000
      5          7.719561        9.669915   1.000000   0.000000
      6          8.191258        9.776709   1.000000   0.000000
      7         22.796855       23.157887   0.000000   0.000000
      8         23.337848       23.676222   0.000000   0.000000
      9         24.475736       24.717365   0.000000   0.000000
     10         28.284407       28.557093   0.000000   0.000000
     11         31.619885       32.043825   0.000000   0.000000
     12         45.687274       47.242654   0.000000   0.000000
 
 -0.1875000E+00 -0.3125000E+00  0.6250000E-01  0.2343750E-01
      1          3.891402        4.175678   1.000000   1.000000
      2          5.338021        6.791286   1.000000   1.000000
      3          6.281164        7.941636   1.000000   1.000000
      4          7.024613        8.855298   1.000000   0.544625
      5          7.417093        9.268283   1.000000   0.000000
      6          8.009791        9.858444   1.000000   0.000000
      7         22.429335       22.801979   0.000000   0.000000
      8         24.842817       25.125550   0.000000   0.000000
      9         26.745147       27.020390   0.000000   0.000000
     10         30.694810       30.871868   0.000000   0.000000
     11         34.501139       34.903249   0.000000   0.000000
     12         41.728222       41.790787   0.000000   0.000000
 
 -0.1875000E+00 -0.1875000E+00  0.6250000E-01  0.1171875E-01
      1          2.681791        2.736461   1.000000   1.000000
      2          5.567099        7.098079   1.000000   1.000000
      3          6.508430        8.318218   1.000000   1.000000
      4          6.812480        8.566596   1.000000   1.000000
      5          6.984472        8.761940   1.000000   0.997044
      6          7.382479        9.461143   1.000000   0.000000
      7         25.973191       26.262126   0.000000   0.000000
      8         27.803468       28.123639   0.000000   0.000000
      9         28.858305       28.874966   0.000000   0.000000
     10         30.097735       30.237899   0.000000   0.000000
     11         33.978515       34.588616   0.000000   0.000000
     12         42.525619       42.471198   0.000000   0.000000
 
  0.1875000E+00  0.1875000E+00  0.1875000E+00  0.3906250E-02
      1          1.706719        1.714105   1.000000   1.000000
      2          6.010742        7.575272   1.000000   1.000000
      3          6.403959        8.133512   1.000000   1.000000
      4          6.403959        8.133512   1.000000   1.000000
      5          7.093433        9.110685   1.000000   0.000000
      6          7.093433        9.110685   1.000000   0.000000
      7         25.233358       25.528719   0.000000   0.000000
      8         31.496495       31.232069   0.000000   0.000000
      9         32.918391       33.237022   0.000000   0.000000
     10         32.918391       33.237022   0.000000   0.000000
     11         38.360209       38.221511   0.000000   0.000000
     12         38.756862       38.835826   0.000000   0.000000
 
  0.3125000E+00  0.1875000E+00  0.1875000E+00  0.1171875E-01
      1          2.692053        2.737852   1.000000   1.000000
      2          5.807005        7.321381   1.000000   1.000000
      3          6.354222        8.096667   1.000000   1.000000
      4          6.592968        8.375049   1.000000   1.000000
      5          6.865148        8.811236   1.000000   0.912820
      6          7.603173        9.571696   1.000000   0.000000
      7         23.615533       23.975978   0.000000   0.000000
      8         26.202506       26.458079   0.000000   0.000000
      9         33.627105       33.541542   0.000000   0.000000
     10         35.372720       35.406340   0.000000   0.000000
     11         35.476322       35.576272   0.000000   0.000000
     12         36.898600       37.274786   0.000000   0.000000
 
  0.4375000E+00  0.1875000E+00  0.1875000E+00  0.1171875E-01
      1          4.185496        4.461378   1.000000   1.000000
      2          5.718332        7.120674   1.000000   1.000000
      3          6.046713        7.742538   1.000000   1.000000
      4          6.623575        8.531258   1.000000   1.000000
      5          7.093583        8.934399   1.000000   0.016783
      6          8.619892       10.380678   1.000000   0.000000
      7         20.294709       20.769956   0.000000   0.000000
      8         23.010021       23.360447   0.000000   0.000000
      9         31.714614       31.683508   0.000000   0.000000
     10         31.870775       32.211323   0.000000   0.000000
     11         37.347355       37.265947   0.000000   0.000000
     12         38.656738       38.882569   0.000000   0.000000
 
 -0.4375000E+00  0.1875000E+00  0.1875000E+00  0.1171875E-01
      1          4.718195        5.684206   1.000000   1.000000
      2          5.720233        7.177428   1.000000   1.000000
      3          6.303149        7.604338   1.000000   1.000000
      4          6.531869        8.400224   1.000000   1.000000
      5          7.617681        9.553473   1.000000   0.000000
      6         10.552966       11.668622   0.000000   0.000000
      7         15.492797       16.242558   0.000000   0.000000
      8         23.260953       23.596549   0.000000   0.000000
      9         28.984895       29.316039   0.000000   0.000000
     10         30.126406       30.159049   0.000000   0.000000