       N       E                     dE             d eps       ncg     rms          rms(c)
DAV:   1     0.232538565860E+02    0.23254E+02   -0.35566E+03  2936   0.768E+02
DAV:   2    -0.696622269652E+01   -0.30220E+02   -0.28020E+02  3064   0.135E+02
DAV:   3    -0.780563704621E+01   -0.83941E+00   -0.83546E+00  3376   0.263E+01
DAV:   4    -0.781465819505E+01   -0.90211E-02   -0.90193E-02  3432   0.237E+00
DAV:   5    -0.781491409941E+01   -0.25590E-03   -0.25590E-03  3644   0.367E-01    0.102E+01
DAV:   6    -0.723273570124E+01    0.58218E+00   -0.14330E+01  3684   0.483E+01    0.551E+00
DAV:   7    -0.695351533185E+01    0.27922E+00   -0.21737E+00  3596   0.172E+01    0.250E+00
DAV:   8    -0.694637844324E+01    0.71369E-02   -0.13886E-02  3840   0.971E-01    0.106E+00
DAV:   9    -0.693996598457E+01    0.64125E-02   -0.88557E-03  4124   0.801E-01    0.297E-01
DAV:  10    -0.693949555863E+01    0.47043E-03   -0.48984E-04  4336   0.150E-01    0.548E-02
DAV:  11    -0.693946892212E+01    0.26637E-04   -0.11478E-04  3992   0.112E-01    0.501E-02
DAV:  12    -0.693946904781E+01   -0.12570E-06   -0.42191E-06  3324   0.232E-02
   1 F= -.69394690E+01 E0= -.69383363E+01  d E =-.693947E+01  mag=     1.7303
