<?xml version="1.0" encoding="ISO-8859-1"?>
<modeling>
 <generator>
  <i name="program" type="string">vasp </i>
  <i name="version" type="string">6.3.2  </i>
  <i name="subversion" type="string">27Jun22 (build Aug 12 2022 00:53:59) complex                          parallel </i>
  <i name="platform" type="string">tv2STD </i>
  <i name="date" type="string">2024 12 03 </i>
  <i name="time" type="string">01:41:23 </i>
 </generator>
 <incar>
  <i type="string" name="SYSTEM">Co-fcc</i>
  <i type="int" name="ISTART">     0</i>
  <i type="string" name="PREC">Accurate      normal | accurate</i>
  <i type="string" name="ALGO">Normal     Normal, Fast, Very_Fast</i>
  <i type="logical" name="ADDGRID"> F  </i>
  <i type="int" name="ISPIN">     2</i>
  <i type="int" name="ICHARG">     2</i>
  <i type="int" name="INIWAV">     1</i>
  <i type="int" name="NELM">   100</i>
  <i type="int" name="IBRION">     2</i>
  <i name="EDIFF">      0.00000100</i>
  <i name="EDIFFG">     -0.02000000</i>
  <i type="int" name="NSW">   100</i>
  <i type="int" name="ISIF">     2</i>
  <i type="int" name="ISYM">     1</i>
  <i name="ENCUT">    400.00000000</i>
  <v name="MAGMOM">      3.00000000</v>
  <i type="logical" name="LREAL"> F  </i>
  <i type="int" name="ISMEAR">     0</i>
  <i name="SIGMA">      0.05000000</i>
  <i type="int" name="NWRITE">     2</i>
  <i type="logical" name="LWAVE"> T  </i>
  <i type="logical" name="LCHARG"> T  </i>
  <i type="int" name="LORBIT">    11</i>
 </incar>
 <primitive_cell>
  <structure name="primitive_cell" >
   <crystal>
    <varray name="basis" >
     <v>       0.00000000       1.82443826       1.82443826 </v>
     <v>       1.82443826       0.00000000       1.82443826 </v>
     <v>       1.82443826       1.82443826       0.00000000 </v>
    </varray>
    <i name="volume">     12.14555901 </i>
    <varray name="rec_basis" >
     <v>      -0.27405696       0.27405696       0.27405696 </v>
     <v>       0.27405696      -0.27405696       0.27405696 </v>
     <v>       0.27405696       0.27405696      -0.27405696 </v>
    </varray>
   </crystal>
   <varray name="positions" >
    <v>       0.00000000       0.00000000       0.00000000 </v>
   </varray>
  </structure>
  <varray name="primitive_index" >
   <v type="int" >        1 </v>
  </varray>
 </primitive_cell>
 <kpoints>
  <generation param="Monkhorst-Pack">
   <v type="int" name="divisions">       8        8        8 </v>
   <v name="usershift">      0.00000000       0.00000000       0.00000000 </v>
   <v name="genvec1">      0.12500000       0.00000000       0.00000000 </v>
   <v name="genvec2">      0.00000000       0.12500000       0.00000000 </v>
   <v name="genvec3">      0.00000000       0.00000000       0.12500000 </v>
   <v name="shift">      0.50000000       0.50000000       0.50000000 </v>
  </generation>
  <varray name="kpointlist" >
   <v>       0.06250000       0.06250000       0.06250000 </v>
   <v>       0.18750000       0.06250000       0.06250000 </v>
   <v>       0.31250000       0.06250000       0.06250000 </v>
   <v>       0.43750000       0.06250000       0.06250000 </v>
   <v>      -0.43750000       0.06250000       0.06250000 </v>
   <v>      -0.31250000       0.06250000       0.06250000 </v>
   <v>      -0.18750000       0.06250000       0.06250000 </v>
   <v>      -0.06250000       0.06250000       0.06250000 </v>
   <v>       0.18750000       0.18750000       0.06250000 </v>
   <v>       0.31250000       0.18750000       0.06250000 </v>
   <v>       0.43750000       0.18750000       0.06250000 </v>
   <v>      -0.43750000       0.18750000       0.06250000 </v>
   <v>      -0.31250000       0.18750000       0.06250000 </v>
   <v>      -0.18750000       0.18750000       0.06250000 </v>
   <v>      -0.06250000       0.18750000       0.06250000 </v>
   <v>       0.31250000       0.31250000       0.06250000 </v>
   <v>       0.43750000       0.31250000       0.06250000 </v>
   <v>      -0.43750000       0.31250000       0.06250000 </v>
   <v>      -0.31250000       0.31250000       0.06250000 </v>
   <v>      -0.18750000       0.31250000       0.06250000 </v>
   <v>      -0.06250000       0.31250000       0.06250000 </v>
   <v>       0.43750000       0.43750000       0.06250000 </v>
   <v>      -0.43750000       0.43750000       0.06250000 </v>
   <v>      -0.31250000       0.43750000       0.06250000 </v>
   <v>      -0.18750000       0.43750000       0.06250000 </v>
   <v>      -0.06250000       0.43750000       0.06250000 </v>
   <v>      -0.43750000      -0.43750000       0.06250000 </v>
   <v>      -0.31250000      -0.43750000       0.06250000 </v>
   <v>      -0.18750000      -0.43750000       0.06250000 </v>
   <v>      -0.31250000      -0.31250000       0.06250000 </v>
   <v>      -0.18750000      -0.31250000       0.06250000 </v>
   <v>      -0.18750000      -0.18750000       0.06250000 </v>
   <v>       0.18750000       0.18750000       0.18750000 </v>
   <v>       0.31250000       0.18750000       0.18750000 </v>
   <v>       0.43750000       0.18750000       0.18750000 </v>
   <v>      -0.43750000       0.18750000       0.18750000 </v>
   <v>      -0.31250000       0.18750000       0.18750000 </v>
   <v>      -0.18750000       0.18750000       0.18750000 </v>
   <v>       0.31250000       0.31250000       0.18750000 </v>
   <v>       0.43750000       0.31250000       0.18750000 </v>
   <v>      -0.43750000       0.31250000       0.18750000 </v>
   <v>      -0.31250000       0.31250000       0.18750000 </v>
   <v>      -0.18750000       0.31250000       0.18750000 </v>
   <v>       0.43750000       0.43750000       0.18750000 </v>
   <v>      -0.43750000       0.43750000       0.18750000 </v>
   <v>      -0.31250000       0.43750000       0.18750000 </v>
   <v>      -0.18750000       0.43750000       0.18750000 </v>
   <v>      -0.43750000      -0.43750000       0.18750000 </v>
   <v>      -0.31250000      -0.43750000       0.18750000 </v>
   <v>      -0.31250000      -0.31250000       0.18750000 </v>
   <v>       0.31250000       0.31250000       0.31250000 </v>
   <v>       0.43750000       0.31250000       0.31250000 </v>
   <v>      -0.43750000       0.31250000       0.31250000 </v>
   <v>      -0.31250000       0.31250000       0.31250000 </v>
   <v>       0.43750000       0.43750000       0.31250000 </v>
   <v>      -0.43750000       0.43750000       0.31250000 </v>
   <v>      -0.31250000       0.43750000       0.31250000 </v>
   <v>      -0.43750000      -0.43750000       0.31250000 </v>
   <v>       0.43750000       0.43750000       0.43750000 </v>
   <v>      -0.43750000       0.43750000       0.43750000 </v>
  </varray>
  <varray name="weights" >
   <v>       0.00390625 </v>
   <v>       0.01171875 </v>
   <v>       0.01171875 </v>
   <v>       0.01171875 </v>
   <v>       0.01171875 </v>
   <v>       0.01171875 </v>
   <v>       0.01171875 </v>
   <v>       0.01171875 </v>
   <v>       0.01171875 </v>
   <v>       0.02343750 </v>
   <v>       0.02343750 </v>
   <v>       0.02343750 </v>
   <v>       0.02343750 </v>
   <v>       0.02343750 </v>
   <v>       0.02343750 </v>
   <v>       0.01171875 </v>
   <v>       0.02343750 </v>
   <v>       0.02343750 </v>
   <v>       0.02343750 </v>
   <v>       0.02343750 </v>
   <v>       0.02343750 </v>
   <v>       0.01171875 </v>
   <v>       0.02343750 </v>
   <v>       0.02343750 </v>
   <v>       0.02343750 </v>
   <v>       0.02343750 </v>
   <v>       0.01171875 </v>
   <v>       0.02343750 </v>
   <v>       0.02343750 </v>
   <v>       0.01171875 </v>
   <v>       0.02343750 </v>
   <v>       0.01171875 </v>
   <v>       0.00390625 </v>
   <v>       0.01171875 </v>
   <v>       0.01171875 </v>
   <v>       0.01171875 </v>
   <v>       0.01171875 </v>
   <v>       0.01171875 </v>
   <v>       0.01171875 </v>
   <v>       0.02343750 </v>
   <v>       0.02343750 </v>
   <v>       0.02343750 </v>
   <v>       0.02343750 </v>
   <v>       0.01171875 </v>
   <v>       0.02343750 </v>
   <v>       0.02343750 </v>
   <v>       0.02343750 </v>
   <v>       0.01171875 </v>
   <v>       0.02343750 </v>
   <v>       0.01171875 </v>
   <v>       0.00390625 </v>
   <v>       0.01171875 </v>
   <v>       0.01171875 </v>
   <v>       0.01171875 </v>
   <v>       0.01171875 </v>
   <v>       0.02343750 </v>
   <v>       0.02343750 </v>
   <v>       0.01171875 </v>
   <v>       0.00390625 </v>
   <v>       0.01171875 </v>
  </varray>
 </kpoints>
 <parameters>
  <separator name="general" >
   <i type="string" name="SYSTEM">Co-fcc</i>
   <i type="logical" name="LCOMPAT"> F  </i>
  </separator>
  <separator name="electronic" >
   <i type="string" name="PREC">accura</i>
   <i name="ENMAX">    400.00000000</i>
   <i name="ENAUG">    477.81800000</i>
   <i name="EDIFF">      0.00000100</i>
   <i type="int" name="IALGO">    38</i>
   <i type="int" name="IWAVPR">    11</i>
   <i type="int" name="NBANDS">    12</i>
   <i type="int" name="NBANDSLOW">    -1</i>
   <i type="int" name="NBANDSHIGH">    -1</i>
   <i name="NELECT">      9.00000000</i>
   <i type="int" name="TURBO">     0</i>
   <i type="int" name="IRESTART">     0</i>
   <i type="int" name="NREBOOT">     0</i>
   <i type="int" name="NMIN">     0</i>
   <i name="EREF">      0.00000000</i>
   <separator name="electronic smearing" >
    <i type="int" name="ISMEAR">     0</i>
    <i name="SIGMA">      0.05000000</i>
    <i name="KSPACING">      0.50000000</i>
    <i type="logical" name="KGAMMA"> T  </i>
    <i type="logical" name="KBLOWUP"> T  </i>
   </separator>
   <separator name="electronic projectors" >
    <i type="logical" name="LREAL"> F  </i>
    <v name="ROPT">      0.00000000</v>
    <i type="int" name="LMAXPAW">  -100</i>
    <i type="int" name="LMAXMIX">     2</i>
    <i type="logical" name="NLSPLINE"> F  </i>
   </separator>
   <separator name="electronic startup" >
    <i type="int" name="ISTART">     0</i>
    <i type="int" name="ICHARG">     2</i>
    <i type="int" name="INIWAV">     1</i>
   </separator>
   <separator name="electronic spin" >
    <i type="int" name="ISPIN">     2</i>
    <i type="logical" name="LNONCOLLINEAR"> F  </i>
    <v name="MAGMOM">      3.00000000</v>
    <i name="NUPDOWN">     -1.00000000</i>
    <i type="logical" name="LSORBIT"> F  </i>
    <v name="SAXIS">      0.00000000      0.00000000      1.00000000</v>
    <i type="logical" name="LSPIRAL"> F  </i>
    <v name="QSPIRAL">      0.00000000      0.00000000      0.00000000</v>
    <i type="logical" name="LZEROZ"> F  </i>
   </separator>
   <separator name="electronic exchange-correlation" >
    <i type="logical" name="LASPH"> F  </i>
    <i type="logical" name="LMETAGGA"> F  </i>
   </separator>
   <separator name="electronic convergence" >
    <i type="int" name="NELM">   100</i>
    <i type="int" name="NELMDL">    -5</i>
    <i type="int" name="NELMIN">     2</i>
    <i name="ENINI">    400.00000000</i>
    <separator name="electronic convergence detail" >
     <i type="logical" name="LDIAG"> T  </i>
     <i type="logical" name="LSUBROT"> F  </i>
     <i name="WEIMIN">      0.00100000</i>
     <i name="EBREAK">      0.00000002</i>
     <i name="DEPER">      0.30000000</i>
     <i type="int" name="NRMM">     4</i>
     <i name="TIME">      0.40000000</i>
    </separator>
   </separator>
   <separator name="electronic mixer" >
    <i name="AMIX">      0.40000000</i>
    <i name="BMIX">      1.00000000</i>
    <i name="AMIN">      0.10000000</i>
    <i name="AMIX_MAG">      1.60000000</i>
    <i name="BMIX_MAG">      1.00000000</i>
    <separator name="electronic mixer details" >
     <i type="int" name="IMIX">     4</i>
     <i type="logical" name="MIXFIRST"> F  </i>
     <i type="int" name="MAXMIX">   -45</i>
     <i name="WC">    100.00000000</i>
     <i type="int" name="INIMIX">     1</i>
     <i type="int" name="MIXPRE">     1</i>
     <i type="int" name="MREMOVE">     5</i>
    </separator>
   </separator>
   <separator name="electronic dipolcorrection" >
    <i type="logical" name="LDIPOL"> F  </i>
    <i type="logical" name="LMONO"> F  </i>
    <i type="int" name="IDIPOL">     0</i>
    <i name="EPSILON">      1.00000000</i>
    <v name="DIPOL">   -100.00000000   -100.00000000   -100.00000000</v>
    <i name="EFIELD">      0.00000000</i>
   </separator>
  </separator>
  <separator name="grids" >
   <i type="int" name="NGX">    18</i>
   <i type="int" name="NGY">    18</i>
   <i type="int" name="NGZ">    18</i>
   <i type="int" name="NGXF">    36</i>
   <i type="int" name="NGYF">    36</i>
   <i type="int" name="NGZF">    36</i>
   <i type="logical" name="ADDGRID"> F  </i>
  </separator>
  <separator name="ionic" >
   <i type="int" name="NSW">   100</i>
   <i type="int" name="IBRION">     2</i>
   <i type="int" name="MDALGO">     0</i>
   <i type="int" name="ISIF">     2</i>
   <i name="PSTRESS">      0.00000000</i>
   <i name="EDIFFG">     -0.02000000</i>
   <i type="int" name="NFREE">     1</i>
   <i name="POTIM">      0.50000000</i>
   <i name="SMASS">     -3.00000000</i>
   <i name="SCALEE">      1.00000000</i>
  </separator>
  <separator name="ionic md" >
   <i name="TEBEG">      0.00010000</i>
   <i name="TEEND">      0.00010000</i>
   <i type="int" name="NBLOCK">     1</i>
   <i type="int" name="KBLOCK">   100</i>
   <i type="int" name="NPACO">   256</i>
   <i name="APACO">     10.00000000</i>
  </separator>
  <separator name="symmetry" >
   <i type="int" name="ISYM">     1</i>
   <i name="SYMPREC">      0.00001000</i>
  </separator>
  <separator name="dos" >
   <i type="int" name="LORBIT">    11</i>
   <v name="RWIGS">     -1.00000000</v>
   <i type="int" name="NEDOS">   301</i>
   <i name="EMIN">     10.00000000</i>
   <i name="EMAX">    -10.00000000</i>
   <i name="EFERMI">      0.00000000</i>
  </separator>
  <separator name="writing" >
   <i type="int" name="NWRITE">     2</i>
   <i type="logical" name="LWAVE"> T  </i>
   <i type="logical" name="LDOWNSAMPLE"> F  </i>
   <i type="logical" name="LCHARG"> T  </i>
   <i type="logical" name="LPARD"> F  </i>
   <i type="logical" name="LVTOT"> F  </i>
   <i type="logical" name="LVHAR"> F  </i>
   <i type="logical" name="LELF"> F  </i>
   <i type="logical" name="LOPTICS"> F  </i>
   <v name="STM">      0.00000000      0.00000000      0.00000000      0.00000000      0.00000000      0.00000000      0.00000000</v>
  </separator>
  <separator name="performance" >
   <i type="int" name="NPAR">     4</i>
   <i type="int" name="NSIM">     4</i>
   <i type="int" name="NBLK">    -1</i>
   <i type="logical" name="LPLANE"> T  </i>
   <i type="logical" name="LSCALAPACK"> T  </i>
   <i type="logical" name="LSCAAWARE"> T  </i>
   <i type="logical" name="LSCALU"> F  </i>
   <i type="logical" name="LASYNC"> F  </i>
   <i type="logical" name="LORBITALREAL"> F  </i>
  </separator>
  <separator name="miscellaneous" >
   <i type="int" name="IDIOT">     3</i>
   <i type="int" name="PHON_NSTRUCT">    -1</i>
   <i type="logical" name="LMUSIC"> F  </i>
   <v name="POMASS">     58.93300000</v>
   <v name="DARWINR">      0.00000000</v>
   <v name="DARWINV">      1.00000000</v>
   <i type="logical" name="LCORR"> T  </i>
  </separator>
  <i type="logical" name="GGA_COMPAT"> T  </i>
  <i type="logical" name="LBERRY"> F  </i>
  <i type="int" name="ICORELEVEL">     0</i>
  <i type="logical" name="LDAU"> F  </i>
  <i type="int" name="I_CONSTRAINED_M">     0</i>
  <separator name="electronic exchange-correlation" >
   <i type="string" name="GGA">--</i>
   <i type="int" name="VOSKOWN">     0</i>
   <i type="logical" name="LHFCALC"> F  </i>
   <i type="string" name="PRECFOCK"></i>
   <i type="logical" name="LSYMGRAD"> F  </i>
   <i type="logical" name="LHFONE"> F  </i>
   <i type="logical" name="LRHFCALC"> F  </i>
   <i type="logical" name="LTHOMAS"> F  </i>
   <i type="logical" name="LMODELHF"> F  </i>
   <i type="logical" name="LFOCKACE"> F  </i>
   <i name="ENCUT4O">     -1.00000000</i>
   <i type="int" name="EXXOEP">     0</i>
   <i type="int" name="FOURORBIT">     0</i>
   <i name="AEXX">      0.00000000</i>
   <i name="HFALPHA">      0.00000000</i>
   <i name="MCALPHA">      0.00000000</i>
   <i name="ALDAX">      1.00000000</i>
   <i name="AGGAX">      1.00000000</i>
   <i name="ALDAC">      1.00000000</i>
   <i name="AGGAC">      1.00000000</i>
   <i type="int" name="NKREDX">     1</i>
   <i type="int" name="NKREDY">     1</i>
   <i type="int" name="NKREDZ">     1</i>
   <i type="logical" name="SHIFTRED"> F  </i>
   <i type="logical" name="ODDONLY"> F  </i>
   <i type="logical" name="EVENONLY"> F  </i>
   <i type="int" name="LMAXFOCK">     0</i>
   <i type="int" name="NMAXFOCKAE">     0</i>
   <i type="logical" name="LFOCKAEDFT"> F  </i>
   <i name="HFSCREEN">      0.00000000</i>
   <i name="HFSCREENC">      0.00000000</i>
   <i type="int" name="NBANDSGWLOW">     0</i>
  </separator>
  <separator name="vdW DFT" >
   <i type="logical" name="LUSE_VDW"> F  </i>
   <i name="Zab_VDW">     -0.84910000</i>
   <i name="PARAM1">      0.12340000</i>
   <i name="PARAM2">      1.00000000</i>
   <i name="PARAM3">      0.00000000</i>
  </separator>
  <separator name="model GW" >
   <i type="int" name="MODEL_GW">     0</i>
   <i name="MODEL_EPS0">      7.28733541</i>
   <i name="MODEL_ALPHA">      1.00000000</i>
  </separator>
  <separator name="linear response parameters" >
   <i type="logical" name="LEPSILON"> F  </i>
   <i type="logical" name="LRPA"> F  </i>
   <i type="logical" name="LNABLA"> F  </i>
   <i type="logical" name="LVEL"> F  </i>
   <i name="CSHIFT">      0.10000000</i>
   <i name="OMEGAMAX">     -1.00000000</i>
   <i name="DEG_THRESHOLD">      0.00200000</i>
   <i name="RTIME">     -0.10000000</i>
   <i name="WPLASMAI">      0.00000000</i>
   <v name="DFIELD">      0.00000000      0.00000000      0.00000000</v>
   <v name="WPLASMA">      0.00000000      0.00000000      0.00000000      0.00000000      0.00000000      0.00000000      0.00000000      0.00000000      0.00000000</v>
  </separator>
  <separator name="orbital magnetization" >
   <i type="logical" name="NUCIND"> F  </i>
   <v name="MAGPOS">      0.00000000      0.00000000      0.00000000</v>
   <i type="logical" name="LNICSALL"> T  </i>
   <i type="logical" name="ORBITALMAG"> F  </i>
   <i type="logical" name="LMAGBLOCH"> F  </i>
   <i type="logical" name="LCHIMAG"> F  </i>
   <i type="logical" name="LGAUGE"> T  </i>
   <i type="int" name="MAGATOM">     0</i>
   <v name="MAGDIPOL">      0.00000000      0.00000000      0.00000000</v>
   <v name="AVECCONST">      0.00000000      0.00000000      0.00000000</v>
  </separator>
  <separator name="response functions" >
   <i type="logical" name="LFINITE_TEMPERATURE"> F  </i>
   <i type="logical" name="LADDER"> F  </i>
   <i type="logical" name="LRPAFORCE"> F  </i>
   <i type="logical" name="LFXC"> F  </i>
   <i type="logical" name="LHARTREE"> T  </i>
   <i type="int" name="IBSE">     0</i>
   <v type="int" name="KPOINT">    -1     0     0     0</v>
   <i type="logical" name="LTCTC"> F  </i>
   <i type="logical" name="LTCTE"> F  </i>
   <i type="logical" name="LTETE"> F  </i>
   <i type="logical" name="LTRIPLET"> F  </i>
   <i type="logical" name="LFXCEPS"> F  </i>
   <i type="logical" name="LFXHEG"> F  </i>
   <i type="int" name="NATURALO">     2</i>
   <i type="logical" name="LHOLEGF"> F  </i>
   <i type="logical" name="L2ORDER"> F  </i>
   <i type="logical" name="LDMP1"> F  </i>
   <i type="logical" name="LMP2LT"> F  </i>
   <i type="logical" name="LSMP2LT"> F  </i>
   <i type="logical" name="LGWLF"> F  </i>
   <i name="ENCUTGW">     -2.00000000</i>
   <i name="ENCUTGWSOFT">     -2.00000000</i>
   <i name="ENCUTLF">     -1.00000000</i>
   <i type="logical" name="LESF_SPLINES"> F  </i>
   <i type="int" name="LMAXMP2">    -1</i>
   <i name="SCISSOR">      0.00000000</i>
   <i type="int" name="NOMEGA">     0</i>
   <i type="int" name="NOMEGAR">     0</i>
   <i type="int" name="NBANDSGW">    -1</i>
   <i type="int" name="NBANDSO">    -1</i>
   <i type="int" name="NBANDSV">    -1</i>
   <i type="int" name="NELMGW">     1</i>
   <i type="int" name="NELMHF">     1</i>
   <i type="int" name="DIM">     3</i>
   <i type="int" name="IESPILON">     4</i>
   <i type="int" name="ANTIRES">     0</i>
   <i name="OMEGAMAX">    -30.00000000</i>
   <i name="OMEGAMIN">    -30.00000000</i>
   <i name="OMEGATL">   -200.00000000</i>
   <i type="int" name="OMEGAGRID">     0</i>
   <i name="CSHIFT">     -0.10000000</i>
   <i type="logical" name="LSELFENERGY"> F  </i>
   <i type="logical" name="LSPECTRAL"> F  </i>
   <i type="logical" name="LSPECTRALGW"> F  </i>
   <i type="logical" name="LSINGLES"> F  </i>
   <i type="logical" name="LFERMIGW"> F  </i>
   <i type="logical" name="ODDONLYGW"> F  </i>
   <i type="logical" name="EVENONLYGW"> F  </i>
   <i type="int" name="NKREDLFX">     1</i>
   <i type="int" name="NKREDLFY">     1</i>
   <i type="int" name="NKREDLFZ">     1</i>
   <i type="int" name="MAXMEM">  2800</i>
   <i type="int" name="TELESCOPE">     0</i>
   <i type="int" name="NTAUPAR">    -1</i>
   <i type="int" name="NOMEGAPAR">    -1</i>
   <i name="DAMP_NEWTON">      0.80000001</i>
   <i name="LAMBDA">      1.00000000</i>
  </separator>
  <separator name="External order field" >
   <i name="OFIELD_KAPPA">      0.00000000</i>
   <v name="OFIELD_K">      0.00000000      0.00000000      0.00000000</v>
   <i name="OFIELD_Q6_NEAR">      0.00000000</i>
   <i name="OFIELD_Q6_FAR">      0.00000000</i>
   <i name="OFIELD_A">      0.00000000</i>
  </separator>
  <separator name="optional k-points parameters" >
   <i type="int" name="KPOINTS_OPT_MODE">     1</i>
   <i type="logical" name="LKPOINTS_OPT"> F  </i>
  </separator>
 </parameters>
 <atominfo>
  <atoms>       1 </atoms>
  <types>       1 </types>
  <array name="atoms" >
   <dimension dim="1">ion</dimension>
   <field type="string">element</field>
   <field type="int">atomtype</field>
   <set>
    <rc><c>Co</c><c>   1</c></rc>
   </set>
  </array>
  <array name="atomtypes" >
   <dimension dim="1">type</dimension>
   <field type="int">atomspertype</field>
   <field type="string">element</field>
   <field>mass</field>
   <field>valence</field>
   <field type="string">pseudopotential</field>
   <set>
    <rc><c>   1</c><c>Co</c><c>     58.93300000</c><c>      9.00000000</c><c>  PAW_PBE Co 02Aug2007                  </c></rc>
   </set>
  </array>
 </atominfo>
 <structure name="initialpos" >
  <crystal>
   <varray name="basis" >
    <v>       0.00000000       1.82443826       1.82443826 </v>
    <v>       1.82443826       0.00000000       1.82443826 </v>
    <v>       1.82443826       1.82443826       0.00000000 </v>
   </varray>
   <i name="volume">     12.14555901 </i>
   <varray name="rec_basis" >
    <v>      -0.27405696       0.27405696       0.27405696 </v>
    <v>       0.27405696      -0.27405696       0.27405696 </v>
    <v>       0.27405696       0.27405696      -0.27405696 </v>
   </varray>
  </crystal>
  <varray name="positions" >
   <v>       0.00000000       0.00000000       0.00000000 </v>
  </varray>
 </structure>
 <calculation>
  <scstep>
   <time name="dav">    0.28    0.28</time>
   <time name="total">    0.29    0.29</time>
   <energy>
    <i name="alphaZ">     34.87504433 </i>
    <i name="ewald">   -732.78775748 </i>
    <i name="hartreedc">   -162.09367925 </i>
    <i name="XCdc">     17.46708086 </i>
    <i name="pawpsdc">    719.99081943 </i>
    <i name="pawaedc">   -772.94345096 </i>
    <i name="eentropy">     -0.00109329 </i>
    <i name="bandstr">    105.38915886 </i>
    <i name="atom">    813.35773410 </i>
    <i name="e_fr_energy">     23.25385659 </i>
    <i name="e_wo_entrp">     23.25494988 </i>
    <i name="e_0_energy">     23.25440323 </i>
   </energy>
  </scstep>
  <scstep>
   <time name="dav">    0.27    0.27</time>
   <time name="total">    0.27    0.27</time>
   <energy>
    <i name="e_fr_energy">     -6.96622270 </i>
    <i name="e_wo_entrp">     -6.96445766 </i>
    <i name="e_0_energy">     -6.96534018 </i>
   </energy>
  </scstep>
  <scstep>
   <time name="dav">    0.28    0.29</time>
   <time name="total">    0.29    0.29</time>
   <energy>
    <i name="e_fr_energy">     -7.80563705 </i>
    <i name="e_wo_entrp">     -7.80459317 </i>
    <i name="e_0_energy">     -7.80511511 </i>
   </energy>
  </scstep>
  <scstep>
   <time name="dav">    0.29    0.29</time>
   <time name="total">    0.29    0.29</time>
   <energy>
    <i name="e_fr_energy">     -7.81465820 </i>
    <i name="e_wo_entrp">     -7.81362178 </i>
    <i name="e_0_energy">     -7.81413999 </i>
   </energy>
  </scstep>
  <scstep>
   <time name="dav">    0.32    0.32</time>
   <time name="total">    0.33    0.33</time>
   <energy>
    <i name="e_fr_energy">     -7.81491410 </i>
    <i name="e_wo_entrp">     -7.81387798 </i>
    <i name="e_0_energy">     -7.81439604 </i>
   </energy>
  </scstep>
  <scstep>
   <time name="dav">    0.30    0.31</time>
   <time name="total">    0.33    0.33</time>
   <energy>
    <i name="e_fr_energy">     -7.23273570 </i>
    <i name="e_wo_entrp">     -7.23020017 </i>
    <i name="e_0_energy">     -7.23146794 </i>
   </energy>
  </scstep>
  <scstep>
   <time name="dav">    0.30    0.30</time>
   <time name="total">    0.32    0.32</time>
   <energy>
    <i name="e_fr_energy">     -6.95351533 </i>
    <i name="e_wo_entrp">     -6.95130756 </i>
    <i name="e_0_energy">     -6.95241145 </i>
   </energy>
  </scstep>
  <scstep>
   <time name="dav">    0.31    0.31</time>
   <time name="total">    0.33    0.34</time>
   <energy>
    <i name="e_fr_energy">     -6.94637844 </i>
    <i name="e_wo_entrp">     -6.94415912 </i>
    <i name="e_0_energy">     -6.94526878 </i>
   </energy>
  </scstep>
  <scstep>
   <time name="dav">    0.33    0.33</time>
   <time name="total">    0.35    0.35</time>
   <energy>
    <i name="e_fr_energy">     -6.93996598 </i>
    <i name="e_wo_entrp">     -6.93769385 </i>
    <i name="e_0_energy">     -6.93882992 </i>
   </energy>
  </scstep>
  <scstep>
   <time name="dav">    0.34    0.34</time>
   <time name="total">    0.36    0.36</time>
   <energy>
    <i name="e_fr_energy">     -6.93949556 </i>
    <i name="e_wo_entrp">     -6.93723874 </i>
    <i name="e_0_energy">     -6.93836715 </i>
   </energy>
  </scstep>
  <scstep>
   <time name="dav">    0.33    0.33</time>
   <time name="total">    0.35    0.35</time>
   <energy>
    <i name="e_fr_energy">     -6.93946892 </i>
    <i name="e_wo_entrp">     -6.93720525 </i>
    <i name="e_0_energy">     -6.93833709 </i>
   </energy>
  </scstep>
  <scstep>
   <time name="dav">    0.29    0.29</time>
   <time name="total">    0.30    0.30</time>
   <energy>
    <i name="alphaZ">     34.87504433 </i>
    <i name="ewald">   -732.78775748 </i>
    <i name="hartreedc">   -144.32541679 </i>
    <i name="XCdc">     16.16631612 </i>
    <i name="pawpsdc">    849.11902627 </i>
    <i name="pawaedc">   -901.80124043 </i>
    <i name="eentropy">     -0.00226546 </i>
    <i name="bandstr">     58.45909028 </i>
    <i name="atom">    813.35773410 </i>
    <i name="e_fr_energy">     -6.93946905 </i>
    <i name="e_wo_entrp">     -6.93720359 </i>
    <i name="e_0_energy">     -6.93833632 </i>
   </energy>
  </scstep>
  <structure>
   <crystal>
    <varray name="basis" >
     <v>       0.00000000       1.82443826       1.82443826 </v>
     <v>       1.82443826       0.00000000       1.82443826 </v>
     <v>       1.82443826       1.82443826       0.00000000 </v>
    </varray>
    <i name="volume">     12.14555901 </i>
    <varray name="rec_basis" >
     <v>      -0.27405696       0.27405696       0.27405696 </v>
     <v>       0.27405696      -0.27405696       0.27405696 </v>
     <v>       0.27405696       0.27405696      -0.27405696 </v>
    </varray>
   </crystal>
   <varray name="positions" >
    <v>       0.00000000       0.00000000       0.00000000 </v>
   </varray>
  </structure>
  <varray name="forces" >
   <v>       0.00000000      -0.00000000       0.00000000 </v>
  </varray>
  <varray name="stress" >
   <v>    -184.31266532      -0.00000000      -0.00000000 </v>
   <v>      -0.00000000    -184.31266532      -0.00000000 </v>
   <v>      -0.00000000      -0.00000000    -184.31266532 </v>
  </varray>
  <energy>
   <i name="e_fr_energy">     -6.93946905 </i>
   <i name="e_wo_entrp">     -6.93720359 </i>
   <i name="e_0_energy">     -6.93833632 </i>
  </energy>
  <time name="totalsc">    3.94    4.04</time>
  <eigenvalues>
   <array>
    <dimension dim="1">band</dimension>
    <dimension dim="2">kpoint</dimension>
    <dimension dim="3">spin</dimension>
    <field>eigene</field>
    <field>occ</field>
    <set>
     <set comment="spin 1">
      <set comment="kpoint 1">
       <r>    0.6226    1.0000 </r>
       <r>    6.2032    1.0000 </r>
       <r>    6.2699    1.0000 </r>
       <r>    6.2699    1.0000 </r>
       <r>    7.0810    1.0000 </r>
       <r>    7.0810    1.0000 </r>
       <r>   30.4625    0.0000 </r>
       <r>   32.7984    0.0000 </r>
       <r>   34.0954    0.0000 </r>
       <r>   34.0954    0.0000 </r>
       <r>   37.6857    0.0000 </r>
       <r>   37.6857    0.0000 </r>
      </set>
      <set comment="kpoint 2">
       <r>    1.3600    1.0000 </r>
       <r>    6.0303    1.0000 </r>
       <r>    6.4003    1.0000 </r>
       <r>    6.4064    1.0000 </r>
       <r>    6.9565    1.0000 </r>
       <r>    7.1615    1.0000 </r>
       <r>   27.3159    0.0000 </r>
       <r>   29.8549    0.0000 </r>
       <r>   33.2798    0.0000 </r>
       <r>   35.0547    0.0000 </r>
       <r>   36.8962    0.0000 </r>
       <r>   37.8791    0.0000 </r>
      </set>
      <set comment="kpoint 3">
       <r>    2.9333    1.0000 </r>
       <r>    5.9506    1.0000 </r>
       <r>    6.3437    1.0000 </r>
       <r>    6.4030    1.0000 </r>
       <r>    7.1551    1.0000 </r>
       <r>    7.5172    1.0000 </r>
       <r>   21.4138    0.0000 </r>
       <r>   28.8396    0.0000 </r>
       <r>   32.2707    0.0000 </r>
       <r>   34.3823    0.0000 </r>
       <r>   35.7032    0.0000 </r>
       <r>   36.7944    0.0000 </r>
      </set>
      <set comment="kpoint 4">
       <r>    4.0468    1.0000 </r>
       <r>    6.1467    1.0000 </r>
       <r>    6.2260    1.0000 </r>
       <r>    6.9095    1.0000 </r>
       <r>    7.6223    1.0000 </r>
       <r>    8.2604    1.0000 </r>
       <r>   16.2837    0.0000 </r>
       <r>   28.5169    0.0000 </r>
       <r>   30.9722    0.0000 </r>
       <r>   32.3363    0.0000 </r>
       <r>   34.8967    0.0000 </r>
       <r>   36.4266    0.0000 </r>
      </set>
      <set comment="kpoint 5">
       <r>    4.1768    1.0000 </r>
       <r>    6.0657    1.0000 </r>
       <r>    6.1817    1.0000 </r>
       <r>    7.3657    1.0000 </r>
       <r>    7.8553    1.0000 </r>
       <r>    9.1579    0.0000 </r>
       <r>   14.1586    0.0000 </r>
       <r>   28.8360    0.0000 </r>
       <r>   30.6467    0.0000 </r>
       <r>   30.8466    0.0000 </r>
       <r>   35.6508    0.0000 </r>
       <r>   35.7637    0.0000 </r>
      </set>
      <set comment="kpoint 6">
       <r>    3.8303    1.0000 </r>
       <r>    6.1795    1.0000 </r>
       <r>    6.3030    1.0000 </r>
       <r>    6.4332    1.0000 </r>
       <r>    7.6806    1.0000 </r>
       <r>    7.7681    1.0000 </r>
       <r>   17.8445    0.0000 </r>
       <r>   29.5514    0.0000 </r>
       <r>   30.1499    0.0000 </r>
       <r>   32.3147    0.0000 </r>
       <r>   35.6663    0.0000 </r>
       <r>   37.3117    0.0000 </r>
      </set>
      <set comment="kpoint 7">
       <r>    2.3630    1.0000 </r>
       <r>    5.9043    1.0000 </r>
       <r>    6.3980    1.0000 </r>
       <r>    6.4496    1.0000 </r>
       <r>    7.0944    1.0000 </r>
       <r>    7.3026    1.0000 </r>
       <r>   23.3394    0.0000 </r>
       <r>   30.4740    0.0000 </r>
       <r>   30.6877    0.0000 </r>
       <r>   34.9231    0.0000 </r>
       <r>   35.5560    0.0000 </r>
       <r>   39.4371    0.0000 </r>
      </set>
      <set comment="kpoint 8">
       <r>    0.9969    1.0000 </r>
       <r>    6.0861    1.0000 </r>
       <r>    6.3622    1.0000 </r>
       <r>    6.3655    1.0000 </r>
       <r>    6.9715    1.0000 </r>
       <r>    7.1373    1.0000 </r>
       <r>   29.1918    0.0000 </r>
       <r>   31.4791    0.0000 </r>
       <r>   32.0661    0.0000 </r>
       <r>   34.0891    0.0000 </r>
       <r>   37.6616    0.0000 </r>
       <r>   39.5068    0.0000 </r>
      </set>
      <set comment="kpoint 9">
       <r>    1.7142    1.0000 </r>
       <r>    5.8586    1.0000 </r>
       <r>    6.5217    1.0000 </r>
       <r>    6.5512    1.0000 </r>
       <r>    6.8288    1.0000 </r>
       <r>    7.2422    1.0000 </r>
       <r>   27.5931    0.0000 </r>
       <r>   29.8704    0.0000 </r>
       <r>   30.1868    0.0000 </r>
       <r>   32.3351    0.0000 </r>
       <r>   36.5692    0.0000 </r>
       <r>   40.0339    0.0000 </r>
      </set>
      <set comment="kpoint 10">
       <r>    2.9817    1.0000 </r>
       <r>    5.6103    1.0000 </r>
       <r>    6.3281    1.0000 </r>
       <r>    6.7596    1.0000 </r>
       <r>    7.0715    1.0000 </r>
       <r>    7.5809    1.0000 </r>
       <r>   23.8659    0.0000 </r>
       <r>   26.3661    0.0000 </r>
       <r>   30.0624    0.0000 </r>
       <r>   31.8578    0.0000 </r>
       <r>   35.7020    0.0000 </r>
       <r>   39.8986    0.0000 </r>
      </set>
      <set comment="kpoint 11">
       <r>    4.2958    1.0000 </r>
       <r>    5.7144    1.0000 </r>
       <r>    6.0844    1.0000 </r>
       <r>    6.6181    1.0000 </r>
       <r>    7.6612    1.0000 </r>
       <r>    8.6782    1.0000 </r>
       <r>   18.3511    0.0000 </r>
       <r>   25.8508    0.0000 </r>
       <r>   27.5953    0.0000 </r>
       <r>   31.4264    0.0000 </r>
       <r>   37.8192    0.0000 </r>
       <r>   39.9655    0.0000 </r>
      </set>
      <set comment="kpoint 12">
       <r>    4.5939    1.0000 </r>
       <r>    5.7242    1.0000 </r>
       <r>    6.4608    1.0000 </r>
       <r>    6.5255    1.0000 </r>
       <r>    7.8279    1.0000 </r>
       <r>   10.8003    0.0000 </r>
       <r>   14.3784    0.0000 </r>
       <r>   25.3374    0.0000 </r>
       <r>   26.8136    0.0000 </r>
       <r>   31.3426    0.0000 </r>
       <r>   36.9468    0.0000 </r>
       <r>   40.5305    0.0000 </r>
      </set>
      <set comment="kpoint 13">
       <r>    4.5200    1.0000 </r>
       <r>    5.8495    1.0000 </r>
       <r>    6.1748    1.0000 </r>
       <r>    6.5234    1.0000 </r>
       <r>    7.5657    1.0000 </r>
       <r>    9.4642    0.0000 </r>
       <r>   16.7585    0.0000 </r>
       <r>   24.4680    0.0000 </r>
       <r>   28.4121    0.0000 </r>
       <r>   32.3658    0.0000 </r>
       <r>   36.3685    0.0000 </r>
       <r>   39.9254    0.0000 </r>
      </set>
      <set comment="kpoint 14">
       <r>    3.5264    1.0000 </r>
       <r>    5.6747    1.0000 </r>
       <r>    6.1866    1.0000 </r>
       <r>    6.6911    1.0000 </r>
       <r>    7.0189    1.0000 </r>
       <r>    8.0196    1.0000 </r>
       <r>   21.9594    0.0000 </r>
       <r>   24.5807    0.0000 </r>
       <r>   30.9139    0.0000 </r>
       <r>   34.2191    0.0000 </r>
       <r>   35.9187    0.0000 </r>
       <r>   38.5094    0.0000 </r>
      </set>
      <set comment="kpoint 15">
       <r>    2.0532    1.0000 </r>
       <r>    5.8587    1.0000 </r>
       <r>    6.4310    1.0000 </r>
       <r>    6.5510    1.0000 </r>
       <r>    6.8948    1.0000 </r>
       <r>    7.3263    1.0000 </r>
       <r>   25.5037    0.0000 </r>
       <r>   28.0444    0.0000 </r>
       <r>   32.3760    0.0000 </r>
       <r>   34.0625    0.0000 </r>
       <r>   36.8191    0.0000 </r>
       <r>   38.4109    0.0000 </r>
      </set>
      <set comment="kpoint 16">
       <r>    3.6370    1.0000 </r>
       <r>    5.2606    1.0000 </r>
       <r>    6.6058    1.0000 </r>
       <r>    7.1189    1.0000 </r>
       <r>    7.4131    1.0000 </r>
       <r>    7.5436    1.0000 </r>
       <r>   24.4480    0.0000 </r>
       <r>   25.9751    0.0000 </r>
       <r>   26.2184    0.0000 </r>
       <r>   28.8457    0.0000 </r>
       <r>   32.4372    0.0000 </r>
       <r>   45.0831    0.0000 </r>
      </set>
      <set comment="kpoint 17">
       <r>    4.3488    1.0000 </r>
       <r>    5.0876    1.0000 </r>
       <r>    6.5760    1.0000 </r>
       <r>    7.3085    1.0000 </r>
       <r>    7.7010    1.0000 </r>
       <r>    8.9322    0.0195 </r>
       <r>   21.2293    0.0000 </r>
       <r>   23.1116    0.0000 </r>
       <r>   23.8498    0.0000 </r>
       <r>   29.9782    0.0000 </r>
       <r>   33.7233    0.0000 </r>
       <r>   43.4099    0.0000 </r>
      </set>
      <set comment="kpoint 18">
       <r>    4.7920    1.0000 </r>
       <r>    5.1981    1.0000 </r>
       <r>    6.3335    1.0000 </r>
       <r>    7.0662    1.0000 </r>
       <r>    7.8870    1.0000 </r>
       <r>   11.8856    0.0000 </r>
       <r>   16.3866    0.0000 </r>
       <r>   20.9332    0.0000 </r>
       <r>   24.1012    0.0000 </r>
       <r>   30.3542    0.0000 </r>
       <r>   38.5580    0.0000 </r>
       <r>   41.5998    0.0000 </r>
      </set>
      <set comment="kpoint 19">
       <r>    5.1976    1.0000 </r>
       <r>    5.3368    1.0000 </r>
       <r>    5.9548    1.0000 </r>
       <r>    6.8948    1.0000 </r>
       <r>    7.6324    1.0000 </r>
       <r>   12.1494    0.0000 </r>
       <r>   16.2469    0.0000 </r>
       <r>   19.6651    0.0000 </r>
       <r>   25.7121    0.0000 </r>
       <r>   31.2152    0.0000 </r>
       <r>   39.5846    0.0000 </r>
       <r>   44.1716    0.0000 </r>
      </set>
      <set comment="kpoint 20">
       <r>    4.7653    1.0000 </r>
       <r>    5.6907    1.0000 </r>
       <r>    5.7987    1.0000 </r>
       <r>    6.7510    1.0000 </r>
       <r>    7.3192    1.0000 </r>
       <r>    9.5135    0.0000 </r>
       <r>   18.8763    0.0000 </r>
       <r>   21.7188    0.0000 </r>
       <r>   28.1745    0.0000 </r>
       <r>   32.8643    0.0000 </r>
       <r>   36.9902    0.0000 </r>
       <r>   41.1627    0.0000 </r>
      </set>
      <set comment="kpoint 21">
       <r>    3.6447    1.0000 </r>
       <r>    5.9179    1.0000 </r>
       <r>    6.1966    1.0000 </r>
       <r>    6.4566    1.0000 </r>
       <r>    7.3573    1.0000 </r>
       <r>    7.9119    1.0000 </r>
       <r>   19.7516    0.0000 </r>
       <r>   27.2653    0.0000 </r>
       <r>   30.6939    0.0000 </r>
       <r>   32.8065    0.0000 </r>
       <r>   36.5457    0.0000 </r>
       <r>   37.9171    0.0000 </r>
      </set>
      <set comment="kpoint 22">
       <r>    4.1824    1.0000 </r>
       <r>    4.7794    1.0000 </r>
       <r>    7.6119    1.0000 </r>
       <r>    7.6348    1.0000 </r>
       <r>    7.9072    1.0000 </r>
       <r>    9.6551    0.0000 </r>
       <r>   19.8980    0.0000 </r>
       <r>   22.2549    0.0000 </r>
       <r>   23.3979    0.0000 </r>
       <r>   27.9635    0.0000 </r>
       <r>   31.2125    0.0000 </r>
       <r>   45.7674    0.0000 </r>
      </set>
      <set comment="kpoint 23">
       <r>    4.3185    1.0000 </r>
       <r>    4.7994    1.0000 </r>
       <r>    7.2926    1.0000 </r>
       <r>    7.5659    1.0000 </r>
       <r>    8.0304    1.0000 </r>
       <r>   12.0310    0.0000 </r>
       <r>   17.8208    0.0000 </r>
       <r>   19.9442    0.0000 </r>
       <r>   22.2829    0.0000 </r>
       <r>   29.3480    0.0000 </r>
       <r>   33.0931    0.0000 </r>
       <r>   45.6857    0.0000 </r>
      </set>
      <set comment="kpoint 24">
       <r>    4.7540    1.0000 </r>
       <r>    5.1197    1.0000 </r>
       <r>    6.4855    1.0000 </r>
       <r>    7.2060    1.0000 </r>
       <r>    7.8852    1.0000 </r>
       <r>   13.8230    0.0000 </r>
       <r>   15.8350    0.0000 </r>
       <r>   18.4857    0.0000 </r>
       <r>   23.6736    0.0000 </r>
       <r>   30.1895    0.0000 </r>
       <r>   38.4869    0.0000 </r>
       <r>   42.7740    0.0000 </r>
      </set>
      <set comment="kpoint 25">
       <r>    4.9198    1.0000 </r>
       <r>    5.4778    1.0000 </r>
       <r>    6.2142    1.0000 </r>
       <r>    6.6995    1.0000 </r>
       <r>    7.7509    1.0000 </r>
       <r>   11.9215    0.0000 </r>
       <r>   14.6579    0.0000 </r>
       <r>   22.3408    0.0000 </r>
       <r>   26.0521    0.0000 </r>
       <r>   31.2498    0.0000 </r>
       <r>   38.2807    0.0000 </r>
       <r>   42.5980    0.0000 </r>
      </set>
      <set comment="kpoint 26">
       <r>    4.2982    1.0000 </r>
       <r>    5.9765    1.0000 </r>
       <r>    6.2985    1.0000 </r>
       <r>    6.8039    1.0000 </r>
       <r>    7.7802    1.0000 </r>
       <r>    9.3384    0.0000 </r>
       <r>   15.0938    0.0000 </r>
       <r>   27.3019    0.0000 </r>
       <r>   28.9877    0.0000 </r>
       <r>   31.5392    0.0000 </r>
       <r>   35.9093    0.0000 </r>
       <r>   38.0504    0.0000 </r>
      </set>
      <set comment="kpoint 27">
       <r>    4.1373    1.0000 </r>
       <r>    4.6697    1.0000 </r>
       <r>    7.7012    1.0000 </r>
       <r>    7.8663    1.0000 </r>
       <r>    8.0404    1.0000 </r>
       <r>   11.1731    0.0000 </r>
       <r>   17.6918    0.0000 </r>
       <r>   21.7298    0.0000 </r>
       <r>   22.8299    0.0000 </r>
       <r>   27.8135    0.0000 </r>
       <r>   31.0471    0.0000 </r>
       <r>   45.7614    0.0000 </r>
      </set>
      <set comment="kpoint 28">
       <r>    4.3768    1.0000 </r>
       <r>    4.8993    1.0000 </r>
       <r>    7.0062    1.0000 </r>
       <r>    7.5123    1.0000 </r>
       <r>    7.9013    1.0000 </r>
       <r>   10.4528    0.0000 </r>
       <r>   20.0111    0.0000 </r>
       <r>   20.5197    0.0000 </r>
       <r>   22.7830    0.0000 </r>
       <r>   29.5494    0.0000 </r>
       <r>   33.2847    0.0000 </r>
       <r>   44.9358    0.0000 </r>
      </set>
      <set comment="kpoint 29">
       <r>    4.6897    1.0000 </r>
       <r>    5.4137    1.0000 </r>
       <r>    6.1520    1.0000 </r>
       <r>    6.8434    1.0000 </r>
       <r>    7.8320    1.0000 </r>
       <r>   10.0447    0.0000 </r>
       <r>   17.2205    0.0000 </r>
       <r>   23.9469    0.0000 </r>
       <r>   25.0141    0.0000 </r>
       <r>   30.7292    0.0000 </r>
       <r>   38.4991    0.0000 </r>
       <r>   40.5290    0.0000 </r>
      </set>
      <set comment="kpoint 30">
       <r>    4.1280    1.0000 </r>
       <r>    4.9852    1.0000 </r>
       <r>    7.1487    1.0000 </r>
       <r>    7.4116    1.0000 </r>
       <r>    7.7196    1.0000 </r>
       <r>    8.1913    1.0000 </r>
       <r>   22.7969    0.0000 </r>
       <r>   23.3378    0.0000 </r>
       <r>   24.4757    0.0000 </r>
       <r>   28.2844    0.0000 </r>
       <r>   31.6199    0.0000 </r>
       <r>   45.6873    0.0000 </r>
      </set>
      <set comment="kpoint 31">
       <r>    3.8914    1.0000 </r>
       <r>    5.3380    1.0000 </r>
       <r>    6.2812    1.0000 </r>
       <r>    7.0246    1.0000 </r>
       <r>    7.4171    1.0000 </r>
       <r>    8.0098    1.0000 </r>
       <r>   22.4293    0.0000 </r>
       <r>   24.8428    0.0000 </r>
       <r>   26.7451    0.0000 </r>
       <r>   30.6948    0.0000 </r>
       <r>   34.5011    0.0000 </r>
       <r>   41.7282    0.0000 </r>
      </set>
      <set comment="kpoint 32">
       <r>    2.6818    1.0000 </r>
       <r>    5.5671    1.0000 </r>
       <r>    6.5084    1.0000 </r>
       <r>    6.8125    1.0000 </r>
       <r>    6.9845    1.0000 </r>
       <r>    7.3825    1.0000 </r>
       <r>   25.9732    0.0000 </r>
       <r>   27.8035    0.0000 </r>
       <r>   28.8583    0.0000 </r>
       <r>   30.0977    0.0000 </r>
       <r>   33.9785    0.0000 </r>
       <r>   42.5256    0.0000 </r>
      </set>
      <set comment="kpoint 33">
       <r>    1.7067    1.0000 </r>
       <r>    6.0107    1.0000 </r>
       <r>    6.4040    1.0000 </r>
       <r>    6.4040    1.0000 </r>
       <r>    7.0934    1.0000 </r>
       <r>    7.0934    1.0000 </r>
       <r>   25.2334    0.0000 </r>
       <r>   31.4965    0.0000 </r>
       <r>   32.9184    0.0000 </r>
       <r>   32.9184    0.0000 </r>
       <r>   38.3602    0.0000 </r>
       <r>   38.7569    0.0000 </r>
      </set>
      <set comment="kpoint 34">
       <r>    2.6921    1.0000 </r>
       <r>    5.8070    1.0000 </r>
       <r>    6.3542    1.0000 </r>
       <r>    6.5930    1.0000 </r>
       <r>    6.8651    1.0000 </r>
       <r>    7.6032    1.0000 </r>
       <r>   23.6155    0.0000 </r>
       <r>   26.2025    0.0000 </r>
       <r>   33.6271    0.0000 </r>
       <r>   35.3727    0.0000 </r>
       <r>   35.4763    0.0000 </r>
       <r>   36.8986    0.0000 </r>
      </set>
      <set comment="kpoint 35">
       <r>    4.1855    1.0000 </r>
       <r>    5.7183    1.0000 </r>
       <r>    6.0467    1.0000 </r>
       <r>    6.6236    1.0000 </r>
       <r>    7.0936    1.0000 </r>
       <r>    8.6199    1.0000 </r>
       <r>   20.2947    0.0000 </r>
       <r>   23.0100    0.0000 </r>
       <r>   31.7146    0.0000 </r>
       <r>   31.8708    0.0000 </r>
       <r>   37.3474    0.0000 </r>
       <r>   38.6567    0.0000 </r>
      </set>
      <set comment="kpoint 36">
       <r>    4.7182    1.0000 </r>
       <r>    5.7202    1.0000 </r>
       <r>    6.3031    1.0000 </r>
       <r>    6.5319    1.0000 </r>
       <r>    7.6177    1.0000 </r>
       <r>   10.5530    0.0000 </r>
       <r>   15.4928    0.0000 </r>
       <r>   23.2610    0.0000 </r>
       <r>   28.9849    0.0000 </r>
       <r>   30.1264    0.0000 </r>
       <r>   38.9004    0.0000 </r>
       <r>   39.2084    0.0000 </r>
      </set>
      <set comment="kpoint 37">
       <r>    4.6342    1.0000 </r>
       <r>    5.6063    1.0000 </r>
       <r>    6.3248    1.0000 </r>
       <r>    6.5988    1.0000 </r>
       <r>    7.8844    1.0000 </r>
       <r>   10.4256    0.0000 </r>
       <r>   15.4615    0.0000 </r>
       <r>   24.5748    0.0000 </r>
       <r>   27.2409    0.0000 </r>
       <r>   29.5654    0.0000 </r>
       <r>   40.0372    0.0000 </r>
       <r>   40.0614    0.0000 </r>
      </set>
      <set comment="kpoint 38">
       <r>    4.0553    1.0000 </r>
       <r>    5.4634    1.0000 </r>
       <r>    6.1928    1.0000 </r>
       <r>    6.7620    1.0000 </r>
       <r>    7.7295    1.0000 </r>
       <r>    8.1290    1.0000 </r>
       <r>   20.2553    0.0000 </r>
       <r>   26.7089    0.0000 </r>
       <r>   26.8657    0.0000 </r>
       <r>   29.8156    0.0000 </r>
       <r>   36.8974    0.0000 </r>
       <r>   41.3249    0.0000 </r>
      </set>
      <set comment="kpoint 39">
       <r>    3.2263    1.0000 </r>
       <r>    5.7112    1.0000 </r>
       <r>    6.2721    1.0000 </r>
       <r>    6.5696    1.0000 </r>
       <r>    7.4118    1.0000 </r>
       <r>    7.5285    1.0000 </r>
       <r>   21.6781    0.0000 </r>
       <r>   28.6380    0.0000 </r>
       <r>   29.1352    0.0000 </r>
       <r>   31.7372    0.0000 </r>
       <r>   37.5194    0.0000 </r>
       <r>   39.0363    0.0000 </r>
      </set>
      <set comment="kpoint 40">
       <r>    4.3242    1.0000 </r>
       <r>    5.4894    1.0000 </r>
       <r>    5.9897    1.0000 </r>
       <r>    6.9077    1.0000 </r>
       <r>    7.3260    1.0000 </r>
       <r>    8.6814    1.0000 </r>
       <r>   20.5424    0.0000 </r>
       <r>   23.2022    0.0000 </r>
       <r>   27.3368    0.0000 </r>
       <r>   33.3422    0.0000 </r>
       <r>   36.1402    0.0000 </r>
       <r>   39.2767    0.0000 </r>
      </set>
      <set comment="kpoint 41">
       <r>    5.0990    1.0000 </r>
       <r>    5.4742    1.0000 </r>
       <r>    5.7340    1.0000 </r>
       <r>    6.9550    1.0000 </r>
       <r>    7.6032    1.0000 </r>
       <r>   10.8830    0.0000 </r>
       <r>   17.7175    0.0000 </r>
       <r>   20.7299    0.0000 </r>
       <r>   24.7024    0.0000 </r>
       <r>   34.1338    0.0000 </r>
       <r>   36.3816    0.0000 </r>
       <r>   41.1578    0.0000 </r>
      </set>
      <set comment="kpoint 42">
       <r>    5.0848    1.0000 </r>
       <r>    5.2940    1.0000 </r>
       <r>    6.0351    1.0000 </r>
       <r>    6.9133    1.0000 </r>
       <r>    7.8363    1.0000 </r>
       <r>   12.7894    0.0000 </r>
       <r>   15.0159    0.0000 </r>
       <r>   21.6894    0.0000 </r>
       <r>   22.9543    0.0000 </r>
       <r>   33.0398    0.0000 </r>
       <r>   37.6018    0.0000 </r>
       <r>   42.4147    0.0000 </r>
      </set>
      <set comment="kpoint 43">
       <r>    4.7218    1.0000 </r>
       <r>    5.2880    1.0000 </r>
       <r>    6.0486    1.0000 </r>
       <r>    7.1543    1.0000 </r>
       <r>    7.6304    1.0000 </r>
       <r>    9.8362    0.0000 </r>
       <r>   19.3853    0.0000 </r>
       <r>   22.0788    0.0000 </r>
       <r>   23.9107    0.0000 </r>
       <r>   32.6441    0.0000 </r>
       <r>   36.1198    0.0000 </r>
       <r>   40.1189    0.0000 </r>
      </set>
      <set comment="kpoint 44">
       <r>    4.4890    1.0000 </r>
       <r>    5.2036    1.0000 </r>
       <r>    6.4027    1.0000 </r>
       <r>    7.0022    1.0000 </r>
       <r>    7.8726    1.0000 </r>
       <r>    9.3349    0.0000 </r>
       <r>   19.0900    0.0000 </r>
       <r>   23.4933    0.0000 </r>
       <r>   25.4447    0.0000 </r>
       <r>   29.1181    0.0000 </r>
       <r>   36.1631    0.0000 </r>
       <r>   43.4105    0.0000 </r>
      </set>
      <set comment="kpoint 45">
       <r>    4.7038    1.0000 </r>
       <r>    5.1348    1.0000 </r>
       <r>    6.3502    1.0000 </r>
       <r>    7.2968    1.0000 </r>
       <r>    7.8754    1.0000 </r>
       <r>   11.5202    0.0000 </r>
       <r>   18.5304    0.0000 </r>
       <r>   20.5785    0.0000 </r>
       <r>   21.4959    0.0000 </r>
       <r>   32.1806    0.0000 </r>
       <r>   36.0277    0.0000 </r>
       <r>   41.3328    0.0000 </r>
      </set>
      <set comment="kpoint 46">
       <r>    4.8835    1.0000 </r>
       <r>    5.4382    1.0000 </r>
       <r>    5.9619    1.0000 </r>
       <r>    7.0856    1.0000 </r>
       <r>    8.0267    1.0000 </r>
       <r>   14.7370    0.0000 </r>
       <r>   16.3667    0.0000 </r>
       <r>   18.7164    0.0000 </r>
       <r>   19.8847    0.0000 </r>
       <r>   35.0208    0.0000 </r>
       <r>   38.1675    0.0000 </r>
       <r>   39.6416    0.0000 </r>
      </set>
      <set comment="kpoint 47">
       <r>    5.0182    1.0000 </r>
       <r>    5.4399    1.0000 </r>
       <r>    5.8291    1.0000 </r>
       <r>    7.0684    1.0000 </r>
       <r>    7.8627    1.0000 </r>
       <r>   12.7263    0.0000 </r>
       <r>   16.8635    0.0000 </r>
       <r>   20.0259    0.0000 </r>
       <r>   21.5425    0.0000 </r>
       <r>   34.9947    0.0000 </r>
       <r>   36.6735    0.0000 </r>
       <r>   40.5531    0.0000 </r>
      </set>
      <set comment="kpoint 48">
       <r>    4.4794    1.0000 </r>
       <r>    4.9117    1.0000 </r>
       <r>    6.9990    1.0000 </r>
       <r>    7.4133    1.0000 </r>
       <r>    7.9416    1.0000 </r>
       <r>   12.7269    0.0000 </r>
       <r>   17.5175    0.0000 </r>
       <r>   18.2901    0.0000 </r>
       <r>   23.9267    0.0000 </r>
       <r>   28.6615    0.0000 </r>
       <r>   35.4879    0.0000 </r>
       <r>   45.6275    0.0000 </r>
      </set>
      <set comment="kpoint 49">
       <r>    4.6181    1.0000 </r>
       <r>    5.0576    1.0000 </r>
       <r>    6.5950    1.0000 </r>
       <r>    7.3131    1.0000 </r>
       <r>    8.0276    1.0000 </r>
       <r>   13.2937    0.0000 </r>
       <r>   17.8528    0.0000 </r>
       <r>   18.4139    0.0000 </r>
       <r>   21.0083    0.0000 </r>
       <r>   31.9519    0.0000 </r>
       <r>   35.9726    0.0000 </r>
       <r>   42.4973    0.0000 </r>
      </set>
      <set comment="kpoint 50">
       <r>    4.5329    1.0000 </r>
       <r>    5.0077    1.0000 </r>
       <r>    6.7646    1.0000 </r>
       <r>    7.2440    1.0000 </r>
       <r>    7.9386    1.0000 </r>
       <r>   11.0163    0.0000 </r>
       <r>   18.2191    0.0000 </r>
       <r>   20.4371    0.0000 </r>
       <r>   24.4449    0.0000 </r>
       <r>   28.7970    0.0000 </r>
       <r>   35.7023    0.0000 </r>
       <r>   45.1904    0.0000 </r>
      </set>
      <set comment="kpoint 51">
       <r>    3.3506    1.0000 </r>
       <r>    6.2316    1.0000 </r>
       <r>    6.3011    1.0000 </r>
       <r>    6.3011    1.0000 </r>
       <r>    7.4413    1.0000 </r>
       <r>    7.4413    1.0000 </r>
       <r>   19.4814    0.0000 </r>
       <r>   30.4851    0.0000 </r>
       <r>   32.1206    0.0000 </r>
       <r>   32.1206    0.0000 </r>
       <r>   36.3538    0.0000 </r>
       <r>   36.3538    0.0000 </r>
      </set>
      <set comment="kpoint 52">
       <r>    4.1096    1.0000 </r>
       <r>    6.0948    1.0000 </r>
       <r>    6.1406    1.0000 </r>
       <r>    6.4014    1.0000 </r>
       <r>    7.3639    1.0000 </r>
       <r>    8.5036    1.0000 </r>
       <r>   18.1121    0.0000 </r>
       <r>   25.7488    0.0000 </r>
       <r>   31.3538    0.0000 </r>
       <r>   32.0970    0.0000 </r>
       <r>   36.5392    0.0000 </r>
       <r>   37.1767    0.0000 </r>
      </set>
      <set comment="kpoint 53">
       <r>    5.0497    1.0000 </r>
       <r>    5.5973    1.0000 </r>
       <r>    5.8749    1.0000 </r>
       <r>    6.7407    1.0000 </r>
       <r>    7.4283    1.0000 </r>
       <r>   10.6308    0.0000 </r>
       <r>   17.4387    0.0000 </r>
       <r>   20.5303    0.0000 </r>
       <r>   28.6422    0.0000 </r>
       <r>   30.1458    0.0000 </r>
       <r>   40.1975    0.0000 </r>
       <r>   40.6432    0.0000 </r>
      </set>
      <set comment="kpoint 54">
       <r>    4.9685    1.0000 </r>
       <r>    5.2459    1.0000 </r>
       <r>    6.2520    1.0000 </r>
       <r>    7.0328    1.0000 </r>
       <r>    7.7288    1.0000 </r>
       <r>   13.6567    0.0000 </r>
       <r>   15.0585    0.0000 </r>
       <r>   18.9277    0.0000 </r>
       <r>   25.9370    0.0000 </r>
       <r>   29.2088    0.0000 </r>
       <r>   41.5260    0.0000 </r>
       <r>   43.0739    0.0000 </r>
      </set>
      <set comment="kpoint 55">
       <r>    4.2726    1.0000 </r>
       <r>    5.9269    1.0000 </r>
       <r>    6.3969    1.0000 </r>
       <r>    6.4081    1.0000 </r>
       <r>    7.8360    1.0000 </r>
       <r>    8.8319    0.7803 </r>
       <r>   16.5013    0.0000 </r>
       <r>   27.6285    0.0000 </r>
       <r>   28.5101    0.0000 </r>
       <r>   30.2871    0.0000 </r>
       <r>   38.0711    0.0000 </r>
       <r>   38.5537    0.0000 </r>
      </set>
      <set comment="kpoint 56">
       <r>    4.8566    1.0000 </r>
       <r>    5.5283    1.0000 </r>
       <r>    6.1139    1.0000 </r>
       <r>    6.7226    1.0000 </r>
       <r>    7.7503    1.0000 </r>
       <r>   10.9431    0.0000 </r>
       <r>   15.6998    0.0000 </r>
       <r>   23.4409    0.0000 </r>
       <r>   25.0510    0.0000 </r>
       <r>   32.8555    0.0000 </r>
       <r>   36.5946    0.0000 </r>
       <r>   42.9188    0.0000 </r>
      </set>
      <set comment="kpoint 57">
       <r>    5.0371    1.0000 </r>
       <r>    5.3558    1.0000 </r>
       <r>    5.9726    1.0000 </r>
       <r>    7.0282    1.0000 </r>
       <r>    7.8639    1.0000 </r>
       <r>   14.0335    0.0000 </r>
       <r>   15.3993    0.0000 </r>
       <r>   19.1020    0.0000 </r>
       <r>   22.5538    0.0000 </r>
       <r>   33.0633    0.0000 </r>
       <r>   38.9451    0.0000 </r>
       <r>   41.6752    0.0000 </r>
      </set>
      <set comment="kpoint 58">
       <r>    4.8826    1.0000 </r>
       <r>    5.3460    1.0000 </r>
       <r>    6.2743    1.0000 </r>
       <r>    6.8351    1.0000 </r>
       <r>    7.8292    1.0000 </r>
       <r>   12.3122    0.0000 </r>
       <r>   14.8015    0.0000 </r>
       <r>   21.4905    0.0000 </r>
       <r>   26.3754    0.0000 </r>
       <r>   29.3024    0.0000 </r>
       <r>   41.2729    0.0000 </r>
       <r>   41.6672    0.0000 </r>
      </set>
      <set comment="kpoint 59">
       <r>    4.0599    1.0000 </r>
       <r>    6.1483    1.0000 </r>
       <r>    6.1483    1.0000 </r>
       <r>    7.7975    1.0000 </r>
       <r>    7.7975    1.0000 </r>
       <r>    8.0367    1.0000 </r>
       <r>   14.9240    0.0000 </r>
       <r>   29.6646    0.0000 </r>
       <r>   31.7773    0.0000 </r>
       <r>   31.7773    0.0000 </r>
       <r>   34.6657    0.0000 </r>
       <r>   34.6657    0.0000 </r>
      </set>
      <set comment="kpoint 60">
       <r>    4.4022    1.0000 </r>
       <r>    5.9046    1.0000 </r>
       <r>    6.3190    1.0000 </r>
       <r>    6.8262    1.0000 </r>
       <r>    7.7872    1.0000 </r>
       <r>   10.1327    0.0000 </r>
       <r>   14.2647    0.0000 </r>
       <r>   26.2626    0.0000 </r>
       <r>   29.6636    0.0000 </r>
       <r>   30.1980    0.0000 </r>
       <r>   37.1301    0.0000 </r>
       <r>   37.7548    0.0000 </r>
      </set>
     </set>
     <set comment="spin 2">
      <set comment="kpoint 1">
       <r>    0.6145    1.0000 </r>
       <r>    7.8734    1.0000 </r>
       <r>    7.9564    1.0000 </r>
       <r>    7.9564    1.0000 </r>
       <r>    9.1373    0.0000 </r>
       <r>    9.1373    0.0000 </r>
       <r>   30.2103    0.0000 </r>
       <r>   32.9002    0.0000 </r>
       <r>   34.3119    0.0000 </r>
       <r>   34.3119    0.0000 </r>
       <r>   37.9139    0.0000 </r>
       <r>   37.9140    0.0000 </r>
      </set>
      <set comment="kpoint 2">
       <r>    1.3584    1.0000 </r>
       <r>    7.6405    1.0000 </r>
       <r>    8.1095    1.0000 </r>
       <r>    8.1153    1.0000 </r>
       <r>    8.9798    0.0003 </r>
       <r>    9.2022    0.0000 </r>
       <r>   27.5165    0.0000 </r>
       <r>   29.9645    0.0000 </r>
       <r>   33.2711    0.0000 </r>
       <r>   35.2751    0.0000 </r>
       <r>   36.8155    0.0000 </r>
       <r>   38.0557    0.0000 </r>
      </set>
      <set comment="kpoint 3">
       <r>    3.0290    1.0000 </r>
       <r>    7.3513    1.0000 </r>
       <r>    8.1087    1.0000 </r>
       <r>    8.1966    1.0000 </r>
       <r>    9.1031    0.0000 </r>
       <r>    9.4907    0.0000 </r>
       <r>   21.8509    0.0000 </r>
       <r>   28.9507    0.0000 </r>
       <r>   32.2421    0.0000 </r>
       <r>   34.7460    0.0000 </r>
       <r>   35.9153    0.0000 </r>
       <r>   36.8384    0.0000 </r>
      </set>
      <set comment="kpoint 4">
       <r>    4.7377    1.0000 </r>
       <r>    7.6802    1.0000 </r>
       <r>    7.9364    1.0000 </r>
       <r>    8.0308    1.0000 </r>
       <r>    9.5919    0.0000 </r>
       <r>    9.9930    0.0000 </r>
       <r>   17.0067    0.0000 </r>
       <r>   28.5145    0.0000 </r>
       <r>   31.0277    0.0000 </r>
       <r>   32.6709    0.0000 </r>
       <r>   35.1548    0.0000 </r>
       <r>   36.6068    0.0000 </r>
      </set>
      <set comment="kpoint 5">
       <r>    5.1473    1.0000 </r>
       <r>    7.8083    1.0000 </r>
       <r>    7.9789    1.0000 </r>
       <r>    8.2690    1.0000 </r>
       <r>    9.8601    0.0000 </r>
       <r>   10.2413    0.0000 </r>
       <r>   15.1614    0.0000 </r>
       <r>   28.6503    0.0000 </r>
       <r>   30.9617    0.0000 </r>
       <r>   31.0950    0.0000 </r>
       <r>   35.9027    0.0000 </r>
       <r>   35.9507    0.0000 </r>
      </set>
      <set comment="kpoint 6">
       <r>    4.2730    1.0000 </r>
       <r>    7.4308    1.0000 </r>
       <r>    7.9781    1.0000 </r>
       <r>    8.0979    1.0000 </r>
       <r>    9.5875    0.0000 </r>
       <r>    9.6829    0.0000 </r>
       <r>   18.4501    0.0000 </r>
       <r>   29.3316    0.0000 </r>
       <r>   30.4854    0.0000 </r>
       <r>   32.6665    0.0000 </r>
       <r>   35.8126    0.0000 </r>
       <r>   37.5122    0.0000 </r>
      </set>
      <set comment="kpoint 7">
       <r>    2.3989    1.0000 </r>
       <r>    7.4073    1.0000 </r>
       <r>    8.1654    1.0000 </r>
       <r>    8.2058    1.0000 </r>
       <r>    9.0327    0.0000 </r>
       <r>    9.3218    0.0000 </r>
       <r>   23.7056    0.0000 </r>
       <r>   30.3198    0.0000 </r>
       <r>   31.0284    0.0000 </r>
       <r>   35.1940    0.0000 </r>
       <r>   35.6301    0.0000 </r>
       <r>   39.5832    0.0000 </r>
      </set>
      <set comment="kpoint 8">
       <r>    0.9909    1.0000 </r>
       <r>    7.7274    1.0000 </r>
       <r>    8.0576    1.0000 </r>
       <r>    8.0619    1.0000 </r>
       <r>    9.0006    0.0000 </r>
       <r>    9.1986    0.0000 </r>
       <r>   29.2164    0.0000 </r>
       <r>   31.4538    0.0000 </r>
       <r>   32.3652    0.0000 </r>
       <r>   34.1732    0.0000 </r>
       <r>   37.8201    0.0000 </r>
       <r>   39.6055    0.0000 </r>
      </set>
      <set comment="kpoint 9">
       <r>    1.7192    1.0000 </r>
       <r>    7.4500    1.0000 </r>
       <r>    8.2522    1.0000 </r>
       <r>    8.2690    1.0000 </r>
       <r>    8.7799    0.9876 </r>
       <r>    9.3120    0.0000 </r>
       <r>   27.8025    0.0000 </r>
       <r>   30.1538    0.0000 </r>
       <r>   30.1975    0.0000 </r>
       <r>   32.3596    0.0000 </r>
       <r>   37.2184    0.0000 </r>
       <r>   40.0885    0.0000 </r>
      </set>
      <set comment="kpoint 10">
       <r>    3.0563    1.0000 </r>
       <r>    7.1179    1.0000 </r>
       <r>    8.1109    1.0000 </r>
       <r>    8.5400    1.0000 </r>
       <r>    8.9162    0.0535 </r>
       <r>    9.5757    0.0000 </r>
       <r>   24.2146    0.0000 </r>
       <r>   26.6272    0.0000 </r>
       <r>   30.1651    0.0000 </r>
       <r>   32.0077    0.0000 </r>
       <r>   36.2001    0.0000 </r>
       <r>   39.9081    0.0000 </r>
      </set>
      <set comment="kpoint 11">
       <r>    4.8169    1.0000 </r>
       <r>    7.0129    1.0000 </r>
       <r>    7.7408    1.0000 </r>
       <r>    8.4464    1.0000 </r>
       <r>    9.5967    0.0000 </r>
       <r>   10.2857    0.0000 </r>
       <r>   18.8964    0.0000 </r>
       <r>   26.0852    0.0000 </r>
       <r>   27.8538    0.0000 </r>
       <r>   31.6075    0.0000 </r>
       <r>   37.9268    0.0000 </r>
       <r>   40.2221    0.0000 </r>
      </set>
      <set comment="kpoint 12">
       <r>    5.6438    1.0000 </r>
       <r>    7.1950    1.0000 </r>
       <r>    7.7876    1.0000 </r>
       <r>    8.3157    1.0000 </r>
       <r>    9.8121    0.0000 </r>
       <r>   11.6986    0.0000 </r>
       <r>   15.2830    0.0000 </r>
       <r>   25.5572    0.0000 </r>
       <r>   27.1375    0.0000 </r>
       <r>   31.4296    0.0000 </r>
       <r>   37.1388    0.0000 </r>
       <r>   40.6011    0.0000 </r>
      </set>
      <set comment="kpoint 13">
       <r>    5.2727    1.0000 </r>
       <r>    7.2095    1.0000 </r>
       <r>    7.6368    1.0000 </r>
       <r>    8.3607    1.0000 </r>
       <r>    9.4918    0.0000 </r>
       <r>   10.8840    0.0000 </r>
       <r>   17.4090    0.0000 </r>
       <r>   24.7570    0.0000 </r>
       <r>   28.6420    0.0000 </r>
       <r>   32.4572    0.0000 </r>
       <r>   36.5545    0.0000 </r>
       <r>   40.0171    0.0000 </r>
      </set>
      <set comment="kpoint 14">
       <r>    3.6597    1.0000 </r>
       <r>    7.1362    1.0000 </r>
       <r>    7.9332    1.0000 </r>
       <r>    8.5334    1.0000 </r>
       <r>    8.8843    0.2393 </r>
       <r>    9.9135    0.0000 </r>
       <r>   22.3739    0.0000 </r>
       <r>   24.8850    0.0000 </r>
       <r>   31.0350    0.0000 </r>
       <r>   34.3254    0.0000 </r>
       <r>   36.0201    0.0000 </r>
       <r>   38.8194    0.0000 </r>
      </set>
      <set comment="kpoint 15">
       <r>    2.0681    1.0000 </r>
       <r>    7.4215    1.0000 </r>
       <r>    8.1767    1.0000 </r>
       <r>    8.2861    1.0000 </r>
       <r>    8.8526    0.5750 </r>
       <r>    9.3522    0.0000 </r>
       <r>   25.7965    0.0000 </r>
       <r>   28.2439    0.0000 </r>
       <r>   32.3995    0.0000 </r>
       <r>   34.0768    0.0000 </r>
       <r>   37.2351    0.0000 </r>
       <r>   38.5751    0.0000 </r>
      </set>
      <set comment="kpoint 16">
       <r>    3.8923    1.0000 </r>
       <r>    6.7316    1.0000 </r>
       <r>    8.2114    1.0000 </r>
       <r>    8.9300    0.0227 </r>
       <r>    9.1397    0.0000 </r>
       <r>    9.6239    0.0000 </r>
       <r>   24.7504    0.0000 </r>
       <r>   26.2639    0.0000 </r>
       <r>   26.4471    0.0000 </r>
       <r>   29.0589    0.0000 </r>
       <r>   32.9232    0.0000 </r>
       <r>   45.0570    0.0000 </r>
      </set>
      <set comment="kpoint 17">
       <r>    5.1068    1.0000 </r>
       <r>    6.4955    1.0000 </r>
       <r>    7.9994    1.0000 </r>
       <r>    9.2077    0.0000 </r>
       <r>    9.6479    0.0000 </r>
       <r>   10.3693    0.0000 </r>
       <r>   21.5965    0.0000 </r>
       <r>   23.4686    0.0000 </r>
       <r>   24.1864    0.0000 </r>
       <r>   30.1892    0.0000 </r>
       <r>   34.0882    0.0000 </r>
       <r>   43.5351    0.0000 </r>
      </set>
      <set comment="kpoint 18">
       <r>    6.0387    1.0000 </r>
       <r>    6.5045    1.0000 </r>
       <r>    7.7013    1.0000 </r>
       <r>    9.0049    0.0000 </r>
       <r>    9.8488    0.0000 </r>
       <r>   12.7551    0.0000 </r>
       <r>   16.9431    0.0000 </r>
       <r>   21.4105    0.0000 </r>
       <r>   24.4054    0.0000 </r>
       <r>   30.5435    0.0000 </r>
       <r>   38.8080    0.0000 </r>
       <r>   41.7711    0.0000 </r>
      </set>
      <set comment="kpoint 19">
       <r>    6.2913    1.0000 </r>
       <r>    6.7762    1.0000 </r>
       <r>    7.3154    1.0000 </r>
       <r>    8.8521    0.5798 </r>
       <r>    9.5147    0.0000 </r>
       <r>   13.0598    0.0000 </r>
       <r>   16.8429    0.0000 </r>
       <r>   20.1695    0.0000 </r>
       <r>   26.0253    0.0000 </r>
       <r>   31.3492    0.0000 </r>
       <r>   39.6261    0.0000 </r>
       <r>   44.1702    0.0000 </r>
      </set>
      <set comment="kpoint 20">
       <r>    5.3109    1.0000 </r>
       <r>    7.0468    1.0000 </r>
       <r>    7.4503    1.0000 </r>
       <r>    8.6616    1.0000 </r>
       <r>    9.1688    0.0000 </r>
       <r>   11.0134    0.0000 </r>
       <r>   19.3956    0.0000 </r>
       <r>   22.1090    0.0000 </r>
       <r>   28.4258    0.0000 </r>
       <r>   32.9767    0.0000 </r>
       <r>   37.0373    0.0000 </r>
       <r>   41.3573    0.0000 </r>
      </set>
      <set comment="kpoint 21">
       <r>    3.8828    1.0000 </r>
       <r>    7.2229    1.0000 </r>
       <r>    7.9654    1.0000 </r>
       <r>    8.2646    1.0000 </r>
       <r>    9.2571    0.0000 </r>
       <r>    9.8082    0.0000 </r>
       <r>   20.2518    0.0000 </r>
       <r>   27.4599    0.0000 </r>
       <r>   30.7417    0.0000 </r>
       <r>   33.0977    0.0000 </r>
       <r>   36.6781    0.0000 </r>
       <r>   38.0536    0.0000 </r>
      </set>
      <set comment="kpoint 22">
       <r>    5.2977    1.0000 </r>
       <r>    6.1630    1.0000 </r>
       <r>    9.1281    0.0000 </r>
       <r>    9.6408    0.0000 </r>
       <r>    9.8993    0.0000 </r>
       <r>   10.4519    0.0000 </r>
       <r>   20.4947    0.0000 </r>
       <r>   22.5035    0.0000 </r>
       <r>   23.5898    0.0000 </r>
       <r>   28.2847    0.0000 </r>
       <r>   31.6225    0.0000 </r>
       <r>   48.5957    0.0000 </r>
      </set>
      <set comment="kpoint 23">
       <r>    5.6064    1.0000 </r>
       <r>    6.1571    1.0000 </r>
       <r>    8.7695    0.9944 </r>
       <r>    9.6498    0.0000 </r>
       <r>    9.9595    0.0000 </r>
       <r>   12.5217    0.0000 </r>
       <r>   18.6016    0.0000 </r>
       <r>   20.2614    0.0000 </r>
       <r>   22.5208    0.0000 </r>
       <r>   29.6094    0.0000 </r>
       <r>   33.4558    0.0000 </r>
       <r>   46.3869    0.0000 </r>
      </set>
      <set comment="kpoint 24">
       <r>    6.1347    1.0000 </r>
       <r>    6.4039    1.0000 </r>
       <r>    7.8490    1.0000 </r>
       <r>    9.2192    0.0000 </r>
       <r>    9.7994    0.0000 </r>
       <r>   14.4231    0.0000 </r>
       <r>   16.3787    0.0000 </r>
       <r>   19.1320    0.0000 </r>
       <r>   23.9703    0.0000 </r>
       <r>   30.3953    0.0000 </r>
       <r>   38.7778    0.0000 </r>
       <r>   42.8221    0.0000 </r>
      </set>
      <set comment="kpoint 25">
       <r>    6.0434    1.0000 </r>
       <r>    6.8776    1.0000 </r>
       <r>    7.5620    1.0000 </r>
       <r>    8.5902    1.0000 </r>
       <r>    9.6971    0.0000 </r>
       <r>   12.7486    0.0000 </r>
       <r>   15.4721    0.0000 </r>
       <r>   22.7185    0.0000 </r>
       <r>   26.3578    0.0000 </r>
       <r>   31.3595    0.0000 </r>
       <r>   38.4097    0.0000 </r>
       <r>   42.6437    0.0000 </r>
      </set>
      <set comment="kpoint 26">
       <r>    5.2024    1.0000 </r>
       <r>    7.5607    1.0000 </r>
       <r>    7.9033    1.0000 </r>
       <r>    8.1156    1.0000 </r>
       <r>    9.7599    0.0000 </r>
       <r>   10.5889    0.0000 </r>
       <r>   15.9284    0.0000 </r>
       <r>   27.3895    0.0000 </r>
       <r>   29.2447    0.0000 </r>
       <r>   31.6772    0.0000 </r>
       <r>   36.1417    0.0000 </r>
       <r>   38.1819    0.0000 </r>
      </set>
      <set comment="kpoint 27">
       <r>    5.3960    1.0000 </r>
       <r>    6.0345    1.0000 </r>
       <r>    9.5592    0.0000 </r>
       <r>    9.8256    0.0000 </r>
       <r>    9.9767    0.0000 </r>
       <r>   11.4424    0.0000 </r>
       <r>   18.5162    0.0000 </r>
       <r>   21.9435    0.0000 </r>
       <r>   22.9887    0.0000 </r>
       <r>   28.1604    0.0000 </r>
       <r>   31.4587    0.0000 </r>
       <r>   49.6395    0.0000 </r>
      </set>
      <set comment="kpoint 28">
       <r>    5.5262    1.0000 </r>
       <r>    6.2743    1.0000 </r>
       <r>    8.4052    1.0000 </r>
       <r>    9.5108    0.0000 </r>
       <r>    9.8525    0.0000 </r>
       <r>   11.3680    0.0000 </r>
       <r>   20.5035    0.0000 </r>
       <r>   20.9334    0.0000 </r>
       <r>   23.0463    0.0000 </r>
       <r>   29.7923    0.0000 </r>
       <r>   33.6438    0.0000 </r>
       <r>   45.1678    0.0000 </r>
      </set>
      <set comment="kpoint 29">
       <r>    5.6065    1.0000 </r>
       <r>    6.7433    1.0000 </r>
       <r>    7.6198    1.0000 </r>
       <r>    8.7142    1.0000 </r>
       <r>    9.8133    0.0000 </r>
       <r>   11.2543    0.0000 </r>
       <r>   17.7843    0.0000 </r>
       <r>   24.2577    0.0000 </r>
       <r>   25.3519    0.0000 </r>
       <r>   30.8985    0.0000 </r>
       <r>   38.6564    0.0000 </r>
       <r>   40.8199    0.0000 </r>
      </set>
      <set comment="kpoint 30">
       <r>    4.8538    1.0000 </r>
       <r>    6.4053    1.0000 </r>
       <r>    8.4620    1.0000 </r>
       <r>    9.3126    0.0000 </r>
       <r>    9.6699    0.0000 </r>
       <r>    9.7767    0.0000 </r>
       <r>   23.1579    0.0000 </r>
       <r>   23.6762    0.0000 </r>
       <r>   24.7174    0.0000 </r>
       <r>   28.5571    0.0000 </r>
       <r>   32.0438    0.0000 </r>
       <r>   47.2427    0.0000 </r>
      </set>
      <set comment="kpoint 31">
       <r>    4.1757    1.0000 </r>
       <r>    6.7913    1.0000 </r>
       <r>    7.9416    1.0000 </r>
       <r>    8.8553    0.5446 </r>
       <r>    9.2683    0.0000 </r>
       <r>    9.8584    0.0000 </r>
       <r>   22.8020    0.0000 </r>
       <r>   25.1256    0.0000 </r>
       <r>   27.0204    0.0000 </r>
       <r>   30.8719    0.0000 </r>
       <r>   34.9032    0.0000 </r>
       <r>   41.7908    0.0000 </r>
      </set>
      <set comment="kpoint 32">
       <r>    2.7365    1.0000 </r>
       <r>    7.0981    1.0000 </r>
       <r>    8.3182    1.0000 </r>
       <r>    8.5666    1.0000 </r>
       <r>    8.7619    0.9970 </r>
       <r>    9.4611    0.0000 </r>
       <r>   26.2621    0.0000 </r>
       <r>   28.1236    0.0000 </r>
       <r>   28.8750    0.0000 </r>
       <r>   30.2379    0.0000 </r>
       <r>   34.5886    0.0000 </r>
       <r>   42.4712    0.0000 </r>
      </set>
      <set comment="kpoint 33">
       <r>    1.7141    1.0000 </r>
       <r>    7.5753    1.0000 </r>
       <r>    8.1335    1.0000 </r>
       <r>    8.1335    1.0000 </r>
       <r>    9.1107    0.0000 </r>
       <r>    9.1107    0.0000 </r>
       <r>   25.5287    0.0000 </r>
       <r>   31.2321    0.0000 </r>
       <r>   33.2370    0.0000 </r>
       <r>   33.2370    0.0000 </r>
       <r>   38.2215    0.0000 </r>
       <r>   38.8358    0.0000 </r>
      </set>
      <set comment="kpoint 34">
       <r>    2.7379    1.0000 </r>
       <r>    7.3214    1.0000 </r>
       <r>    8.0967    1.0000 </r>
       <r>    8.3750    1.0000 </r>
       <r>    8.8112    0.9128 </r>
       <r>    9.5717    0.0000 </r>
       <r>   23.9760    0.0000 </r>
       <r>   26.4581    0.0000 </r>
       <r>   33.5415    0.0000 </r>
       <r>   35.4063    0.0000 </r>
       <r>   35.5763    0.0000 </r>
       <r>   37.2748    0.0000 </r>
      </set>
      <set comment="kpoint 35">
       <r>    4.4614    1.0000 </r>
       <r>    7.1207    1.0000 </r>
       <r>    7.7425    1.0000 </r>
       <r>    8.5313    1.0000 </r>
       <r>    8.9344    0.0168 </r>
       <r>   10.3807    0.0000 </r>
       <r>   20.7700    0.0000 </r>
       <r>   23.3604    0.0000 </r>
       <r>   31.6835    0.0000 </r>
       <r>   32.2113    0.0000 </r>
       <r>   37.2659    0.0000 </r>
       <r>   38.8826    0.0000 </r>
      </set>
      <set comment="kpoint 36">
       <r>    5.6842    1.0000 </r>
       <r>    7.1774    1.0000 </r>
       <r>    7.6043    1.0000 </r>
       <r>    8.4002    1.0000 </r>
       <r>    9.5535    0.0000 </r>
       <r>   11.6686    0.0000 </r>
       <r>   16.2426    0.0000 </r>
       <r>   23.5965    0.0000 </r>
       <r>   29.3160    0.0000 </r>
       <r>   30.1590    0.0000 </r>
       <r>   39.1095    0.0000 </r>
       <r>   39.2264    0.0000 </r>
      </set>
      <set comment="kpoint 37">
       <r>    5.6451    1.0000 </r>
       <r>    6.9600    1.0000 </r>
       <r>    7.7162    1.0000 </r>
       <r>    8.4524    1.0000 </r>
       <r>    9.8877    0.0000 </r>
       <r>   11.4789    0.0000 </r>
       <r>   16.1887    0.0000 </r>
       <r>   24.8613    0.0000 </r>
       <r>   27.5451    0.0000 </r>
       <r>   29.7085    0.0000 </r>
       <r>   40.0753    0.0000 </r>
       <r>   40.2141    0.0000 </r>
      </set>
      <set comment="kpoint 38">
       <r>    4.4115    1.0000 </r>
       <r>    6.8594    1.0000 </r>
       <r>    7.8604    1.0000 </r>
       <r>    8.5957    1.0000 </r>
       <r>    9.7477    0.0000 </r>
       <r>    9.7605    0.0000 </r>
       <r>   20.7056    0.0000 </r>
       <r>   26.8800    0.0000 </r>
       <r>   27.1703    0.0000 </r>
       <r>   30.0732    0.0000 </r>
       <r>   37.2246    0.0000 </r>
       <r>   41.3096    0.0000 </r>
      </set>
      <set comment="kpoint 39">
       <r>    3.3464    1.0000 </r>
       <r>    7.1532    1.0000 </r>
       <r>    8.0565    1.0000 </r>
       <r>    8.3589    1.0000 </r>
       <r>    9.2121    0.0000 </r>
       <r>    9.5551    0.0000 </r>
       <r>   22.0983    0.0000 </r>
       <r>   28.9690    0.0000 </r>
       <r>   29.0699    0.0000 </r>
       <r>   32.0403    0.0000 </r>
       <r>   37.8247    0.0000 </r>
       <r>   39.0925    0.0000 </r>
      </set>
      <set comment="kpoint 40">
       <r>    4.6888    1.0000 </r>
       <r>    6.9043    1.0000 </r>
       <r>    7.6721    1.0000 </r>
       <r>    8.7745    0.9917 </r>
       <r>    9.1850    0.0000 </r>
       <r>   10.3768    0.0000 </r>
       <r>   20.9902    0.0000 </r>
       <r>   23.5374    0.0000 </r>
       <r>   27.6003    0.0000 </r>
       <r>   33.4567    0.0000 </r>
       <r>   36.3071    0.0000 </r>
       <r>   39.6121    0.0000 </r>
      </set>
      <set comment="kpoint 41">
       <r>    6.0061    1.0000 </r>
       <r>    6.8949    1.0000 </r>
       <r>    7.2023    1.0000 </r>
       <r>    8.8885    0.2039 </r>
       <r>    9.4784    0.0000 </r>
       <r>   12.0191    0.0000 </r>
       <r>   18.2544    0.0000 </r>
       <r>   21.1522    0.0000 </r>
       <r>   25.0438    0.0000 </r>
       <r>   34.2239    0.0000 </r>
       <r>   36.4670    0.0000 </r>
       <r>   41.6075    0.0000 </r>
      </set>
      <set comment="kpoint 42">
       <r>    6.3318    1.0000 </r>
       <r>    6.6209    1.0000 </r>
       <r>    7.4084    1.0000 </r>
       <r>    8.8411    0.6958 </r>
       <r>    9.7685    0.0000 </r>
       <r>   13.5525    0.0000 </r>
       <r>   15.7264    0.0000 </r>
       <r>   22.0987    0.0000 </r>
       <r>   23.3263    0.0000 </r>
       <r>   33.1455    0.0000 </r>
       <r>   37.7224    0.0000 </r>
       <r>   42.7647    0.0000 </r>
      </set>
      <set comment="kpoint 43">
       <r>    5.5438    1.0000 </r>
       <r>    6.6737    1.0000 </r>
       <r>    7.5344    1.0000 </r>
       <r>    9.0720    0.0000 </r>
       <r>    9.5257    0.0000 </r>
       <r>   11.1509    0.0000 </r>
       <r>   19.8400    0.0000 </r>
       <r>   22.4272    0.0000 </r>
       <r>   24.2910    0.0000 </r>
       <r>   32.7816    0.0000 </r>
       <r>   36.3578    0.0000 </r>
       <r>   40.3693    0.0000 </r>
      </set>
      <set comment="kpoint 44">
       <r>    5.3032    1.0000 </r>
       <r>    6.5743    1.0000 </r>
       <r>    7.8388    1.0000 </r>
       <r>    8.8952    0.1544 </r>
       <r>    9.8953    0.0000 </r>
       <r>   10.6419    0.0000 </r>
       <r>   19.5419    0.0000 </r>
       <r>   23.8616    0.0000 </r>
       <r>   25.7156    0.0000 </r>
       <r>   29.3601    0.0000 </r>
       <r>   36.4743    0.0000 </r>
       <r>   43.5315    0.0000 </r>
      </set>
      <set comment="kpoint 45">
       <r>    5.9151    1.0000 </r>
       <r>    6.4945    1.0000 </r>
       <r>    7.7147    1.0000 </r>
       <r>    9.2863    0.0000 </r>
       <r>    9.7871    0.0000 </r>
       <r>   12.4224    0.0000 </r>
       <r>   18.9729    0.0000 </r>
       <r>   21.0674    0.0000 </r>
       <r>   21.8654    0.0000 </r>
       <r>   32.3393    0.0000 </r>
       <r>   36.3221    0.0000 </r>
       <r>   41.4927    0.0000 </r>
      </set>
      <set comment="kpoint 46">
       <r>    6.2641    1.0000 </r>
       <r>    6.7740    1.0000 </r>
       <r>    7.3107    1.0000 </r>
       <r>    9.0673    0.0000 </r>
       <r>    9.9500    0.0000 </r>
       <r>   15.3054    0.0000 </r>
       <r>   16.8816    0.0000 </r>
       <r>   19.3046    0.0000 </r>
       <r>   20.3354    0.0000 </r>
       <r>   35.1254    0.0000 </r>
       <r>   38.2805    0.0000 </r>
       <r>   39.8616    0.0000 </r>
      </set>
      <set comment="kpoint 47">
       <r>    6.3053    1.0000 </r>
       <r>    6.7766    1.0000 </r>
       <r>    7.1827    1.0000 </r>
       <r>    9.0371    0.0000 </r>
       <r>    9.7636    0.0000 </r>
       <r>   13.5409    0.0000 </r>
       <r>   17.3919    0.0000 </r>
       <r>   20.4772    0.0000 </r>
       <r>   21.9784    0.0000 </r>
       <r>   35.0877    0.0000 </r>
       <r>   36.7704    0.0000 </r>
       <r>   40.9169    0.0000 </r>
      </set>
      <set comment="kpoint 48">
       <r>    5.8022    1.0000 </r>
       <r>    6.2439    1.0000 </r>
       <r>    8.3994    1.0000 </r>
       <r>    9.4670    0.0000 </r>
       <r>    9.8728    0.0000 </r>
       <r>   13.2920    0.0000 </r>
       <r>   18.0346    0.0000 </r>
[...]
       </set>
       <set comment="band 5">
        <r>  0.0001  0.0000  0.0003  0.0005  0.0025  0.0310  0.0001  0.9500  0.0072 </r>
       </set>
       <set comment="band 6">
        <r>  0.0272  0.0058  0.4114  0.0008  0.0001  0.2841  0.0319  0.0139  0.0016 </r>
       </set>
       <set comment="band 7">
        <r>  0.0018  0.1209  0.0096  0.2570  0.1392  0.0066  0.1651  0.0040  0.0150 </r>
       </set>
       <set comment="band 8">
        <r>  0.3472  0.0085  0.0370  0.0684  0.0568  0.0047  0.2381  0.0002  0.0001 </r>
       </set>
       <set comment="band 9">
        <r>  0.2011  0.1753  0.0020  0.1532  0.0523  0.0013  0.0177  0.0012  0.0730 </r>
       </set>
       <set comment="band 10">
        <r>  0.0266  0.0351  0.0005  0.0675  0.5047  0.0000  0.0190  0.0008  0.0039 </r>
       </set>
       <set comment="band 11">
        <r>  0.1599  0.2408  0.0039  0.0176  0.0737  0.0000  0.1502  0.0002  0.0069 </r>
       </set>
       <set comment="band 12">
        <r>  0.0181  0.0032  0.0312  0.0002  0.0001  0.3287  0.0149  0.0018  0.0282 </r>
       </set>
      </set>
      <set comment="kpoint 50">
       <set comment="band 1">
        <r>  0.0814  0.0077  0.0473  0.0077  0.0521  0.0107  0.5806  0.0107  0.0000 </r>
       </set>
       <set comment="band 2">
        <r>  0.0004  0.0200  0.0002  0.0200  0.7848  0.0076  0.0505  0.0076  0.0000 </r>
       </set>
       <set comment="band 3">
        <r>  0.0303  0.0000  0.1353  0.0000  0.0349  0.2846  0.1054  0.2846  0.0000 </r>
       </set>
       <set comment="band 4">
        <r>  0.0000  0.0039  0.0000  0.0039  0.0000  0.1789  0.0000  0.1789  0.6057 </r>
       </set>
       <set comment="band 5">
        <r>  0.0000  0.0000  0.0000  0.0000  0.0000  0.3123  0.0000  0.3123  0.3674 </r>
       </set>
       <set comment="band 6">
        <r>  0.0728  0.0117  0.2316  0.0117  0.0039  0.1873  0.1328  0.1873  0.0000 </r>
       </set>
       <set comment="band 7">
        <r>  0.1181  0.1745  0.0000  0.1745  0.1511  0.0247  0.0458  0.0247  0.0000 </r>
       </set>
       <set comment="band 8">
        <r>  0.2193  0.0017  0.1680  0.0017  0.0085  0.0059  0.3189  0.0059  0.0000 </r>
       </set>
       <set comment="band 9">
        <r>  0.0000  0.2722  0.0000  0.2722  0.0000  0.0164  0.0000  0.0164  0.0637 </r>
       </set>
       <set comment="band 10">
        <r>  0.1383  0.0018  0.0178  0.0018  0.4823  0.0001  0.0471  0.0001  0.0000 </r>
       </set>
       <set comment="band 11">
        <r>  0.1534  0.0973  0.0248  0.0973  0.1777  0.0042  0.1046  0.0042  0.0000 </r>
       </set>
       <set comment="band 12">
        <r>  0.0000  0.0221  0.0000  0.0221  0.0000  0.1001  0.0000  0.1002  0.2026 </r>
       </set>
      </set>
      <set comment="kpoint 51">
       <set comment="band 1">
        <r>  0.4161  0.0435  0.0435  0.0435  0.0417  0.0417  0.0000  0.0417  0.0000 </r>
       </set>
       <set comment="band 2">
        <r>  0.0131  0.0394  0.0394  0.0394  0.2435  0.2435  0.0000  0.2435  0.0000 </r>
       </set>
       <set comment="band 3">
        <r>  0.0000  0.0004  0.0004  0.0000  0.3082  0.0050  0.3360  0.2414  0.0671 </r>
       </set>
       <set comment="band 4">
        <r>  0.0000  0.0002  0.0001  0.0005  0.0615  0.3647  0.0671  0.1283  0.3360 </r>
       </set>
       <set comment="band 5">
        <r>  0.0000  0.0007  0.0005  0.0002  0.1579  0.0566  0.3233  0.1994  0.2418 </r>
       </set>
       <set comment="band 6">
        <r>  0.0000  0.0003  0.0004  0.0007  0.1181  0.2193  0.2418  0.0765  0.3233 </r>
       </set>
       <set comment="band 7">
        <r>  0.1686  0.0803  0.0803  0.0803  0.1126  0.1126  0.0000  0.1126  0.0000 </r>
       </set>
       <set comment="band 8">
        <r>  0.0115  0.0024  0.0024  0.0024  0.0175  0.0175  0.0000  0.0175  0.0000 </r>
       </set>
       <set comment="band 9">
        <r>  0.0000  0.0395  0.2380  0.1327  0.1625  0.0906  0.0494  0.0270  0.0074 </r>
       </set>
       <set comment="band 10">
        <r>  0.0000  0.2339  0.0355  0.1407  0.0242  0.0961  0.0074  0.1597  0.0494 </r>
       </set>
       <set comment="band 11">
        <r>  0.0000  0.0550  0.0688  0.0024  0.0201  0.0007  0.4463  0.0161  0.0993 </r>
       </set>
       <set comment="band 12">
        <r>  0.0000  0.0291  0.0153  0.0817  0.0045  0.0239  0.0993  0.0085  0.4463 </r>
       </set>
      </set>
      <set comment="kpoint 52">
       <set comment="band 1">
        <r>  0.3148  0.0701  0.0701  0.0046  0.0526  0.1303  0.0030  0.0526  0.0091 </r>
       </set>
       <set comment="band 2">
        <r>  0.0108  0.0405  0.0405  0.0623  0.3098  0.0183  0.0130  0.3098  0.0390 </r>
       </set>
       <set comment="band 3">
        <r>  0.0006  0.0024  0.0024  0.0013  0.0550  0.3468  0.1194  0.0550  0.3581 </r>
       </set>
       <set comment="band 4">
        <r>  0.0000  0.0004  0.0004  0.0000  0.1986  0.0000  0.4195  0.1986  0.1398 </r>
       </set>
       <set comment="band 5">
        <r>  0.0000  0.0008  0.0008  0.0000  0.2879  0.0000  0.2995  0.2879  0.0998 </r>
       </set>
       <set comment="band 6">
        <r>  0.0301  0.0185  0.0185  0.0048  0.0065  0.4549  0.1049  0.0065  0.3147 </r>
       </set>
       <set comment="band 7">
        <r>  0.1935  0.0450  0.0450  0.1432  0.1256  0.0756  0.0034  0.1256  0.0103 </r>
       </set>
       <set comment="band 8">
        <r>  0.0535  0.0364  0.0364  0.1825  0.0724  0.0529  0.0248  0.0724  0.0745 </r>
       </set>
       <set comment="band 9">
        <r>  0.0311  0.0876  0.0876  0.0582  0.0005  0.0007  0.0065  0.0005  0.0195 </r>
       </set>
       <set comment="band 10">
        <r>  0.0000  0.1960  0.1960  0.0000  0.0004  0.0000  0.2595  0.0004  0.0865 </r>
       </set>
       <set comment="band 11">
        <r>  0.0000  0.0719  0.0719  0.0000  0.2099  0.0000  0.1807  0.2099  0.0602 </r>
       </set>
       <set comment="band 12">
        <r>  0.0593  0.0073  0.0073  0.0276  0.0167  0.1332  0.0502  0.0167  0.1505 </r>
       </set>
      </set>
      <set comment="kpoint 53">
       <set comment="band 1">
        <r>  0.1523  0.0836  0.0836  0.0007  0.0215  0.3670  0.0093  0.0215  0.0279 </r>
       </set>
       <set comment="band 2">
        <r>  0.0002  0.0234  0.0234  0.0344  0.1240  0.0740  0.1146  0.1240  0.3437 </r>
       </set>
       <set comment="band 3">
        <r>  0.0027  0.0000  0.0000  0.0482  0.2584  0.1437  0.0488  0.2584  0.1463 </r>
       </set>
       <set comment="band 4">
        <r>  0.0000  0.0031  0.0031  0.0000  0.0512  0.0000  0.6375  0.0512  0.2125 </r>
       </set>
       <set comment="band 5">
        <r>  0.0000  0.0003  0.0003  0.0000  0.4380  0.0000  0.0765  0.4380  0.0255 </r>
       </set>
       <set comment="band 6">
        <r>  0.1117  0.0653  0.0653  0.0040  0.0001  0.3986  0.0586  0.0001  0.1759 </r>
       </set>
       <set comment="band 7">
        <r>  0.1059  0.0115  0.0115  0.3051  0.1478  0.0210  0.0069  0.1478  0.0207 </r>
       </set>
       <set comment="band 8">
        <r>  0.2180  0.0478  0.0478  0.1106  0.0329  0.0444  0.0401  0.0329  0.1202 </r>
       </set>
       <set comment="band 9">
        <r>  0.0000  0.2225  0.2225  0.0000  0.0007  0.0000  0.2125  0.0007  0.0708 </r>
       </set>
       <set comment="band 10">
        <r>  0.0986  0.0573  0.0573  0.0039  0.0000  0.1326  0.0227  0.0000  0.0681 </r>
       </set>
       <set comment="band 11">
        <r>  0.0105  0.0003  0.0003  0.0836  0.0485  0.0291  0.0056  0.0485  0.0169 </r>
       </set>
       <set comment="band 12">
        <r>  0.0000  0.0163  0.0163  0.0000  0.2893  0.0000  0.0470  0.2893  0.0157 </r>
       </set>
      </set>
      <set comment="kpoint 54">
       <set comment="band 1">
        <r>  0.0481  0.0165  0.0165  0.0039  0.0141  0.7056  0.0158  0.0141  0.0474 </r>
       </set>
       <set comment="band 2">
        <r>  0.0004  0.0503  0.0503  0.0021  0.0000  0.0289  0.1711  0.0000  0.5132 </r>
       </set>
       <set comment="band 3">
        <r>  0.0010  0.0009  0.0009  0.1201  0.3605  0.0323  0.0019  0.3605  0.0058 </r>
       </set>
       <set comment="band 4">
        <r>  0.0000  0.0043  0.0043  0.0000  0.0414  0.0000  0.6545  0.0414  0.2182 </r>
       </set>
       <set comment="band 5">
        <r>  0.0000  0.0001  0.0001  0.0000  0.4509  0.0000  0.0624  0.4509  0.0208 </r>
       </set>
       <set comment="band 6">
        <r>  0.0790  0.1318  0.1318  0.0546  0.0114  0.2060  0.0359  0.0114  0.1078 </r>
       </set>
       <set comment="band 7">
        <r>  0.1202  0.0046  0.0046  0.3230  0.1482  0.0406  0.0007  0.1482  0.0022 </r>
       </set>
       <set comment="band 8">
        <r>  0.3168  0.0222  0.0222  0.0656  0.0105  0.0217  0.0662  0.0105  0.1987 </r>
       </set>
       <set comment="band 9">
        <r>  0.0000  0.2550  0.2550  0.0000  0.0013  0.0000  0.1248  0.0013  0.0416 </r>
       </set>
       <set comment="band 10">
        <r>  0.1366  0.0242  0.0242  0.0027  0.0000  0.3088  0.0210  0.0000  0.0630 </r>
       </set>
       <set comment="band 11">
        <r>  0.0842  0.1014  0.1014  0.0067  0.0003  0.2942  0.0201  0.0003  0.0603 </r>
       </set>
       <set comment="band 12">
        <r>  0.0000  0.0075  0.0075  0.0000  0.2237  0.0000  0.0345  0.2220  0.0117 </r>
       </set>
      </set>
      <set comment="kpoint 55">
       <set comment="band 1">
        <r>  0.2434  0.0096  0.0785  0.0096  0.1335  0.1287  0.0278  0.1287  0.0000 </r>
       </set>
       <set comment="band 2">
        <r>  0.0101  0.0693  0.0506  0.0693  0.2652  0.0450  0.2513  0.0450  0.0000 </r>
       </set>
       <set comment="band 3">
        <r>  0.0079  0.0037  0.0154  0.0037  0.3894  0.0792  0.3570  0.0792  0.0000 </r>
       </set>
       <set comment="band 4">
        <r>  0.0000  0.0021  0.0000  0.0021  0.0000  0.2282  0.0000  0.2282  0.4963 </r>
       </set>
       <set comment="band 5">
        <r>  0.0000  0.0001  0.0000  0.0001  0.0000  0.2588  0.0000  0.2588  0.4723 </r>
       </set>
       <set comment="band 6">
        <r>  0.0312  0.0236  0.0566  0.0236  0.0913  0.1887  0.3139  0.1887  0.0000 </r>
       </set>
       <set comment="band 7">
        <r>  0.2532  0.0831  0.0151  0.0831  0.1571  0.0962  0.0079  0.0962  0.0000 </r>
       </set>
       <set comment="band 8">
        <r>  0.0067  0.0003  0.1067  0.0003  0.0546  0.0083  0.2423  0.0083  0.0000 </r>
       </set>
       <set comment="band 9">
        <r>  0.0000  0.2374  0.0000  0.2374  0.0000  0.0605  0.0000  0.0605  0.1031 </r>
       </set>
       <set comment="band 10">
        <r>  0.1078  0.0420  0.2276  0.0420  0.1391  0.0044  0.0152  0.0044  0.0000 </r>
       </set>
       <set comment="band 11">
        <r>  0.0149  0.0005  0.0123  0.0005  0.2205  0.0158  0.3377  0.0158  0.0000 </r>
       </set>
       <set comment="band 12">
        <r>  0.0000  0.0565  0.0000  0.0565  0.0000  0.0700  0.0000  0.0700  0.4430 </r>
       </set>
      </set>
      <set comment="kpoint 56">
       <set comment="band 1">
        <r>  0.1292  0.0162  0.0706  0.0036  0.2007  0.2438  0.0591  0.0895  0.0020 </r>
       </set>
       <set comment="band 2">
        <r>  0.0002  0.0610  0.0236  0.0480  0.1376  0.0177  0.4068  0.0288  0.0992 </r>
       </set>
       <set comment="band 3">
        <r>  0.0075  0.0029  0.0290  0.0261  0.3763  0.3170  0.1005  0.0037  0.0479 </r>
       </set>
       <set comment="band 4">
        <r>  0.0000  0.0010  0.0085  0.0018  0.0335  0.0124  0.1443  0.2533  0.5016 </r>
       </set>
       <set comment="band 5">
        <r>  0.0005  0.0003  0.0019  0.0012  0.0848  0.0619  0.0670  0.5331  0.2333 </r>
       </set>
       <set comment="band 6">
        <r>  0.0658  0.0548  0.1264  0.0355  0.0185  0.3052  0.1607  0.0135  0.0680 </r>
       </set>
       <set comment="band 7">
        <r>  0.2537  0.0358  0.0006  0.1544  0.1784  0.0602  0.0118  0.0913  0.0116 </r>
       </set>
       <set comment="band 8">
        <r>  0.0508  0.0953  0.0001  0.1839  0.0727  0.0366  0.0949  0.0184  0.0954 </r>
       </set>
       <set comment="band 9">
        <r>  0.1423  0.0071  0.2622  0.0458  0.0001  0.0236  0.1708  0.0183  0.0124 </r>
       </set>
       <set comment="band 10">
        <r>  0.0042  0.2488  0.0363  0.0312  0.0862  0.0055  0.0004  0.0022  0.0006 </r>
       </set>
       <set comment="band 11">
        <r>  0.0522  0.0198  0.0006  0.0051  0.2143  0.1347  0.0590  0.0277  0.1962 </r>
       </set>
       <set comment="band 12">
        <r>  0.0373  0.1048  0.0430  0.0220  0.0000  0.0029  0.2963  0.0123  0.0000 </r>
       </set>
      </set>
      <set comment="kpoint 57">
       <set comment="band 1">
        <r>  0.0000  0.0610  0.0257  0.0022  0.0001  0.0155  0.4244  0.0000  0.2916 </r>
       </set>
       <set comment="band 2">
        <r>  0.0346  0.0020  0.0511  0.0064  0.0392  0.6941  0.0095  0.0131  0.0318 </r>
       </set>
       <set comment="band 3">
        <r>  0.0006  0.0006  0.0039  0.0978  0.6609  0.0539  0.0067  0.0615  0.0022 </r>
       </set>
       <set comment="band 4">
        <r>  0.0066  0.0008  0.0054  0.0011  0.0006  0.0035  0.3862  0.0303  0.5257 </r>
       </set>
       <set comment="band 5">
        <r>  0.0007  0.0000  0.0000  0.0019  0.1100  0.0061  0.0123  0.8400  0.0162 </r>
       </set>
       <set comment="band 6">
        <r>  0.0720  0.0849  0.2048  0.0429  0.0176  0.2102  0.0931  0.0002  0.0459 </r>
       </set>
       <set comment="band 7">
        <r>  0.1137  0.0003  0.0127  0.3354  0.2185  0.0336  0.0010  0.0615  0.0068 </r>
       </set>
       <set comment="band 8">
        <r>  0.2719  0.0731  0.0011  0.0741  0.0219  0.0189  0.0835  0.0041  0.1754 </r>
       </set>
       <set comment="band 9">
        <r>  0.1525  0.0813  0.2330  0.0019  0.0004  0.0589  0.1622  0.0015  0.0014 </r>
       </set>
       <set comment="band 10">
        <r>  0.0345  0.1575  0.0337  0.0020  0.0002  0.2519  0.0007  0.0003  0.0681 </r>
       </set>
       <set comment="band 11">
        <r>  0.0045  0.0242  0.0005  0.0472  0.3547  0.0336  0.0145  0.0111  0.0140 </r>
       </set>
       <set comment="band 12">
        <r>  0.0331  0.2394  0.0260  0.0011  0.0440  0.2287  0.0343  0.0001  0.0474 </r>
       </set>
      </set>
      <set comment="kpoint 58">
       <set comment="band 1">
        <r>  0.0812  0.0027  0.0334  0.0027  0.4607  0.0889  0.1026  0.0889  0.0000 </r>
       </set>
       <set comment="band 2">
        <r>  0.0001  0.0596  0.0114  0.0596  0.1031  0.0038  0.5717  0.0038  0.0000 </r>
       </set>
       <set comment="band 3">
        <r>  0.0069  0.0057  0.0878  0.0057  0.2207  0.2520  0.0630  0.2520  0.0000 </r>
       </set>
       <set comment="band 4">
        <r>  0.0000  0.0037  0.0000  0.0037  0.0000  0.1459  0.0000  0.1459  0.6620 </r>
       </set>
       <set comment="band 5">
        <r>  0.0000  0.0001  0.0000  0.0001  0.0000  0.3452  0.0000  0.3452  0.2977 </r>
       </set>
       <set comment="band 6">
        <r>  0.0106  0.0760  0.1916  0.0760  0.0594  0.0936  0.1935  0.0936  0.0000 </r>
       </set>
       <set comment="band 7">
        <r>  0.3066  0.0586  0.0273  0.0586  0.1815  0.0845  0.0065  0.0845  0.0000 </r>
       </set>
       <set comment="band 8">
        <r>  0.1588  0.0175  0.1909  0.0175  0.0137  0.0237  0.2489  0.0237  0.0000 </r>
       </set>
       <set comment="band 9">
        <r>  0.0000  0.2524  0.0000  0.2524  0.0000  0.0116  0.0000  0.0116  0.1528 </r>
       </set>
       <set comment="band 10">
        <r>  0.1306  0.0270  0.0255  0.0270  0.2816  0.0001  0.0581  0.0001  0.0000 </r>
       </set>
       <set comment="band 11">
        <r>  0.0030  0.0719  0.0317  0.0719  0.3293  0.0028  0.0014  0.0028  0.0000 </r>
       </set>
       <set comment="band 12">
        <r>  0.0000  0.0337  0.0000  0.0338  0.0000  0.1587  0.0000  0.1587  0.2244 </r>
       </set>
      </set>
      <set comment="kpoint 59">
       <set comment="band 1">
        <r>  0.2219  0.0096  0.0096  0.0096  0.1846  0.1846  0.0000  0.1846  0.0000 </r>
       </set>
       <set comment="band 2">
        <r>  0.0000  0.0000  0.0001  0.0000  0.2640  0.0428  0.5011  0.1142  0.0318 </r>
       </set>
       <set comment="band 3">
        <r>  0.0000  0.0000  0.0000  0.0001  0.0167  0.2379  0.0318  0.1665  0.5011 </r>
       </set>
       <set comment="band 4">
        <r>  0.0232  0.1574  0.1574  0.1574  0.0503  0.0503  0.0000  0.0503  0.0000 </r>
       </set>
       <set comment="band 5">
        <r>  0.0000  0.0001  0.0000  0.0002  0.0791  0.2663  0.0922  0.2109  0.3399 </r>
       </set>
       <set comment="band 6">
        <r>  0.0000  0.0001  0.0002  0.0001  0.2917  0.1046  0.3399  0.1600  0.0922 </r>
       </set>
       <set comment="band 7">
        <r>  0.3376  0.0243  0.0243  0.0243  0.1445  0.1445  0.0000  0.1445  0.0000 </r>
       </set>
       <set comment="band 8">
        <r>  0.0012  0.0085  0.0085  0.0085  0.0022  0.0022  0.0000  0.0022  0.0000 </r>
       </set>
       <set comment="band 9">
        <r>  0.0000  0.0955  0.3743  0.0932  0.0354  0.0088  0.0117  0.0090  0.0000 </r>
       </set>
       <set comment="band 10">
        <r>  0.0000  0.2798  0.0011  0.2821  0.0001  0.0267  0.0000  0.0265  0.0117 </r>
       </set>
       <set comment="band 11">
        <r>  0.0000  0.0102  0.0053  0.0109  0.0503  0.1039  0.1824  0.0966  0.4237 </r>
       </set>
       <set comment="band 12">
        <r>  0.0000  0.0074  0.0123  0.0067  0.1169  0.0633  0.4237  0.0706  0.1824 </r>
       </set>
      </set>
      <set comment="kpoint 60">
       <set comment="band 1">
        <r>  0.1615  0.0092  0.0092  0.0073  0.1916  0.2650  0.0000  0.1916  0.0000 </r>
       </set>
       <set comment="band 2">
        <r>  0.0002  0.0559  0.0559  0.0315  0.0023  0.0366  0.1611  0.0023  0.4833 </r>
       </set>
       <set comment="band 3">
        <r>  0.0007  0.0538  0.0538  0.0788  0.1542  0.3325  0.0050  0.1542  0.0151 </r>
       </set>
       <set comment="band 4">
        <r>  0.0000  0.0012  0.0012  0.0000  0.1865  0.0000  0.4345  0.1865  0.1448 </r>
       </set>
       <set comment="band 5">
        <r>  0.0000  0.0002  0.0002  0.0000  0.3030  0.0000  0.2861  0.3030  0.0954 </r>
       </set>
       <set comment="band 6">
        <r>  0.0075  0.0772  0.0772  0.0749  0.0308  0.2552  0.0741  0.0308  0.2222 </r>
       </set>
       <set comment="band 7">
        <r>  0.3704  0.0000  0.0000  0.0379  0.1561  0.1372  0.0006  0.1561  0.0018 </r>
       </set>
       <set comment="band 8">
        <r>  0.0363  0.0145  0.0145  0.1886  0.0373  0.0329  0.0451  0.0373  0.1352 </r>
       </set>
       <set comment="band 9">
        <r>  0.0000  0.2337  0.2337  0.0000  0.0159  0.0000  0.1495  0.0159  0.0498 </r>
       </set>
       <set comment="band 10">
        <r>  0.0653  0.0751  0.0751  0.1110  0.0030  0.0501  0.0012  0.0030  0.0036 </r>
       </set>
       <set comment="band 11">
        <r>  0.0000  0.0590  0.0590  0.0000  0.1497  0.0000  0.2757  0.1497  0.0919 </r>
       </set>
       <set comment="band 12">
        <r>  0.0498  0.0000  0.0000  0.0005  0.0002  0.2526  0.0837  0.0002  0.2512 </r>
       </set>
      </set>
     </set>
    </set>
   </array>
  </projected>
 </calculation>
 <structure name="finalpos" >
  <crystal>
   <varray name="basis" >
    <v>       0.00000000       1.82443826       1.82443826 </v>
    <v>       1.82443826       0.00000000       1.82443826 </v>
    <v>       1.82443826       1.82443826       0.00000000 </v>
   </varray>
   <i name="volume">     12.14555901 </i>
   <varray name="rec_basis" >
    <v>      -0.27405696       0.27405696       0.27405696 </v>
    <v>       0.27405696      -0.27405696       0.27405696 </v>
    <v>       0.27405696       0.27405696      -0.27405696 </v>
   </varray>
  </crystal>
  <varray name="positions" >
   <v>       0.00000000       0.00000000       0.00000000 </v>
  </varray>
 </structure>
</modeling>
