Co-hcc                                  
   1.00000000000000     
     2.492465    0.000000    0.000000
    -1.246232    2.158538    0.000000
     0.000000    0.000000    4.032707
   Co
     2
Direct
  0.000000  0.000000  0.000000
  0.333333  0.666667  0.500000
 
   32   32   56
  205.63      201.03      187.89      167.92      143.54      117.30      91.499      67.964      47.969      32.252    
  21.014      13.917      10.127      8.4598      7.6643      7.1832      7.0306      7.1837      7.6622      8.4629    
  10.126      13.917      21.013      32.252      47.968      67.964      91.498      117.30      143.54      167.92    
  187.89      201.03      201.03      201.03      192.17      175.64      153.53      128.33      102.47      78.008    
  56.465      38.846      25.615      16.705      11.515      9.0222      7.9478      7.3220      7.0118      7.0093    
  7.3249      7.9457      9.0221      11.515      16.705      25.615      38.846      56.465      78.008      102.47    
  128.33      153.53      175.64      192.17      187.89      192.16      187.89      175.64      157.01      134.22    
  109.66      85.471      63.404      44.686      30.033      19.634      13.141      9.7304      8.2346      7.4788    
  7.0194      6.8735      7.0195      7.4776      8.2372      9.7281      13.142      19.633      30.034      44.686    
  63.404      85.471      109.66      134.22      157.01      175.64      167.92      175.63      175.63      167.92    
  153.53      134.22      112.16      89.452      67.951      49.057      33.705      22.315      14.795      10.536    
  8.5470      7.6303      7.0526      6.7712      6.7696      7.0550      7.6276      8.5489      10.535      14.796    
  22.315      33.705      49.057      67.951      89.452      112.16      134.22      153.53      143.54      153.51    
  156.99      153.51      143.54      128.33      109.66      89.452      69.534      51.398      36.135      24.366    
  16.224      11.326      8.8719      7.7653      7.0983      6.7027      6.5739      6.7020      7.0991      7.7653    
  8.8713      11.327      16.223      24.367      36.134      51.399      69.534      89.452      109.66      128.33    
  117.30      128.31      134.19      134.19      128.31      117.30      102.47      85.471      67.951      51.398    
  36.984      25.478      17.193      11.959      9.1673      7.8791      7.1441      6.6620      6.4289      6.4299    
  6.6613      7.1440      7.8798      9.1663      11.960      17.192      25.479      36.983      51.399      67.951    
  85.471      102.47      91.498      102.46      109.62      112.11      109.62      102.46      91.499      78.008    
  63.404      49.058      36.134      25.478      17.536      12.311      9.3770      7.9646      7.1829      6.6386    
  6.3310      6.2283      6.3308      6.6394      7.1818      7.9659      9.3761      12.312      17.535      25.479    
  36.134      49.057      63.404      78.008      67.964      78.000      85.449      89.420      89.421      85.449    
  78.000      67.964      56.465      44.686      33.704      24.367      17.192      12.311      9.4524      8.0126    
  7.2068      6.6286      6.2677      6.0942      6.0948      6.2667      6.6297      7.2056      8.0134      9.4513    
  12.312      17.192      24.367      33.705      44.686      56.465      47.968      56.473      63.408      67.948    
  69.527      67.947      63.407      56.473      47.968      38.845      30.033      22.316      16.223      11.960    
  9.3763      8.0126      7.2152      6.6245      6.2338      6.0122      5.9430      6.0127      6.2332      6.6253    
  7.2147      8.0134      9.3761      11.960      16.223      22.315      30.034      38.846      32.252      38.871    
  44.723      49.097      51.437      51.438      49.098      44.724      38.871      32.252      25.616      19.634    
  14.794      11.328      9.1664      7.9657      7.2065      6.6247      6.2229      5.9744      5.8596      5.8585    
  5.9753      6.2218      6.6253      7.2056      7.9659      9.1663      11.327      14.796      19.633      25.615    
  21.013      25.657      30.105      33.792      36.229      37.081      36.229      33.791      30.104      25.658    
  21.014      16.705      13.141      10.537      8.8700      7.8803      7.1815      6.6292      6.2332      5.9748    
  5.8324      5.7877      5.8323      5.9753      6.2332      6.6297      7.1818      7.8798      8.8713      10.535    
  13.142      16.705      13.917      16.760      19.731      22.445      24.516      25.637      25.637      24.517    
  22.446      19.732      16.760      13.916      11.516      9.7290      8.5463      7.7671      7.1430      6.6402    
  6.2670      6.0128      5.8593      5.7872      5.7877      5.8585      6.0127      6.2667      6.6394      7.1440    
  7.7653      8.5489      9.7281      11.515      10.126      11.577      13.258      14.956      16.416      17.404    
  17.753      17.404      16.415      14.954      13.257      11.577      10.127      9.0197      8.2375      7.6297    
  7.0974      6.6625      6.3296      6.0947      5.9423      5.8593      5.8324      5.8596      5.9430      6.0948    
  6.3308      6.6613      7.0991      7.6276      8.2372      9.0221      8.4629      9.0861      9.8533      10.713    
  11.548      12.210      12.576      12.577      12.210      11.549      10.715      9.8542      9.0837      8.4619    
  7.9490      7.4756      7.0540      6.7028      6.4292      6.2294      6.0947      6.0128      5.9748      5.9744    
  6.0122      6.0942      6.2283      6.4299      6.7020      7.0550      7.4776      7.9457      7.6622      8.0108    
  8.3659      8.7338      9.1049      9.4376      9.6711      9.7548      9.6712      9.4373      9.1037      8.7311    
  8.3663      8.0141      7.6609      7.3226      7.0216      6.7702      6.5737      6.4292      6.3296      6.2670    
  6.2332      6.2229      6.2338      6.2677      6.3310      6.4289      6.5739      6.7696      7.0195      7.3249    
  7.1837      7.3907      7.6075      7.8158      8.0062      8.1645      8.2809      8.3438      8.3434      8.2811    
  8.1651      8.0081      7.8179      7.6056      7.3884      7.1859      7.0106      6.8717      6.7702      6.7028    
  6.6625      6.6402      6.6292      6.6247      6.6245      6.6286      6.6386      6.6620      6.7027      6.7712    
  6.8735      7.0093      7.0306      7.0756      7.1502      7.2461      7.3450      7.4362      7.5080      7.5529    
  7.5689      7.5531      7.5077      7.4348      7.3435      7.2450      7.1524      7.0768      7.0285      7.0106    
  7.0216      7.0540      7.0974      7.1430      7.1815      7.2065      7.2152      7.2068      7.1829      7.1441    
  7.0983      7.0526      7.0194      7.0118      7.1832      7.0780      7.0046      6.9622      6.9509      6.9582    
  6.9746      6.9919      7.0013      7.0017      6.9914      6.9757      6.9594      6.9518      6.9627      7.0028    
  7.0768      7.1859      7.3226      7.4756      7.6297      7.7671      7.8803      7.9657      8.0126      8.0126    
  7.9646      7.8791      7.7653      7.6303      7.4788      7.3220      7.6643      7.3878      7.1501      6.9638    
  6.8238      6.7301      6.6731      6.6404      6.6262      6.6214      6.6262      6.6402      6.6719      6.7292    
  6.8237      6.9627      7.1524      7.3884      7.6609      7.9490      8.2375      8.5463      8.8700      9.1664    
  9.3763      9.4524      9.3770      9.1673      8.8719      8.5470      8.2346      7.9478      8.4598      8.0129    
  7.6088      7.2437      6.9516      6.7289      6.5726      6.4732      6.4149      6.3896      6.3890      6.4156    
  6.4732      6.5738      6.7292      6.9518      7.2450      7.6056      8.0141      8.4619      9.0197      9.7290    
  10.537      11.328      11.960      12.311      12.311      11.959      11.326      10.536      9.7304      9.0222    
  10.127      9.0862      8.3633      7.8186      7.3442      6.9591      6.6731      6.4731      6.3495      6.2821    
  6.2620      6.2820      6.3488      6.4732      6.6719      6.9594      7.3435      7.8179      8.3663      9.0837    
  10.127      11.516      13.141      14.794      16.223      17.192      17.536      17.193      16.224      14.795    
  13.141      11.515      13.917      11.576      9.8557      8.7317      8.0064      7.4360      6.9739      6.6410    
  6.4145      6.2825      6.2202      6.2214      6.2820      6.4156      6.6402      6.9757      7.4348      8.0081    
  8.7311      9.8542      11.577      13.916      16.705      19.634      22.316      24.367      25.478      25.478    
  24.366      22.315      19.634      16.705      21.014      16.760      13.256      10.714      9.1055      8.1640    
  7.5091      6.9910      6.6268      6.3889      6.2626      6.2202      6.2620      6.3890      6.6262      6.9914    
  7.5077      8.1651      9.1037      10.715      13.257      16.760      21.014      25.616      30.033      33.704    
  36.134      36.984      36.135      33.705      30.033      25.615      32.252      25.657      19.732      14.955    
  11.547      9.4382      8.2800      7.5534      7.0011      6.6217      6.3889      6.2825      6.2821      6.3896    
  6.6214      7.0017      7.5531      8.2811      9.4373      11.549      14.954      19.732      25.658      32.252    
  38.845      44.686      49.058      51.398      51.398      49.057      44.686      38.846      47.969      38.872    
  30.104      22.445      16.417      12.209      9.6719      8.3432      7.5694      7.0011      6.6268      6.4145    
  6.3495      6.4149      6.6262      7.0013      7.5689      8.3434      9.6712      12.210      16.415      22.446    
  30.104      38.871      47.968      56.465      63.404      67.951      69.534      67.951      63.404      56.465    
  67.964      56.473      44.724      33.792      24.516      17.404      12.576      9.7551      8.3432      7.5534    
  6.9910      6.6410      6.4731      6.4732      6.6404      6.9919      7.5529      8.3438      9.7548      12.577    
  17.404      24.517      33.791      44.724      56.473      67.964      78.008      85.471      89.452      89.452    
  85.471      78.008      91.499      78.000      63.408      49.097      36.230      25.636      17.754      12.576    
  9.6719      8.2800      7.5091      6.9739      6.6731      6.5726      6.6731      6.9746      7.5080      8.2809    
  9.6711      12.576      17.753      25.637      36.229      49.098      63.407      78.000      91.499      102.47    
  109.66      112.16      109.66      102.47      117.30      102.46      85.449      67.948      51.437      37.081    
  25.636      17.404      12.209      9.4382      8.1640      7.4360      6.9591      6.7289      6.7301      6.9582    
  7.4362      8.1645      9.4376      12.210      17.404      25.637      37.081      51.438      67.947      85.449    
  102.46      117.30      128.33      134.22      134.22      128.33      143.54      128.31      109.62      89.420    
  69.529      51.437      36.230      24.516      16.417      11.547      9.1055      8.0064      7.3442      6.9516    
  6.8238      6.9509      7.3450      8.0062      9.1049      11.548      16.416      24.516      36.229      51.437    
  69.527      89.421      109.62      128.31      143.54      153.53      157.01      153.53      167.92      153.51    
  134.19      112.11      89.420      67.948      49.097      33.792      22.445      14.955      10.714      8.7317    
  7.8186      7.2437      6.9638      6.9622      7.2461      7.8158      8.7338      10.713      14.956      22.445    
  33.792      49.097      67.948      89.420      112.11      134.19      153.51      167.92      175.64      175.64    
  187.89      175.63      156.98      134.19      109.62      85.449      63.408      44.724      30.104      19.732    
  13.256      9.8557      8.3633      7.6088      7.1501      7.0046      7.1502      7.6075      8.3659      9.8533    
  13.258      19.731      30.105      44.723      63.408      85.449      109.62      134.19      156.99      175.63    
  187.89      192.17      201.03      192.16      175.63      153.51      128.31      102.46      78.000      56.473    
  38.872      25.657      16.760      11.576      9.0862      8.0129      7.3878      7.0780      7.0756      7.3907    
  8.0108      9.0861      11.577      16.760      25.657      38.871      56.473      78.000      102.46      128.31    
  153.51      175.63      192.16      201.03      201.69      197.19      184.31      164.73      140.82      115.07    
  89.739      66.635      47.015      31.611      20.620      13.701      10.025      8.4088      7.6255      7.1507    
  7.0002      7.1511      7.6237      8.4118      10.023      13.702      20.620      31.612      47.014      66.635    
  89.739      115.07      140.82      164.73      184.31      197.19      197.19      197.19      188.50      172.30    
  150.61      125.89      100.51      76.492      55.346      38.067      25.113      16.414      11.365      8.9520    
  7.9042      7.2855      6.9798      6.9774      7.2885      7.9017      8.9524      11.366      16.413      25.113    
  38.067      55.346      76.492      100.51      125.89      150.61      172.30      188.50      184.31      188.50    
  184.31      172.30      154.03      131.67      107.56      83.816      62.153      43.790      29.433      19.267    
  12.941      9.6343      8.1840      7.4385      6.9856      6.8416      6.9856      7.4376      8.1864      9.6318    
  12.943      19.266      29.434      43.789      62.153      83.816      107.56      131.67      154.03      172.30    
  164.73      172.29      172.29      164.73      150.61      131.67      110.01      87.723      66.614      48.074    
  33.026      21.883      14.548      10.411      8.4853      7.5871      7.0166      6.7391      6.7377      7.0186    
  7.5844      8.4874      10.410      14.548      21.882      33.025      48.074      66.614      87.723      110.01    
  131.67      150.61      140.82      150.60      154.01      150.60      140.82      125.89      107.56      87.723    
  68.168      50.368      35.404      23.885      15.938      11.174      8.7975      7.7191      7.0600      6.6701    
  6.5432      6.6695      7.0609      7.7188      8.7971      11.175      15.937      23.886      35.403      50.369    
  68.167      87.723      107.56      125.89      115.07      125.88      131.65      131.65      125.88      115.07    
  100.51      83.816      66.614      50.369      36.236      24.971      16.879      11.786      9.0806      7.8298    
  7.1037      6.6289      6.3986      6.4001      6.6276      7.1042      7.8298      9.0800      11.787      16.879    
  24.971      36.235      50.369      66.614      83.816      100.51      89.739      100.50      107.53      109.98    
  107.53      100.50      89.739      76.491      62.153      48.074      35.403      24.971      17.213      12.126    
  9.2821      7.9117      7.1414      6.6044      6.3013      6.2002      6.3011      6.6050      7.1404      7.9131    
  9.2811      12.128      17.213      24.972      35.403      48.074      62.153      76.492      66.635      76.490    
  83.805      87.706      87.706      83.806      76.490      66.635      55.346      43.790      33.025      23.886    
  16.879      12.127      9.3542      7.9579      7.1642      6.5939      6.2377      6.0673      6.0674      6.2373    
  6.5945      7.1633      7.9584      9.3533      12.127      16.879      23.886      33.026      43.789      55.346    
  47.014      55.361      62.169      66.628      68.178      66.627      62.169      55.361      47.014      38.067    
  29.433      21.884      15.936      11.787      9.2813      7.9578      7.1725      6.5892      6.2039      5.9857    
  5.9175      5.9861      6.2033      6.5902      7.1720      7.9588      9.2810      11.787      15.936      21.882    
  29.433      38.067      31.611      38.099      43.838      48.130      50.427      50.427      48.131      43.839    
  38.099      31.612      25.114      19.267      14.546      11.176      9.0797      7.9129      7.1640      6.5896    
  6.1928      5.9481      5.8347      5.8340      5.9488      6.1919      6.5899      7.1631      7.9129      9.0797    
  11.175      14.548      19.266      25.114      20.620      25.161      29.515      33.128      35.516      36.351    
  35.516      33.127      29.514      25.161      20.620      16.413      12.942      10.412      8.7955      7.8308    
  7.1398      6.5944      6.2032      5.9485      5.8080      5.7639      5.8079      5.9491      6.2033      6.5950    
  7.1402      7.8304      8.7967      10.410      12.943      16.413      13.702      16.473      19.373      22.025    
  24.052      25.149      25.149      24.052      22.027      19.374      16.472      13.701      11.367      9.6325    
  8.4849      7.7207      7.1029      6.6060      6.2373      5.9863      5.8346      5.7635      5.7639      5.8338    
  5.9861      6.2368      6.6052      7.1037      7.7192      8.4874      9.6320      11.366      10.023      11.431    
  13.066      14.720      16.144      17.108      17.449      17.107      16.143      14.718      13.065      11.432    
  10.024      8.9497      8.1870      7.5862      7.0592      6.6290      6.2999      6.0676      5.9168      5.8345    
  5.8081      5.8349      5.9176      6.0678      6.3011      6.6280      7.0606      7.5843      8.1863      8.9523    
  8.4118      9.0195      9.7638      10.598      11.409      12.052      12.409      12.409      12.052      11.410    
  10.600      9.7647      9.0168      8.4112      7.9051      7.4356      7.0179      6.6703      6.3991      6.2012    
  6.0676      5.9864      5.9483      5.9480      5.9856      6.0670      6.2001      6.3998      6.6697      7.0187    
  7.4376      7.9019      7.6237      7.9701      8.3212      8.6817      9.0422      9.3650      9.5912      9.6724    
  9.5913      9.3646      9.0411      8.6788      8.3220      7.9733      7.6222      7.2863      6.9876      6.7382    
  6.5430      6.3992      6.2999      6.2372      6.2033      6.1930      6.2040      6.2381      6.3012      6.3991    
  6.5429      6.7377      6.9855      7.2884      7.1511      7.3571      7.5734      7.7811      7.9708      8.1278    
  8.2425      8.3044      8.3039      8.2429      8.1284      7.9727      7.7830      7.5713      7.3550      7.1533    
  6.9786      6.8399      6.7382      6.6702      6.6291      6.6060      6.5943      6.5894      6.5891      6.5935    
  6.6044      6.6284      6.6704      6.7392      6.8417      6.9774      7.0002      7.0466      7.1219      7.2181    
  7.3170      7.4085      7.4805      7.5254      7.5416      7.5256      7.4802      7.4070      7.3158      7.2172    
  7.1241      7.0477      6.9982      6.9786      6.9877      7.0179      7.0592      7.1028      7.1399      7.1641    
  7.1726      7.1645      7.1413      7.1041      7.0597      7.0165      6.9855      6.9798      7.1507      7.0488    
  6.9783      6.9382      6.9288      6.9369      6.9538      6.9714      6.9808      6.9813      6.9709      6.9551    
  6.9380      6.9293      6.9387      6.9766      7.0477      7.1533      7.2863      7.4355      7.5863      7.7208    
  7.8307      7.9128      7.9577      7.9575      7.9118      7.8293      7.7194      7.5872      7.4386      7.2856    
  7.6255      7.3544      7.1219      6.9399      6.8029      6.7119      6.6566      6.6249      6.6113      6.6065    
  6.6112      6.6246      6.6554      6.7112      6.8031      6.9387      7.1241      7.3550      7.6223      7.9051    
  8.1870      8.4848      8.7957      9.0799      9.2814      9.3545      9.2820      9.0810      8.7973      8.4852    
  8.1839      7.9042      8.4087      7.9723      7.5744      7.2157      6.9295      6.7110      6.5576      6.4603    
  6.4030      6.3784      6.3777      6.4040      6.4602      6.5588      6.7111      6.9294      7.2171      7.5714    
  7.9732      8.4112      8.9497      9.6327      10.412      11.176      11.787      12.127      12.126      11.786    
  11.174      10.411      9.6343      8.9521      10.025      9.0195      8.3187      7.7842      7.3160      6.9378    
  6.6565      6.4601      6.3387      6.2725      6.2527      6.2723      6.3380      6.4604      6.6553      6.9381    
  7.3157      7.7831      8.3219      9.0170      10.024      11.367      12.942      14.547      15.936      16.879    
  17.213      16.880      15.937      14.548      12.941      11.365      13.701      11.430      9.7664      8.6791    
  7.9713      7.4083      6.9533      6.6255      6.4028      6.2729      6.2118      6.2129      6.2724      6.4037    
  6.6248      6.9549      7.4072      7.9725      8.6790      9.7645      11.432      13.701      16.413      19.266    
  21.884      23.886      24.971      24.971      23.885      21.882      19.267      16.414      20.620      16.473    
  13.064      10.600      9.0426      8.1272      7.4816      6.9704      6.6119      6.3775      6.2534      6.2115    
  6.2529      6.3778      6.6113      6.9709      7.4802      8.1283      9.0411      10.600      13.065      16.472    
  20.620      25.114      29.433      33.025      35.403      36.236      35.404      33.026      29.433      25.113    
  31.611      25.160      19.374      14.719      11.408      9.3657      8.2417      7.5261      6.9806      6.6070    
  6.3776      6.2730      6.2725      6.3782      6.6067      6.9812      7.5257      8.2428      9.3646      11.409    
  14.718      19.374      25.161      31.611      38.067      43.790      48.074      50.369      50.369      48.074    
  43.790      38.067      47.015      38.099      29.514      22.026      16.144      12.052      9.5922      8.3036    
  7.5421      6.9805      6.6119      6.4025      6.3389      6.4030      6.6113      6.9808      7.5416      8.3039    
  9.5914      12.052      16.143      22.027      29.514      38.099      47.015      55.347      62.153      66.614    
  68.167      66.614      62.153      55.346      66.635      55.360      43.839      33.128      24.052      17.108    
  12.408      9.6728      8.3038      7.5260      6.9706      6.6255      6.4602      6.4600      6.6251      6.9712    
  7.5256      8.3043      9.6725      12.409      17.108      24.052      33.127      43.839      55.361      66.635    
  76.491      83.816      87.723      87.723      83.816      76.492      89.739      76.490      62.169      48.130    
  35.517      25.148      17.450      12.408      9.5922      8.2415      7.4816      6.9530      6.6567      6.5576    
  6.6566      6.9537      7.4806      8.2424      9.5914      12.409      17.449      25.149      35.516      48.131    
  62.169      76.490      89.739      100.51      107.56      110.01      107.56      100.51      115.07      100.50    
  83.806      66.627      50.426      36.352      25.148      17.108      12.052      9.3655      8.1275      7.4082    
  6.9380      6.7106      6.7122      6.9366      7.4087      8.1275      9.3652      12.052      17.108      25.148    
  36.351      50.427      66.627      83.806      100.50      115.07      125.89      131.67      131.67      125.89    
  140.82      125.88      107.53      87.706      68.180      50.426      35.517      24.051      16.145      11.408    
  9.0428      7.9708      7.3164      6.9293      6.8032      6.9285      7.3173      7.9705      9.0425      11.408    
  16.144      24.052      35.517      50.427      68.179      87.706      107.53      125.88      140.82      150.61    
  154.03      150.61      164.73      150.60      131.65      109.98      87.706      66.628      48.130      33.128    
  22.026      14.719      10.599      8.6796      7.7838      7.2159      6.9396      6.9384      7.2179      7.7813    
  8.6814      10.598      14.720      22.026      33.128      48.130      66.627      87.706      109.98      131.65    
  150.60      164.73      172.30      172.30      184.31      172.29      154.01      131.65      107.53      83.806    
  62.169      43.839      29.514      19.374      13.064      9.7661      8.3189      7.5744      7.1220      6.9782    
  7.1220      7.5733      8.3213      9.7638      13.066      19.373      29.515      43.838      62.170      83.806    
  107.53      131.65      154.01      172.29      184.31      188.50      197.19      188.50      172.29      150.60    
  125.88      100.50      76.490      55.360      38.099      25.161      16.473      11.431      9.0192      7.9724    
  7.3542      7.0490      7.0464      7.3573      7.9699      9.0197      11.431      16.473      25.161      38.099    
  55.360      76.490      100.50      125.88      150.60      172.29      188.50      197.19      190.35      186.12    
  173.98      155.53      132.95      108.61      84.651      62.793      44.262      29.768      19.494      13.090    
  9.7348      8.2627      7.5126      7.0567      6.9121      7.0568      7.5117      8.2654      9.7321      13.091    
  19.493      29.769      44.262      62.794      84.651      108.61      132.95      155.53      173.98      186.12    
  186.12      186.12      177.93      162.66      142.20      118.84      94.836      72.108      52.116      35.825    
  23.675      15.583      10.943      8.7533      7.7772      7.1799      6.8869      6.8849      7.1824      7.7742    
  8.7546      10.944      15.583      23.675      35.825      52.115      72.107      94.836      118.84      142.20    
  162.66      177.93      173.98      177.93      173.98      162.66      145.42      124.30      101.50      79.030    
  58.539      41.204      27.708      18.219      12.375      9.3630      8.0382      7.3213      6.8874      6.7488    
  6.8872      7.3213      8.0398      9.3604      12.377      18.218      27.709      41.204      58.539      79.030    
  101.50      124.30      145.42      162.66      155.53      162.66      162.66      155.53      142.20      124.30    
  103.82      82.723      62.751      45.237      31.072      20.645      13.844      10.057      8.3095      7.4606    
  6.9118      6.6455      6.6451      6.9127      7.4586      8.3116      10.056      13.845      20.644      31.071    
  45.237      62.751      82.723      103.82      124.30      142.20      132.95      142.20      145.42      142.20    
  132.95      118.84      101.50      82.722      64.218      47.398      33.301      22.506      15.120      10.743    
  8.5863      7.5846      6.9481      6.5756      6.4535      6.5750      6.9493      7.5837      8.5864      10.744    
  15.119      22.507      33.301      47.399      64.218      82.722      101.50      118.84      108.61      118.84    
  124.30      124.30      118.84      108.61      94.836      79.030      62.751      47.399      34.081      23.518    
  15.986      11.297      8.8357      7.6865      6.9862      6.5320      6.3110      6.3130      6.5300      6.9877    
  7.6857      8.8358      11.296      15.986      23.518      34.081      47.399      62.752      79.029      94.837    
  84.651      94.841      101.50      103.82      101.50      94.841      84.651      72.106      58.539      45.237    
  33.300      23.517      16.295      11.604      9.0137      7.7596      7.0199      6.5049      6.2145      6.1184    
  6.2145      6.5051      7.0191      7.7608      9.0128      11.606      16.294      23.518      33.300      45.237    
  58.539      72.107      62.793      72.124      79.052      82.747      82.747      79.053      72.123      62.794    
  52.116      41.205      31.071      22.508      15.986      11.605      9.0770      7.8006      7.0401      6.4924    
  6.1507      5.9885      5.9881      6.1511      6.4924      7.0396      7.8006      9.0765      11.605      15.986    
  22.507      31.072      41.204      52.116      44.262      52.148      58.589      62.810      64.278      62.809    
  58.589      52.148      44.262      35.824      27.708      20.645      15.119      11.297      9.0128      7.8003    
  7.0476      6.4864      6.1168      5.9084      5.8430      5.9085      6.1162      6.4874      7.0472      7.8014    
  9.0126      11.297      15.119      20.644      27.709      35.825      29.768      35.873      41.285      45.338    
  47.509      47.510      45.339      41.286      35.873      29.769      23.675      18.219      13.843      10.745    
  8.8349      7.7610      7.0398      6.4869      6.1054      5.8714      5.7625      5.7624      5.8717      6.1048    
  6.4869      7.0393      7.7606      8.8354      10.744      13.845      18.217      23.675      19.493      23.737    
  27.820      31.217      33.465      34.251      33.464      31.215      27.819      23.737      19.494      15.582    
  12.377      10.058      8.5846      7.6873      7.0183      6.4928      6.1161      5.8718      5.7366      5.6943    
  5.7365      5.8723      6.1161      6.4933      7.0188      7.6867      8.5856      10.056      12.377      15.583    
  13.092      15.654      18.351      20.825      22.721      23.748      23.748      22.721      20.827      18.351    
  15.654      13.090      10.945      9.3605      8.3097      7.5856      6.9858      6.5062      6.1506      5.9088    
  5.7625      5.6943      5.6944      5.7618      5.9087      6.1502      6.5055      6.9867      7.5845      8.3117    
  9.3607      10.944      9.7321      11.020      12.523      14.050      15.369      16.264      16.581      16.263    
  15.368      14.048      12.522      11.021      9.7337      8.7514      8.0415      7.4592      6.9482      6.5315    