Co-hcc                                  
   1.00000000000000     
     2.492465    0.000000    0.000000
    -1.246232    2.158538    0.000000
     0.000000    0.000000    4.032707
   Co
     2
Direct
  0.000000  0.000000  0.000000
  0.333333  0.666667  0.500000
 
   32   32   56
 0.20562660219E+03 0.20103345903E+03 0.18788710211E+03 0.16792159365E+03 0.14353934230E+03
 0.11729763538E+03 0.91498788460E+02 0.67963694207E+02 0.47968628791E+02 0.32252148541E+02
 0.21013557369E+02 0.13916604499E+02 0.10127433920E+02 0.84597575983E+01 0.76642669589E+01
 0.71832305067E+01 0.70305682849E+01 0.71836948808E+01 0.76622078812E+01 0.84628909190E+01
 0.10125632287E+02 0.13917004381E+02 0.21013448374E+02 0.32252386890E+02 0.47968368382E+02
 0.67964060919E+02 0.91498460717E+02 0.11729805278E+03 0.14353905836E+03 0.16792169785E+03
 0.18788707755E+03 0.20103337239E+03 0.20103337239E+03 0.20103341393E+03 0.19216842155E+03
 0.17563792556E+03 0.15352738658E+03 0.12833126989E+03 0.10247456953E+03 0.78008351553E+02
 0.56464804428E+02 0.38845648187E+02 0.25615153605E+02 0.16705356911E+02 0.11514628592E+02
 0.90221674167E+01 0.79477798367E+01 0.73219527802E+01 0.70117622062E+01 0.70093195492E+01
 0.73248931528E+01 0.79456519720E+01 0.90221137692E+01 0.11515434930E+02 0.16704935595E+02
 0.25615277138E+02 0.38845521821E+02 0.56464738308E+02 0.78008278127E+02 0.10247457299E+03
 0.12833090853E+03 0.15352792856E+03 0.17563754614E+03 0.19216873449E+03 0.18788707755E+03
 0.19216413346E+03 0.18788727656E+03 0.17563765313E+03 0.15701048199E+03 0.13422313592E+03
 0.10965566751E+03 0.85471095909E+02 0.63403566074E+02 0.44686202422E+02 0.30032810786E+02
 0.19633886389E+02 0.13140689648E+02 0.97303823105E+01 0.82345904212E+01 0.74788185482E+01
 0.70193900179E+01 0.68735248003E+01 0.70194509161E+01 0.74775754964E+01 0.82372086526E+01
 0.97280554945E+01 0.13142334830E+02 0.19632661603E+02 0.30033734115E+02 0.44685799638E+02
 0.63403977518E+02 0.85470975930E+02 0.10965602711E+03 0.13422282644E+03 0.15701066478E+03
 0.17563754614E+03 0.16792169785E+03 0.17562623301E+03 0.17562600021E+03 0.16792154015E+03
 0.15352778236E+03 0.13422324433E+03 0.11215590970E+03 0.89452343156E+02 0.67951064342E+02
 0.49057184801E+02 0.33705240550E+02 0.22314987889E+02 0.14795284280E+02 0.10536175195E+02
 0.85469613151E+01 0.76303436995E+01 0.70526237682E+01 0.67712331396E+01 0.67696445809E+01
 0.70549695306E+01 0.76275730990E+01 0.85488997840E+01 0.10535054443E+02 0.14795682420E+02
 0.22315029150E+02 0.33704838467E+02 0.49057329295E+02 0.67950758773E+02 0.89452207915E+02
 0.11215619987E+03 0.13422282644E+03 0.15352792856E+03 0.14353905836E+03 0.15350920600E+03
 0.15698508718E+03 0.15350932585E+03 0.14353943728E+03 0.12833048274E+03 0.10965594022E+03
 0.89452145186E+02 0.69534150606E+02 0.51397766354E+02 0.36134538268E+02 0.24366309975E+02
 0.16224446441E+02 0.11326099271E+02 0.88719382759E+01 0.77653365790E+01 0.70983174217E+01
 0.67026667644E+01 0.65739378239E+01 0.67019963658E+01 0.70990986035E+01 0.77653413526E+01
 0.88712871524E+01 0.11327272686E+02 0.16223357179E+02 0.24367354359E+02 0.36133839937E+02
 0.51398595415E+02 0.69533845765E+02 0.89452207915E+02 0.10965602711E+03 0.12833090853E+03
 0.11729805278E+03 0.12830934159E+03 0.13418764316E+03 0.13418750966E+03 0.12830935872E+03
 0.11729788564E+03 0.10247496718E+03 0.85471233733E+02 0.67950644702E+02 0.51398364435E+02
 0.36984292058E+02 0.25477772661E+02 0.17192501950E+02 0.11959308924E+02 0.91673066732E+01
 0.78790995947E+01 0.71441259696E+01 0.66619707655E+01 0.64289002234E+01 0.64298836061E+01
 0.66612846013E+01 0.71439860016E+01 0.78797890304E+01 0.91662644937E+01 0.11960078593E+02
 0.17191558757E+02 0.25478574167E+02 0.36983452533E+02 0.51398595415E+02 0.67950758773E+02
 0.85470975930E+02 0.10247457299E+03 0.91498460717E+02 0.10245648403E+03 0.10962048179E+03
 0.11211367386E+03 0.10962027835E+03 0.10245633268E+03 0.91498623420E+02 0.78007848658E+02
 0.63403589974E+02 0.49057664861E+02 0.36133917240E+02 0.25477958648E+02 0.17535552123E+02
 0.12310600069E+02 0.93770272189E+01 0.79646023637E+01 0.71829459765E+01 0.66385566337E+01
 0.63310277068E+01 0.62282526102E+01 0.63308122299E+01 0.66393662171E+01 0.71818461105E+01
 0.79658849488E+01 0.93760779523E+01 0.12311837490E+02 0.17534690924E+02 0.25478574167E+02
 0.36133839937E+02 0.49057329295E+02 0.63403977518E+02 0.78008278127E+02 0.67964060919E+02
 0.78000082790E+02 0.85448909856E+02 0.89420332696E+02 0.89420681748E+02 0.85449472699E+02
 0.78000108185E+02 0.67964020002E+02 0.56465105619E+02 0.44686379988E+02 0.33704262955E+02
 0.24367257519E+02 0.17191974049E+02 0.12311264737E+02 0.94524437779E+01 0.80125552058E+01
 0.72068059223E+01 0.66285955544E+01 0.62676674231E+01 0.60942282054E+01 0.60947697173E+01
 0.62667101699E+01 0.66296728424E+01 0.72055715534E+01 0.80134294548E+01 0.94512926758E+01
 0.12311837490E+02 0.17191558757E+02 0.24367354359E+02 0.33704838467E+02 0.44685799638E+02
 0.56464738308E+02 0.47968368382E+02 0.56472821861E+02 0.63408105978E+02 0.67948000140E+02
 0.69527493925E+02 0.67947278986E+02 0.63407478947E+02 0.56472799785E+02 0.47968430861E+02
 0.38845196505E+02 0.30032852364E+02 0.22316247263E+02 0.16223191967E+02 0.11959817231E+02
 0.93763208526E+01 0.80125954819E+01 0.72152391471E+01 0.66244547690E+01 0.62337874453E+01
 0.60122008077E+01 0.59430150991E+01 0.60127029768E+01 0.62331736132E+01 0.66253242703E+01
 0.72147452306E+01 0.80134294548E+01 0.93760779523E+01 0.11960078593E+02 0.16223357179E+02
 0.22315029150E+02 0.30033734115E+02 0.38845521821E+02 0.32252386890E+02 0.38871490689E+02
 0.44722904380E+02 0.49096979226E+02 0.51437277232E+02 0.51437719814E+02 0.49097676585E+02
 0.44723863716E+02 0.38871282971E+02 0.32252362018E+02 0.25615621230E+02 0.19633551588E+02
 0.14793919165E+02 0.11327861513E+02 0.91664091377E+01 0.79656511103E+01 0.72065238376E+01
 0.66247278487E+01 0.62228773311E+01 0.59743988804E+01 0.58595550434E+01 0.58584949576E+01
 0.59753125997E+01 0.62217500123E+01 0.66253242703E+01 0.72055715534E+01 0.79658849488E+01
 0.91662644937E+01 0.11327272686E+02 0.14795682420E+02 0.19632661603E+02 0.25615277138E+02
 0.21013448374E+02 0.25657382075E+02 0.30104794325E+02 0.33792200540E+02 0.36228978826E+02
 0.37080570745E+02 0.36228664031E+02 0.33791078429E+02 0.30103887292E+02 0.25657565569E+02
 0.21013671710E+02 0.16704624566E+02 0.13141395392E+02 0.10537297580E+02 0.88700067239E+01
 0.78803049453E+01 0.71814780083E+01 0.66291913779E+01 0.62331731006E+01 0.59747534924E+01
 0.58324308349E+01 0.57876787314E+01 0.58323315179E+01 0.59753125997E+01 0.62331736132E+01
 0.66296728424E+01 0.71818461105E+01 0.78797890304E+01 0.88712871524E+01 0.10535054443E+02
 0.13142334830E+02 0.16704935595E+02 0.13917004381E+02 0.16759841086E+02 0.19730779276E+02
 0.22444775996E+02 0.24516302477E+02 0.25637015420E+02 0.25636961644E+02 0.24516830985E+02
 0.22446055797E+02 0.19731857475E+02 0.16759525464E+02 0.13916142071E+02 0.11516144429E+02
 0.97289526219E+01 0.85463364119E+01 0.77670688833E+01 0.71430025748E+01 0.66401697801E+01
 0.62670425583E+01 0.60128441447E+01 0.58592664726E+01 0.57872305972E+01 0.57876787314E+01
 0.58584949576E+01 0.60127029768E+01 0.62667101699E+01 0.66393662171E+01 0.71439860016E+01
 0.77653413526E+01 0.85488997840E+01 0.97280554945E+01 0.11515434930E+02 0.10125632287E+02
 0.11576598993E+02 0.13257830338E+02 0.14955808715E+02 0.16415878522E+02 0.17403850891E+02
 0.17753332226E+02 0.17403646228E+02 0.16415496151E+02 0.14953880626E+02 0.13256873250E+02
 0.11577296485E+02 0.10127495746E+02 0.90197310861E+01 0.82375081315E+01 0.76297467336E+01
 0.70973953724E+01 0.66625084185E+01 0.63295579825E+01 0.60947312100E+01 0.59422565324E+01
 0.58592664726E+01 0.58324308349E+01 0.58595550434E+01 0.59430150991E+01 0.60947697173E+01
 0.63308122299E+01 0.66612846013E+01 0.70990986035E+01 0.76275730990E+01 0.82372086526E+01
 0.90221137692E+01 0.84628909190E+01 0.90860903640E+01 0.98532756917E+01 0.10713299319E+02
 0.11547772710E+02 0.12209973618E+02 0.12576478672E+02 0.12576695633E+02 0.12209946953E+02
 0.11548665145E+02 0.10715489838E+02 0.98542468086E+01 0.90836848953E+01 0.84619266750E+01
 0.79490341998E+01 0.74756243888E+01 0.70539856329E+01 0.67028429487E+01 0.64291563385E+01
 0.62294009412E+01 0.60947312100E+01 0.60128441447E+01 0.59747534924E+01 0.59743988804E+01
 0.60122008077E+01 0.60942282054E+01 0.62282526102E+01 0.64298836061E+01 0.67019963658E+01
 0.70549695306E+01 0.74775754964E+01 0.79456519720E+01 0.76622078812E+01 0.80107750172E+01
 0.83659401753E+01 0.87337953591E+01 0.91049406216E+01 0.94376383858E+01 0.96710771303E+01
 0.97548351110E+01 0.96711629507E+01 0.94372887207E+01 0.91037411240E+01 0.87311206734E+01
 0.83662720794E+01 0.80141445132E+01 0.76609498020E+01 0.73225579272E+01 0.70216274009E+01
 0.67702274576E+01 0.65736780812E+01 0.64291563385E+01 0.63295579825E+01 0.62670425583E+01
 0.62331731006E+01 0.62228773311E+01 0.62337874453E+01 0.62676674231E+01 0.63310277068E+01
 0.64289002234E+01 0.65739378239E+01 0.67696445809E+01 0.70194509161E+01 0.73248931528E+01
 0.71836948808E+01 0.73907336971E+01 0.76075236856E+01 0.78157721506E+01 0.80062140442E+01
 0.81645346337E+01 0.82808668537E+01 0.83438229611E+01 0.83433657272E+01 0.82811085733E+01
 0.81650798032E+01 0.80080851237E+01 0.78178895768E+01 0.76056170053E+01 0.73883620164E+01
 0.71858628010E+01 0.70105849095E+01 0.68717138269E+01 0.67702274576E+01 0.67028429487E+01
 0.66625084185E+01 0.66401697801E+01 0.66291913779E+01 0.66247278487E+01 0.66244547690E+01
 0.66285955544E+01 0.66385566337E+01 0.66619707655E+01 0.67026667644E+01 0.67712331396E+01
 0.68735248003E+01 0.70093195492E+01 0.70305682849E+01 0.70755875603E+01 0.71502098751E+01
 0.72460746016E+01 0.73450475310E+01 0.74361813690E+01 0.75079916572E+01 0.75528819952E+01
 0.75689472649E+01 0.75531133614E+01 0.75077291216E+01 0.74348260419E+01 0.73434785331E+01
 0.72450098104E+01 0.71524485928E+01 0.70768403672E+01 0.70285386175E+01 0.70105849095E+01
 0.70216274009E+01 0.70539856329E+01 0.70973953724E+01 0.71430025748E+01 0.71814780083E+01
 0.72065238376E+01 0.72152391471E+01 0.72068059223E+01 0.71829459765E+01 0.71441259696E+01
 0.70983174217E+01 0.70526237682E+01 0.70193900179E+01 0.70117622062E+01 0.71832305067E+01
 0.70780264718E+01 0.70046462830E+01 0.69621829524E+01 0.69509199056E+01 0.69581761946E+01
 0.69745673020E+01 0.69918921176E+01 0.70012970460E+01 0.70016557489E+01 0.69913592540E+01
 0.69757441908E+01 0.69594113833E+01 0.69517782468E+01 0.69627306562E+01 0.70028358904E+01
 0.70768403672E+01 0.71858628010E+01 0.73225579272E+01 0.74756243888E+01 0.76297467336E+01
 0.77670688833E+01 0.78803049453E+01 0.79656511103E+01 0.80125954819E+01 0.80125552058E+01
 0.79646023637E+01 0.78790995947E+01 0.77653365790E+01 0.76303436995E+01 0.74788185482E+01
 0.73219527802E+01 0.76642669589E+01 0.73878055781E+01 0.71501270388E+01 0.69638179609E+01
 0.68237727723E+01 0.67301058272E+01 0.66730548131E+01 0.66404273820E+01 0.66262040217E+01
 0.66214100230E+01 0.66262280323E+01 0.66402085900E+01 0.66718623297E+01 0.67291979863E+01
 0.68236634641E+01 0.69627306562E+01 0.71524485928E+01 0.73883620164E+01 0.76609498020E+01
 0.79490341998E+01 0.82375081315E+01 0.85463364119E+01 0.88700067239E+01 0.91664091377E+01
 0.93763208526E+01 0.94524437779E+01 0.93770272189E+01 0.91673066732E+01 0.88719382759E+01
 0.85469613151E+01 0.82345904212E+01 0.79477798367E+01 0.84597575983E+01 0.80128604654E+01
 0.76088222488E+01 0.72436742112E+01 0.69516230063E+01 0.67289271367E+01 0.65725779439E+01
 0.64731789903E+01 0.64148726709E+01 0.63895956000E+01 0.63890353148E+01 0.64156399744E+01
 0.64732329982E+01 0.65738077441E+01 0.67291979863E+01 0.69517782468E+01 0.72450098104E+01
 0.76056170053E+01 0.80141445132E+01 0.84619266750E+01 0.90197310861E+01 0.97289526219E+01
 0.10537297580E+02 0.11327861513E+02 0.11959817231E+02 0.12311264737E+02 0.12310600069E+02
 0.11959308924E+02 0.11326099271E+02 0.10536175195E+02 0.97303823105E+01 0.90221674167E+01
 0.10127433920E+02 0.90861853845E+01 0.83632784575E+01 0.78185923840E+01 0.73441749928E+01
 0.69591303579E+01 0.66731239217E+01 0.64730805288E+01 0.63495386026E+01 0.62820748562E+01
 0.62620233664E+01 0.62819798608E+01 0.63488064164E+01 0.64732329982E+01 0.66718623297E+01
 0.69594113833E+01 0.73434785331E+01 0.78178895768E+01 0.83662720794E+01 0.90836848953E+01
 0.10127495746E+02 0.11516144429E+02 0.13141395392E+02 0.14793919165E+02 0.16223191967E+02
 0.17191974049E+02 0.17535552123E+02 0.17192501950E+02 0.16224446441E+02 0.14795284280E+02
 0.13140689648E+02 0.11514628592E+02 0.13916604499E+02 0.11575719470E+02 0.98556996800E+01
 0.87317444889E+01 0.80063957002E+01 0.74360085492E+01 0.69739257273E+01 0.66410015431E+01
 0.64144995358E+01 0.62825081379E+01 0.62201951428E+01 0.62213682009E+01 0.62819798608E+01
 0.64156399744E+01 0.66402085900E+01 0.69757441908E+01 0.74348260419E+01 0.80080851237E+01
 0.87311206734E+01 0.98542468086E+01 0.11577296485E+02 0.13916142071E+02 0.16704624566E+02
 0.19633551588E+02 0.22316247263E+02 0.24367257519E+02 0.25477958648E+02 0.25477772661E+02
 0.24366309975E+02 0.22314987889E+02 0.19633886389E+02 0.16705356911E+02 0.21013557369E+02
 0.16760397832E+02 0.13256081093E+02 0.10714488310E+02 0.91054565536E+01 0.81640217050E+01
 0.75090657783E+01 0.69910354383E+01 0.66267915191E+01 0.63889137215E+01 0.62625627471E+01
 0.62201951428E+01 0.62620233664E+01 0.63890353148E+01 0.66262280323E+01 0.69913592540E+01
 0.75077291216E+01 0.81650798032E+01 0.91037411240E+01 0.10715489838E+02 0.13256873250E+02
 0.16759525464E+02 0.21013671710E+02 0.25615621230E+02 0.30032852364E+02 0.33704262955E+02
 0.36133917240E+02 0.36984292058E+02 0.36134538268E+02 0.33705240550E+02 0.30032810786E+02
 0.25615153605E+02 0.32252148541E+02 0.25657039351E+02 0.19732152641E+02 0.14955183886E+02
 0.11547011670E+02 0.94382146576E+01 0.82800318167E+01 0.75533842541E+01 0.70010651443E+01
 0.66217213061E+01 0.63889137215E+01 0.62825081379E+01 0.62820748562E+01 0.63895956000E+01
 0.66214100230E+01 0.70016557489E+01 0.75531133614E+01 0.82811085733E+01 0.94372887207E+01
 0.11548665145E+02 0.14953880626E+02 0.19731857475E+02 0.25657565569E+02 0.32252362018E+02
 0.38845196505E+02 0.44686379988E+02 0.49057664861E+02 0.51398364435E+02 0.51397766354E+02
 0.49057184801E+02 0.44686202422E+02 0.38845648187E+02 0.47968628791E+02 0.38871806516E+02
 0.30103792699E+02 0.22444948839E+02 0.16416700388E+02 0.12209349346E+02 0.96718961334E+01
 0.83432403291E+01 0.75693836005E+01 0.70010651443E+01 0.66267915191E+01 0.64144995358E+01
 0.63495386026E+01 0.64148726709E+01 0.66262040217E+01 0.70012970460E+01 0.75689472649E+01
 0.83433657272E+01 0.96711629507E+01 0.12209946953E+02 0.16415496151E+02 0.22446055797E+02
 0.30103887292E+02 0.38871282971E+02 0.47968430861E+02 0.56465105619E+02 0.63403589974E+02
 0.67950644702E+02 0.69534150606E+02 0.67951064342E+02 0.63403566074E+02 0.56464804428E+02
 0.67963694207E+02 0.56472509075E+02 0.44723622823E+02 0.33792126589E+02 0.24515711101E+02
 0.17404301215E+02 0.12575970086E+02 0.97551145629E+01 0.83432403291E+01 0.75533842541E+01
 0.69910354383E+01 0.66410015431E+01 0.64730805288E+01 0.64731789903E+01 0.66404273820E+01
 0.69918921176E+01 0.75528819952E+01 0.83438229611E+01 0.97548351110E+01 0.12576695633E+02
 0.17403646228E+02 0.24516830985E+02 0.33791078429E+02 0.44723863716E+02 0.56472799785E+02
 0.67964020002E+02 0.78007848658E+02 0.85471233733E+02 0.89452145186E+02 0.89452343156E+02
 0.85471095909E+02 0.78008351553E+02 0.91498788460E+02 0.78000310783E+02 0.63407778078E+02
 0.49096849301E+02 0.36229682006E+02 0.25636307378E+02 0.17754090965E+02 0.12575970086E+02
 0.96718961334E+01 0.82800318167E+01 0.75090657783E+01 0.69739257273E+01 0.66731239217E+01
 0.65725779439E+01 0.66730548131E+01 0.69745673020E+01 0.75079916572E+01 0.82808668537E+01
 0.96710771303E+01 0.12576478672E+02 0.17753332226E+02 0.25636961644E+02 0.36228664031E+02
 0.49097676585E+02 0.63407478947E+02 0.78000108185E+02 0.91498623420E+02 0.10247496718E+03
 0.10965594022E+03 0.11215590970E+03 0.10965566751E+03 0.10247456953E+03 0.11729763538E+03
 0.10245635939E+03 0.85449093553E+02 0.67948051639E+02 0.51436655810E+02 0.37081240915E+02
 0.25636307378E+02 0.17404301215E+02 0.12209349346E+02 0.94382146576E+01 0.81640217050E+01
 0.74360085492E+01 0.69591303579E+01 0.67289271367E+01 0.67301058272E+01 0.69581761946E+01
 0.74361813690E+01 0.81645346337E+01 0.94376383858E+01 0.12209973618E+02 0.17403850891E+02
 0.25637015420E+02 0.37080570745E+02 0.51437719814E+02 0.67947278986E+02 0.85449472699E+02
 0.10245633268E+03 0.11729788564E+03 0.12833048274E+03 0.13422324433E+03 0.13422313592E+03
 0.12833126989E+03 0.14353934230E+03 0.12830927708E+03 0.10962065141E+03 0.89419910577E+02
 0.69528532442E+02 0.51436655810E+02 0.36229682006E+02 0.24515711101E+02 0.16416700388E+02
 0.11547011670E+02 0.91054565536E+01 0.80063957002E+01 0.73441749928E+01 0.69516230063E+01
 0.68237727723E+01 0.69509199056E+01 0.73450475310E+01 0.80062140442E+01 0.91049406216E+01
 0.11547772710E+02 0.16415878522E+02 0.24516302477E+02 0.36228978826E+02 0.51437277232E+02
 0.69527493925E+02 0.89420681748E+02 0.10962027835E+03 0.12830935872E+03 0.14353943728E+03
 0.15352778236E+03 0.15701048199E+03 0.15352738658E+03 0.16792159365E+03 0.15350940847E+03
 0.13418750078E+03 0.11211396826E+03 0.89419910577E+02 0.67948051639E+02 0.49096849301E+02
 0.33792126589E+02 0.22444948839E+02 0.14955183886E+02 0.10714488310E+02 0.87317444889E+01
 0.78185923840E+01 0.72436742112E+01 0.69638179609E+01 0.69621829524E+01 0.72460746016E+01
 0.78157721506E+01 0.87337953591E+01 0.10713299319E+02 0.14955808715E+02 0.22444775996E+02
 0.33792200540E+02 0.49096979226E+02 0.67948000140E+02 0.89420332696E+02 0.11211367386E+03
 0.13418750966E+03 0.15350932585E+03 0.16792154015E+03 0.17563765313E+03 0.17563792556E+03
 0.18788710211E+03 0.17562619735E+03 0.15698485757E+03 0.13418750078E+03 0.10962065141E+03
 0.85449093553E+02 0.63407778078E+02 0.44723622823E+02 0.30103792699E+02 0.19732152641E+02
 0.13256081093E+02 0.98556996800E+01 0.83632784575E+01 0.76088222488E+01 0.71501270388E+01
 0.70046462830E+01 0.71502098751E+01 0.76075236856E+01 0.83659401753E+01 0.98532756917E+01
 0.13257830338E+02 0.19730779276E+02 0.30104794325E+02 0.44722904380E+02 0.63408105978E+02
 0.85448909856E+02 0.10962048179E+03 0.13418764316E+03 0.15698508718E+03 0.17562600021E+03
 0.18788727656E+03 0.19216842155E+03 0.20103345903E+03 0.19216407849E+03 0.17562619735E+03
 0.15350940847E+03 0.12830927708E+03 0.10245635939E+03 0.78000310783E+02 0.56472509075E+02
 0.38871806516E+02 0.25657039351E+02 0.16760397832E+02 0.11575719470E+02 0.90861853845E+01
 0.80128604654E+01 0.73878055781E+01 0.70780264718E+01 0.70755875603E+01 0.73907336971E+01
 0.80107750172E+01 0.90860903640E+01 0.11576598993E+02 0.16759841086E+02 0.25657382075E+02
 0.38871490689E+02 0.56472821861E+02 0.78000082790E+02 0.10245648403E+03 0.12830934159E+03
 0.15350920600E+03 0.17562623301E+03 0.19216413346E+03 0.20103341393E+03 0.20169111646E+03
 0.19719063003E+03 0.18430669981E+03 0.16473293003E+03 0.14081727009E+03 0.11506535094E+03
 0.89739368682E+02 0.66634539113E+02 0.47014691330E+02 0.31611146569E+02 0.20619781264E+02
 0.13701250052E+02 0.10024677088E+02 0.84087709696E+01 0.76255076181E+01 0.71507395707E+01
 0.70001716468E+01 0.71511121130E+01 0.76237201653E+01 0.84118454846E+01 0.10022556425E+02
 0.13701886240E+02 0.20619670460E+02 0.31611588551E+02 0.47014448713E+02 0.66635195578E+02
 0.89739029161E+02 0.11506613536E+03 0.14081698684E+03 0.16473284979E+03 0.18430667802E+03
 0.19719045158E+03 0.19719048001E+03 0.19719041039E+03 0.18850270534E+03 0.17229776082E+03
 0.15061416335E+03 0.12589243066E+03 0.10051189799E+03 0.76492006722E+02 0.55346263167E+02
 0.38067240009E+02 0.25113493067E+02 0.16413896458E+02 0.11365352842E+02 0.89519619943E+01
 0.79041966330E+01 0.72855339227E+01 0.69797889916E+01 0.69773760047E+01 0.72884501854E+01
 0.79017453909E+01 0.89523549314E+01 0.11366108201E+02 0.16413382795E+02 0.25113436055E+02
 0.38067077816E+02 0.55345958305E+02 0.76491900478E+02 0.10051164014E+03 0.12589209308E+03
 0.15061459171E+03 0.17229760811E+03 0.18850291909E+03 0.18430676067E+03 0.18849915178E+03
 0.18430688424E+03 0.17229775136E+03 0.15402977126E+03 0.13167267402E+03 0.10755939003E+03
 0.83815847073E+02 0.62152744506E+02 0.43789620951E+02 0.29432568902E+02 0.19266942541E+02
 0.12941286778E+02 0.96342816862E+01 0.81839744531E+01 0.74385449722E+01 0.69856121428E+01
 0.68415649994E+01 0.69856049880E+01 0.74376214298E+01 0.81863908308E+01 0.96318116944E+01
 0.12942999383E+02 0.19265839633E+02 0.29433632243E+02 0.43789366042E+02 0.62153231249E+02
 0.83815950278E+02 0.10755969578E+03 0.13167239927E+03 0.15403006286E+03 0.17229749703E+03
 0.16473294175E+03 0.17228818871E+03 0.17228814948E+03 0.16473258874E+03 0.15061458875E+03
 0.13167301057E+03 0.11001307343E+03 0.87723223150E+02 0.66614386780E+02 0.48073977867E+02
 0.33025928388E+02 0.21882557343E+02 0.14547790983E+02 0.10410923024E+02 0.84853206917E+01
 0.75870514652E+01 0.70165715222E+01 0.67390763755E+01 0.67377437696E+01 0.70185645201E+01
 0.75844154683E+01 0.84873600794E+01 0.10409755988E+02 0.14548198611E+02 0.21882447632E+02
 0.33025322466E+02 0.48074110909E+02 0.66613831646E+02 0.87723171751E+02 0.11001335101E+03
 0.13167257388E+03 0.15061452818E+03 0.14081726990E+03 0.15059937312E+03 0.15400955158E+03
 0.15059957248E+03 0.14081750105E+03 0.12589123344E+03 0.10755980635E+03 0.87722756139E+02
 0.68167699481E+02 0.50368428051E+02 0.35403969649E+02 0.23884991680E+02 0.15937605376E+02
 0.11173846467E+02 0.87975248314E+01 0.77191102500E+01 0.70599759352E+01 0.66700934497E+01
 0.65432114487E+01 0.66694595515E+01 0.70609008181E+01 0.77188425659E+01 0.87970991486E+01
 0.11174917785E+02 0.15936579588E+02 0.23886232308E+02 0.35403343190E+02 0.50369435948E+02
 0.68167346015E+02 0.87722796734E+02 0.10755989618E+03 0.12589178160E+03 0.11506569564E+03
 0.12587559115E+03 0.13164507213E+03 0.13164519038E+03 0.12587534922E+03 0.11506609665E+03
 0.10051210628E+03 0.83816336981E+02 0.66613740460E+02 0.50369457567E+02 0.36235655769E+02
 0.24971181465E+02 0.16879160850E+02 0.11786488347E+02 0.90805568299E+01 0.78297642513E+01
 0.71036736435E+01 0.66288717224E+01 0.63986305543E+01 0.64001244259E+01 0.66275735786E+01
 0.71042174863E+01 0.78298159040E+01 0.90799788290E+01 0.11786768425E+02 0.16878615414E+02
 0.24971405596E+02 0.36235103051E+02 0.50369279286E+02 0.66614363325E+02 0.83815593210E+02
 0.10051210829E+03 0.89739064611E+02 0.10049985079E+03 0.10753455498E+03 0.10998277846E+03
 0.10753427819E+03 0.10049953509E+03 0.89739199855E+02 0.76491286990E+02 0.62152826711E+02
 0.48074338811E+02 0.35403264269E+02 0.24970933384E+02 0.17213482257E+02 0.12126411416E+02
 0.92820525673E+01 0.79117386913E+01 0.71413575692E+01 0.66043672720E+01 0.63012923104E+01
 0.62001831336E+01 0.63011216624E+01 0.66050410291E+01 0.71403630828E+01 0.79130864726E+01
 0.92811237860E+01 0.12127762013E+02 0.17212545885E+02 0.24971809867E+02 0.35403095581E+02
 0.48073983500E+02 0.62153184045E+02 0.76491836603E+02 0.66634843739E+02 0.76490260038E+02
 0.83805397885E+02 0.87705985735E+02 0.87706261490E+02 0.83806358287E+02 0.76490013057E+02
 0.66635229079E+02 0.55346429740E+02 0.43790029362E+02 0.33024765721E+02 0.23886429769E+02
 0.16878655196E+02 0.12127196623E+02 0.93541926819E+01 0.79578860364E+01 0.71641966142E+01
 0.65938861331E+01 0.62376985380E+01 0.60673163283E+01 0.60674309996E+01 0.62372835892E+01
 0.65944846071E+01 0.71632677390E+01 0.79583574744E+01 0.93532715012E+01 0.12127445623E+02
 0.16878527534E+02 0.23886163526E+02 0.33025766265E+02 0.43789096856E+02 0.55346338571E+02
 0.47014375534E+02 0.55360671276E+02 0.62169362570E+02 0.66627601456E+02 0.68178405955E+02
 0.66626629111E+02 0.62168760198E+02 0.55360531450E+02 0.47014422155E+02 0.38066669890E+02
 0.29432655178E+02 0.21883632465E+02 0.15936207906E+02 0.11786937676E+02 0.92812638458E+01
 0.79577993416E+01 0.71724837460E+01 0.65891898263E+01 0.62039091498E+01 0.59857424379E+01
 0.59174931748E+01 0.59861176030E+01 0.62033254144E+01 0.65901581928E+01 0.71720053850E+01
 0.79587824930E+01 0.92810151576E+01 0.11787281324E+02 0.15936223351E+02 0.21882428852E+02
 0.29433476411E+02 0.38067122569E+02 0.31611394983E+02 0.38098914602E+02 0.43837826736E+02
 0.48129805435E+02 0.50426826105E+02 0.50427423267E+02 0.48130512687E+02 0.43838991455E+02
 0.38098570782E+02 0.31611603179E+02 0.25113911917E+02 0.19266811938E+02 0.14546387171E+02
 0.11175688155E+02 0.90797455691E+01 0.79129452180E+01 0.71639552826E+01 0.65895633883E+01
 0.61928213538E+01 0.59481394339E+01 0.58347486121E+01 0.58340413973E+01 0.59488003467E+01
 0.61918719531E+01 0.65898914459E+01 0.71631094673E+01 0.79129283541E+01 0.90797326768E+01
 0.11175007275E+02 0.14548484139E+02 0.19265728718E+02 0.25113658049E+02 0.20619544033E+02
 0.25160867460E+02 0.29514825263E+02 0.33128007700E+02 0.35516263738E+02 0.36351339339E+02
 0.35516026639E+02 0.33126632135E+02 0.29513964922E+02 0.25160978225E+02 0.20619789944E+02
 0.16412944709E+02 0.12942051086E+02 0.10412101977E+02 0.87955170488E+01 0.78308102224E+01
 0.71397980551E+01 0.65943776945E+01 0.62032470448E+01 0.59485345230E+01 0.58079540117E+01
 0.57639060338E+01 0.58078847571E+01 0.59491203408E+01 0.62032721672E+01 0.65949628730E+01
 0.71402012072E+01 0.78303820504E+01 0.87966896645E+01 0.10409790455E+02 0.12942790304E+02
 0.16413480795E+02 0.13701975627E+02 0.16472532784E+02 0.19372993458E+02 0.22025299824E+02
 0.24052045341E+02 0.25148662935E+02 0.25148700607E+02 0.24052437519E+02 0.22026904817E+02
 0.19373928208E+02 0.16472312539E+02 0.13701060908E+02 0.11367007785E+02 0.96325267369E+01
 0.84849093050E+01 0.77207377974E+01 0.71028524318E+01 0.66059509016E+01 0.62372856000E+01
 0.59862519544E+01 0.58345926071E+01 0.57635344967E+01 0.57638689948E+01 0.58337584423E+01
 0.59861338112E+01 0.62368423624E+01 0.66051658656E+01 0.71036883791E+01 0.77192150110E+01
 0.84873626516E+01 0.96319837343E+01 0.11366047240E+02 0.10022588478E+02 0.11431139017E+02
 0.13066033109E+02 0.14720119077E+02 0.16143510792E+02 0.17107646909E+02 0.17448802046E+02
 0.17107400936E+02 0.16143175702E+02 0.14717953981E+02 0.13065191461E+02 0.11431854952E+02
 0.10024436859E+02 0.89497083566E+01 0.81870248053E+01 0.75862299924E+01 0.70592458190E+01
 0.66290235970E+01 0.62999293336E+01 0.60676272953E+01 0.59168356228E+01 0.58344711669E+01
 0.58081124910E+01 0.58349101269E+01 0.59175984069E+01 0.60677507862E+01 0.63011182661E+01
 0.66279812457E+01 0.70606498133E+01 0.75842914558E+01 0.81863402311E+01 0.89522944522E+01
 0.84117661598E+01 0.90195433922E+01 0.97638084213E+01 0.10598073651E+02 0.11408687068E+02
 0.12052455484E+02 0.12408835978E+02 0.12409206276E+02 0.12052364924E+02 0.11409678485E+02
 0.10600321194E+02 0.97647495329E+01 0.90168457959E+01 0.84112109265E+01 0.79050593514E+01
 0.74355784883E+01 0.70178675188E+01 0.66702501864E+01 0.63991341576E+01 0.62012467949E+01
 0.60675800236E+01 0.59864206663E+01 0.59483287719E+01 0.59480251907E+01 0.59855899341E+01
 0.60670438135E+01 0.62001392582E+01 0.63997640306E+01 0.66696632846E+01 0.70187358043E+01
 0.74376247578E+01 0.79018531419E+01 0.76236919318E+01 0.79700749863E+01 0.83212220726E+01
 0.86816781194E+01 0.90421820843E+01 0.93650178910E+01 0.95912455492E+01 0.96724095352E+01
 0.95912909122E+01 0.93645509026E+01 0.90410577006E+01 0.86788362673E+01 0.83219823437E+01
 0.79733083063E+01 0.76222109101E+01 0.72863092328E+01 0.69876452912E+01 0.67381929038E+01
 0.65429723778E+01 0.63992417159E+01 0.62998690470E+01 0.62372244463E+01 0.62033452375E+01
 0.61930431552E+01 0.62039540953E+01 0.62380786111E+01 0.63012286275E+01 0.63990985079E+01
 0.65429001573E+01 0.67376800437E+01 0.69854941018E+01 0.72884499927E+01 0.71511203675E+01
 0.73571249229E+01 0.75734357925E+01 0.77810529224E+01 0.79708491373E+01 0.81277938294E+01
 0.82424898790E+01 0.83043954707E+01 0.83039060002E+01 0.82428762529E+01 0.81283947609E+01
 0.79726937332E+01 0.77829866681E+01 0.75713051702E+01 0.73550386587E+01 0.71532784672E+01
 0.69786045615E+01 0.68398872115E+01 0.67381729247E+01 0.66701626072E+01 0.66290639045E+01
 0.66060320344E+01 0.65942595227E+01 0.65893615660E+01 0.65891249017E+01 0.65935260391E+01
 0.66044109758E+01 0.66284237479E+01 0.66703847620E+01 0.67391600805E+01 0.68416559065E+01
 0.69773961764E+01 0.70001780228E+01 0.70466100660E+01 0.71218903911E+01 0.72181112172E+01
 0.73170322054E+01 0.74084850696E+01 0.74805163482E+01 0.75254442246E+01 0.75415638884E+01
 0.75256038105E+01 0.74801503197E+01 0.74070067185E+01 0.73157990498E+01 0.72171991580E+01
 0.71240984904E+01 0.70477207111E+01 0.69981681807E+01 0.69785899311E+01 0.69876799008E+01
 0.70179404675E+01 0.70592201420E+01 0.71027566686E+01 0.71399308574E+01 0.71641424744E+01
 0.71725633011E+01 0.71645420777E+01 0.71413284960E+01 0.71041069875E+01 0.70596992534E+01
 0.70164731867E+01 0.69855358662E+01 0.69797541894E+01 0.71507285834E+01 0.70488157256E+01
 0.69783264047E+01 0.69381787376E+01 0.69288160955E+01 0.69369150511E+01 0.69537814580E+01
 0.69713885492E+01 0.69808446788E+01 0.69813082808E+01 0.69708967923E+01 0.69551397450E+01
 0.69380119566E+01 0.69293037246E+01 0.69387415269E+01 0.69765672981E+01 0.70477160998E+01
 0.71532977090E+01 0.72862700119E+01 0.74355101509E+01 0.75862510581E+01 0.77208381719E+01
 0.78306728088E+01 0.79127626374E+01 0.79577151752E+01 0.79575451842E+01 0.79117631533E+01
 0.78293355186E+01 0.77193823205E+01 0.75871544121E+01 0.74386166376E+01 0.72855733363E+01
 0.76255225248E+01 0.73544180275E+01 0.71218989034E+01 0.69398691136E+01 0.68028820884E+01
 0.67119064452E+01 0.66565599502E+01 0.66249347046E+01 0.66112744264E+01 0.66065382710E+01
 0.66112249530E+01 0.66245734650E+01 0.66554347404E+01 0.67111559039E+01 0.68030646748E+01
 0.69387376075E+01 0.71241070210E+01 0.73550154975E+01 0.76222540504E+01 0.79051237695E+01
 0.81870076590E+01 0.84848050111E+01 0.87956583818E+01 0.90799242303E+01 0.92813519315E+01
 0.93545296148E+01 0.92820320246E+01 0.90809816433E+01 0.87972566802E+01 0.84852138255E+01