   2   2   1   0
  0.1081274E+02  0.2492276E-09  0.2492276E-09  0.4020158E-09  0.5000000E-15
  1.000000000000000E-004
  CAR 
 Co-hcc                                  
     56.96124043     -1.27513449  301     10.26651124      1.00000000
     -1.275  0.0000E+00  0.0000E+00  0.0000E+00  0.0000E+00
     -1.081  0.0000E+00  0.0000E+00  0.0000E+00  0.0000E+00
     -0.887  0.0000E+00  0.0000E+00  0.0000E+00  0.0000E+00
     -0.693  0.0000E+00  0.0000E+00  0.0000E+00  0.0000E+00
     -0.499  0.0000E+00  0.0000E+00  0.0000E+00  0.0000E+00
     -0.305  0.0000E+00  0.0000E+00  0.0000E+00  0.0000E+00
     -0.110  0.0000E+00  0.0000E+00  0.0000E+00  0.0000E+00
      0.084  0.0000E+00  0.0000E+00  0.0000E+00  0.0000E+00
      0.278  0.0000E+00  0.0000E+00  0.0000E+00  0.0000E+00
      0.472  0.0000E+00  0.0000E+00  0.0000E+00  0.0000E+00
      0.666  0.0000E+00  0.0000E+00  0.0000E+00  0.0000E+00
      0.860  0.0000E+00  0.0000E+00  0.0000E+00  0.0000E+00
      1.054  0.0000E+00  0.0000E+00  0.0000E+00  0.0000E+00
      1.248  0.7560E-08  0.1064E-07  0.1468E-08  0.2065E-08
      1.443  0.4388E-04  0.4423E-04  0.8520E-05  0.8587E-05
      1.637  0.2770E-03  0.2826E-03  0.6230E-04  0.6346E-04
      1.831  0.5879E-03  0.5842E-03  0.1764E-03  0.1769E-03
      2.025  0.1066E-03  0.1029E-03  0.1971E-03  0.1968E-03
      2.219  0.6031E-03  0.5722E-03  0.3142E-03  0.3079E-03
      2.413  0.1049E-02  0.1069E-02  0.5178E-03  0.5155E-03
      2.607  0.5159E-03  0.5229E-03  0.6179E-03  0.6170E-03
      2.801  0.6173E-03  0.6170E-03  0.7377E-03  0.7368E-03
      2.996  0.1345E-02  0.1151E-02  0.9987E-03  0.9603E-03
      3.190  0.1313E-02  0.1423E-02  0.1254E-02  0.1237E-02
      3.384  0.4817E-03  0.2794E-03  0.1347E-02  0.1291E-02
      3.578  0.2235E-02  0.1862E-02  0.1781E-02  0.1652E-02
      3.772  0.3726E-03  0.1011E-02  0.1853E-02  0.1849E-02
      3.966  0.1121E-02  0.8821E-03  0.2071E-02  0.2020E-02
      4.160  0.2151E-02  0.7378E-03  0.2488E-02  0.2163E-02
      4.354  0.2004E-02  0.2954E-02  0.2877E-02  0.2736E-02
      4.549  0.2720E-02  0.1615E-02  0.3405E-02  0.3050E-02
      4.743  0.1381E-02  0.1759E-02  0.3674E-02  0.3391E-02
      4.937  0.3007E-02  0.1067E-02  0.4257E-02  0.3599E-02
      5.131  0.4942E-02  0.2266E-02  0.5217E-02  0.4039E-02
      5.325  0.1080E-01  0.2309E-02  0.7314E-02  0.4487E-02
      5.519  0.8238E-02  0.2801E-02  0.8913E-02  0.5030E-02
      5.713  0.1630E-01  0.3081E-02  0.1208E-01  0.5628E-02
      5.907  0.1331E-01  0.3735E-02  0.1466E-01  0.6354E-02
      6.101  0.2042E-01  0.5158E-02  0.1862E-01  0.7355E-02
      6.296  0.1465E-01  0.5519E-02  0.2147E-01  0.8426E-02
      6.490  0.1777E-01  0.1058E-01  0.2492E-01  0.1048E-01
      6.684  0.1784E-01  0.8094E-02  0.2838E-01  0.1205E-01
      6.878  0.2036E-01  0.8184E-02  0.3233E-01  0.1364E-01
      7.072  0.2290E-01  0.1139E-01  0.3678E-01  0.1585E-01
      7.266  0.9768E-02  0.1463E-01  0.3867E-01  0.1869E-01
      7.460  0.2180E-01  0.1399E-01  0.4291E-01  0.2141E-01
      7.654  0.3035E-01  0.1210E-01  0.4880E-01  0.2376E-01
      7.849  0.2672E-01  0.1365E-01  0.5398E-01  0.2641E-01
      8.043  0.3034E-01  0.1806E-01  0.5987E-01  0.2991E-01
      8.237  0.3048E-01  0.2115E-01  0.6579E-01  0.3402E-01
      8.431  0.2387E-01  0.1472E-01  0.7042E-01  0.3687E-01
      8.625  0.1757E-01  0.9004E-02  0.7383E-01  0.3862E-01
      8.819  0.2149E-01  0.9685E-02  0.7801E-01  0.4050E-01
      9.013  0.1381E-01  0.2238E-01  0.8069E-01  0.4485E-01
      9.207  0.2289E-01  0.2368E-01  0.8513E-01  0.4944E-01
      9.402  0.2605E-01  0.2488E-01  0.9019E-01  0.5427E-01
      9.596  0.4158E-01  0.2770E-01  0.9826E-01  0.5965E-01
      9.790  0.3131E-01  0.2945E-01  0.1043E+00  0.6537E-01
      9.984  0.1540E-02  0.1836E-01  0.1046E+00  0.6893E-01
     10.178  0.5329E-02  0.1748E-01  0.1057E+00  0.7232E-01
     10.372  0.5496E-02  0.1270E-01  0.1067E+00  0.7479E-01
     10.566  0.2543E-02  0.1811E-01  0.1072E+00  0.7831E-01
     10.760  0.1177E-02  0.1087E-01  0.1075E+00  0.8042E-01
     10.955  0.8579E-03  0.1518E-01  0.1076E+00  0.8336E-01
     11.149  0.1858E-02  0.2247E-01  0.1080E+00  0.8772E-01
     11.343  0.4811E-02  0.2724E-01  0.1089E+00  0.9301E-01
     11.537  0.5080E-02  0.4334E-01  0.1099E+00  0.1014E+00
     11.731  0.3517E-02  0.1953E-01  0.1106E+00  0.1052E+00
     11.925  0.1521E-02  0.7439E-02  0.1109E+00  0.1067E+00
     12.119  0.1529E-02  0.3930E-02  0.1112E+00  0.1074E+00
     12.313  0.2737E-02  0.3184E-02  0.1117E+00  0.1080E+00
     12.507  0.1625E-02  0.3811E-02  0.1120E+00  0.1088E+00
     12.702  0.2837E-02  0.3356E-02  0.1126E+00  0.1094E+00
     12.896  0.2029E-02  0.4912E-02  0.1130E+00  0.1104E+00
     13.090  0.2883E-02  0.3846E-02  0.1135E+00  0.1111E+00
     13.284  0.2497E-02  0.2934E-02  0.1140E+00  0.1117E+00
     13.478  0.1040E-02  0.2116E-02  0.1142E+00  0.1121E+00
     13.672  0.2525E-02  0.1302E-02  0.1147E+00  0.1124E+00
     13.866  0.4153E-02  0.4451E-02  0.1155E+00  0.1132E+00
     14.060  0.2189E-02  0.1450E-02  0.1159E+00  0.1135E+00
     14.255  0.2069E-02  0.2760E-02  0.1163E+00  0.1140E+00
     14.449  0.1939E-02  0.2345E-02  0.1167E+00  0.1145E+00
     14.643  0.1798E-02  0.3945E-02  0.1171E+00  0.1153E+00
     14.837  0.9905E-03  0.3184E-02  0.1173E+00  0.1159E+00
     15.031  0.1653E-02  0.9877E-03  0.1176E+00  0.1161E+00
     15.225  0.1059E-02  0.2419E-02  0.1178E+00  0.1165E+00
     15.419  0.8386E-03  0.2704E-02  0.1179E+00  0.1171E+00
     15.613  0.3289E-02  0.1500E-02  0.1186E+00  0.1174E+00
     15.808  0.3686E-02  0.1272E-02  0.1193E+00  0.1176E+00
     16.002  0.1273E-02  0.1432E-02  0.1195E+00  0.1179E+00
     16.196  0.6204E-03  0.9194E-03  0.1197E+00  0.1181E+00
     16.390  0.4561E-07  0.3899E-02  0.1197E+00  0.1188E+00
     16.584  0.1706E-03  0.3046E-02  0.1197E+00  0.1194E+00
     16.778  0.1025E-02  0.1047E-02  0.1199E+00  0.1196E+00
     16.972  0.1166E-02  0.2621E-03  0.1201E+00  0.1197E+00
     17.166  0.5983E-03  0.1500E-07  0.1202E+00  0.1197E+00
     17.361  0.4851E-03  0.5630E-03  0.1203E+00  0.1198E+00
     17.555  0.1338E-02  0.9570E-03  0.1206E+00  0.1200E+00
     17.749  0.1866E-02  0.1662E-03  0.1210E+00  0.1200E+00
     17.943  0.5067E-02  0.1212E-02  0.1219E+00  0.1202E+00
     18.137  0.6817E-02  0.8781E-03  0.1233E+00  0.1204E+00
     18.331  0.2288E-02  0.1108E-02  0.1237E+00  0.1206E+00
     18.525  0.4203E-02  0.2486E-02  0.1245E+00  0.1211E+00
     18.719  0.2856E-02  0.5821E-02  0.1251E+00  0.1222E+00
     18.913  0.4141E-02  0.5185E-02  0.1259E+00  0.1232E+00
     19.108  0.2036E-02  0.3330E-02  0.1263E+00  0.1239E+00
     19.302  0.3350E-02  0.4880E-02  0.1269E+00  0.1248E+00
     19.496  0.2999E-02  0.3311E-02  0.1275E+00  0.1255E+00
     19.690  0.2308E-02  0.3295E-02  0.1280E+00  0.1261E+00
     19.884  0.3102E-02  0.3265E-02  0.1286E+00  0.1267E+00
     20.078  0.2973E-02  0.2997E-02  0.1291E+00  0.1273E+00
     20.272  0.4754E-02  0.3164E-02  0.1301E+00  0.1279E+00
     20.466  0.3354E-02  0.3189E-02  0.1307E+00  0.1286E+00
     20.661  0.3010E-02  0.3245E-02  0.1313E+00  0.1292E+00
     20.855  0.5901E-02  0.3831E-02  0.1324E+00  0.1299E+00
     21.049  0.1421E-02  0.4798E-02  0.1327E+00  0.1309E+00
     21.243  0.6081E-02  0.5669E-02  0.1339E+00  0.1320E+00
     21.437  0.3566E-02  0.2946E-02  0.1346E+00  0.1325E+00
     21.631  0.3110E-02  0.2813E-02  0.1352E+00  0.1331E+00
     21.825  0.1617E-02  0.6332E-02  0.1355E+00  0.1343E+00
     22.019  0.3421E-02  0.2918E-02  0.1362E+00  0.1349E+00
     22.214  0.5456E-02  0.2970E-02  0.1372E+00  0.1355E+00
     22.408  0.2553E-02  0.2950E-02  0.1377E+00  0.1360E+00
     22.602  0.2611E-02  0.3951E-02  0.1382E+00  0.1368E+00
     22.796  0.1313E-02  0.3689E-02  0.1385E+00  0.1375E+00
     22.990  0.4111E-02  0.3012E-02  0.1393E+00  0.1381E+00
     23.184  0.1903E-02  0.1364E-02  0.1397E+00  0.1384E+00
     23.378  0.1464E-02  0.3022E-02  0.1399E+00  0.1389E+00
     23.572  0.5364E-02  0.2988E-02  0.1410E+00  0.1395E+00
     23.767  0.3393E-02  0.1519E-02  0.1416E+00  0.1398E+00
     23.961  0.2584E-02  0.4372E-02  0.1421E+00  0.1407E+00
     24.155  0.7344E-03  0.4586E-02  0.1423E+00  0.1416E+00
     24.349  0.5934E-02  0.2468E-02  0.1434E+00  0.1420E+00
     24.543  0.4737E-02  0.1118E-02  0.1444E+00  0.1423E+00
     24.737  0.1083E-02  0.5718E-02  0.1446E+00  0.1434E+00
     24.931  0.3445E-02  0.4448E-02  0.1452E+00  0.1442E+00
     25.125  0.4069E-02  0.1658E-02  0.1460E+00  0.1446E+00
     25.319  0.3257E-02  0.3468E-02  0.1467E+00  0.1452E+00
     25.514  0.5635E-02  0.4165E-02  0.1478E+00  0.1460E+00
     25.708  0.3587E-02  0.4372E-02  0.1485E+00  0.1469E+00
     25.902  0.6620E-02  0.4699E-02  0.1497E+00  0.1478E+00
     26.096  0.5004E-02  0.4519E-02  0.1507E+00  0.1487E+00
     26.290  0.2587E-02  0.5941E-02  0.1512E+00  0.1498E+00
     26.484  0.1785E-02  0.4754E-02  0.1516E+00  0.1508E+00
     26.678  0.6482E-02  0.2982E-02  0.1528E+00  0.1513E+00
     26.872  0.2675E-02  0.2552E-02  0.1533E+00  0.1518E+00
     27.067  0.2627E-02  0.7185E-02  0.1538E+00  0.1532E+00
     27.261  0.8222E-02  0.1115E-02  0.1554E+00  0.1534E+00
     27.455  0.3424E-02  0.5387E-02  0.1561E+00  0.1545E+00
     27.649  0.3307E-02  0.5945E-02  0.1567E+00  0.1556E+00
     27.843  0.5524E-02  0.3801E-02  0.1578E+00  0.1564E+00
     28.037  0.3500E-02  0.4156E-02  0.1585E+00  0.1572E+00
     28.231  0.3941E-02  0.5616E-02  0.1593E+00  0.1583E+00
     28.425  0.2790E-02  0.3365E-02  0.1598E+00  0.1589E+00
     28.620  0.3540E-02  0.3218E-02  0.1605E+00  0.1595E+00
     28.814  0.4795E-02  0.3215E-02  0.1614E+00  0.1602E+00
     29.008  0.4056E-02  0.3805E-02  0.1622E+00  0.1609E+00
     29.202  0.4348E-02  0.5550E-02  0.1631E+00  0.1620E+00
     29.396  0.4509E-02  0.4373E-02  0.1639E+00  0.1628E+00
     29.590  0.4284E-02  0.5137E-02  0.1648E+00  0.1638E+00
     29.784  0.5394E-02  0.3302E-02  0.1658E+00  0.1645E+00
     29.978  0.2891E-02  0.5724E-02  0.1664E+00  0.1656E+00
     30.173  0.3987E-02  0.3146E-02  0.1671E+00  0.1662E+00
     30.367  0.4629E-02  0.5322E-02  0.1680E+00  0.1672E+00
     30.561  0.3206E-02  0.3842E-02  0.1687E+00  0.1680E+00
     30.755  0.5632E-02  0.4565E-02  0.1698E+00  0.1689E+00
     30.949  0.2222E-02  0.3677E-02  0.1702E+00  0.1696E+00
     31.143  0.4289E-02  0.3110E-02  0.1710E+00  0.1702E+00
     31.337  0.3533E-02  0.4265E-02  0.1717E+00  0.1710E+00
     31.531  0.2488E-02  0.3730E-02  0.1722E+00  0.1717E+00
     31.725  0.4041E-02  0.4243E-02  0.1730E+00  0.1726E+00
     31.920  0.7372E-02  0.3033E-02  0.1744E+00  0.1731E+00
     32.114  0.5374E-02  0.6391E-02  0.1754E+00  0.1744E+00
     32.308  0.1989E-02  0.4890E-02  0.1758E+00  0.1753E+00
     32.502  0.4326E-02  0.3522E-02  0.1767E+00  0.1760E+00
     32.696  0.4536E-02  0.3323E-02  0.1776E+00  0.1767E+00
     32.890  0.5944E-02  0.5822E-02  0.1787E+00  0.1778E+00
     33.084  0.4604E-02  0.4146E-02  0.1796E+00  0.1786E+00
     33.278  0.4070E-02  0.5304E-02  0.1804E+00  0.1796E+00
     33.473  0.1750E-02  0.4446E-02  0.1807E+00  0.1805E+00
     33.667  0.1135E-02  0.9967E-03  0.1810E+00  0.1807E+00
     33.861  0.5993E-02  0.2534E-02  0.1821E+00  0.1812E+00
     34.055  0.3508E-02  0.3893E-02  0.1828E+00  0.1819E+00
     34.249  0.4674E-02  0.4770E-02  0.1837E+00  0.1829E+00
     34.443  0.7489E-02  0.3512E-02  0.1852E+00  0.1835E+00
     34.637  0.8959E-02  0.7023E-02  0.1869E+00  0.1849E+00
     34.831  0.3612E-02  0.8845E-02  0.1876E+00  0.1866E+00
     35.026  0.3890E-02  0.6218E-02  0.1884E+00  0.1878E+00
     35.220  0.5876E-02  0.2638E-02  0.1895E+00  0.1883E+00
     35.414  0.3920E-02  0.5572E-02  0.1903E+00  0.1894E+00
     35.608  0.3804E-02  0.4619E-02  0.1910E+00  0.1903E+00
     35.802  0.2903E-02  0.4608E-02  0.1916E+00  0.1912E+00
     35.996  0.1913E-02  0.3016E-02  0.1919E+00  0.1918E+00
     36.190  0.4020E-02  0.9381E-03  0.1927E+00  0.1920E+00
     36.384  0.4192E-02  0.3993E-02  0.1935E+00  0.1928E+00
     36.579  0.1811E-02  0.3650E-02  0.1939E+00  0.1935E+00
     36.773  0.5464E-02  0.2005E-02  0.1949E+00  0.1939E+00
     36.967  0.4796E-02  0.5777E-02  0.1959E+00  0.1950E+00
     37.161  0.6155E-02  0.4869E-02  0.1971E+00  0.1959E+00
     37.355  0.3987E-02  0.3321E-02  0.1978E+00  0.1966E+00
     37.549  0.1113E-02  0.5592E-02  0.1981E+00  0.1976E+00
     37.743  0.7156E-02  0.3492E-02  0.1994E+00  0.1983E+00
     37.937  0.3641E-02  0.5045E-02  0.2001E+00  0.1993E+00
     38.131  0.5125E-02  0.4686E-02  0.2011E+00  0.2002E+00
     38.326  0.3328E-02  0.4257E-02  0.2018E+00  0.2010E+00
     38.520  0.2814E-02  0.3697E-02  0.2023E+00  0.2018E+00
     38.714  0.6662E-02  0.2607E-02  0.2036E+00  0.2023E+00
     38.908  0.6354E-02  0.7252E-02  0.2049E+00  0.2037E+00
     39.102  0.3446E-02  0.4537E-02  0.2055E+00  0.2046E+00
     39.296  0.3629E-02  0.5244E-02  0.2062E+00  0.2056E+00
     39.490  0.3679E-02  0.3552E-02  0.2069E+00  0.2063E+00
     39.684  0.3755E-02  0.5618E-02  0.2077E+00  0.2074E+00
     39.879  0.2519E-02  0.1604E-02  0.2082E+00  0.2077E+00
     40.073  0.6199E-02  0.2804E-02  0.2094E+00  0.2082E+00
     40.267  0.6756E-02  0.5625E-02  0.2107E+00  0.2093E+00
     40.461  0.5040E-02  0.6918E-02  0.2117E+00  0.2106E+00
     40.655  0.6641E-02  0.5815E-02  0.2129E+00  0.2118E+00
     40.849  0.5411E-02  0.5532E-02  0.2140E+00  0.2128E+00
     41.043  0.2291E-02  0.5510E-02  0.2144E+00  0.2139E+00
     41.237  0.4102E-02  0.4111E-02  0.2152E+00  0.2147E+00
     41.432  0.5778E-02  0.4045E-02  0.2164E+00  0.2155E+00
     41.626  0.4786E-02  0.4335E-02  0.2173E+00  0.2163E+00
     41.820  0.2687E-02  0.5454E-02  0.2178E+00  0.2174E+00
     42.014  0.7279E-03  0.2878E-02  0.2180E+00  0.2180E+00
     42.208  0.3945E-02  0.1393E-02  0.2187E+00  0.2182E+00
     42.402  0.5098E-02  0.2645E-02  0.2197E+00  0.2187E+00
     42.596  0.5754E-02  0.4704E-02  0.2208E+00  0.2197E+00
     42.790  0.9022E-02  0.5685E-02  0.2226E+00  0.2208E+00
     42.985  0.6069E-02  0.5402E-02  0.2238E+00  0.2218E+00
     43.179  0.6552E-02  0.1060E-01  0.2250E+00  0.2239E+00
     43.373  0.3958E-02  0.5340E-02  0.2258E+00  0.2249E+00
     43.567  0.5221E-02  0.2935E-02  0.2268E+00  0.2255E+00
     43.761  0.6104E-02  0.6186E-02  0.2280E+00  0.2267E+00
     43.955  0.4669E-02  0.6042E-02  0.2289E+00  0.2278E+00
     44.149  0.6789E-02  0.5349E-02  0.2302E+00  0.2289E+00
     44.343  0.7257E-02  0.5795E-02  0.2316E+00  0.2300E+00
     44.537  0.2411E-02  0.7659E-02  0.2321E+00  0.2315E+00
     44.732  0.3045E-02  0.2967E-02  0.2327E+00  0.2321E+00
     44.926  0.6938E-02  0.1802E-02  0.2340E+00  0.2324E+00
     45.120  0.4505E-02  0.4190E-02  0.2349E+00  0.2332E+00
     45.314  0.5811E-02  0.6488E-02  0.2360E+00  0.2345E+00
     45.508  0.6034E-02  0.5266E-02  0.2372E+00  0.2355E+00
     45.702  0.6094E-02  0.6567E-02  0.2384E+00  0.2368E+00
     45.896  0.4978E-02  0.6402E-02  0.2394E+00  0.2380E+00
     46.090  0.6449E-02  0.1630E-02  0.2406E+00  0.2383E+00
     46.285  0.9594E-02  0.2797E-02  0.2425E+00  0.2389E+00
     46.479  0.1050E-01  0.8321E-02  0.2445E+00  0.2405E+00
     46.673  0.1911E-01  0.6711E-02  0.2482E+00  0.2418E+00
     46.867  0.1969E-01  0.4222E-02  0.2520E+00  0.2426E+00
     47.061  0.2115E-01  0.5627E-02  0.2561E+00  0.2437E+00
     47.255  0.2177E-01  0.2511E-02  0.2604E+00  0.2442E+00
     47.449  0.8327E-02  0.5053E-02  0.2620E+00  0.2452E+00
     47.643  0.4127E-02  0.5855E-02  0.2628E+00  0.2463E+00
     47.838  0.5178E-02  0.4824E-02  0.2638E+00  0.2473E+00
     48.032  0.9243E-02  0.5203E-02  0.2656E+00  0.2483E+00
     48.226  0.6837E-02  0.5417E-02  0.2669E+00  0.2493E+00
     48.420  0.2391E-02  0.5257E-02  0.2674E+00  0.2503E+00
     48.614  0.3138E-02  0.4516E-02  0.2680E+00  0.2512E+00
     48.808  0.4219E-02  0.7779E-02  0.2688E+00  0.2527E+00
     49.002  0.5221E-02  0.6677E-02  0.2698E+00  0.2540E+00
     49.196  0.6959E-02  0.8202E-02  0.2712E+00  0.2556E+00
     49.391  0.2405E-02  0.5935E-02  0.2716E+00  0.2568E+00
     49.585  0.5136E-02  0.4821E-02  0.2726E+00  0.2577E+00
     49.779  0.2997E-02  0.4690E-02  0.2732E+00  0.2586E+00
     49.973  0.1985E-02  0.6646E-02  0.2736E+00  0.2599E+00
     50.167  0.4495E-02  0.8521E-02  0.2745E+00  0.2616E+00
     50.361  0.2608E-02  0.1319E-01  0.2750E+00  0.2641E+00
     50.555  0.1021E-02  0.1215E-01  0.2752E+00  0.2665E+00
     50.749  0.5109E-02  0.1388E-01  0.2762E+00  0.2692E+00
     50.943  0.3189E-02  0.1195E-01  0.2768E+00  0.2715E+00
     51.138  0.2134E-02  0.1109E-01  0.2772E+00  0.2736E+00
     51.332  0.6791E-03  0.6463E-02  0.2773E+00  0.2749E+00
     51.526  0.2848E-02  0.5324E-02  0.2779E+00  0.2759E+00
     51.720  0.2118E-02  0.4024E-02  0.2783E+00  0.2767E+00
     51.914  0.7977E-03  0.5982E-02  0.2785E+00  0.2779E+00
     52.108  0.7880E-03  0.1674E-02  0.2786E+00  0.2782E+00
     52.302  0.1440E-02  0.9303E-03  0.2789E+00  0.2784E+00
     52.496  0.7636E-03  0.2000E-02  0.2790E+00  0.2788E+00
     52.691  0.1100E-02  0.1520E-02  0.2793E+00  0.2791E+00
     52.885  0.5071E-03  0.9180E-03  0.2793E+00  0.2792E+00
     53.079  0.3856E-05  0.5308E-03  0.2793E+00  0.2793E+00
     53.273  0.1068E-02  0.6781E-05  0.2796E+00  0.2793E+00
     53.467  0.9284E-03  0.8659E-04  0.2797E+00  0.2794E+00
     53.661  0.1245E-04  0.1724E-02  0.2797E+00  0.2797E+00
     53.855  0.1315E-03  0.7545E-04  0.2798E+00  0.2797E+00
     54.049  0.9417E-03  0.1282E-03  0.2799E+00  0.2797E+00
     54.244  0.6278E-04  0.1072E-02  0.2800E+00  0.2799E+00
     54.438  0.2055E-03  0.2672E-03  0.2800E+00  0.2800E+00
     54.632  0.2537E-09  0.6383E-07  0.2800E+00  0.2800E+00
     54.826  0.0000E+00  0.0000E+00  0.2800E+00  0.2800E+00
     55.020  0.0000E+00  0.0000E+00  0.2800E+00  0.2800E+00
     55.214  0.0000E+00  0.0000E+00  0.2800E+00  0.2800E+00
     55.408  0.0000E+00  0.0000E+00  0.2800E+00  0.2800E+00
     55.602  0.0000E+00  0.0000E+00  0.2800E+00  0.2800E+00
     55.797  0.0000E+00  0.0000E+00  0.2800E+00  0.2800E+00
     55.991  0.0000E+00  0.0000E+00  0.2800E+00  0.2800E+00
     56.185  0.0000E+00  0.0000E+00  0.2800E+00  0.2800E+00
     56.379  0.0000E+00  0.0000E+00  0.2800E+00  0.2800E+00
     56.573  0.0000E+00  0.0000E+00  0.2800E+00  0.2800E+00
     56.767  0.0000E+00  0.0000E+00  0.2800E+00  0.2800E+00
     56.961  0.0000E+00  0.0000E+00  0.2800E+00  0.2800E+00
     56.96124043     -1.27513449  301     10.26651124      1.00000000
     -1.275  0.0000E+00  0.0000E+00  0.0000E+00  0.0000E+00  0.0000E+00  0.0000E+00  0.0000E+00  0.0000E+00  0.0000E+00  0.0000E+00  0.0000E+00  0.0000E+00  0.0000E+00  0.0000E+00  0.0000E+00  0.0000E+00  0.0000E+00  0.0000E+00
     -1.081  0.0000E+00  0.0000E+00  0.0000E+00  0.0000E+00  0.0000E+00  0.0000E+00  0.0000E+00  0.0000E+00  0.0000E+00  0.0000E+00  0.0000E+00  0.0000E+00  0.0000E+00  0.0000E+00  0.0000E+00  0.0000E+00  0.0000E+00  0.0000E+00
     -0.887  0.0000E+00  0.0000E+00  0.0000E+00  0.0000E+00  0.0000E+00  0.0000E+00  0.0000E+00  0.0000E+00  0.0000E+00  0.0000E+00  0.0000E+00  0.0000E+00  0.0000E+00  0.0000E+00  0.0000E+00  0.0000E+00  0.0000E+00  0.0000E+00
     -0.693  0.0000E+00  0.0000E+00  0.0000E+00  0.0000E+00  0.0000E+00  0.0000E+00  0.0000E+00  0.0000E+00  0.0000E+00  0.0000E+00  0.0000E+00  0.0000E+00  0.0000E+00  0.0000E+00  0.0000E+00  0.0000E+00  0.0000E+00  0.0000E+00
     -0.499  0.0000E+00  0.0000E+00  0.0000E+00  0.0000E+00  0.0000E+00  0.0000E+00  0.0000E+00  0.0000E+00  0.0000E+00  0.0000E+00  0.0000E+00  0.0000E+00  0.0000E+00  0.0000E+00  0.0000E+00  0.0000E+00  0.0000E+00  0.0000E+00
     -0.305  0.0000E+00  0.0000E+00  0.0000E+00  0.0000E+00  0.0000E+00  0.0000E+00  0.0000E+00  0.0000E+00  0.0000E+00  0.0000E+00  0.0000E+00  0.0000E+00  0.0000E+00  0.0000E+00  0.0000E+00  0.0000E+00  0.0000E+00  0.0000E+00
     -0.110  0.0000E+00  0.0000E+00  0.0000E+00  0.0000E+00  0.0000E+00  0.0000E+00  0.0000E+00  0.0000E+00  0.0000E+00  0.0000E+00  0.0000E+00  0.0000E+00  0.0000E+00  0.0000E+00  0.0000E+00  0.0000E+00  0.0000E+00  0.0000E+00
      0.084  0.0000E+00  0.0000E+00  0.0000E+00  0.0000E+00  0.0000E+00  0.0000E+00  0.0000E+00  0.0000E+00  0.0000E+00  0.0000E+00  0.0000E+00  0.0000E+00  0.0000E+00  0.0000E+00  0.0000E+00  0.0000E+00  0.0000E+00  0.0000E+00
      0.278  0.0000E+00  0.0000E+00  0.0000E+00  0.0000E+00  0.0000E+00  0.0000E+00  0.0000E+00  0.0000E+00  0.0000E+00  0.0000E+00  0.0000E+00  0.0000E+00  0.0000E+00  0.0000E+00  0.0000E+00  0.0000E+00  0.0000E+00  0.0000E+00
      0.472  0.0000E+00  0.0000E+00  0.0000E+00  0.0000E+00  0.0000E+00  0.0000E+00  0.0000E+00  0.0000E+00  0.0000E+00  0.0000E+00  0.0000E+00  0.0000E+00  0.0000E+00  0.0000E+00  0.0000E+00  0.0000E+00  0.0000E+00  0.0000E+00
      0.666  0.0000E+00  0.0000E+00  0.0000E+00  0.0000E+00  0.0000E+00  0.0000E+00  0.0000E+00  0.0000E+00  0.0000E+00  0.0000E+00  0.0000E+00  0.0000E+00  0.0000E+00  0.0000E+00  0.0000E+00  0.0000E+00  0.0000E+00  0.0000E+00
      0.860  0.0000E+00  0.0000E+00  0.0000E+00  0.0000E+00  0.0000E+00  0.0000E+00  0.0000E+00  0.0000E+00  0.0000E+00  0.0000E+00  0.0000E+00  0.0000E+00  0.0000E+00  0.0000E+00  0.0000E+00  0.0000E+00  0.0000E+00  0.0000E+00
      1.054  0.0000E+00  0.0000E+00  0.0000E+00  0.0000E+00  0.0000E+00  0.0000E+00  0.0000E+00  0.0000E+00  0.0000E+00  0.0000E+00  0.0000E+00  0.0000E+00  0.0000E+00  0.0000E+00  0.0000E+00  0.0000E+00  0.0000E+00  0.0000E+00
      1.248  0.2750E-06  0.3869E-06  0.6309E-23  0.3599E-21  0.1617E-19  0.2981E-19  0.6309E-23  0.3599E-21  0.1461E-20  0.1143E-19  0.1089E-30  0.4775E-27  0.1688E-11  0.3130E-11  0.1089E-30  0.4775E-27  0.1461E-20  0.1143E-19
      1.443  0.1596E-02  0.1608E-02  0.3605E-10  0.5041E-10  0.2392E-06  0.2975E-06  0.3605E-10  0.5041E-10  0.6542E-12  0.6709E-12  0.5780E-22  0.1007E-20  0.1237E-07  0.1496E-07  0.5780E-22  0.1007E-20  0.6542E-12  0.6709E-12
      1.637  0.9873E-02  0.1007E-01  0.7734E-04  0.8021E-04  0.4824E-04  0.4848E-04  0.7734E-04  0.8021E-04  0.1403E-05  0.1068E-05  0.4397E-09  0.3865E-09  0.1951E-05  0.1536E-05  0.4397E-09  0.3865E-09  0.1403E-05  0.1068E-05
      1.831  0.2062E-01  0.2048E-01  0.2413E-03  0.2411E-03  0.2714E-03  0.2742E-03  0.2413E-03  0.2411E-03  0.4495E-05  0.3267E-05  0.8805E-05  0.6606E-05  0.6293E-06  0.4692E-06  0.8805E-05  0.6606E-05  0.4495E-05  0.3267E-05
      2.025  0.3667E-02  0.3539E-02  0.2116E-04  0.1955E-04  0.1597E-03  0.1586E-03  0.2116E-04  0.1955E-04  0.7144E-06  0.4763E-06  0.5264E-06  0.3628E-06  0.1032E-04  0.7009E-05  0.5264E-06  0.3628E-06  0.7144E-06  0.4763E-06
      2.219  0.2027E-01  0.1923E-01  0.5442E-03  0.5245E-03  0.5007E-03  0.4641E-03  0.5442E-03  0.5245E-03  0.2781E-04  0.1932E-04  0.2139E-04  0.1404E-04  0.3744E-04  0.2538E-04  0.2139E-04  0.1404E-04  0.2781E-04  0.1932E-04
      2.413  0.3485E-01  0.3556E-01  0.1078E-02  0.1097E-02  0.9382E-03  0.9855E-03  0.1078E-02  0.1097E-02  0.7146E-04  0.5022E-04  0.5149E-04  0.3820E-04  0.6783E-04  0.4879E-04  0.5149E-04  0.3820E-04  0.7146E-04  0.5022E-04
      2.607  0.1674E-01  0.1699E-01  0.7875E-03  0.8116E-03  0.2739E-03  0.2732E-03  0.7875E-03  0.8116E-03  0.7333E-04  0.5145E-04  0.4540E-04  0.3168E-04  0.2694E-04  0.1967E-04  0.4540E-04  0.3168E-04  0.7333E-04  0.5145E-04
      2.801  0.1950E-01  0.1953E-01  0.6054E-03  0.6165E-03  0.1428E-02  0.1445E-02  0.6054E-03  0.6165E-03  0.4039E-04  0.2808E-04  0.1307E-03  0.9238E-04  0.9115E-04  0.5769E-04  0.1307E-03  0.9238E-04  0.4039E-04  0.2808E-04
      2.996  0.4112E-01  0.3537E-01  0.1809E-02  0.1504E-02  0.3073E-02  0.2829E-02  0.1809E-02  0.1504E-02  0.2316E-03  0.1211E-03  0.2689E-03  0.1776E-03  0.4752E-03  0.2508E-03  0.2689E-03  0.1776E-03  0.2316E-03  0.1211E-03
      3.190  0.3932E-01  0.4297E-01  0.3172E-02  0.3374E-02  0.7372E-03  0.1050E-02  0.3172E-02  0.3374E-02  0.5422E-03  0.3773E-03  0.2041E-03  0.1337E-03  0.3523E-03  0.2865E-03  0.2041E-03  0.1337E-03  0.5422E-03  0.3773E-03
      3.384  0.1384E-01  0.8204E-02  0.8055E-03  0.5326E-03  0.1355E-02  0.6359E-03  0.8055E-03  0.5326E-03  0.1640E-03  0.5869E-04  0.1939E-03  0.6829E-04  0.2249E-03  0.6907E-04  0.1939E-03  0.6829E-04  0.1640E-03  0.5869E-04
      3.578  0.6250E-01  0.5304E-01  0.5049E-02  0.4342E-02  0.4262E-02  0.3627E-02  0.5049E-02  0.4342E-02  0.1244E-02  0.6500E-03  0.1339E-02  0.6516E-03  0.5876E-03  0.3526E-03  0.1339E-02  0.6516E-03  0.1244E-02  0.6500E-03
      3.772  0.1024E-01  0.2844E-01  0.4330E-03  0.1895E-02  0.1587E-02  0.3122E-02  0.4330E-03  0.1895E-02  0.8120E-04  0.2569E-03  0.2243E-03  0.4348E-03  0.4887E-03  0.3690E-03  0.2243E-03  0.4348E-03  0.8120E-04  0.2569E-03
      3.966  0.2905E-01  0.2356E-01  0.1871E-02  0.1287E-02  0.4035E-02  0.4008E-02  0.1871E-02  0.1287E-02  0.7066E-03  0.2645E-03  0.7741E-03  0.3767E-03  0.2080E-02  0.1129E-02  0.7741E-03  0.3767E-03  0.7066E-03  0.2645E-03
      4.160  0.5344E-01  0.1930E-01  0.6459E-02  0.2489E-02  0.3872E-02  0.9661E-03  0.6459E-02  0.2489E-02  0.2440E-02  0.5246E-03  0.2038E-02  0.2745E-03  0.1332E-02  0.3901E-03  0.2038E-02  0.2745E-03  0.2440E-02  0.5246E-03
      4.354  0.4793E-01  0.7476E-01  0.5453E-02  0.8837E-02  0.4641E-02  0.7189E-02  0.5453E-02  0.8837E-02  0.2836E-02  0.2190E-02  0.1736E-02  0.1738E-02  0.2933E-02  0.1828E-02  0.1736E-02  0.1738E-02  0.2836E-02  0.2190E-02
      4.549  0.5946E-01  0.3916E-01  0.7024E-02  0.4479E-02  0.6731E-02  0.5260E-02  0.7024E-02  0.4479E-02  0.4779E-02  0.1189E-02  0.5220E-02  0.1478E-02  0.3650E-02  0.1223E-02  0.5220E-02  0.1478E-02  0.4779E-02  0.1189E-02
      4.743  0.2688E-01  0.4071E-01  0.2795E-02  0.5805E-02  0.3381E-02  0.3758E-02  0.2795E-02  0.5805E-02  0.3745E-02  0.2197E-02  0.1465E-02  0.2062E-02  0.8029E-02  0.1216E-02  0.1465E-02  0.2062E-02  0.3745E-02  0.2197E-02
      4.937  0.5487E-01  0.2364E-01  0.6453E-02  0.3014E-02  0.1018E-01  0.3018E-02  0.6453E-02  0.3014E-02  0.6169E-02  0.1774E-02  0.1207E-01  0.4073E-03  0.2705E-02  0.3379E-02  0.1207E-01  0.4073E-03  0.6169E-02  0.1774E-02
      5.131  0.7304E-01  0.4753E-01  0.1072E-01  0.5535E-02  0.8305E-02  0.1040E-01  0.1072E-01  0.5535E-02  0.2097E-01  0.2306E-02  0.1519E-01  0.4551E-02  0.2577E-01  0.2582E-02  0.1519E-01  0.4551E-02  0.2097E-01  0.2306E-02
      5.325  0.1075E+00  0.4583E-01  0.1370E-01  0.6803E-02  0.8650E-02  0.8442E-02  0.1370E-01  0.6803E-02  0.6102E-01  0.3376E-02  0.6706E-01  0.4661E-02  0.5971E-01  0.3634E-02  0.6706E-01  0.4661E-02  0.6102E-01  0.3376E-02
      5.519  0.6555E-01  0.5323E-01  0.8025E-02  0.9987E-02  0.1078E-01  0.7139E-02  0.8025E-02  0.9987E-02  0.4813E-01  0.6335E-02  0.6397E-01  0.3662E-02  0.3686E-01  0.6850E-02  0.6397E-01  0.3662E-02  0.4813E-01  0.6335E-02
      5.713  0.8903E-01  0.5319E-01  0.1327E-01  0.1169E-01  0.1734E-01  0.3341E-02  0.1327E-01  0.1169E-01  0.1291E+00  0.1054E-01  0.1032E+00  0.5721E-02  0.1167E+00  0.7701E-02  0.1032E+00  0.5721E-02  0.1291E+00  0.1054E-01
      5.907  0.5201E-01  0.5748E-01  0.1234E-01  0.8629E-02  0.1448E-01  0.1338E-01  0.1234E-01  0.8629E-02  0.1118E+00  0.1067E-01  0.9632E-01  0.1269E-01  0.8067E-01  0.1231E-01  0.9632E-01  0.1269E-01  0.1118E+00  0.1067E-01
      6.101  0.5041E-01  0.6829E-01  0.1713E-01  0.1071E-01  0.1746E-01  0.1392E-01  0.1713E-01  0.1071E-01  0.1323E+00  0.1912E-01  0.1833E+00  0.2469E-01  0.1798E+00  0.1608E-01  0.1833E+00  0.2469E-01  0.1323E+00  0.1912E-01
      6.296  0.2568E-01  0.5228E-01  0.1561E-01  0.4507E-02  0.1876E-01  0.9086E-02  0.1561E-01  0.4507E-02  0.9052E-01  0.2730E-01  0.1501E+00  0.3246E-01  0.1015E+00  0.4370E-01  0.1501E+00  0.3246E-01  0.9052E-01  0.2730E-01
      6.490  0.2138E-01  0.1047E+00  0.2147E-01  0.2374E-01  0.1508E-01  0.1524E-01  0.2147E-01  0.2374E-01  0.1345E+00  0.6081E-01  0.1290E+00  0.5734E-01  0.2022E+00  0.3530E-01  0.1290E+00  0.5734E-01  0.1345E+00  0.6081E-01
      6.684  0.1042E-01  0.6042E-01  0.1809E-01  0.1153E-01  0.1478E-01  0.1401E-01  0.1809E-01  0.1153E-01  0.1654E+00  0.4029E-01  0.1110E+00  0.5356E-01  0.2054E+00  0.5669E-01  0.1110E+00  0.5356E-01  0.1654E+00  0.4029E-01
      6.878  0.1030E-01  0.4312E-01  0.2388E-01  0.1010E-01  0.1448E-01  0.1300E-01  0.2388E-01  0.1010E-01  0.2167E+00  0.6532E-01  0.1188E+00  0.5446E-01  0.1940E+00  0.3341E-01  0.1188E+00  0.5446E-01  0.2167E+00  0.6532E-01
      7.072  0.1388E-01  0.4615E-01  0.2711E-01  0.1428E-01  0.2280E-01  0.1760E-01  0.2711E-01  0.1428E-01  0.2442E+00  0.7886E-01  0.1354E+00  0.7621E-01  0.2044E+00  0.9028E-01  0.1354E+00  0.7621E-01  0.2442E+00  0.7886E-01
      7.266  0.5144E-02  0.3262E-01  0.1033E-01  0.1604E-01  0.8645E-02  0.1952E-01  0.1033E-01  0.1604E-01  0.1179E+00  0.9711E-01  0.4321E-01  0.1393E+00  0.9652E-01  0.8246E-01  0.4321E-01  0.1393E+00  0.1179E+00  0.9711E-01
      7.460  0.5995E-02  0.1779E-01  0.1433E-01  0.1775E-01  0.1913E-01  0.2173E-01  0.1433E-01  0.1775E-01  0.1414E+00  0.6660E-01  0.2172E+00  0.1620E+00  0.2551E+00  0.8270E-01  0.2172E+00  0.1620E+00  0.1414E+00  0.6660E-01
      7.654  0.1305E-01  0.8164E-02  0.2094E-01  0.1890E-01  0.2304E-01  0.1468E-01  0.2094E-01  0.1890E-01  0.1993E+00  0.1087E+00  0.3149E+00  0.6965E-01  0.3266E+00  0.1230E+00  0.3149E+00  0.6965E-01  0.1993E+00  0.1087E+00
      7.849  0.1200E-01  0.9044E-02  0.1420E-01  0.2475E-01  0.2190E-01  0.1272E-01  0.1420E-01  0.2475E-01  0.2523E+00  0.1158E+00  0.2433E+00  0.7329E-01  0.2159E+00  0.1637E+00  0.2433E+00  0.7329E-01  0.2523E+00  0.1158E+00
      8.043  0.1246E-01  0.9695E-02  0.1519E-01  0.3375E-01  0.2505E-01  0.2054E-01  0.1519E-01  0.3375E-01  0.2940E+00  0.1610E+00  0.3024E+00  0.9209E-01  0.1868E+00  0.2088E+00  0.3024E+00  0.9209E-01  0.2940E+00  0.1610E+00
      8.237  0.1209E-01  0.1064E-01  0.1966E-01  0.3970E-01  0.2568E-01  0.2595E-01  0.1966E-01  0.3970E-01  0.2651E+00  0.2093E+00  0.2973E+00  0.1101E+00  0.2521E+00  0.1996E+00  0.2973E+00  0.1101E+00  0.2651E+00  0.2093E+00
      8.431  0.5888E-02  0.6767E-02  0.1731E-01  0.2672E-01  0.1267E-01  0.1836E-01  0.1731E-01  0.2672E-01  0.2381E+00  0.1645E+00  0.2270E+00  0.6076E-01  0.1590E+00  0.1371E+00  0.2270E+00  0.6076E-01  0.2381E+00  0.1645E+00