   2   2   1   0
  0.1084814E+02  0.2492465E-09  0.2492465E-09  0.4032707E-09  0.5000000E-15
  1.000000000000000E-004
  CAR 
 Co-hcc                                  
     36.87746097     -0.35197331  301     10.20517865      1.00000000
     -0.352  0.0000E+00  0.0000E+00  0.0000E+00  0.0000E+00
     -0.228  0.0000E+00  0.0000E+00  0.0000E+00  0.0000E+00
     -0.104  0.0000E+00  0.0000E+00  0.0000E+00  0.0000E+00
      0.020  0.0000E+00  0.0000E+00  0.0000E+00  0.0000E+00
      0.144  0.0000E+00  0.0000E+00  0.0000E+00  0.0000E+00
      0.269  0.0000E+00  0.0000E+00  0.0000E+00  0.0000E+00
      0.393  0.0000E+00  0.0000E+00  0.0000E+00  0.0000E+00
      0.517  0.0000E+00  0.0000E+00  0.0000E+00  0.0000E+00
      0.641  0.0000E+00  0.0000E+00  0.0000E+00  0.0000E+00
      0.765  0.0000E+00  0.0000E+00  0.0000E+00  0.0000E+00
      0.889  0.0000E+00  0.0000E+00  0.0000E+00  0.0000E+00
      1.013  0.0000E+00  0.0000E+00  0.0000E+00  0.0000E+00
      1.137  0.4666E-12  0.7110E-13  0.5790E-13  0.8824E-14
      1.261  0.1285E-05  0.5518E-06  0.1594E-06  0.6847E-07
      1.385  0.8943E-04  0.8340E-04  0.1126E-04  0.1042E-04
      1.509  0.1368E-03  0.1177E-03  0.2823E-04  0.2503E-04
      1.634  0.1096E-03  0.1167E-03  0.4183E-04  0.3951E-04
      1.758  0.5629E-03  0.5568E-03  0.1117E-03  0.1086E-03
      1.882  0.1051E-02  0.9505E-03  0.2422E-03  0.2266E-03
      2.006  0.3463E-03  0.4530E-03  0.2851E-03  0.2828E-03
      2.130  0.1912E-04  0.3802E-04  0.2875E-03  0.2875E-03
      2.254  0.1550E-03  0.5788E-04  0.3067E-03  0.2947E-03
      2.378  0.1457E-02  0.1394E-02  0.4875E-03  0.4677E-03
      2.502  0.7510E-03  0.6337E-03  0.5807E-03  0.5464E-03
      2.626  0.7105E-03  0.9406E-03  0.6689E-03  0.6631E-03
      2.750  0.7701E-03  0.7062E-03  0.7644E-03  0.7507E-03
      2.875  0.1199E-02  0.1017E-02  0.9133E-03  0.8770E-03
      2.999  0.1715E-02  0.1452E-02  0.1126E-02  0.1057E-02
      3.123  0.6984E-03  0.1241E-02  0.1213E-02  0.1211E-02
      3.247  0.9137E-03  0.3129E-03  0.1326E-02  0.1250E-02
      3.371  0.2924E-03  0.9044E-03  0.1362E-02  0.1362E-02
      3.495  0.1758E-04  0.2808E-05  0.1365E-02  0.1363E-02
      3.619  0.2204E-02  0.5508E-03  0.1638E-02  0.1431E-02
      3.743  0.2621E-02  0.2638E-02  0.1963E-02  0.1758E-02
      3.867  0.1522E-02  0.1871E-02  0.2152E-02  0.1990E-02
      3.991  0.1454E-02  0.1969E-02  0.2333E-02  0.2235E-02
      4.116  0.2811E-02  0.9847E-03  0.2681E-02  0.2357E-02
      4.240  0.1049E-02  0.2462E-02  0.2812E-02  0.2663E-02
      4.364  0.3507E-03  0.1164E-02  0.2855E-02  0.2807E-02
      4.488  0.2464E-02  0.1422E-03  0.3161E-02  0.2825E-02
      4.612  0.2783E-02  0.1535E-02  0.3506E-02  0.3015E-02
      4.736  0.1916E-02  0.2489E-02  0.3744E-02  0.3324E-02
      4.860  0.1992E-02  0.2100E-02  0.3991E-02  0.3585E-02
      4.984  0.4957E-02  0.8810E-03  0.4607E-02  0.3694E-02
      5.108  0.7115E-02  0.1966E-02  0.5490E-02  0.3938E-02
      5.232  0.1083E-01  0.2829E-02  0.6833E-02  0.4289E-02
      5.357  0.1086E-01  0.2478E-02  0.8180E-02  0.4596E-02
      5.481  0.8302E-02  0.4172E-02  0.9211E-02  0.5114E-02
      5.605  0.7207E-02  0.3016E-02  0.1011E-01  0.5488E-02
      5.729  0.2556E-01  0.3023E-02  0.1328E-01  0.5864E-02
      5.853  0.1386E-01  0.6632E-02  0.1500E-01  0.6687E-02
      5.977  0.1541E-01  0.1426E-02  0.1691E-01  0.6864E-02
      6.101  0.1853E-01  0.6945E-03  0.1921E-01  0.6950E-02
      6.225  0.1923E-01  0.5460E-02  0.2160E-01  0.7627E-02
      6.349  0.1222E-01  0.1464E-01  0.2311E-01  0.9444E-02
      6.473  0.1720E-01  0.9157E-02  0.2525E-01  0.1058E-01
      6.598  0.2062E-01  0.5917E-02  0.2781E-01  0.1131E-01
      6.722  0.2068E-01  0.8157E-02  0.3037E-01  0.1233E-01
      6.846  0.2181E-01  0.1052E-01  0.3308E-01  0.1363E-01
      6.970  0.2020E-01  0.1425E-01  0.3559E-01  0.1540E-01
      7.094  0.1569E-01  0.6092E-02  0.3753E-01  0.1616E-01
      7.218  0.1152E-01  0.1423E-01  0.3896E-01  0.1792E-01
      7.342  0.1780E-01  0.1908E-01  0.4117E-01  0.2029E-01
      7.466  0.3070E-01  0.1234E-01  0.4498E-01  0.2182E-01
      7.590  0.2791E-01  0.1015E-01  0.4844E-01  0.2308E-01
      7.714  0.2823E-01  0.1168E-01  0.5195E-01  0.2453E-01
      7.839  0.2988E-01  0.1829E-01  0.5566E-01  0.2680E-01
      7.963  0.3123E-01  0.1650E-01  0.5953E-01  0.2885E-01
      8.087  0.3220E-01  0.1739E-01  0.6353E-01  0.3101E-01
      8.211  0.2748E-01  0.2270E-01  0.6694E-01  0.3382E-01
      8.335  0.2411E-01  0.1771E-01  0.6993E-01  0.3602E-01
      8.459  0.1948E-01  0.1127E-01  0.7235E-01  0.3742E-01
      8.583  0.1681E-01  0.7413E-02  0.7443E-01  0.3834E-01
      8.707  0.1850E-01  0.9566E-02  0.7673E-01  0.3953E-01
      8.831  0.1263E-01  0.1384E-01  0.7830E-01  0.4124E-01
      8.955  0.2690E-01  0.1915E-01  0.8164E-01  0.4362E-01
      9.079  0.2015E-01  0.2650E-01  0.8414E-01  0.4691E-01
      9.204  0.1854E-01  0.2795E-01  0.8644E-01  0.5038E-01
      9.328  0.2752E-01  0.2163E-01  0.8985E-01  0.5306E-01
      9.452  0.4268E-01  0.2513E-01  0.9515E-01  0.5618E-01
      9.576  0.4844E-01  0.2744E-01  0.1012E+00  0.5958E-01
      9.700  0.2119E-01  0.3179E-01  0.1038E+00  0.6353E-01
      9.824  0.2695E-02  0.2288E-01  0.1041E+00  0.6637E-01
      9.948  0.8933E-02  0.2132E-01  0.1052E+00  0.6901E-01
     10.072  0.6614E-02  0.1415E-01  0.1061E+00  0.7077E-01
     10.196  0.4869E-02  0.1923E-01  0.1067E+00  0.7316E-01
     10.320  0.2266E-02  0.1259E-01  0.1069E+00  0.7472E-01
     10.445  0.8541E-04  0.1398E-01  0.1069E+00  0.7645E-01
     10.569  0.1273E-09  0.1323E-01  0.1070E+00  0.7810E-01
     10.693  0.3664E-05  0.1221E-01  0.1070E+00  0.7961E-01
     10.817  0.2385E-02  0.2498E-01  0.1072E+00  0.8271E-01
     10.941  0.4642E-02  0.1222E-01  0.1078E+00  0.8423E-01
     11.065  0.2660E-02  0.1670E-01  0.1082E+00  0.8630E-01
     11.189  0.2003E-02  0.2160E-01  0.1084E+00  0.8898E-01
     11.313  0.5927E-02  0.3266E-01  0.1091E+00  0.9303E-01
     11.437  0.5744E-02  0.4163E-01  0.1098E+00  0.9820E-01
     11.561  0.3756E-02  0.3806E-01  0.1103E+00  0.1029E+00
     11.686  0.2190E-02  0.2054E-01  0.1106E+00  0.1055E+00
     11.810  0.1029E-03  0.9248E-02  0.1106E+00  0.1066E+00
     11.934  0.2529E-02  0.3021E-02  0.1109E+00  0.1070E+00
     12.058  0.3922E-02  0.7260E-03  0.1114E+00  0.1071E+00
     12.182  0.3215E-02  0.4651E-02  0.1118E+00  0.1077E+00
     12.306  0.4110E-02  0.2442E-02  0.1123E+00  0.1080E+00
     12.430  0.2493E-04  0.2464E-02  0.1123E+00  0.1083E+00
     12.554  0.5063E-03  0.5339E-02  0.1124E+00  0.1089E+00
     12.678  0.4786E-02  0.6081E-02  0.1130E+00  0.1097E+00
     12.802  0.1466E-03  0.4489E-02  0.1130E+00  0.1102E+00
     12.927  0.1989E-03  0.2618E-02  0.1130E+00  0.1106E+00
     13.051  0.1843E-02  0.2504E-02  0.1132E+00  0.1109E+00
     13.175  0.3195E-02  0.7422E-02  0.1136E+00  0.1118E+00
     13.299  0.6199E-03  0.1505E-02  0.1137E+00  0.1120E+00
     13.423  0.1532E-02  0.2995E-02  0.1139E+00  0.1124E+00
     13.547  0.4965E-02  0.2627E-03  0.1145E+00  0.1124E+00
     13.671  0.3032E-02  0.3162E-02  0.1149E+00  0.1128E+00
     13.795  0.5406E-02  0.1929E-02  0.1156E+00  0.1130E+00
     13.919  0.1954E-02  0.2695E-02  0.1158E+00  0.1134E+00
     14.043  0.2466E-02  0.1459E-02  0.1161E+00  0.1135E+00
     14.168  0.4829E-03  0.1053E-02  0.1162E+00  0.1137E+00
     14.292  0.1959E-02  0.1124E-02  0.1164E+00  0.1138E+00
     14.416  0.4870E-02  0.2617E-02  0.1170E+00  0.1141E+00
     14.540  0.2224E-02  0.8071E-02  0.1173E+00  0.1151E+00
     14.664  0.1132E-02  0.1792E-02  0.1174E+00  0.1154E+00
     14.788  0.7965E-04  0.5318E-02  0.1175E+00  0.1160E+00
     14.912  0.2196E-03  0.1246E-02  0.1175E+00  0.1162E+00
     15.036  0.3408E-02  0.5416E-03  0.1179E+00  0.1162E+00
     15.160  0.2340E-02  0.1065E-02  0.1182E+00  0.1164E+00
     15.284  0.8181E-03  0.4349E-02  0.1183E+00  0.1169E+00
     15.408  0.2855E-02  0.3103E-02  0.1186E+00  0.1173E+00
     15.533  0.2955E-04  0.1013E-02  0.1187E+00  0.1174E+00
     15.657  0.5764E-03  0.3217E-03  0.1187E+00  0.1175E+00
     15.781  0.1243E-02  0.4647E-02  0.1189E+00  0.1180E+00
     15.905  0.5980E-03  0.1277E-02  0.1189E+00  0.1182E+00
     16.029  0.2896E-06  0.2774E-03  0.1190E+00  0.1182E+00
     16.153  0.3174E-03  0.3263E-02  0.1190E+00  0.1186E+00
     16.277  0.1182E-02  0.2554E-03  0.1191E+00  0.1187E+00
     16.401  0.4252E-02  0.1034E-02  0.1197E+00  0.1188E+00
     16.525  0.1261E-02  0.7647E-03  0.1198E+00  0.1189E+00
     16.649  0.6895E-03  0.4516E-03  0.1199E+00  0.1189E+00
     16.774  0.7816E-03  0.2610E-03  0.1200E+00  0.1190E+00
     16.898  0.1921E-02  0.1054E-02  0.1202E+00  0.1191E+00
     17.022  0.1680E-02  0.3219E-02  0.1204E+00  0.1195E+00
     17.146  0.3104E-03  0.1526E-02  0.1205E+00  0.1197E+00
     17.270  0.2931E-02  0.1109E-02  0.1209E+00  0.1198E+00
     17.394  0.1091E-02  0.1317E-03  0.1210E+00  0.1199E+00
     17.518  0.5789E-03  0.1113E-02  0.1211E+00  0.1200E+00
     17.642  0.1847E-02  0.8486E-03  0.1213E+00  0.1201E+00
     17.766  0.4385E-02  0.2364E-02  0.1218E+00  0.1204E+00
     17.890  0.4229E-02  0.1602E-02  0.1224E+00  0.1206E+00
     18.015  0.2847E-02  0.2912E-02  0.1227E+00  0.1210E+00
     18.139  0.5085E-02  0.2792E-03  0.1233E+00  0.1210E+00
     18.263  0.2339E-02  0.7427E-04  0.1236E+00  0.1210E+00
     18.387  0.1104E-02  0.1196E-02  0.1238E+00  0.1211E+00
     18.511  0.5987E-02  0.1805E-02  0.1245E+00  0.1214E+00
     18.635  0.2221E-02  0.4159E-02  0.1248E+00  0.1219E+00
     18.759  0.4961E-02  0.5836E-02  0.1254E+00  0.1226E+00
     18.883  0.5280E-02  0.3570E-02  0.1261E+00  0.1231E+00
     19.007  0.3433E-02  0.4269E-02  0.1265E+00  0.1236E+00
     19.131  0.1430E-02  0.3294E-02  0.1267E+00  0.1240E+00
     19.256  0.1768E-02  0.3914E-02  0.1269E+00  0.1245E+00
     19.380  0.2887E-02  0.6136E-02  0.1272E+00  0.1252E+00
     19.504  0.4342E-02  0.4450E-02  0.1278E+00  0.1258E+00
     19.628  0.2019E-02  0.3359E-02  0.1280E+00  0.1262E+00
     19.752  0.3946E-02  0.3088E-02  0.1285E+00  0.1266E+00
     19.876  0.4471E-02  0.1747E-02  0.1291E+00  0.1268E+00
     20.000  0.2614E-02  0.4760E-02  0.1294E+00  0.1274E+00
     20.124  0.1726E-03  0.2580E-02  0.1294E+00  0.1277E+00
     20.248  0.5078E-02  0.4185E-02  0.1300E+00  0.1282E+00
     20.372  0.3333E-02  0.2487E-02  0.1305E+00  0.1285E+00
     20.497  0.6223E-02  0.3418E-02  0.1312E+00  0.1290E+00
     20.621  0.2470E-02  0.3453E-02  0.1315E+00  0.1294E+00
     20.745  0.3446E-02  0.3586E-03  0.1320E+00  0.1294E+00
     20.869  0.8764E-02  0.5835E-02  0.1331E+00  0.1302E+00
     20.993  0.2824E-02  0.5404E-02  0.1334E+00  0.1308E+00
     21.117  0.6054E-02  0.6059E-02  0.1342E+00  0.1316E+00
     21.241  0.2576E-02  0.3090E-02  0.1345E+00  0.1320E+00
     21.365  0.1150E-02  0.7679E-02  0.1346E+00  0.1329E+00
     21.489  0.1899E-02  0.1932E-02  0.1349E+00  0.1332E+00
     21.613  0.1120E-02  0.3972E-02  0.1350E+00  0.1337E+00
     21.737  0.4544E-02  0.6504E-02  0.1356E+00  0.1345E+00
     21.862  0.3890E-02  0.1225E-02  0.1360E+00  0.1346E+00
     21.986  0.3810E-02  0.2115E-02  0.1365E+00  0.1349E+00
     22.110  0.5489E-02  0.2268E-02  0.1372E+00  0.1352E+00
     22.234  0.3323E-02  0.2861E-02  0.1376E+00  0.1355E+00
     22.358  0.8708E-03  0.4190E-02  0.1377E+00  0.1360E+00
     22.482  0.2318E-02  0.4259E-02  0.1380E+00  0.1366E+00
     22.606  0.1834E-02  0.6332E-02  0.1382E+00  0.1374E+00
     22.730  0.1898E-02  0.1906E-02  0.1385E+00  0.1376E+00
     22.854  0.3991E-02  0.9885E-03  0.1390E+00  0.1377E+00
     22.978  0.1863E-02  0.2958E-02  0.1392E+00  0.1381E+00
     23.103  0.4003E-02  0.1241E-02  0.1397E+00  0.1382E+00
     23.227  0.5128E-02  0.2061E-02  0.1403E+00  0.1385E+00
     23.351  0.4088E-03  0.4366E-02  0.1404E+00  0.1390E+00
     23.475  0.1320E-02  0.2788E-02  0.1405E+00  0.1394E+00
     23.599  0.4147E-02  0.5029E-02  0.1411E+00  0.1400E+00
     23.723  0.3503E-02  0.2739E-02  0.1415E+00  0.1403E+00
     23.847  0.1814E-02  0.5763E-03  0.1417E+00  0.1404E+00
     23.971  0.5551E-02  0.1412E-02  0.1424E+00  0.1406E+00
     24.095  0.5836E-02  0.4638E-02  0.1431E+00  0.1412E+00
     24.219  0.4492E-02  0.4024E-02  0.1437E+00  0.1417E+00
     24.344  0.2524E-02  0.3700E-02  0.1440E+00  0.1421E+00
     24.468  0.2126E-02  0.4914E-02  0.1443E+00  0.1427E+00
     24.592  0.4437E-03  0.5736E-02  0.1443E+00  0.1434E+00
     24.716  0.1765E-02  0.2715E-02  0.1445E+00  0.1438E+00
     24.840  0.6723E-02  0.3056E-02  0.1454E+00  0.1442E+00
     24.964  0.3760E-02  0.1201E-02  0.1458E+00  0.1443E+00
     25.088  0.2105E-02  0.5928E-03  0.1461E+00  0.1444E+00
     25.212  0.4341E-02  0.5441E-02  0.1466E+00  0.1451E+00
     25.336  0.3226E-02  0.4369E-02  0.1470E+00  0.1456E+00
     25.460  0.1375E-02  0.3783E-02  0.1472E+00  0.1461E+00
     25.585  0.3240E-02  0.3705E-02  0.1476E+00  0.1465E+00
     25.709  0.6023E-02  0.3139E-02  0.1484E+00  0.1469E+00
     25.833  0.4560E-02  0.2499E-02  0.1489E+00  0.1472E+00
     25.957  0.3407E-02  0.3578E-02  0.1493E+00  0.1477E+00
     26.081  0.3015E-02  0.5394E-02  0.1497E+00  0.1483E+00
     26.205  0.4563E-02  0.5831E-02  0.1503E+00  0.1491E+00
     26.329  0.4907E-02  0.2596E-02  0.1509E+00  0.1494E+00
     26.453  0.9229E-03  0.2734E-02  0.1510E+00  0.1497E+00
     26.577  0.1918E-02  0.5394E-02  0.1513E+00  0.1504E+00
     26.701  0.2916E-02  0.4861E-02  0.1516E+00  0.1510E+00
     26.826  0.7629E-03  0.9820E-03  0.1517E+00  0.1511E+00
     26.950  0.1826E-02  0.2188E-02  0.1519E+00  0.1514E+00
     27.074  0.1081E-02  0.1929E-02  0.1521E+00  0.1516E+00
     27.198  0.3970E-02  0.1059E-02  0.1526E+00  0.1518E+00
     27.322  0.4578E-02  0.1983E-02  0.1531E+00  0.1520E+00
     27.446  0.2864E-02  0.1686E-02  0.1535E+00  0.1522E+00
     27.570  0.3805E-03  0.3863E-02  0.1535E+00  0.1527E+00
     27.694  0.3261E-02  0.5883E-02  0.1539E+00  0.1534E+00
     27.818  0.1745E-02  0.5246E-03  0.1542E+00  0.1535E+00
     27.942  0.2771E-02  0.3492E-02  0.1545E+00  0.1539E+00
     28.066  0.2546E-02  0.1312E-02  0.1548E+00  0.1541E+00
     28.191  0.1015E-02  0.2161E-02  0.1549E+00  0.1544E+00
     28.315  0.1101E-02  0.2150E-02  0.1551E+00  0.1546E+00
     28.439  0.2171E-02  0.2788E-02  0.1553E+00  0.1550E+00
     28.563  0.1082E-02  0.1079E-02  0.1555E+00  0.1551E+00
     28.687  0.1077E-02  0.1067E-02  0.1556E+00  0.1552E+00
     28.811  0.1064E-03  0.1550E-02  0.1556E+00  0.1554E+00
     28.935  0.1873E-02  0.1815E-02  0.1559E+00  0.1557E+00
     29.059  0.4341E-02  0.3394E-03  0.1564E+00  0.1557E+00
     29.183  0.3317E-03  0.2019E-02  0.1564E+00  0.1559E+00
     29.307  0.1481E-02  0.2235E-02  0.1566E+00  0.1562E+00
     29.432  0.2489E-02  0.1736E-02  0.1569E+00  0.1564E+00
     29.556  0.1493E-02  0.2191E-02  0.1571E+00  0.1567E+00
     29.680  0.1789E-02  0.1496E-02  0.1573E+00  0.1569E+00
     29.804  0.1178E-02  0.1748E-02  0.1575E+00  0.1571E+00
     29.928  0.3525E-04  0.2347E-02  0.1575E+00  0.1574E+00
     30.052  0.9720E-03  0.7055E-03  0.1576E+00  0.1575E+00
     30.176  0.1071E-02  0.1111E-02  0.1577E+00  0.1576E+00
     30.300  0.3705E-03  0.5883E-04  0.1578E+00  0.1576E+00
     30.424  0.7806E-03  0.6431E-04  0.1579E+00  0.1576E+00
     30.548  0.1031E-02  0.2039E-02  0.1580E+00  0.1579E+00
     30.673  0.1250E-02  0.8844E-03  0.1582E+00  0.1580E+00
     30.797  0.5625E-03  0.9064E-03  0.1582E+00  0.1581E+00
     30.921  0.1945E-06  0.9369E-03  0.1582E+00  0.1582E+00
     31.045  0.8707E-08  0.4589E-05  0.1582E+00  0.1582E+00
     31.169  0.2612E-03  0.2030E-03  0.1583E+00  0.1583E+00
     31.293  0.1155E-02  0.1148E-02  0.1584E+00  0.1584E+00
     31.417  0.5616E-03  0.6132E-04  0.1585E+00  0.1584E+00
     31.541  0.1154E-02  0.4997E-03  0.1586E+00  0.1585E+00
     31.665  0.1296E-02  0.1667E-02  0.1588E+00  0.1587E+00
     31.789  0.3618E-05  0.8523E-03  0.1588E+00  0.1588E+00
     31.914  0.1421E-03  0.3437E-03  0.1588E+00  0.1588E+00
     32.038  0.1054E-02  0.1155E-02  0.1589E+00  0.1590E+00
     32.162  0.2869E-03  0.1117E-04  0.1590E+00  0.1590E+00
     32.286  0.7318E-03  0.6602E-07  0.1591E+00  0.1590E+00
     32.410  0.1236E-02  0.1433E-03  0.1592E+00  0.1590E+00
     32.534  0.1602E-02  0.1799E-02  0.1594E+00  0.1592E+00
     32.658  0.1457E-02  0.1282E-02  0.1596E+00  0.1594E+00
     32.782  0.2384E-03  0.2186E-02  0.1596E+00  0.1596E+00
     32.906  0.8442E-04  0.5617E-04  0.1596E+00  0.1597E+00
     33.030  0.1290E-02  0.1101E-02  0.1598E+00  0.1598E+00
     33.155  0.3613E-04  0.8080E-04  0.1598E+00  0.1598E+00
     33.279  0.3477E-10  0.3046E-04  0.1598E+00  0.1598E+00
     33.403  0.9965E-09  0.1697E-03  0.1598E+00  0.1598E+00
     33.527  0.3657E-04  0.1328E-05  0.1598E+00  0.1598E+00
     33.651  0.1639E-03  0.2130E-12  0.1598E+00  0.1598E+00
     33.775  0.9375E-06  0.7757E-14  0.1598E+00  0.1598E+00
     33.899  0.1273E-10  0.4776E-06  0.1598E+00  0.1598E+00
     34.023  0.1465E-04  0.3884E-03  0.1598E+00  0.1599E+00
     34.147  0.5521E-03  0.4018E-03  0.1599E+00  0.1599E+00
     34.271  0.6380E-04  0.1514E-04  0.1599E+00  0.1599E+00
     34.395  0.2677E-03  0.8500E-04  0.1599E+00  0.1599E+00
     34.520  0.1089E-03  0.1163E-03  0.1599E+00  0.1599E+00
     34.644  0.6313E-07  0.9285E-07  0.1600E+00  0.1600E+00
     34.768  0.4586E-04  0.1667E-05  0.1600E+00  0.1600E+00
     34.892  0.1569E-03  0.1730E-03  0.1600E+00  0.1600E+00
     35.016  0.1756E-03  0.2674E-04  0.1600E+00  0.1600E+00
     35.140  0.2455E-04  0.3175E-04  0.1600E+00  0.1600E+00
     35.264  0.2950E-09  0.1681E-03  0.1600E+00  0.1600E+00
     35.388  0.0000E+00  0.1615E-05  0.1600E+00  0.1600E+00
     35.512  0.0000E+00  0.4903E-12  0.1600E+00  0.1600E+00
     35.636  0.0000E+00  0.0000E+00  0.1600E+00  0.1600E+00
     35.761  0.0000E+00  0.0000E+00  0.1600E+00  0.1600E+00
     35.885  0.0000E+00  0.0000E+00  0.1600E+00  0.1600E+00
     36.009  0.0000E+00  0.0000E+00  0.1600E+00  0.1600E+00
     36.133  0.0000E+00  0.0000E+00  0.1600E+00  0.1600E+00
     36.257  0.0000E+00  0.0000E+00  0.1600E+00  0.1600E+00
     36.381  0.0000E+00  0.0000E+00  0.1600E+00  0.1600E+00
     36.505  0.0000E+00  0.0000E+00  0.1600E+00  0.1600E+00
     36.629  0.0000E+00  0.0000E+00  0.1600E+00  0.1600E+00
     36.753  0.0000E+00  0.0000E+00  0.1600E+00  0.1600E+00
     36.877  0.0000E+00  0.0000E+00  0.1600E+00  0.1600E+00
     36.87746097     -0.35197331  301     10.20517865      1.00000000
     -0.352  0.0000E+00  0.0000E+00  0.0000E+00  0.0000E+00  0.0000E+00  0.0000E+00  0.0000E+00  0.0000E+00  0.0000E+00  0.0000E+00  0.0000E+00  0.0000E+00  0.0000E+00  0.0000E+00  0.0000E+00  0.0000E+00  0.0000E+00  0.0000E+00
     -0.228  0.0000E+00  0.0000E+00  0.0000E+00  0.0000E+00  0.0000E+00  0.0000E+00  0.0000E+00  0.0000E+00  0.0000E+00  0.0000E+00  0.0000E+00  0.0000E+00  0.0000E+00  0.0000E+00  0.0000E+00  0.0000E+00  0.0000E+00  0.0000E+00
     -0.104  0.0000E+00  0.0000E+00  0.0000E+00  0.0000E+00  0.0000E+00  0.0000E+00  0.0000E+00  0.0000E+00  0.0000E+00  0.0000E+00  0.0000E+00  0.0000E+00  0.0000E+00  0.0000E+00  0.0000E+00  0.0000E+00  0.0000E+00  0.0000E+00
      0.020  0.0000E+00  0.0000E+00  0.0000E+00  0.0000E+00  0.0000E+00  0.0000E+00  0.0000E+00  0.0000E+00  0.0000E+00  0.0000E+00  0.0000E+00  0.0000E+00  0.0000E+00  0.0000E+00  0.0000E+00  0.0000E+00  0.0000E+00  0.0000E+00
      0.144  0.0000E+00  0.0000E+00  0.0000E+00  0.0000E+00  0.0000E+00  0.0000E+00  0.0000E+00  0.0000E+00  0.0000E+00  0.0000E+00  0.0000E+00  0.0000E+00  0.0000E+00  0.0000E+00  0.0000E+00  0.0000E+00  0.0000E+00  0.0000E+00
      0.269  0.0000E+00  0.0000E+00  0.0000E+00  0.0000E+00  0.0000E+00  0.0000E+00  0.0000E+00  0.0000E+00  0.0000E+00  0.0000E+00  0.0000E+00  0.0000E+00  0.0000E+00  0.0000E+00  0.0000E+00  0.0000E+00  0.0000E+00  0.0000E+00
      0.393  0.0000E+00  0.0000E+00  0.0000E+00  0.0000E+00  0.0000E+00  0.0000E+00  0.0000E+00  0.0000E+00  0.0000E+00  0.0000E+00  0.0000E+00  0.0000E+00  0.0000E+00  0.0000E+00  0.0000E+00  0.0000E+00  0.0000E+00  0.0000E+00
      0.517  0.0000E+00  0.0000E+00  0.0000E+00  0.0000E+00  0.0000E+00  0.0000E+00  0.0000E+00  0.0000E+00  0.0000E+00  0.0000E+00  0.0000E+00  0.0000E+00  0.0000E+00  0.0000E+00  0.0000E+00  0.0000E+00  0.0000E+00  0.0000E+00
      0.641  0.0000E+00  0.0000E+00  0.0000E+00  0.0000E+00  0.0000E+00  0.0000E+00  0.0000E+00  0.0000E+00  0.0000E+00  0.0000E+00  0.0000E+00  0.0000E+00  0.0000E+00  0.0000E+00  0.0000E+00  0.0000E+00  0.0000E+00  0.0000E+00
      0.765  0.0000E+00  0.0000E+00  0.0000E+00  0.0000E+00  0.0000E+00  0.0000E+00  0.0000E+00  0.0000E+00  0.0000E+00  0.0000E+00  0.0000E+00  0.0000E+00  0.0000E+00  0.0000E+00  0.0000E+00  0.0000E+00  0.0000E+00  0.0000E+00
      0.889  0.0000E+00  0.0000E+00  0.0000E+00  0.0000E+00  0.0000E+00  0.0000E+00  0.0000E+00  0.0000E+00  0.0000E+00  0.0000E+00  0.0000E+00  0.0000E+00  0.0000E+00  0.0000E+00  0.0000E+00  0.0000E+00  0.0000E+00  0.0000E+00
      1.013  0.0000E+00  0.0000E+00  0.0000E+00  0.0000E+00  0.0000E+00  0.0000E+00  0.0000E+00  0.0000E+00  0.0000E+00  0.0000E+00  0.0000E+00  0.0000E+00  0.0000E+00  0.0000E+00  0.0000E+00  0.0000E+00  0.0000E+00  0.0000E+00
      1.137  0.1691E-10  0.2576E-11  0.1430E-25  0.3289E-26  0.2384E-27  0.3923E-27  0.1430E-25  0.3289E-26  0.5145E-24  0.3680E-24  0.3834E-21  0.2274E-23  0.6543E-16  0.1666E-16  0.3834E-21  0.2274E-23  0.5145E-24  0.3680E-24
      1.261  0.4655E-04  0.1999E-04  0.3938E-19  0.2553E-19  0.1206E-14  0.1233E-15  0.3938E-19  0.2553E-19  0.1417E-17  0.2856E-17  0.1056E-14  0.1764E-16  0.1801E-09  0.1293E-09  0.1056E-14  0.1764E-16  0.1417E-17  0.2856E-17
      1.385  0.3240E-02  0.3021E-02  0.2760E-17  0.3860E-17  0.7963E-07  0.2465E-07  0.2760E-17  0.3860E-17  0.9863E-16  0.4327E-15  0.7337E-13  0.2671E-14  0.1349E-07  0.1972E-07  0.7337E-13  0.2671E-14  0.9863E-16  0.4327E-15
      1.509  0.4889E-02  0.4211E-02  0.6561E-10  0.9631E-11  0.6799E-04  0.5451E-04  0.6561E-10  0.9631E-11  0.1759E-11  0.1900E-12  0.1080E-13  0.1297E-13  0.8292E-06  0.4152E-06  0.1080E-13  0.1297E-13  0.1759E-11  0.1900E-12
      1.634  0.3889E-02  0.4155E-02  0.2052E-04  0.9629E-05  0.4010E-04  0.5425E-04  0.2052E-04  0.9629E-05  0.5503E-06  0.1868E-06  0.9331E-13  0.1594E-13  0.9594E-06  0.5855E-06  0.9331E-13  0.1594E-13  0.5503E-06  0.1868E-06
      1.758  0.1972E-01  0.1951E-01  0.3311E-03  0.3295E-03  0.4942E-05  0.1638E-05  0.3311E-03  0.3295E-03  0.8884E-05  0.6393E-05  0.2403E-06  0.5751E-07  0.7485E-05  0.5996E-05  0.2403E-06  0.5751E-07  0.8884E-05  0.6393E-05
      1.882  0.3629E-01  0.3280E-01  0.6113E-03  0.5571E-03  0.5498E-03  0.4871E-03  0.6113E-03  0.5571E-03  0.1701E-04  0.1109E-04  0.2649E-04  0.1729E-04  0.1357E-05  0.1130E-05  0.2649E-04  0.1729E-04  0.1701E-04  0.1109E-04
      2.006  0.1188E-01  0.1556E-01  0.9720E-04  0.1703E-03  0.4572E-03  0.4921E-03  0.9720E-04  0.1703E-03  0.2707E-05  0.3395E-05  0.4278E-05  0.5485E-05  0.2614E-04  0.1620E-04  0.4278E-05  0.5485E-05  0.2707E-05  0.3395E-05
      2.130  0.6521E-03  0.1296E-02  0.2642E-08  0.8913E-08  0.3934E-04  0.7907E-04  0.2642E-08  0.8913E-08  0.7854E-10  0.1778E-09  0.2796E-09  0.2950E-09  0.2772E-05  0.3737E-05  0.2796E-09  0.2950E-09  0.7854E-10  0.1778E-09
      2.254  0.5094E-02  0.1903E-02  0.8871E-04  0.3319E-04  0.3117E-03  0.1181E-03  0.8871E-04  0.3319E-04  0.2917E-05  0.7370E-06  0.1628E-04  0.4408E-05  0.1090E-04  0.2708E-05  0.1628E-04  0.4408E-05  0.2917E-05  0.7370E-06
      2.378  0.4779E-01  0.4578E-01  0.1282E-02  0.1114E-02  0.2110E-02  0.2272E-02  0.1282E-02  0.1114E-02  0.7682E-04  0.4224E-04  0.1102E-03  0.8480E-04  0.1199E-03  0.7506E-04  0.1102E-03  0.8480E-04  0.7682E-04  0.4224E-04
      2.502  0.2421E-01  0.2055E-01  0.1231E-02  0.1022E-02  0.2966E-03  0.2189E-03  0.1231E-02  0.1022E-02  0.1062E-03  0.6040E-04  0.5244E-04  0.2066E-04  0.5750E-04  0.4058E-04  0.5244E-04  0.2066E-04  0.1062E-03  0.6040E-04
      2.626  0.2276E-01  0.3019E-01  0.1177E-02  0.1574E-02  0.3695E-03  0.4768E-03  0.1177E-02  0.1574E-02  0.1085E-03  0.9652E-04  0.6155E-04  0.6028E-04  0.5958E-04  0.4425E-04  0.6155E-04  0.6028E-04  0.1085E-03  0.9652E-04
      2.750  0.2415E-01  0.2222E-01  0.1245E-02  0.1171E-02  0.7987E-03  0.7276E-03  0.1245E-02  0.1171E-02  0.1860E-03  0.1140E-03  0.4947E-05  0.5052E-06  0.2903E-03  0.1776E-03  0.4947E-05  0.5052E-06  0.1860E-03  0.1140E-03
      2.875  0.3691E-01  0.3150E-01  0.2461E-02  0.2108E-02  0.6991E-03  0.6071E-03  0.2461E-02  0.2108E-02  0.3831E-03  0.2137E-03  0.1831E-03  0.8721E-04  0.1627E-03  0.1164E-03  0.1831E-03  0.8721E-04  0.3831E-03  0.2137E-03
      2.999  0.5191E-01  0.4430E-01  0.2181E-02  0.2339E-02  0.4419E-02  0.2754E-02  0.2181E-02  0.2339E-02  0.2124E-03  0.1767E-03  0.5717E-03  0.3187E-03  0.3893E-03  0.9461E-04  0.5717E-03  0.3187E-03  0.2124E-03  0.1767E-03
      3.123  0.2100E-01  0.3753E-01  0.4164E-03  0.8860E-03  0.2826E-02  0.4861E-02  0.4164E-03  0.8860E-03  0.2206E-04  0.3669E-04  0.1764E-03  0.2323E-03  0.4637E-03  0.4674E-03  0.1764E-03  0.2323E-03  0.2206E-04  0.3669E-04
      3.247  0.2644E-01  0.9154E-02  0.1806E-02  0.6250E-03  0.1684E-02  0.6196E-03  0.1806E-02  0.6250E-03  0.3509E-03  0.7277E-04  0.5336E-03  0.1170E-03  0.1376E-04  0.7504E-05  0.5336E-03  0.1170E-03  0.3509E-03  0.7277E-04
      3.371  0.8461E-02  0.2643E-01  0.5782E-03  0.1856E-02  0.5387E-03  0.1713E-02  0.5782E-03  0.1856E-02  0.1124E-03  0.2177E-03  0.1708E-03  0.3449E-03  0.4309E-05  0.7386E-05  0.1708E-03  0.3449E-03  0.1124E-03  0.2177E-03
      3.495  0.4829E-03  0.8202E-04  0.4646E-04  0.5796E-05  0.2483E-04  0.5281E-05  0.4646E-04  0.5796E-05  0.1272E-04  0.6854E-06  0.3267E-05  0.1062E-05  0.1661E-04  0.3518E-07  0.3267E-05  0.1062E-05  0.1272E-04  0.6854E-06
      3.619  0.6041E-01  0.1533E-01  0.5059E-02  0.1479E-02  0.4770E-02  0.9248E-03  0.5059E-02  0.1479E-02  0.1264E-02  0.2386E-03  0.8707E-03  0.1191E-03  0.1723E-02  0.2318E-03  0.8707E-03  0.1191E-03  0.1264E-02  0.2386E-03
      3.743  0.7055E-01  0.7304E-01  0.7984E-02  0.6577E-02  0.2144E-02  0.5584E-02  0.7984E-02  0.6577E-02  0.2389E-02  0.1057E-02  0.9902E-03  0.7264E-03  0.1550E-02  0.1236E-02  0.9902E-03  0.7264E-03  0.2389E-02  0.1057E-02
      3.867  0.3941E-01  0.5107E-01  0.2368E-02  0.6345E-02  0.6235E-02  0.9758E-03  0.2368E-02  0.6345E-02  0.6373E-03  0.1196E-02  0.1414E-02  0.3996E-03  0.1978E-02  0.6995E-03  0.1414E-02  0.3996E-03  0.6373E-03  0.1196E-02
      3.991  0.3702E-01  0.5204E-01  0.2132E-02  0.2573E-02  0.6267E-02  0.1007E-01  0.2132E-02  0.2573E-02  0.6471E-03  0.3414E-03  0.1311E-02  0.1231E-02  0.2640E-02  0.1853E-02  0.1311E-02  0.1231E-02  0.6471E-03  0.3414E-03
      4.116  0.6879E-01  0.2551E-01  0.8718E-02  0.2137E-02  0.3269E-02  0.3525E-02  0.8718E-02  0.2137E-02  0.4203E-02  0.4274E-03  0.2991E-02  0.6263E-03  0.1473E-02  0.8148E-03  0.2991E-02  0.6263E-03  0.4203E-02  0.4274E-03
      4.240  0.2467E-01  0.6271E-01  0.3526E-02  0.8357E-02  0.3530E-03  0.3155E-02  0.3526E-02  0.8357E-02  0.2708E-02  0.2168E-02  0.6216E-03  0.1556E-02  0.1041E-02  0.7661E-03  0.6216E-03  0.1556E-02  0.2708E-02  0.2168E-02
      4.364  0.7616E-02  0.2888E-01  0.7200E-03  0.4476E-02  0.1184E-02  0.4353E-03  0.7200E-03  0.4476E-02  0.5787E-03  0.1739E-02  0.6663E-03  0.3647E-03  0.6358E-03  0.7481E-03  0.6663E-03  0.3647E-03  0.5787E-03  0.1739E-02
      4.488  0.5333E-01  0.3433E-02  0.4752E-02  0.3088E-03  0.9042E-02  0.6450E-03  0.4752E-02  0.3088E-03  0.3554E-02  0.8207E-04  0.4765E-02  0.1200E-03  0.5417E-02  0.1554E-03  0.4765E-02  0.1200E-03  0.3554E-02  0.8207E-04
      4.612  0.5814E-01  0.3616E-01  0.6239E-02  0.3064E-02  0.1015E-01  0.7660E-02  0.6239E-02  0.3064E-02  0.3397E-02  0.9037E-03  0.8510E-02  0.1750E-02  0.1230E-02  0.1609E-02  0.8510E-02  0.1750E-02  0.3397E-02  0.9037E-03
      4.736  0.3761E-01  0.5629E-01  0.1938E-02  0.6913E-02  0.1008E-01  0.8173E-02  0.1938E-02  0.6913E-02  0.1264E-02  0.2446E-02  0.3027E-02  0.3901E-02  0.1426E-01  0.1801E-02  0.3027E-02  0.3901E-02  0.1264E-02  0.2446E-02
      4.860  0.3605E-01  0.4722E-01  0.5679E-02  0.4696E-02  0.3152E-02  0.1042E-01  0.5679E-02  0.4696E-02  0.6330E-02  0.1211E-02  0.5180E-02  0.3622E-02  0.4492E-02  0.1210E-02  0.5180E-02  0.3622E-02  0.6330E-02  0.1211E-02
      4.984  0.8645E-01  0.1897E-01  0.1726E-01  0.1012E-02  0.1325E-02  0.5800E-02  0.1726E-01  0.1012E-02  0.2283E-01  0.2447E-03  0.6144E-02  0.3310E-03  0.1624E-01  0.5343E-02  0.6144E-02  0.3310E-03  0.2283E-01  0.2447E-03
      5.108  0.8889E-01  0.4142E-01  0.1323E-01  0.6864E-02  0.6117E-02  0.4984E-02  0.1323E-01  0.6864E-02  0.3807E-01  0.2839E-02  0.3658E-01  0.1685E-02  0.2376E-01  0.4864E-02  0.3658E-01  0.1685E-02  0.3807E-01  0.2839E-02
      5.232  0.1250E+00  0.5735E-01  0.1279E-01  0.1198E-01  0.2360E-01  0.2602E-02  0.1279E-01  0.1198E-01  0.4695E-01  0.7167E-02  0.6281E-01  0.2830E-02  0.5661E-01  0.3244E-02  0.6281E-01  0.2830E-02  0.4695E-01  0.7167E-02
      5.357  0.8328E-01  0.4878E-01  0.7589E-02  0.1114E-01  0.1029E-01  0.9054E-03  0.7589E-02  0.1114E-01  0.5647E-01  0.7474E-02  0.8233E-01  0.1924E-02  0.8325E-01  0.3652E-02  0.8233E-01  0.1924E-02  0.5647E-01  0.7474E-02
      5.481  0.5310E-01  0.7673E-01  0.6510E-02  0.1265E-01  0.7521E-02  0.1539E-01  0.6510E-02  0.1265E-01  0.6317E-01  0.6795E-02  0.6932E-01  0.1108E-01  0.2160E-01  0.5500E-02  0.6932E-01  0.1108E-01  0.6317E-01  0.6795E-02
      5.605  0.4014E-01  0.5422E-01  0.6240E-02  0.7911E-02  0.7384E-02  0.1161E-01  0.6240E-02  0.7911E-02  0.6959E-01  0.5537E-02  0.3521E-01  0.7053E-02  0.4531E-01  0.8993E-02  0.3521E-01  0.7053E-02  0.6959E-01  0.5537E-02
      5.729  0.1212E+00  0.4924E-01  0.2243E-01  0.7785E-02  0.2598E-01  0.1026E-01  0.2243E-01  0.7785E-02  0.1991E+00  0.1107E-01  0.1743E+00  0.6578E-02  0.1846E+00  0.7764E-02  0.1743E+00  0.6578E-02  0.1991E+00  0.1107E-01
      5.853  0.6058E-01  0.9875E-01  0.1443E-01  0.1564E-01  0.1270E-01  0.1741E-01  0.1443E-01  0.1564E-01  0.9092E-01  0.2041E-01  0.1079E+00  0.2416E-01  0.1106E+00  0.2616E-01  0.1079E+00  0.2416E-01  0.9092E-01  0.2041E-01