   2   2   1   0
  0.1081274E+02  0.2492276E-09  0.2492276E-09  0.4020158E-09  0.5000000E-15
  1.000000000000000E-004
  CAR 
 Co-hcc                                  
     50.91328736     -0.98713579  301     10.26650393      1.00000000
     -0.987  0.0000E+00  0.0000E+00  0.0000E+00  0.0000E+00
     -0.814  0.0000E+00  0.0000E+00  0.0000E+00  0.0000E+00
     -0.641  0.0000E+00  0.0000E+00  0.0000E+00  0.0000E+00
     -0.468  0.0000E+00  0.0000E+00  0.0000E+00  0.0000E+00
     -0.295  0.0000E+00  0.0000E+00  0.0000E+00  0.0000E+00
     -0.122  0.0000E+00  0.0000E+00  0.0000E+00  0.0000E+00
      0.051  0.0000E+00  0.0000E+00  0.0000E+00  0.0000E+00
      0.224  0.0000E+00  0.0000E+00  0.0000E+00  0.0000E+00
      0.397  0.0000E+00  0.0000E+00  0.0000E+00  0.0000E+00
      0.570  0.0000E+00  0.0000E+00  0.0000E+00  0.0000E+00
      0.743  0.0000E+00  0.0000E+00  0.0000E+00  0.0000E+00
      0.916  0.0000E+00  0.0000E+00  0.0000E+00  0.0000E+00
      1.089  0.1393E-19  0.3064E-19  0.2409E-20  0.5301E-20
      1.262  0.3399E-07  0.4633E-07  0.5881E-08  0.8014E-08
      1.435  0.4811E-04  0.4857E-04  0.8329E-05  0.8410E-05
      1.608  0.2156E-03  0.2229E-03  0.4563E-04  0.4697E-04
      1.781  0.5304E-03  0.5320E-03  0.1374E-03  0.1390E-03
      1.954  0.2699E-03  0.2601E-03  0.1841E-03  0.1840E-03
      2.127  0.3416E-03  0.3386E-03  0.2432E-03  0.2426E-03
      2.300  0.1283E-02  0.1263E-02  0.4651E-03  0.4611E-03
      2.473  0.5976E-03  0.5699E-03  0.5685E-03  0.5597E-03
      2.646  0.3629E-03  0.3784E-03  0.6313E-03  0.6252E-03
      2.819  0.6224E-03  0.6511E-03  0.7390E-03  0.7378E-03
      2.992  0.1465E-02  0.1240E-02  0.9924E-03  0.9523E-03
      3.165  0.1416E-02  0.1419E-02  0.1237E-02  0.1198E-02
      3.338  0.2424E-03  0.3686E-03  0.1279E-02  0.1262E-02
      3.511  0.1728E-02  0.1046E-02  0.1578E-02  0.1443E-02
      3.684  0.1559E-02  0.2264E-02  0.1848E-02  0.1834E-02
      3.857  0.7219E-03  0.1198E-03  0.1973E-02  0.1855E-02
      4.030  0.7829E-03  0.1234E-02  0.2108E-02  0.2068E-02
      4.203  0.2877E-02  0.1354E-02  0.2606E-02  0.2303E-02
      4.376  0.1874E-02  0.2822E-02  0.2930E-02  0.2791E-02
      4.549  0.2751E-02  0.1504E-02  0.3406E-02  0.3051E-02
      4.722  0.1409E-02  0.1790E-02  0.3650E-02  0.3361E-02
      4.895  0.2951E-02  0.1086E-02  0.4161E-02  0.3549E-02
      5.068  0.2799E-02  0.1854E-02  0.4645E-02  0.3870E-02
      5.241  0.9706E-02  0.2254E-02  0.6324E-02  0.4259E-02
      5.414  0.9927E-02  0.2759E-02  0.8041E-02  0.4737E-02
      5.587  0.1081E-01  0.3117E-02  0.9911E-02  0.5276E-02
      5.760  0.1571E-01  0.3242E-02  0.1263E-01  0.5837E-02
      5.933  0.1638E-01  0.3925E-02  0.1546E-01  0.6516E-02
      6.106  0.1862E-01  0.4932E-02  0.1868E-01  0.7369E-02
      6.279  0.1466E-01  0.5084E-02  0.2122E-01  0.8249E-02
      6.452  0.1718E-01  0.1053E-01  0.2419E-01  0.1007E-01
      6.625  0.1624E-01  0.7952E-02  0.2700E-01  0.1145E-01
      6.798  0.2085E-01  0.8983E-02  0.3061E-01  0.1300E-01
      6.971  0.2228E-01  0.9669E-02  0.3446E-01  0.1467E-01
      7.144  0.1771E-01  0.1456E-01  0.3753E-01  0.1719E-01
      7.317  0.1020E-01  0.1281E-01  0.3929E-01  0.1941E-01
      7.490  0.2640E-01  0.1338E-01  0.4386E-01  0.2172E-01
      7.663  0.2988E-01  0.1242E-01  0.4903E-01  0.2387E-01
      7.836  0.2623E-01  0.1378E-01  0.5357E-01  0.2625E-01
      8.009  0.3071E-01  0.1828E-01  0.5888E-01  0.2942E-01
      8.182  0.3274E-01  0.1834E-01  0.6454E-01  0.3259E-01
      8.355  0.2473E-01  0.2074E-01  0.6882E-01  0.3618E-01
      8.528  0.1809E-01  0.8637E-02  0.7195E-01  0.3767E-01
      8.701  0.2056E-01  0.8533E-02  0.7551E-01  0.3915E-01
      8.874  0.1859E-01  0.1478E-01  0.7872E-01  0.4171E-01
      9.047  0.1463E-01  0.2301E-01  0.8125E-01  0.4569E-01
      9.220  0.2461E-01  0.2333E-01  0.8551E-01  0.4972E-01
      9.393  0.2529E-01  0.2547E-01  0.8988E-01  0.5413E-01
      9.566  0.3931E-01  0.2709E-01  0.9668E-01  0.5881E-01
      9.739  0.4142E-01  0.3006E-01  0.1038E+00  0.6402E-01
      9.912  0.3953E-02  0.2245E-01  0.1045E+00  0.6790E-01
     10.085  0.2163E-02  0.1574E-01  0.1049E+00  0.7062E-01
     10.258  0.7289E-02  0.1784E-01  0.1062E+00  0.7371E-01
     10.431  0.3865E-02  0.1112E-01  0.1068E+00  0.7563E-01
     10.604  0.2509E-02  0.1883E-01  0.1073E+00  0.7889E-01
     10.777  0.1313E-02  0.1037E-01  0.1075E+00  0.8068E-01
     10.950  0.7121E-03  0.1491E-01  0.1076E+00  0.8326E-01
     11.123  0.1713E-02  0.2366E-01  0.1079E+00  0.8736E-01
     11.296  0.3875E-02  0.2484E-01  0.1086E+00  0.9165E-01
     11.469  0.6305E-02  0.3697E-01  0.1097E+00  0.9805E-01
     11.642  0.4286E-02  0.3652E-01  0.1104E+00  0.1044E+00
     11.815  0.1467E-02  0.9798E-02  0.1107E+00  0.1061E+00
     11.988  0.1830E-02  0.4755E-02  0.1110E+00  0.1069E+00
     12.161  0.1608E-02  0.3591E-02  0.1113E+00  0.1075E+00
     12.334  0.3044E-02  0.3241E-02  0.1118E+00  0.1081E+00
     12.507  0.1345E-02  0.4131E-02  0.1120E+00  0.1088E+00
     12.680  0.2746E-02  0.3328E-02  0.1125E+00  0.1094E+00
     12.853  0.2385E-02  0.4865E-02  0.1129E+00  0.1102E+00
     13.026  0.1671E-02  0.4559E-02  0.1132E+00  0.1110E+00
     13.199  0.4336E-02  0.1477E-02  0.1140E+00  0.1112E+00
     13.372  0.4455E-03  0.4278E-02  0.1140E+00  0.1120E+00
     13.545  0.1734E-02  0.1531E-02  0.1143E+00  0.1122E+00
     13.718  0.2281E-02  0.1707E-02  0.1147E+00  0.1125E+00
     13.891  0.5482E-02  0.4065E-02  0.1157E+00  0.1132E+00
     14.064  0.1579E-02  0.1643E-02  0.1159E+00  0.1135E+00
     14.237  0.1994E-02  0.2861E-02  0.1163E+00  0.1140E+00
     14.410  0.1969E-02  0.1925E-02  0.1166E+00  0.1144E+00
     14.583  0.2477E-02  0.3767E-02  0.1171E+00  0.1150E+00
     14.756  0.3454E-03  0.3864E-02  0.1171E+00  0.1157E+00
     14.929  0.1911E-02  0.1814E-02  0.1175E+00  0.1160E+00
     15.102  0.7978E-03  0.1233E-02  0.1176E+00  0.1162E+00
     15.275  0.1486E-02  0.2973E-02  0.1178E+00  0.1167E+00
     15.448  0.6210E-03  0.2210E-02  0.1180E+00  0.1171E+00
     15.621  0.3977E-02  0.1563E-02  0.1186E+00  0.1174E+00
     15.794  0.3619E-02  0.1251E-02  0.1193E+00  0.1176E+00
     15.967  0.1464E-02  0.1569E-02  0.1195E+00  0.1179E+00
     16.140  0.8487E-03  0.4716E-03  0.1197E+00  0.1179E+00
     16.313  0.7496E-05  0.2598E-02  0.1197E+00  0.1184E+00
     16.486  0.2531E-04  0.5211E-02  0.1197E+00  0.1193E+00
     16.659  0.2849E-03  0.1460E-02  0.1197E+00  0.1195E+00
     16.832  0.1347E-02  0.6852E-03  0.1200E+00  0.1197E+00
     17.005  0.1005E-02  0.3629E-04  0.1201E+00  0.1197E+00
     17.178  0.7016E-03  0.6010E-07  0.1203E+00  0.1197E+00
     17.351  0.4996E-03  0.5409E-03  0.1203E+00  0.1198E+00
     17.524  0.1232E-02  0.1158E-02  0.1206E+00  0.1200E+00
     17.697  0.1361E-02  0.3021E-04  0.1208E+00  0.1200E+00
     17.870  0.3291E-02  0.9576E-03  0.1214E+00  0.1201E+00
     18.043  0.8781E-02  0.1156E-02  0.1229E+00  0.1203E+00
     18.216  0.3737E-02  0.1306E-02  0.1235E+00  0.1206E+00
     18.389  0.1853E-02  0.5862E-03  0.1238E+00  0.1207E+00
     18.562  0.4709E-02  0.3977E-02  0.1247E+00  0.1214E+00
     18.735  0.2881E-02  0.5614E-02  0.1252E+00  0.1223E+00
     18.908  0.4110E-02  0.5158E-02  0.1259E+00  0.1232E+00
     19.081  0.1644E-02  0.3369E-02  0.1262E+00  0.1238E+00
     19.254  0.4185E-02  0.4812E-02  0.1269E+00  0.1246E+00
     19.427  0.1963E-02  0.2692E-02  0.1272E+00  0.1251E+00
     19.600  0.3623E-02  0.4806E-02  0.1278E+00  0.1259E+00
     19.773  0.2514E-02  0.3439E-02  0.1283E+00  0.1265E+00
     19.946  0.3180E-02  0.2118E-02  0.1288E+00  0.1269E+00
     20.119  0.1942E-02  0.4250E-02  0.1292E+00  0.1276E+00
     20.292  0.5652E-02  0.2286E-02  0.1301E+00  0.1280E+00
     20.465  0.3291E-02  0.3116E-02  0.1307E+00  0.1286E+00
     20.638  0.2783E-02  0.3339E-02  0.1312E+00  0.1291E+00
     20.811  0.6412E-02  0.2764E-02  0.1323E+00  0.1296E+00
     20.984  0.1417E-02  0.5254E-02  0.1325E+00  0.1305E+00
     21.157  0.4222E-02  0.5269E-02  0.1333E+00  0.1314E+00
     21.330  0.6158E-02  0.4910E-02  0.1343E+00  0.1323E+00
     21.503  0.2438E-02  0.1630E-02  0.1348E+00  0.1326E+00
     21.676  0.3084E-02  0.4651E-02  0.1353E+00  0.1334E+00
     21.849  0.1685E-02  0.5979E-02  0.1356E+00  0.1344E+00
     22.022  0.3459E-02  0.2842E-02  0.1362E+00  0.1349E+00
     22.195  0.5704E-02  0.3069E-02  0.1372E+00  0.1354E+00
     22.368  0.2331E-02  0.2666E-02  0.1376E+00  0.1359E+00
     22.541  0.3345E-02  0.3641E-02  0.1382E+00  0.1365E+00
     22.714  0.1069E-02  0.5291E-02  0.1383E+00  0.1374E+00
     22.887  0.3284E-02  0.1623E-02  0.1389E+00  0.1377E+00
     23.060  0.3191E-02  0.2928E-02  0.1395E+00  0.1382E+00
     23.233  0.1466E-02  0.1963E-02  0.1397E+00  0.1386E+00
     23.406  0.1628E-02  0.2742E-02  0.1400E+00  0.1390E+00
     23.579  0.6033E-02  0.2938E-02  0.1410E+00  0.1395E+00
     23.752  0.3434E-02  0.1394E-02  0.1416E+00  0.1398E+00
     23.925  0.2746E-02  0.3503E-02  0.1421E+00  0.1404E+00
     24.098  0.5602E-03  0.6209E-02  0.1422E+00  0.1415E+00
     24.271  0.3698E-02  0.2231E-02  0.1428E+00  0.1419E+00
     24.444  0.6749E-02  0.1630E-02  0.1440E+00  0.1421E+00
     24.617  0.2466E-02  0.2629E-02  0.1444E+00  0.1426E+00
     24.790  0.1592E-02  0.6205E-02  0.1447E+00  0.1437E+00
     24.963  0.3709E-02  0.3909E-02  0.1454E+00  0.1443E+00
     25.136  0.4155E-02  0.1354E-02  0.1461E+00  0.1446E+00
     25.309  0.2991E-02  0.3587E-02  0.1466E+00  0.1452E+00
     25.482  0.6302E-02  0.4051E-02  0.1477E+00  0.1459E+00
     25.655  0.3615E-02  0.3724E-02  0.1483E+00  0.1465E+00
     25.828  0.5523E-02  0.6655E-02  0.1493E+00  0.1477E+00
     26.001  0.5633E-02  0.3748E-02  0.1502E+00  0.1483E+00
     26.174  0.3209E-02  0.4375E-02  0.1508E+00  0.1491E+00
     26.347  0.3124E-02  0.5634E-02  0.1513E+00  0.1501E+00
     26.520  0.1861E-02  0.4111E-02  0.1517E+00  0.1508E+00
     26.693  0.7324E-02  0.3559E-02  0.1529E+00  0.1514E+00
     26.866  0.2307E-02  0.2304E-02  0.1533E+00  0.1518E+00
     27.039  0.2144E-02  0.7742E-02  0.1537E+00  0.1531E+00
     27.212  0.8604E-02  0.1581E-02  0.1552E+00  0.1534E+00
     27.385  0.3844E-02  0.2814E-02  0.1558E+00  0.1539E+00
     27.558  0.3585E-02  0.8562E-02  0.1565E+00  0.1554E+00
     27.731  0.2677E-02  0.2924E-02  0.1569E+00  0.1559E+00
     27.904  0.6978E-02  0.4244E-02  0.1581E+00  0.1566E+00
     28.077  0.2272E-02  0.4880E-02  0.1585E+00  0.1575E+00
     28.250  0.4805E-02  0.4977E-02  0.1594E+00  0.1583E+00
     28.423  0.2525E-02  0.3452E-02  0.1598E+00  0.1589E+00
     28.596  0.3602E-02  0.3284E-02  0.1604E+00  0.1595E+00
     28.769  0.4521E-02  0.3222E-02  0.1612E+00  0.1600E+00
     28.942  0.3059E-02  0.3788E-02  0.1617E+00  0.1607E+00
     29.115  0.5337E-02  0.5140E-02  0.1627E+00  0.1616E+00
     29.288  0.4309E-02  0.4303E-02  0.1634E+00  0.1623E+00
     29.461  0.3503E-02  0.5038E-02  0.1640E+00  0.1632E+00
     29.634  0.6235E-02  0.3937E-02  0.1651E+00  0.1639E+00
     29.807  0.4286E-02  0.4121E-02  0.1658E+00  0.1646E+00
     29.980  0.3172E-02  0.5805E-02  0.1664E+00  0.1656E+00
     30.153  0.3883E-02  0.3261E-02  0.1670E+00  0.1662E+00
     30.326  0.4244E-02  0.5078E-02  0.1678E+00  0.1670E+00
     30.499  0.3725E-02  0.3782E-02  0.1684E+00  0.1677E+00
     30.672  0.5676E-02  0.4258E-02  0.1694E+00  0.1684E+00
     30.845  0.2823E-02  0.5677E-02  0.1699E+00  0.1694E+00
     31.018  0.2808E-02  0.2267E-02  0.1704E+00  0.1698E+00
     31.191  0.5060E-02  0.2729E-02  0.1713E+00  0.1703E+00
     31.364  0.2805E-02  0.4631E-02  0.1717E+00  0.1711E+00
     31.537  0.2892E-02  0.3803E-02  0.1722E+00  0.1717E+00
     31.710  0.4033E-02  0.4094E-02  0.1729E+00  0.1724E+00
     31.883  0.6819E-02  0.3248E-02  0.1741E+00  0.1730E+00
     32.056  0.6159E-02  0.5868E-02  0.1752E+00  0.1740E+00
     32.229  0.2970E-02  0.5918E-02  0.1757E+00  0.1750E+00
     32.402  0.1950E-02  0.3726E-02  0.1760E+00  0.1757E+00
     32.575  0.5838E-02  0.3211E-02  0.1770E+00  0.1762E+00
     32.748  0.4130E-02  0.3911E-02  0.1778E+00  0.1769E+00
     32.921  0.6619E-02  0.5708E-02  0.1789E+00  0.1779E+00
     33.094  0.4464E-02  0.4085E-02  0.1797E+00  0.1786E+00
     33.267  0.3961E-02  0.5620E-02  0.1804E+00  0.1796E+00
     33.440  0.2042E-02  0.4591E-02  0.1807E+00  0.1804E+00
     33.613  0.8364E-03  0.9728E-03  0.1809E+00  0.1806E+00
     33.786  0.4116E-02  0.2640E-02  0.1816E+00  0.1810E+00
     33.959  0.4939E-02  0.2855E-02  0.1824E+00  0.1815E+00
     34.132  0.4891E-02  0.5868E-02  0.1833E+00  0.1825E+00
     34.305  0.3495E-02  0.3059E-02  0.1839E+00  0.1831E+00
     34.478  0.9694E-02  0.3322E-02  0.1856E+00  0.1836E+00
     34.651  0.8032E-02  0.8110E-02  0.1869E+00  0.1850E+00
     34.824  0.3608E-02  0.8965E-02  0.1876E+00  0.1866E+00
     34.997  0.3746E-02  0.6292E-02  0.1882E+00  0.1877E+00
     35.170  0.5285E-02  0.3251E-02  0.1891E+00  0.1882E+00
     35.343  0.4694E-02  0.3812E-02  0.1899E+00  0.1889E+00
     35.516  0.4389E-02  0.5668E-02  0.1907E+00  0.1899E+00
     35.689  0.2897E-02  0.5463E-02  0.1912E+00  0.1908E+00
     35.862  0.3275E-02  0.3225E-02  0.1918E+00  0.1914E+00
     36.035  0.1123E-02  0.2976E-02  0.1920E+00  0.1919E+00
     36.208  0.4714E-02  0.8950E-03  0.1928E+00  0.1920E+00
     36.381  0.4247E-02  0.4104E-02  0.1935E+00  0.1928E+00
     36.554  0.1509E-02  0.3322E-02  0.1938E+00  0.1933E+00
     36.727  0.5310E-02  0.2629E-02  0.1947E+00  0.1938E+00
     36.900  0.4524E-02  0.5048E-02  0.1955E+00  0.1947E+00
     37.073  0.5557E-02  0.4637E-02  0.1964E+00  0.1955E+00
     37.246  0.5655E-02  0.5031E-02  0.1974E+00  0.1963E+00
     37.419  0.2952E-02  0.4027E-02  0.1979E+00  0.1970E+00
     37.592  0.1996E-02  0.4270E-02  0.1983E+00  0.1978E+00
     37.765  0.7593E-02  0.3791E-02  0.1996E+00  0.1984E+00
     37.938  0.3236E-02  0.5150E-02  0.2001E+00  0.1993E+00
     38.111  0.5503E-02  0.4766E-02  0.2011E+00  0.2001E+00
     38.284  0.3732E-02  0.3634E-02  0.2017E+00  0.2008E+00
     38.457  0.1983E-02  0.5510E-02  0.2021E+00  0.2017E+00
     38.630  0.3926E-02  0.2072E-02  0.2028E+00  0.2021E+00
     38.803  0.9528E-02  0.4407E-02  0.2044E+00  0.2028E+00
     38.976  0.4211E-02  0.7507E-02  0.2051E+00  0.2041E+00
     39.149  0.3074E-02  0.3718E-02  0.2057E+00  0.2048E+00
     39.322  0.3650E-02  0.5399E-02  0.2063E+00  0.2057E+00
     39.495  0.3841E-02  0.3230E-02  0.2070E+00  0.2063E+00
     39.668  0.3928E-02  0.5961E-02  0.2077E+00  0.2073E+00
     39.841  0.1856E-02  0.1975E-02  0.2080E+00  0.2076E+00
     40.014  0.5962E-02  0.1527E-02  0.2090E+00  0.2079E+00
     40.187  0.6295E-02  0.5727E-02  0.2101E+00  0.2089E+00
     40.360  0.5714E-02  0.5427E-02  0.2111E+00  0.2098E+00
     40.533  0.5819E-02  0.6253E-02  0.2121E+00  0.2109E+00
     40.706  0.5996E-02  0.7537E-02  0.2131E+00  0.2122E+00
     40.879  0.5817E-02  0.4189E-02  0.2141E+00  0.2129E+00
     41.052  0.1840E-02  0.5964E-02  0.2145E+00  0.2140E+00
     41.225  0.4190E-02  0.3886E-02  0.2152E+00  0.2147E+00
     41.398  0.5835E-02  0.4234E-02  0.2162E+00  0.2154E+00
     41.571  0.5183E-02  0.3895E-02  0.2171E+00  0.2161E+00
     41.744  0.3145E-02  0.5081E-02  0.2176E+00  0.2169E+00
     41.917  0.1792E-02  0.4555E-02  0.2179E+00  0.2177E+00
     42.090  0.8911E-03  0.1885E-02  0.2181E+00  0.2181E+00
     42.263  0.5823E-02  0.1765E-02  0.2191E+00  0.2184E+00
     42.436  0.5338E-02  0.3568E-02  0.2200E+00  0.2190E+00
     42.609  0.4742E-02  0.4340E-02  0.2208E+00  0.2197E+00
     42.782  0.9206E-02  0.5704E-02  0.2224E+00  0.2207E+00
     42.955  0.5103E-02  0.4436E-02  0.2233E+00  0.2215E+00
     43.128  0.7636E-02  0.9608E-02  0.2246E+00  0.2231E+00
     43.301  0.1634E-02  0.7509E-02  0.2249E+00  0.2244E+00
     43.474  0.7627E-02  0.2161E-02  0.2262E+00  0.2248E+00
     43.647  0.2715E-02  0.4057E-02  0.2267E+00  0.2255E+00
     43.820  0.5094E-02  0.6374E-02  0.2276E+00  0.2266E+00
     43.993  0.3662E-02  0.4819E-02  0.2282E+00  0.2275E+00
     44.166  0.6653E-02  0.4586E-02  0.2294E+00  0.2282E+00
     44.339  0.6633E-02  0.5007E-02  0.2305E+00  0.2291E+00
     44.512  0.2671E-02  0.7068E-02  0.2310E+00  0.2303E+00
     44.685  0.1689E-02  0.3599E-02  0.2313E+00  0.2310E+00
     44.858  0.4247E-02  0.1258E-02  0.2320E+00  0.2312E+00
     45.031  0.5091E-02  0.1588E-02  0.2329E+00  0.2315E+00
     45.204  0.4596E-02  0.5817E-02  0.2337E+00  0.2325E+00
     45.377  0.3059E-02  0.4058E-02  0.2342E+00  0.2332E+00
     45.550  0.3267E-02  0.3678E-02  0.2348E+00  0.2338E+00
     45.723  0.2047E-02  0.4610E-02  0.2351E+00  0.2346E+00
     45.896  0.3020E-02  0.1290E-02  0.2357E+00  0.2348E+00
     46.069  0.2652E-02  0.1028E-02  0.2361E+00  0.2350E+00
     46.242  0.3926E-02  0.1728E-02  0.2368E+00  0.2353E+00
     46.415  0.7602E-02  0.6009E-02  0.2381E+00  0.2363E+00
     46.588  0.6110E-02  0.3100E-02  0.2392E+00  0.2369E+00
     46.761  0.9818E-03  0.4350E-02  0.2393E+00  0.2376E+00
     46.934  0.2689E-02  0.3163E-02  0.2398E+00  0.2382E+00
     47.107  0.1194E-03  0.9493E-03  0.2398E+00  0.2383E+00
     47.280  0.6072E-03  0.2237E-02  0.2399E+00  0.2387E+00
     47.453  0.3996E-03  0.1897E-02  0.2400E+00  0.2390E+00
     47.626  0.4010E-07  0.1704E-02  0.2400E+00  0.2393E+00
     47.799  0.0000E+00  0.1852E-02  0.2400E+00  0.2397E+00
     47.972  0.0000E+00  0.6143E-03  0.2400E+00  0.2398E+00
     48.145  0.0000E+00  0.3573E-03  0.2400E+00  0.2398E+00
     48.318  0.0000E+00  0.3664E-03  0.2400E+00  0.2399E+00
     48.491  0.0000E+00  0.2264E-04  0.2400E+00  0.2399E+00
     48.664  0.0000E+00  0.5789E-03  0.2400E+00  0.2400E+00
     48.837  0.0000E+00  0.5559E-06  0.2400E+00  0.2400E+00
     49.010  0.0000E+00  0.0000E+00  0.2400E+00  0.2400E+00
     49.183  0.0000E+00  0.0000E+00  0.2400E+00  0.2400E+00
     49.356  0.0000E+00  0.0000E+00  0.2400E+00  0.2400E+00
     49.529  0.0000E+00  0.0000E+00  0.2400E+00  0.2400E+00
     49.702  0.0000E+00  0.0000E+00  0.2400E+00  0.2400E+00
     49.875  0.0000E+00  0.0000E+00  0.2400E+00  0.2400E+00
     50.048  0.0000E+00  0.0000E+00  0.2400E+00  0.2400E+00
     50.221  0.0000E+00  0.0000E+00  0.2400E+00  0.2400E+00
     50.394  0.0000E+00  0.0000E+00  0.2400E+00  0.2400E+00
     50.567  0.0000E+00  0.0000E+00  0.2400E+00  0.2400E+00
     50.740  0.0000E+00  0.0000E+00  0.2400E+00  0.2400E+00
     50.913  0.0000E+00  0.0000E+00  0.2400E+00  0.2400E+00
     50.91328736     -0.98713579  301     10.26650393      1.00000000
     -0.987  0.0000E+00  0.0000E+00  0.0000E+00  0.0000E+00  0.0000E+00  0.0000E+00  0.0000E+00  0.0000E+00  0.0000E+00  0.0000E+00  0.0000E+00  0.0000E+00  0.0000E+00  0.0000E+00  0.0000E+00  0.0000E+00  0.0000E+00  0.0000E+00
     -0.814  0.0000E+00  0.0000E+00  0.0000E+00  0.0000E+00  0.0000E+00  0.0000E+00  0.0000E+00  0.0000E+00  0.0000E+00  0.0000E+00  0.0000E+00  0.0000E+00  0.0000E+00  0.0000E+00  0.0000E+00  0.0000E+00  0.0000E+00  0.0000E+00
     -0.641  0.0000E+00  0.0000E+00  0.0000E+00  0.0000E+00  0.0000E+00  0.0000E+00  0.0000E+00  0.0000E+00  0.0000E+00  0.0000E+00  0.0000E+00  0.0000E+00  0.0000E+00  0.0000E+00  0.0000E+00  0.0000E+00  0.0000E+00  0.0000E+00
     -0.468  0.0000E+00  0.0000E+00  0.0000E+00  0.0000E+00  0.0000E+00  0.0000E+00  0.0000E+00  0.0000E+00  0.0000E+00  0.0000E+00  0.0000E+00  0.0000E+00  0.0000E+00  0.0000E+00  0.0000E+00  0.0000E+00  0.0000E+00  0.0000E+00
     -0.295  0.0000E+00  0.0000E+00  0.0000E+00  0.0000E+00  0.0000E+00  0.0000E+00  0.0000E+00  0.0000E+00  0.0000E+00  0.0000E+00  0.0000E+00  0.0000E+00  0.0000E+00  0.0000E+00  0.0000E+00  0.0000E+00  0.0000E+00  0.0000E+00
     -0.122  0.0000E+00  0.0000E+00  0.0000E+00  0.0000E+00  0.0000E+00  0.0000E+00  0.0000E+00  0.0000E+00  0.0000E+00  0.0000E+00  0.0000E+00  0.0000E+00  0.0000E+00  0.0000E+00  0.0000E+00  0.0000E+00  0.0000E+00  0.0000E+00
      0.051  0.0000E+00  0.0000E+00  0.0000E+00  0.0000E+00  0.0000E+00  0.0000E+00  0.0000E+00  0.0000E+00  0.0000E+00  0.0000E+00  0.0000E+00  0.0000E+00  0.0000E+00  0.0000E+00  0.0000E+00  0.0000E+00  0.0000E+00  0.0000E+00
      0.224  0.0000E+00  0.0000E+00  0.0000E+00  0.0000E+00  0.0000E+00  0.0000E+00  0.0000E+00  0.0000E+00  0.0000E+00  0.0000E+00  0.0000E+00  0.0000E+00  0.0000E+00  0.0000E+00  0.0000E+00  0.0000E+00  0.0000E+00  0.0000E+00
      0.397  0.0000E+00  0.0000E+00  0.0000E+00  0.0000E+00  0.0000E+00  0.0000E+00  0.0000E+00  0.0000E+00  0.0000E+00  0.0000E+00  0.0000E+00  0.0000E+00  0.0000E+00  0.0000E+00  0.0000E+00  0.0000E+00  0.0000E+00  0.0000E+00
      0.570  0.0000E+00  0.0000E+00  0.0000E+00  0.0000E+00  0.0000E+00  0.0000E+00  0.0000E+00  0.0000E+00  0.0000E+00  0.0000E+00  0.0000E+00  0.0000E+00  0.0000E+00  0.0000E+00  0.0000E+00  0.0000E+00  0.0000E+00  0.0000E+00
      0.743  0.0000E+00  0.0000E+00  0.0000E+00  0.0000E+00  0.0000E+00  0.0000E+00  0.0000E+00  0.0000E+00  0.0000E+00  0.0000E+00  0.0000E+00  0.0000E+00  0.0000E+00  0.0000E+00  0.0000E+00  0.0000E+00  0.0000E+00  0.0000E+00
      0.916  0.0000E+00  0.0000E+00  0.0000E+00  0.0000E+00  0.0000E+00  0.0000E+00  0.0000E+00  0.0000E+00  0.0000E+00  0.0000E+00  0.0000E+00  0.0000E+00  0.0000E+00  0.0000E+00  0.0000E+00  0.0000E+00  0.0000E+00  0.0000E+00
      1.089  0.5065E-18  0.1114E-17  0.8681E-35  0.1500E-32  0.7192E-33  0.1624E-32  0.8681E-35  0.1500E-32  0.2746E-32  0.3315E-31  0.2208E-34  0.5577E-34  0.3109E-23  0.9015E-23  0.2208E-34  0.5577E-34  0.2746E-32  0.3315E-31
      1.262  0.1236E-05  0.1685E-05  0.2119E-22  0.2268E-20  0.3979E-18  0.7141E-18  0.2119E-22  0.2268E-20  0.6703E-20  0.5012E-19  0.5390E-22  0.8432E-22  0.7588E-11  0.1363E-10  0.5390E-22  0.8432E-22  0.6703E-20  0.5012E-19
      1.435  0.1750E-02  0.1766E-02  0.1288E-10  0.1825E-10  0.1400E-06  0.1767E-06  0.1288E-10  0.1825E-10  0.2337E-12  0.2430E-12  0.7592E-19  0.8841E-19  0.1224E-07  0.1545E-07  0.7592E-19  0.8841E-19  0.2337E-12  0.2430E-12
      1.608  0.7694E-02  0.7950E-02  0.4760E-04  0.5095E-04  0.5335E-04  0.5379E-04  0.4760E-04  0.5095E-04  0.8637E-06  0.6780E-06  0.1237E-10  0.1122E-10  0.1465E-05  0.1139E-05  0.1237E-10  0.1122E-10  0.8637E-06  0.6780E-06
      1.781  0.1867E-01  0.1871E-01  0.2174E-03  0.2194E-03  0.1845E-03  0.1905E-03  0.2174E-03  0.2194E-03  0.4024E-05  0.2960E-05  0.5957E-05  0.4570E-05  0.1426E-05  0.1112E-05  0.5957E-05  0.4570E-05  0.4024E-05  0.2960E-05
      1.954  0.9438E-02  0.9092E-02  0.1064E-03  0.1032E-03  0.1605E-03  0.1556E-03  0.1064E-03  0.1032E-03  0.1992E-05  0.1402E-05  0.4514E-05  0.3250E-05  0.1488E-05  0.9746E-06  0.4514E-05  0.3250E-05  0.1992E-05  0.1402E-05
      2.127  0.1160E-01  0.1150E-01  0.3002E-03  0.2989E-03  0.1892E-03  0.1916E-03  0.3002E-03  0.2989E-03  0.1653E-04  0.1189E-04  0.7912E-07  0.4295E-07  0.2697E-04  0.1924E-04  0.7912E-07  0.4295E-07  0.1653E-04  0.1189E-04
      2.300  0.4278E-01  0.4212E-01  0.1090E-02  0.1074E-02  0.1496E-02  0.1501E-02  0.1090E-02  0.1074E-02  0.5787E-04  0.3995E-04  0.7560E-04  0.5449E-04  0.7557E-04  0.5153E-04  0.7560E-04  0.5449E-04  0.5787E-04  0.3995E-04
      2.473  0.1957E-01  0.1870E-01  0.8900E-03  0.8525E-03  0.2176E-03  0.2047E-03  0.8900E-03  0.8525E-03  0.7956E-04  0.5175E-04  0.3110E-04  0.1928E-04  0.4117E-04  0.2904E-04  0.3110E-04  0.1928E-04  0.7956E-04  0.5175E-04
      2.646  0.1170E-01  0.1225E-01  0.5212E-03  0.5678E-03  0.3151E-03  0.2719E-03  0.5212E-03  0.5678E-03  0.4608E-04  0.3500E-04  0.4480E-04  0.2847E-04  0.1685E-04  0.1307E-04  0.4480E-04  0.2847E-04  0.4608E-04  0.3500E-04
      2.819  0.1965E-01  0.2060E-01  0.6001E-03  0.6404E-03  0.1464E-02  0.1546E-02  0.6001E-03  0.6404E-03  0.4041E-04  0.2922E-04  0.1298E-03  0.9600E-04  0.1016E-03  0.6639E-04  0.1298E-03  0.9600E-04  0.4041E-04  0.2922E-04
      2.992  0.4479E-01  0.3810E-01  0.1954E-02  0.1612E-02  0.3378E-02  0.3061E-02  0.1954E-02  0.1612E-02  0.2486E-03  0.1285E-03  0.2975E-03  0.1958E-03  0.5149E-03  0.2640E-03  0.2975E-03  0.1958E-03  0.2486E-03  0.1285E-03
      3.165  0.4245E-01  0.4291E-01  0.3392E-02  0.3283E-02  0.8355E-03  0.1162E-02  0.3392E-02  0.3283E-02  0.5781E-03  0.3646E-03  0.2138E-03  0.1258E-03  0.3903E-03  0.3014E-03  0.2138E-03  0.1258E-03  0.5781E-03  0.3646E-03
      3.338  0.7093E-02  0.1104E-01  0.4883E-03  0.9252E-03  0.4383E-03  0.2344E-03  0.4883E-03  0.9252E-03  0.8745E-04  0.1053E-03  0.7638E-04  0.4872E-04  0.8551E-04  0.6038E-04  0.7638E-04  0.4872E-04  0.8745E-04  0.1053E-03
      3.511  0.4875E-01  0.3015E-01  0.3747E-02  0.2011E-02  0.3413E-02  0.2718E-02  0.3747E-02  0.2011E-02  0.9201E-03  0.2783E-03  0.8698E-03  0.2982E-03  0.5614E-03  0.2987E-03  0.8698E-03  0.2982E-03  0.9201E-03  0.2783E-03
      3.684  0.4327E-01  0.6387E-01  0.3035E-02  0.5213E-02  0.4101E-02  0.4929E-02  0.3035E-02  0.5213E-02  0.6999E-03  0.7635E-03  0.1032E-02  0.9672E-03  0.7309E-03  0.3970E-03  0.1032E-02  0.9672E-03  0.6999E-03  0.7635E-03
      3.857  0.1877E-01  0.3297E-02  0.8957E-03  0.4380E-04  0.3169E-02  0.7463E-03  0.8957E-03  0.4380E-04  0.3260E-03  0.4688E-05  0.4514E-03  0.1757E-04  0.1687E-02  0.2410E-03  0.4514E-03  0.1757E-04  0.3260E-03  0.4688E-05
      4.030  0.2023E-01  0.3290E-01  0.2041E-02  0.2210E-02  0.1576E-02  0.4844E-02  0.2041E-02  0.2210E-02  0.7373E-03  0.4682E-03  0.4542E-03  0.5454E-03  0.9657E-03  0.1349E-02  0.4542E-03  0.5454E-03  0.7373E-03  0.4682E-03
      4.203  0.7085E-01  0.3482E-01  0.8320E-02  0.4500E-02  0.5779E-02  0.2279E-02  0.8320E-02  0.4500E-02  0.3410E-02  0.9414E-03  0.2800E-02  0.7373E-03  0.2165E-02  0.5416E-03  0.2800E-02  0.7373E-03  0.3410E-02  0.9414E-03
      4.376  0.4423E-01  0.7111E-01  0.4899E-02  0.8496E-02  0.4841E-02  0.6806E-02  0.4899E-02  0.8496E-02  0.2557E-02  0.2261E-02  0.2025E-02  0.1513E-02  0.2724E-02  0.2064E-02  0.2025E-02  0.1513E-02  0.2557E-02  0.2261E-02
      4.549  0.5989E-01  0.3625E-01  0.7222E-02  0.3970E-02  0.6445E-02  0.5411E-02  0.7222E-02  0.3970E-02  0.5064E-02  0.1008E-02  0.5247E-02  0.1543E-02  0.3783E-02  0.1102E-02  0.5247E-02  0.1543E-02  0.5064E-02  0.1008E-02
      4.722  0.2772E-01  0.4147E-01  0.2842E-02  0.5887E-02  0.3565E-02  0.3894E-02  0.2842E-02  0.5887E-02  0.3658E-02  0.2166E-02  0.1226E-02  0.2194E-02  0.8591E-02  0.1071E-02  0.1226E-02  0.2194E-02  0.3658E-02  0.2166E-02
      4.895  0.5419E-01  0.2429E-01  0.6357E-02  0.3789E-02  0.9958E-02  0.1670E-02  0.6357E-02  0.3789E-02  0.6222E-02  0.2215E-02  0.1154E-01  0.4788E-03  0.2537E-02  0.2159E-02  0.1154E-01  0.4788E-03  0.6222E-02  0.2215E-02
      5.068  0.4537E-01  0.3957E-01  0.5112E-02  0.3424E-02  0.8718E-02  0.1073E-01  0.5112E-02  0.3424E-02  0.7722E-02  0.1082E-02  0.1008E-01  0.3019E-02  0.1170E-01  0.4375E-02  0.1008E-01  0.3019E-02  0.7722E-02  0.1082E-02
      5.241  0.1185E+00  0.4531E-01  0.1804E-01  0.6892E-02  0.7631E-02  0.6766E-02  0.1804E-01  0.6892E-02  0.5301E-01  0.3700E-02  0.4260E-01  0.5644E-02  0.5169E-01  0.8889E-03  0.4260E-01  0.5644E-02  0.5301E-01  0.3700E-02
      5.414  0.8438E-01  0.5470E-01  0.9644E-02  0.9703E-02  0.1059E-01  0.8536E-02  0.9644E-02  0.9703E-02  0.5676E-01  0.4543E-02  0.7640E-01  0.3146E-02  0.4478E-01  0.6640E-02  0.7640E-01  0.3146E-02  0.5676E-01  0.4543E-02
      5.587  0.7568E-01  0.5622E-01  0.9702E-02  0.1062E-01  0.1312E-01  0.6476E-02  0.9702E-02  0.1062E-01  0.6652E-01  0.9722E-02  0.7388E-01  0.4527E-02  0.7939E-01  0.8325E-02  0.7388E-01  0.4527E-02  0.6652E-01  0.9722E-02
      5.760  0.7551E-01  0.5352E-01  0.1265E-01  0.1056E-01  0.1534E-01  0.5994E-02  0.1265E-01  0.1056E-01  0.1414E+00  0.9450E-02  0.9879E-01  0.8210E-02  0.9423E-01  0.1110E-01  0.9879E-01  0.8210E-02  0.1414E+00  0.9450E-02
      5.933  0.6099E-01  0.5908E-01  0.1592E-01  0.8946E-02  0.1675E-01  0.1451E-01  0.1592E-01  0.8946E-02  0.1195E+00  0.1264E-01  0.1279E+00  0.1404E-01  0.1208E+00  0.1001E-01  0.1279E+00  0.1404E-01  0.1195E+00  0.1264E-01
      6.106  0.4099E-01  0.6423E-01  0.1473E-01  0.1002E-01  0.1644E-01  0.1293E-01  0.1473E-01  0.1002E-01  0.1234E+00  0.1783E-01  0.1697E+00  0.2459E-01  0.1606E+00  0.1661E-01  0.1697E+00  0.2459E-01  0.1234E+00  0.1783E-01
      6.279  0.2572E-01  0.4871E-01  0.1548E-01  0.3964E-02  0.1887E-01  0.8849E-02  0.1548E-01  0.3964E-02  0.8940E-01  0.2396E-01  0.1533E+00  0.2905E-01  0.9774E-01  0.4365E-01  0.1533E+00  0.2905E-01  0.8940E-01  0.2396E-01
      6.452  0.2310E-01  0.1035E+00  0.2150E-01  0.2286E-01  0.1477E-01  0.1211E-01  0.2150E-01  0.2286E-01  0.1269E+00  0.6456E-01  0.1256E+00  0.5732E-01  0.1944E+00  0.3353E-01  0.1256E+00  0.5732E-01  0.1269E+00  0.6456E-01
      6.625  0.1053E-01  0.6656E-01  0.1525E-01  0.1355E-01  0.1391E-01  0.1462E-01  0.1525E-01  0.1355E-01  0.1372E+00  0.3707E-01  0.1109E+00  0.5041E-01  0.1947E+00  0.4960E-01  0.1109E+00  0.5041E-01  0.1372E+00  0.3707E-01
      6.798  0.1092E-01  0.5647E-01  0.2512E-01  0.1146E-01  0.1610E-01  0.1549E-01  0.2512E-01  0.1146E-01  0.2231E+00  0.5584E-01  0.1175E+00  0.6258E-01  0.1984E+00  0.4990E-01  0.1175E+00  0.6258E-01  0.2231E+00  0.5584E-01
      6.971  0.1221E-01  0.3790E-01  0.2493E-01  0.1013E-01  0.1820E-01  0.1533E-01  0.2493E-01  0.1013E-01  0.2302E+00  0.8906E-01  0.1365E+00  0.5932E-01  0.2141E+00  0.4627E-01  0.1365E+00  0.5932E-01  0.2302E+00  0.8906E-01
      7.144  0.1112E-01  0.5231E-01  0.2197E-01  0.1944E-01  0.1749E-01  0.2134E-01  0.2197E-01  0.1944E-01  0.1978E+00  0.9031E-01  0.9749E-01  0.1111E+00  0.1523E+00  0.1175E+00  0.9749E-01  0.1111E+00  0.1978E+00  0.9031E-01
      7.317  0.4119E-02  0.1915E-01  0.7740E-02  0.1191E-01  0.1001E-01  0.1788E-01  0.7740E-02  0.1191E-01  0.1148E+00  0.7142E-01  0.5141E-01  0.1467E+00  0.1147E+00  0.6538E-01  0.5141E-01  0.1467E+00  0.1148E+00  0.7142E-01
      7.490  0.8290E-02  0.1657E-01  0.1827E-01  0.2004E-01  0.2099E-01  0.1915E-01  0.1827E-01  0.2004E-01  0.1584E+00  0.7420E-01  0.2687E+00  0.1388E+00  0.3235E+00  0.8637E-01  0.2687E+00  0.1388E+00  0.1584E+00  0.7420E-01
      7.663  0.1268E-01  0.7977E-02  0.2059E-01  0.1881E-01  0.2363E-01  0.1585E-01  0.2059E-01  0.1881E-01  0.2012E+00  0.1106E+00  0.3164E+00  0.7221E-01  0.2985E+00  0.1281E+00  0.3164E+00  0.7221E-01  0.2012E+00  0.1106E+00