    2    2  100    2
  0.1081274E+02  0.2492276E-09  0.2492276E-09  0.4020158E-09  0.5000000E-15
  1.000000000000000E-004
  CAR 
 Co-hcc                                  
     18     95     28
 
  0.0000000E+00  0.0000000E+00  0.0000000E+00  0.8680556E-03
      1          1.375162        1.371973   1.000000   1.000000
      2          5.151582        6.108704   1.000000   1.000000
      3          7.685116        9.336056   1.000000   1.000000
      4          7.690662        9.342550   1.000000   1.000000
      5          7.690662        9.342551   1.000000   1.000000
      6          8.006434        9.713229   1.000000   1.000000
      7          8.006434        9.713230   1.000000   1.000000
      8          8.352578       10.120900   1.000000   0.999981
      9          8.352578       10.120900   1.000000   0.999981
     10          9.466042       10.193129   1.000000   0.981033
     11          9.466042       11.352768   1.000000   0.000000
     12         10.257840       11.352768   0.596876   0.000000
     13         16.713424       17.734626   0.000000   0.000000
     14         32.276307       31.994985   0.000000   0.000000
     15         34.844947       35.199081   0.000000   0.000000
     16         34.844948       35.199081   0.000000   0.000000
     17         35.406060       35.249937   0.000000   0.000000
     18         35.858544       35.626202   0.000000   0.000000
     19         36.196894       36.494330   0.000000   0.000000
     20         36.196895       36.494334   0.000000   0.000000
     21         40.808074       40.743020   0.000000   0.000000
     22         40.808074       40.743022   0.000000   0.000000
     23         41.719163       41.886964   0.000000   0.000000
     24         42.216563       41.963465   0.000000   0.000000
     25         43.992857       44.186952   0.000000   0.000000
     26         43.992858       44.186953   0.000000   0.000000
     27         44.796121       45.345909   0.000000   0.000000
     28         46.313277       46.771498   0.000000   0.000000
 
  0.8333333E-01  0.6938894E-17  0.0000000E+00  0.5208333E-02
      1          1.618487        1.616214   1.000000   1.000000
      2          5.296086        6.273649   1.000000   1.000000
      3          7.458797        9.064381   1.000000   1.000000
      4          7.803933        9.467325   1.000000   1.000000
      5          7.878482        9.489668   1.000000   1.000000
      6          7.961620        9.555874   1.000000   1.000000
      7          8.106259        9.652047   1.000000   1.000000
      8          8.204323        9.823127   1.000000   1.000000
      9          8.281577       10.037876   1.000000   1.000000
     10          8.710885       10.066620   1.000000   1.000000
     11          9.496431       11.388909   1.000000   0.000000
     12         11.327323       12.261197   0.000000   0.000000
     13         16.756102       17.754102   0.000000   0.000000
     14         30.417019       30.509748   0.000000   0.000000
     15         32.723249       32.819677   0.000000   0.000000
     16         32.760512       33.053686   0.000000   0.000000
     17         35.869030       35.650680   0.000000   0.000000
     18         36.276808       36.217717   0.000000   0.000000
     19         37.668131       37.543819   0.000000   0.000000
     20         38.547685       38.844784   0.000000   0.000000
     21         39.314526       39.550509   0.000000   0.000000
     22         40.287850       40.300436   0.000000   0.000000
     23         41.289093       41.562256   0.000000   0.000000
     24         41.498806       41.797674   0.000000   0.000000
     25         43.824888       44.383929   0.000000   0.000000
     26         43.864079       44.397759   0.000000   0.000000
     27         44.946477       45.070241   0.000000   0.000000
     28         45.458006       45.324395   0.000000   0.000000
 
  0.1666667E+00  0.1387779E-16  0.0000000E+00  0.5208333E-02
      1          2.322217        2.327153   1.000000   1.000000
      2          5.652317        6.696217   1.000000   1.000000
      3          7.184798        8.616989   1.000000   1.000000
      4          7.506717        8.710227   1.000000   1.000000
      5          7.791638        9.430547   1.000000   1.000000
      6          8.106464        9.821459   1.000000   1.000000
      7          8.123668        9.834509   1.000000   1.000000
      8          8.183673        9.888061   1.000000   1.000000
      9          8.326095        9.907431   1.000000   1.000000
     10          8.386361       10.132309   1.000000   0.999926
     11          9.561395       11.465269   1.000000   0.000000
     12         12.918335       13.757496   0.000000   0.000000
     13         16.905271       17.830657   0.000000   0.000000
     14         26.598693       26.930466   0.000000   0.000000
     15         30.327855       30.636359   0.000000   0.000000
     16         31.820916       31.903091   0.000000   0.000000
     17         33.733812       33.741592   0.000000   0.000000
     18         35.974738       35.746824   0.000000   0.000000
     19         36.750810       36.903366   0.000000   0.000000
     20         38.933667       39.224058   0.000000   0.000000
     21         39.463207       39.569802   0.000000   0.000000
     22         40.155054       40.423388   0.000000   0.000000
     23         40.675326       40.955193   0.000000   0.000000
     24         42.211216       42.755148   0.000000   0.000000
     25         42.599534       42.914229   0.000000   0.000000
     26         44.727282       44.843511   0.000000   0.000000
     27         46.492820       47.107048   0.000000   0.000000
     28         47.057357       49.133653   0.000000   0.000000
 
  0.2500000E+00 -0.1387779E-16  0.0000000E+00  0.5208333E-02
      1          3.385746        3.428043   1.000000   1.000000
      2          5.934002        7.105820   1.000000   1.000000
      3          6.781874        7.924037   1.000000   1.000000
      4          7.021772        8.402733   1.000000   1.000000
      5          7.703236        9.281736   1.000000   1.000000
      6          7.895900        9.591717   1.000000   1.000000
      7          8.126617        9.693918   1.000000   1.000000
      8          8.586340       10.329863   1.000000   0.036579
      9          8.611226       10.339856   1.000000   0.019016
     10          8.788895       10.578639   1.000000   0.000000
     11          9.622992       11.536630   1.000000   0.000000
     12         14.716851       15.469001   0.000000   0.000000
     13         17.192193       17.989638   0.000000   0.000000
     14         22.890885       23.361903   0.000000   0.000000
     15         28.249632       28.519717   0.000000   0.000000
     16         30.380831       30.513375   0.000000   0.000000
     17         30.617585       30.831140   0.000000   0.000000
     18         34.475110       34.786209   0.000000   0.000000
     19         34.954336       34.946060   0.000000   0.000000
     20         38.670146       38.971557   0.000000   0.000000
     21         38.794540       39.061594   0.000000   0.000000
     22         39.570199       39.639642   0.000000   0.000000
     23         40.729668       40.916776   0.000000   0.000000
     24         43.629729       43.934328   0.000000   0.000000
     25         45.320319       45.700169   0.000000   0.000000
     26         46.484884       48.322572   0.000000   0.000000
     27         47.227505       49.833558   0.000000   0.000000
     28         48.688270       50.195494   0.000000   0.000000
 
  0.3333333E+00 -0.2775558E-16  0.0000000E+00  0.5208333E-02
      1          4.540909        4.742142   1.000000   1.000000
      2          5.862769        7.131133   1.000000   1.000000
      3          6.252754        7.435351   1.000000   1.000000
      4          7.140641        8.297042   1.000000   1.000000
      5          7.706170        9.374057   1.000000   1.000000
      6          7.829976        9.382811   1.000000   1.000000
      7          7.952121        9.484130   1.000000   1.000000
      8          9.078830       10.901658   1.000000   0.000000
      9          9.225153       10.982905   1.000000   0.000000
     10          9.296789       11.065367   1.000000   0.000000
     11          9.665496       11.585215   1.000000   0.000000
     12         16.678566       17.334089   0.000000   0.000000
     13         17.256770       17.897303   0.000000   0.000000
     14         20.033524       20.641978   0.000000   0.000000
     15         26.601243       26.817824   0.000000   0.000000
     16         27.308737       27.575193   0.000000   0.000000
     17         28.357214       28.728860   0.000000   0.000000
     18         32.991188       33.442683   0.000000   0.000000
     19         33.820740       33.665195   0.000000   0.000000
     20         36.879097       37.236674   0.000000   0.000000
     21         38.336211       38.563646   0.000000   0.000000
     22         40.348677       40.509124   0.000000   0.000000
     23         42.515641       42.679118   0.000000   0.000000
     24         44.684754       45.009635   0.000000   0.000000
     25         46.770419       49.216012   0.000000   0.000000
     26         47.453331       50.109433   0.000000   0.000000
     27         48.862827       50.955165   0.000000   0.000000
     28         51.354906       51.699781   0.000000   0.000000
 
  0.4166667E+00  0.0000000E+00  0.0000000E+00  0.5208333E-02
      1          5.288006        5.899246   1.000000   1.000000
      2          5.676724        6.919619   1.000000   1.000000
      3          5.935282        7.147173   1.000000   1.000000
      4          7.515733        8.345200   1.000000   1.000000
      5          7.576727        9.226069   1.000000   1.000000
      6          7.829347        9.332514   1.000000   1.000000
      7          8.033358        9.608400   1.000000   1.000000
      8          9.446607       11.325543   1.000000   0.000000
      9          9.585982       11.475936   1.000000   0.000000
     10          9.688343       11.611026   1.000000   0.000000
     11         10.420580       11.929849   0.000007   0.000000
     12         15.365762       16.134856   0.000000   0.000000
     13         18.707884       19.244588   0.000000   0.000000
     14         19.960976       20.466776   0.000000   0.000000
     15         24.625824       25.038309   0.000000   0.000000
     16         25.517803       25.681341   0.000000   0.000000
     17         25.736884       26.217080   0.000000   0.000000
     18         32.493656       32.882622   0.000000   0.000000
     19         33.047565       32.942561   0.000000   0.000000
     20         35.715116       36.035924   0.000000   0.000000
     21         38.073842       38.331921   0.000000   0.000000
     22         40.835519       41.074954   0.000000   0.000000
     23         44.938298       45.104789   0.000000   0.000000
     24         45.223864       45.553539   0.000000   0.000000
     25         46.868086       50.358000   0.000000   0.000000
     26         47.566110       50.996545   0.000000   0.000000
     27         50.976975       51.263302   0.000000   0.000000
     28         52.299044       52.607699   0.000000   0.000000
 
  0.5000000E+00 -0.2775558E-16  0.0000000E+00  0.2604167E-02
      1          5.525618        6.421669   1.000000   1.000000
      2          5.550528        6.737285   1.000000   1.000000
      3          5.829834        7.052384   1.000000   1.000000
      4          7.530952        8.439561   1.000000   1.000000
      5          7.767378        9.173824   1.000000   1.000000
      6          7.785168        9.277467   1.000000   1.000000
      7          8.109844        9.697860   1.000000   1.000000
      8          9.579540       11.477738   1.000000   0.000000
      9          9.695374       11.618915   1.000000   0.000000
     10          9.731870       11.646449   1.000000   0.000000
     11         11.597510       12.846879   0.000000   0.000000
     12         13.615063       14.605292   0.000000   0.000000
     13         20.034488       20.450880   0.000000   0.000000
     14         20.684655       21.066215   0.000000   0.000000
     15         23.084168       23.626872   0.000000   0.000000
     16         24.316007       24.880074   0.000000   0.000000
     17         25.136126       25.276233   0.000000   0.000000
     18         32.372826       32.608681   0.000000   0.000000
     19         32.779100       32.826200   0.000000   0.000000
     20         35.310803       35.616462   0.000000   0.000000
     21         37.988613       38.257018   0.000000   0.000000
     22         41.017264       41.288058   0.000000   0.000000
     23         45.373315       45.637106   0.000000   0.000000
     24         46.854311       47.451767   0.000000   0.000000
     25         47.415488       48.643812   0.000000   0.000000
     26         47.576412       50.283447   0.000000   0.000000
     27         48.227215       51.027980   0.000000   0.000000
     28         53.369154       53.910533   0.000000   0.000000
 
  0.8333333E-01  0.8333333E-01  0.0000000E+00  0.5208333E-02
      1          2.092900        2.094329   1.000000   1.000000
      2          5.552326        6.571844   1.000000   1.000000
      3          7.242458        8.796881   1.000000   1.000000
      4          7.752009        8.846067   1.000000   1.000000
      5          7.856959        9.512262   1.000000   1.000000
      6          8.035367        9.721980   1.000000   1.000000
      7          8.036110        9.732372   1.000000   1.000000
      8          8.080035        9.795405   1.000000   1.000000
      9          8.327753       10.054434   1.000000   1.000000
     10          8.444652       10.063266   1.000000   1.000000
     11          9.534474       11.433432   1.000000   0.000000
     12         12.471444       13.335658   0.000000   0.000000
     13         16.853973       17.804147   0.000000   0.000000
     14         28.341694       28.559968   0.000000   0.000000
     15         29.065572       29.407468   0.000000   0.000000
     16         34.312058       34.362035   0.000000   0.000000
     17         35.254091       35.143433   0.000000   0.000000
     18         35.424565       35.315798   0.000000   0.000000
     19         35.547518       35.592271   0.000000   0.000000
     20         38.693810       38.854278   0.000000   0.000000
     21         39.578855       40.022633   0.000000   0.000000
     22         40.148803       40.626682   0.000000   0.000000
     23         42.280530       42.393540   0.000000   0.000000
     24         42.728881       42.872059   0.000000   0.000000
     25         42.967525       43.230412   0.000000   0.000000
     26         43.340468       43.759739   0.000000   0.000000
     27         44.126720       44.214738   0.000000   0.000000
     28         46.736337       49.392655   0.000000   0.000000
 
  0.1666667E+00  0.8333333E-01  0.0000000E+00  0.1041667E-01
      1          2.985327        3.005033   1.000000   1.000000
      2          5.916051        7.024478   1.000000   1.000000
      3          6.971586        8.169208   1.000000   1.000000
      4          7.049601        8.434779   1.000000   1.000000
      5          7.740132        9.342595   1.000000   1.000000
      6          7.857900        9.524093   1.000000   1.000000
      7          8.288512        9.914552   1.000000   1.000000
      8          8.289606       10.010580   1.000000   1.000000
      9          8.456903       10.185984   1.000000   0.988626
     10          8.742587       10.504671   1.000000   0.000000
     11          9.581500       11.488076   1.000000   0.000000
     12         14.067434       14.855060   0.000000   0.000000
     13         17.093330       17.943926   0.000000   0.000000
     14         24.785842       25.177675   0.000000   0.000000
     15         27.003392       27.335715   0.000000   0.000000
     16         32.079063       32.110068   0.000000   0.000000
     17         33.064568       33.220255   0.000000   0.000000
     18         34.135154       34.148082   0.000000   0.000000
     19         35.707544       35.881708   0.000000   0.000000
     20         37.072749       37.526821   0.000000   0.000000
     21         38.913370       38.940892   0.000000   0.000000
     22         40.783880       41.240767   0.000000   0.000000
     23         42.308149       42.479282   0.000000   0.000000
     24         42.771390       42.976519   0.000000   0.000000
     25         44.616016       44.931715   0.000000   0.000000
     26         46.357152       46.421968   0.000000   0.000000
     27         46.530707       46.647389   0.000000   0.000000
     28         46.849422       50.136571   0.000000   0.000000
 
  0.2500000E+00  0.8333333E-01  0.0000000E+00  0.1041667E-01
      1          4.132740        4.232121   1.000000   1.000000
      2          6.030493        7.270005   1.000000   1.000000
      3          6.470213        7.637331   1.000000   1.000000
      4          6.906228        8.202006   1.000000   1.000000
      5          7.671296        9.297674   1.000000   1.000000
      6          7.756093        9.312538   1.000000   1.000000
      7          8.094893        9.690247   1.000000   1.000000
      8          8.688798       10.438516   1.000000   0.000001
      9          8.956348       10.747666   1.000000   0.000000
     10          9.308043       11.074993   1.000000   0.000000
     11          9.621199       11.533795   1.000000   0.000000
     12         15.909315       16.611888   0.000000   0.000000
     13         17.452976       18.152563   0.000000   0.000000
     14         21.334630       21.863664   0.000000   0.000000
     15         25.462301       25.782428   0.000000   0.000000
     16         28.916442       29.099633   0.000000   0.000000
     17         30.359545       30.676813   0.000000   0.000000
     18         32.873681       32.890783   0.000000   0.000000
     19         35.004425       35.337189   0.000000   0.000000
     20         35.444512       35.810914   0.000000   0.000000
     21         39.563351       39.574073   0.000000   0.000000
     22         42.180660       42.369315   0.000000   0.000000
     23         42.435631       42.638072   0.000000   0.000000
     24         43.446569       43.751307   0.000000   0.000000
     25         45.902506       46.709914   0.000000   0.000000
     26         47.185296       49.572417   0.000000   0.000000
     27         47.623973       50.502268   0.000000   0.000000
     28         49.543618       50.678630   0.000000   0.000000
 
  0.3333333E+00  0.8333333E-01  0.0000000E+00  0.1041667E-01
      1          5.132297        5.514550   1.000000   1.000000
      2          5.855320        7.124908   1.000000   1.000000
      3          6.076422        7.283574   1.000000   1.000000
      4          7.148273        8.187994   1.000000   1.000000
      5          7.550197        9.158008   1.000000   1.000000
      6          7.904192        9.454563   1.000000   1.000000
      7          7.950085        9.515948   1.000000   1.000000
      8          9.187323       10.988327   1.000000   0.000000
      9          9.382534       11.233704   1.000000   0.000000
     10          9.645968       11.561938   1.000000   0.000000
     11         10.116224       11.770541   0.999989   0.000000
     12         16.725359       17.375678   0.000000   0.000000
     13         17.912130       18.513921   0.000000   0.000000
     14         19.726128       20.302594   0.000000   0.000000
     15         24.267013       24.555350   0.000000   0.000000
     16         26.033366       26.362981   0.000000   0.000000
     17         27.387080       27.797018   0.000000   0.000000
     18         31.956312       31.953205   0.000000   0.000000
     19         34.329855       34.656258   0.000000   0.000000
     20         34.414021       34.793039   0.000000   0.000000
     21         39.611940       39.687713   0.000000   0.000000
     22         42.514650       42.725879   0.000000   0.000000
     23         44.070951       44.250285   0.000000   0.000000
     24         45.019748       45.346777   0.000000   0.000000
     25         46.695260       48.759507   0.000000   0.000000
     26         47.467800       50.582059   0.000000   0.000000
     27         48.889625       50.974524   0.000000   0.000000
     28         52.664109       52.784801   0.000000   0.000000
 
  0.4166667E+00  0.8333333E-01  0.0000000E+00  0.1041667E-01
      1          5.565348        6.391094   1.000000   1.000000
      2          5.697549        6.903267   1.000000   1.000000
      3          5.879055        7.108896   1.000000   1.000000
      4          7.501478        8.289439   1.000000   1.000000
      5          7.522603        9.120296   1.000000   1.000000
      6          7.778223        9.280778   1.000000   1.000000
      7          8.105608        9.696928   1.000000   1.000000
      8          9.542133       11.421282   1.000000   0.000000
      9          9.612891       11.499910   1.000000   0.000000
     10          9.656929       11.574224   1.000000   0.000000
     11         11.417680       12.729791   0.000000   0.000000
     12         14.387942       15.284891   0.000000   0.000000
     13         19.832394       20.303692   0.000000   0.000000
     14         20.585699       21.006521   0.000000   0.000000
     15         23.476052       23.775244   0.000000   0.000000
     16         23.678480       24.162261   0.000000   0.000000
     17         25.139445       25.595672   0.000000   0.000000
     18         31.479027       31.461274   0.000000   0.000000
     19         33.740984       34.058533   0.000000   0.000000
     20         34.115160       34.499149   0.000000   0.000000
     21         39.502812       39.614988   0.000000   0.000000
     22         42.729750       42.987986   0.000000   0.000000
     23         45.396402       45.685045   0.000000   0.000000
     24         46.529453       46.672568   0.000000   0.000000
     25         46.834974       49.968124   0.000000   0.000000
     26         47.537971       50.297539   0.000000   0.000000
     27         49.653398       50.966661   0.000000   0.000000
     28         51.608332       51.879934   0.000000   0.000000
 
  0.1666667E+00  0.1666667E+00  0.0000000E+00  0.5208333E-02
      1          3.988501        4.055468   1.000000   1.000000
      2          6.210193        7.396768   1.000000   1.000000
      3          6.584844        7.742572   1.000000   1.000000
      4          6.679419        8.067500   1.000000   1.000000
      5          7.602128        9.219662   1.000000   1.000000
      6          7.751411        9.315250   1.000000   1.000000
      7          8.186871        9.801605   1.000000   1.000000
      8          8.456101       10.202522   1.000000   0.964843
      9          8.945359       10.724064   1.000000   0.000000
     10          9.328830       11.087965   1.000000   0.000000
     11          9.583240       11.489720   1.000000   0.000000
     12         15.648956       16.371914   0.000000   0.000000
     13         17.492431       18.221546   0.000000   0.000000
     14         23.047344       23.470656   0.000000   0.000000
     15         23.509181       23.934825   0.000000   0.000000
     16         30.447864       30.447129   0.000000   0.000000
     17         31.278808       31.533734   0.000000   0.000000
     18         32.387172       32.702149   0.000000   0.000000
     19         33.155826       33.446913   0.000000   0.000000
     20         37.863656       38.124652   0.000000   0.000000
     21         39.950613       39.894804   0.000000   0.000000
     22         40.446741       40.898866   0.000000   0.000000
     23         43.935472       44.175924   0.000000   0.000000
     24         45.185056       45.342373   0.000000   0.000000
     25         45.554788       45.628330   0.000000   0.000000
     26         46.649810       46.924610   0.000000   0.000000
     27         46.723484       48.752288   0.000000   0.000000
     28         47.320502       50.762759   0.000000   0.000000
 
  0.2500000E+00  0.1666667E+00  0.0000000E+00  0.1041667E-01
      1          5.081726        5.307727   1.000000   1.000000
      2          6.191965        7.424560   1.000000   1.000000
      3          6.217339        7.460672   1.000000   1.000000
      4          6.658961        7.888727   1.000000   1.000000
      5          7.448293        9.024777   1.000000   1.000000
      6          7.897249        9.456135   1.000000   1.000000
      7          7.996916        9.574657   1.000000   1.000000
      8          8.761871       10.539042   1.000000   0.000000
      9          9.384981       11.225667   1.000000   0.000000
     10          9.581048       11.487062   1.000000   0.000000
     11         10.136117       11.811310   0.999887   0.000000
     12         17.512283       18.156840   0.000000   0.000000
     13         17.870372       18.459481   0.000000   0.000000
     14         20.218111       20.767875   0.000000   0.000000
     15         22.097467       22.510484   0.000000   0.000000
     16         27.795029       28.013455   0.000000   0.000000
     17         29.354036       29.734370   0.000000   0.000000
     18         29.886545       30.067159   0.000000   0.000000
     19         31.861412       32.203220   0.000000   0.000000
     20         38.016274       38.302376   0.000000   0.000000
     21         41.308535       41.227050   0.000000   0.000000
     22         42.764135       43.114046   0.000000   0.000000
     23         44.557524       44.765576   0.000000   0.000000
     24         45.147711       45.306921   0.000000   0.000000
     25         46.534305       47.821336   0.000000   0.000000
     26         47.219613       48.758261   0.000000   0.000000
     27         48.271711       50.514776   0.000000   0.000000
     28         48.699875       50.766421   0.000000   0.000000
 
  0.3333333E+00  0.1666667E+00  0.0000000E+00  0.1041667E-01
      1          5.757138        6.393663   1.000000   1.000000
      2          5.989451        7.236067   1.000000   1.000000
      3          5.992480        7.239758   1.000000   1.000000
      4          6.980886        7.959531   1.000000   1.000000
      5          7.406165        8.968210   1.000000   1.000000
      6          7.791146        9.320784   1.000000   1.000000
      7          8.099283        9.691880   1.000000   1.000000
      8          9.165255       10.983332   1.000000   0.000000
      9          9.578276       11.483593   1.000000   0.000000
     10          9.603387       11.484663   1.000000   0.000000
     11         11.329504       12.736225   0.000000   0.000000
     12         16.060669       16.777123   0.000000   0.000000
     13         19.534972       20.081098   0.000000   0.000000
     14         20.163211       20.648242   0.000000   0.000000
     15         21.336782       21.721654   0.000000   0.000000
     16         25.115386       25.498119   0.000000   0.000000
     17         26.469043       26.903863   0.000000   0.000000
     18         29.229709       29.378762   0.000000   0.000000
     19         31.107733       31.449800   0.000000   0.000000
     20         37.676502       37.986121   0.000000   0.000000
     21         42.106363       42.043641   0.000000   0.000000
     22         44.794521       45.008158   0.000000   0.000000
     23         46.048702       46.372900   0.000000   0.000000
     24         46.222590       46.377168   0.000000   0.000000
     25         46.575834       48.014713   0.000000   0.000000
     26         47.399362       50.516403   0.000000   0.000000
     27         48.267366       50.872685   0.000000   0.000000
     28         51.606106       51.695526   0.000000   0.000000
 
  0.4166667E+00  0.1666667E+00  0.0000000E+00  0.5208333E-02
      1          5.895147        6.835778   1.000000   1.000000
      2          5.912877        7.106719   1.000000   1.000000
      3          5.920856        7.174388   1.000000   1.000000
      4          7.205066        8.040407   1.000000   1.000000
      5          7.422879        9.003583   1.000000   1.000000
      6          7.684291        9.171585   1.000000   1.000000
      7          8.185332        9.796871   1.000000   1.000000
      8          9.437445       11.292825   1.000000   0.000000
      9          9.577004       11.467967   1.000000   0.000000
     10          9.582700       11.481981   1.000000   0.000000
     11         12.618820       13.671270   0.000000   0.000000
     12         14.188479       15.171637   0.000000   0.000000
     13         20.660495       21.059432   0.000000   0.000000
     14         20.974567       21.413506   0.000000   0.000000
     15         21.376174       21.750725   0.000000   0.000000
     16         23.453973       23.961752   0.000000   0.000000
     17         24.982755       25.467115   0.000000   0.000000
     18         29.014198       29.156458   0.000000   0.000000
     19         30.840717       31.178857   0.000000   0.000000
     20         37.542677       37.857978   0.000000   0.000000
     21         42.259805       42.218407   0.000000   0.000000
     22         45.565688       45.814006   0.000000   0.000000
     23         45.711711       45.990136   0.000000   0.000000
     24         46.860564       47.898334   0.000000   0.000000
     25         47.477941       50.017923   0.000000   0.000000
     26         47.877524       50.324661   0.000000   0.000000
     27         49.592594       50.876603   0.000000   0.000000
     28         50.832705       51.003670   0.000000   0.000000
 
  0.2500000E+00  0.2500000E+00  0.0000000E+00  0.5208333E-02
      1          5.894360        6.410870   1.000000   1.000000