PROCAR lm decomposed
# of k-points:   95         # of bands:   28         # of ions:    2

 k-point     1 :    0.00000000 0.00000000 0.00000000     weight = 0.00086806

band     1 # energy    1.37516221 # occ.  1.00000000
 
ion      s     py     pz     px    dxy    dyz    dz2    dxz  x2-y2    tot
    1  0.364  0.000  0.000  0.000  0.000  0.000  0.000  0.000  0.000  0.364
    2  0.364  0.000  0.000  0.000  0.000  0.000  0.000  0.000  0.000  0.364
tot    0.727  0.000  0.000  0.000  0.000  0.000  0.000  0.000  0.000  0.727
 
band     2 # energy    5.15158227 # occ.  1.00000000
 
ion      s     py     pz     px    dxy    dyz    dz2    dxz  x2-y2    tot
    1  0.079  0.000  0.000  0.000  0.000  0.000  0.367  0.000  0.000  0.447
    2  0.079  0.000  0.000  0.000  0.000  0.000  0.367  0.000  0.000  0.447
tot    0.159  0.000  0.000  0.000  0.000  0.000  0.735  0.000  0.000  0.894
 
band     3 # energy    7.68511634 # occ.  1.00000000
 
ion      s     py     pz     px    dxy    dyz    dz2    dxz  x2-y2    tot
    1  0.000  0.000  0.000  0.000  0.000  0.000  0.486  0.000  0.000  0.486
    2  0.000  0.000  0.000  0.000  0.000  0.000  0.486  0.000  0.000  0.486
tot    0.000  0.000  0.000  0.000  0.000  0.000  0.972  0.000  0.000  0.972
 
band     4 # energy    7.69066195 # occ.  1.00000000
 
ion      s     py     pz     px    dxy    dyz    dz2    dxz  x2-y2    tot
    1  0.000  0.000  0.000  0.001  0.482  0.000  0.000  0.000  0.000  0.483
    2  0.000  0.000  0.000  0.001  0.482  0.000  0.000  0.000  0.000  0.483
tot    0.000  0.000  0.000  0.001  0.965  0.000  0.000  0.000  0.000  0.966
 
band     5 # energy    7.69066204 # occ.  1.00000000
 
ion      s     py     pz     px    dxy    dyz    dz2    dxz  x2-y2    tot
    1  0.000  0.001  0.000  0.000  0.000  0.000  0.000  0.000  0.482  0.483
    2  0.000  0.001  0.000  0.000  0.000  0.000  0.000  0.000  0.482  0.483
tot    0.000  0.001  0.000  0.000  0.000  0.000  0.000  0.000  0.965  0.966
 
band     6 # energy    8.00643422 # occ.  1.00000000
 
ion      s     py     pz     px    dxy    dyz    dz2    dxz  x2-y2    tot
    1  0.000  0.000  0.000  0.001  0.487  0.000  0.000  0.000  0.000  0.487
    2  0.000  0.000  0.000  0.001  0.487  0.000  0.000  0.000  0.000  0.487
tot    0.000  0.000  0.000  0.001  0.973  0.000  0.000  0.000  0.000  0.975
 
band     7 # energy    8.00643428 # occ.  1.00000000
 
ion      s     py     pz     px    dxy    dyz    dz2    dxz  x2-y2    tot
    1  0.000  0.001  0.000  0.000  0.000  0.000  0.000  0.000  0.487  0.487
    2  0.000  0.001  0.000  0.000  0.000  0.000  0.000  0.000  0.487  0.487
tot    0.000  0.001  0.000  0.000  0.000  0.000  0.000  0.000  0.973  0.975
 
band     8 # energy    8.35257811 # occ.  1.00000000
 
ion      s     py     pz     px    dxy    dyz    dz2    dxz  x2-y2    tot
    1  0.000  0.000  0.000  0.000  0.000  0.000  0.000  0.490  0.000  0.490
    2  0.000  0.000  0.000  0.000  0.000  0.000  0.000  0.490  0.000  0.490
tot    0.000  0.000  0.000  0.000  0.000  0.000  0.000  0.979  0.000  0.979
 
band     9 # energy    8.35257815 # occ.  1.00000000
 
ion      s     py     pz     px    dxy    dyz    dz2    dxz  x2-y2    tot
    1  0.000  0.000  0.000  0.000  0.000  0.490  0.000  0.000  0.000  0.490
    2  0.000  0.000  0.000  0.000  0.000  0.490  0.000  0.000  0.000  0.490
tot    0.000  0.000  0.000  0.000  0.000  0.979  0.000  0.000  0.000  0.979
 
band    10 # energy    9.46604171 # occ.  1.00000000
 
ion      s     py     pz     px    dxy    dyz    dz2    dxz  x2-y2    tot
    1  0.000  0.000  0.000  0.000  0.000  0.000  0.000  0.492  0.000  0.492
    2  0.000  0.000  0.000  0.000  0.000  0.000  0.000  0.492  0.000  0.492
tot    0.000  0.000  0.000  0.000  0.000  0.000  0.000  0.985  0.000  0.985
 
band    11 # energy    9.46604180 # occ.  1.00000000
 
ion      s     py     pz     px    dxy    dyz    dz2    dxz  x2-y2    tot
    1  0.000  0.000  0.000  0.000  0.000  0.492  0.000  0.000  0.000  0.492
    2  0.000  0.000  0.000  0.000  0.000  0.492  0.000  0.000  0.000  0.492
tot    0.000  0.000  0.000  0.000  0.000  0.985  0.000  0.000  0.000  0.985
 
band    12 # energy   10.25783971 # occ.  0.59687552
 
ion      s     py     pz     px    dxy    dyz    dz2    dxz  x2-y2    tot
    1  0.000  0.000  0.347  0.000  0.000  0.000  0.000  0.000  0.000  0.347
    2  0.000  0.000  0.347  0.000  0.000  0.000  0.000  0.000  0.000  0.347
tot    0.000  0.000  0.693  0.000  0.000  0.000  0.000  0.000  0.000  0.693
 
band    13 # energy   16.71342424 # occ.  0.00000000
 
ion      s     py     pz     px    dxy    dyz    dz2    dxz  x2-y2    tot
    1  0.225  0.000  0.000  0.000  0.000  0.000  0.229  0.000  0.000  0.453
    2  0.225  0.000  0.000  0.000  0.000  0.000  0.229  0.000  0.000  0.453
tot    0.449  0.000  0.000  0.000  0.000  0.000  0.458  0.000  0.000  0.907
 
band    14 # energy   32.27630716 # occ.  0.00000000
 
ion      s     py     pz     px    dxy    dyz    dz2    dxz  x2-y2    tot
    1  0.007  0.000  0.000  0.000  0.000  0.000  0.033  0.000  0.000  0.040
    2  0.007  0.000  0.000  0.000  0.000  0.000  0.033  0.000  0.000  0.040
tot    0.013  0.000  0.000  0.000  0.000  0.000  0.066  0.000  0.000  0.079
 
band    15 # energy   34.84494655 # occ.  0.00000000
 
ion      s     py     pz     px    dxy    dyz    dz2    dxz  x2-y2    tot
    1  0.000  0.271  0.000  0.000  0.000  0.000  0.000  0.000  0.120  0.391
    2  0.000  0.271  0.000  0.000  0.000  0.000  0.000  0.000  0.120  0.391
tot    0.000  0.542  0.000  0.000  0.000  0.000  0.000  0.000  0.241  0.782
 
band    16 # energy   34.84494780 # occ.  0.00000000
 
ion      s     py     pz     px    dxy    dyz    dz2    dxz  x2-y2    tot
    1  0.000  0.000  0.000  0.271  0.120  0.000  0.000  0.000  0.000  0.391
    2  0.000  0.000  0.000  0.271  0.120  0.000  0.000  0.000  0.000  0.391
tot    0.000  0.000  0.000  0.542  0.241  0.000  0.000  0.000  0.000  0.782
 
band    17 # energy   35.40605983 # occ.  0.00000000
 
ion      s     py     pz     px    dxy    dyz    dz2    dxz  x2-y2    tot
    1  0.023  0.000  0.000  0.000  0.000  0.000  0.075  0.000  0.000  0.098
    2  0.023  0.000  0.000  0.000  0.000  0.000  0.075  0.000  0.000  0.098
tot    0.046  0.000  0.000  0.000  0.000  0.000  0.150  0.000  0.000  0.196
 
band    18 # energy   35.85854430 # occ.  0.00000000
 
ion      s     py     pz     px    dxy    dyz    dz2    dxz  x2-y2    tot
    1  0.000  0.000  0.028  0.000  0.000  0.000  0.000  0.000  0.000  0.028
    2  0.000  0.000  0.028  0.000  0.000  0.000  0.000  0.000  0.000  0.028
tot    0.000  0.000  0.056  0.000  0.000  0.000  0.000  0.000  0.000  0.056
 
band    19 # energy   36.19689421 # occ.  0.00000000
 
ion      s     py     pz     px    dxy    dyz    dz2    dxz  x2-y2    tot
    1  0.000  0.088  0.000  0.000  0.000  0.000  0.000  0.000  0.380  0.468
    2  0.000  0.088  0.000  0.000  0.000  0.000  0.000  0.000  0.380  0.468
tot    0.000  0.176  0.000  0.000  0.000  0.000  0.000  0.000  0.760  0.936
 
band    20 # energy   36.19689464 # occ.  0.00000000
 
ion      s     py     pz     px    dxy    dyz    dz2    dxz  x2-y2    tot
    1  0.000  0.000  0.000  0.088  0.380  0.000  0.000  0.000  0.000  0.468
    2  0.000  0.000  0.000  0.088  0.380  0.000  0.000  0.000  0.000  0.468
tot    0.000  0.000  0.000  0.176  0.760  0.000  0.000  0.000  0.000  0.936
 
band    21 # energy   40.80807440 # occ.  0.00000000
 
ion      s     py     pz     px    dxy    dyz    dz2    dxz  x2-y2    tot
    1  0.000  0.000  0.000  0.000  0.000  0.136  0.000  0.000  0.000  0.136
    2  0.000  0.000  0.000  0.000  0.000  0.136  0.000  0.000  0.000  0.136
tot    0.000  0.000  0.000  0.000  0.000  0.271  0.000  0.000  0.000  0.271
 
band    22 # energy   40.80807448 # occ.  0.00000000
 
ion      s     py     pz     px    dxy    dyz    dz2    dxz  x2-y2    tot
    1  0.000  0.000  0.000  0.000  0.000  0.000  0.000  0.136  0.000  0.136
    2  0.000  0.000  0.000  0.000  0.000  0.000  0.000  0.136  0.000  0.136
tot    0.000  0.000  0.000  0.000  0.000  0.000  0.000  0.271  0.000  0.271
 
band    23 # energy   41.71916282 # occ.  0.00000000
 
ion      s     py     pz     px    dxy    dyz    dz2    dxz  x2-y2    tot
    1  0.004  0.000  0.000  0.000  0.000  0.000  0.617  0.000  0.000  0.621
    2  0.004  0.000  0.000  0.000  0.000  0.000  0.617  0.000  0.000  0.621
tot    0.008  0.000  0.000  0.000  0.000  0.000  1.235  0.000  0.000  1.243
 
band    24 # energy   42.21656338 # occ.  0.00000000
 
ion      s     py     pz     px    dxy    dyz    dz2    dxz  x2-y2    tot
    1  0.000  0.000  0.048  0.000  0.000  0.000  0.000  0.000  0.000  0.048
    2  0.000  0.000  0.048  0.000  0.000  0.000  0.000  0.000  0.000  0.048
tot    0.000  0.000  0.097  0.000  0.000  0.000  0.000  0.000  0.000  0.097
 
band    25 # energy   43.99285727 # occ.  0.00000000
 
ion      s     py     pz     px    dxy    dyz    dz2    dxz  x2-y2    tot
    1  0.000  0.000  0.000  0.000  0.000  0.518  0.000  0.000  0.000  0.518
    2  0.000  0.000  0.000  0.000  0.000  0.518  0.000  0.000  0.000  0.518
tot    0.000  0.000  0.000  0.000  0.000  1.035  0.000  0.000  0.000  1.035
 
band    26 # energy   43.99285757 # occ.  0.00000000
 
ion      s     py     pz     px    dxy    dyz    dz2    dxz  x2-y2    tot
    1  0.000  0.000  0.000  0.000  0.000  0.000  0.000  0.518  0.000  0.518
    2  0.000  0.000  0.000  0.000  0.000  0.000  0.000  0.518  0.000  0.518
tot    0.000  0.000  0.000  0.000  0.000  0.000  0.000  1.035  0.000  1.035
 
band    27 # energy   44.79612056 # occ.  0.00000000
 
ion      s     py     pz     px    dxy    dyz    dz2    dxz  x2-y2    tot
    1  0.000  0.000  0.356  0.000  0.000  0.000  0.000  0.000  0.000  0.356
    2  0.000  0.000  0.356  0.000  0.000  0.000  0.000  0.000  0.000  0.356
tot    0.000  0.000  0.713  0.000  0.000  0.000  0.000  0.000  0.000  0.713
 
band    28 # energy   46.31327744 # occ.  0.00000000
 
ion      s     py     pz     px    dxy    dyz    dz2    dxz  x2-y2    tot
    1  0.000  0.089  0.000  0.019  0.097  0.000  0.000  0.000  0.463  0.667
    2  0.000  0.089  0.000  0.019  0.097  0.000  0.000  0.000  0.463  0.667
tot    0.000  0.178  0.000  0.037  0.193  0.000  0.000  0.000  0.925  1.333
 

 k-point     2 :    0.08333333 0.00000000 0.00000000     weight = 0.00520833

band     1 # energy    1.61848665 # occ.  1.00000000
 
ion      s     py     pz     px    dxy    dyz    dz2    dxz  x2-y2    tot
    1  0.355  0.002  0.000  0.006  0.000  0.000  0.000  0.000  0.000  0.364
    2  0.355  0.002  0.000  0.006  0.000  0.000  0.000  0.000  0.000  0.364
tot    0.711  0.004  0.000  0.012  0.000  0.000  0.000  0.000  0.000  0.728
 
band     2 # energy    5.29608606 # occ.  1.00000000
 
ion      s     py     pz     px    dxy    dyz    dz2    dxz  x2-y2    tot
    1  0.072  0.001  0.000  0.004  0.002  0.000  0.368  0.000  0.001  0.448
    2  0.072  0.001  0.000  0.004  0.002  0.000  0.368  0.000  0.001  0.448
tot    0.144  0.003  0.000  0.008  0.004  0.000  0.736  0.000  0.001  0.896
 
band     3 # energy    7.45879663 # occ.  1.00000000
 
ion      s     py     pz     px    dxy    dyz    dz2    dxz  x2-y2    tot
    1  0.000  0.000  0.000  0.001  0.238  0.000  0.162  0.000  0.079  0.481
    2  0.000  0.000  0.000  0.001  0.238  0.000  0.162  0.000  0.079  0.481
tot    0.000  0.001  0.000  0.002  0.477  0.000  0.323  0.000  0.159  0.962
 
band     4 # energy    7.80393325 # occ.  1.00000000
 
ion      s     py     pz     px    dxy    dyz    dz2    dxz  x2-y2    tot
    1  0.000  0.001  0.000  0.000  0.120  0.000  0.000  0.000  0.361  0.483
    2  0.000  0.001  0.000  0.000  0.120  0.000  0.000  0.000  0.361  0.483
tot    0.000  0.002  0.000  0.001  0.241  0.000  0.000  0.000  0.723  0.966
 
band     5 # energy    7.87848177 # occ.  1.00000000
 
ion      s     py     pz     px    dxy    dyz    dz2    dxz  x2-y2    tot
    1  0.000  0.000  0.000  0.000  0.152  0.000  0.283  0.000  0.051  0.486
    2  0.000  0.000  0.000  0.000  0.152  0.000  0.283  0.000  0.051  0.486
tot    0.000  0.000  0.000  0.001  0.304  0.000  0.565  0.000  0.101  0.972
 
band     6 # energy    7.96162022 # occ.  1.00000000
 
ion      s     py     pz     px    dxy    dyz    dz2    dxz  x2-y2    tot
    1  0.001  0.000  0.000  0.001  0.331  0.000  0.044  0.000  0.110  0.486
    2  0.001  0.000  0.000  0.001  0.331  0.000  0.044  0.000  0.110  0.486
tot    0.002  0.000  0.000  0.001  0.661  0.000  0.087  0.000  0.220  0.972
 
band     7 # energy    8.10625887 # occ.  1.00000000
 
ion      s     py     pz     px    dxy    dyz    dz2    dxz  x2-y2    tot
    1  0.000  0.001  0.000  0.000  0.122  0.000  0.000  0.000  0.365  0.488
    2  0.000  0.001  0.000  0.000  0.122  0.000  0.000  0.000  0.365  0.488
tot    0.000  0.002  0.000  0.001  0.243  0.000  0.000  0.000  0.730  0.975
 
band     8 # energy    8.20432252 # occ.  1.00000000
 
ion      s     py     pz     px    dxy    dyz    dz2    dxz  x2-y2    tot
    1  0.000  0.000  0.011  0.000  0.000  0.118  0.000  0.353  0.000  0.482
    2  0.000  0.000  0.011  0.000  0.000  0.118  0.000  0.353  0.000  0.482
tot    0.000  0.000  0.022  0.000  0.000  0.235  0.000  0.706  0.000  0.964
 
band     9 # energy    8.28157703 # occ.  1.00000000
 
ion      s     py     pz     px    dxy    dyz    dz2    dxz  x2-y2    tot
    1  0.000  0.000  0.000  0.000  0.000  0.367  0.000  0.122  0.000  0.489
    2  0.000  0.000  0.000  0.000  0.000  0.367  0.000  0.122  0.000  0.489
tot    0.000  0.000  0.000  0.000  0.000  0.733  0.000  0.244  0.000  0.978
 
band    10 # energy    8.71088474 # occ.  1.00000000
 
ion      s     py     pz     px    dxy    dyz    dz2    dxz  x2-y2    tot
    1  0.000  0.000  0.087  0.000  0.000  0.091  0.000  0.273  0.000  0.451
    2  0.000  0.000  0.087  0.000  0.000  0.091  0.000  0.273  0.000  0.451
tot    0.000  0.000  0.174  0.000  0.000  0.182  0.000  0.546  0.000  0.902
 
band    11 # energy    9.49643119 # occ.  1.00000000
 
ion      s     py     pz     px    dxy    dyz    dz2    dxz  x2-y2    tot
    1  0.000  0.000  0.000  0.000  0.000  0.370  0.000  0.123  0.000  0.493
    2  0.000  0.000  0.000  0.000  0.000  0.370  0.000  0.123  0.000  0.493
tot    0.000  0.000  0.000  0.000  0.000  0.740  0.000  0.247  0.000  0.986
 
band    12 # energy   11.32732295 # occ.  0.00000000
 
ion      s     py     pz     px    dxy    dyz    dz2    dxz  x2-y2    tot
    1  0.000  0.000  0.245  0.000  0.000  0.038  0.000  0.113  0.000  0.396
    2  0.000  0.000  0.245  0.000  0.000  0.038  0.000  0.113  0.000  0.396
tot    0.000  0.000  0.490  0.000  0.000  0.076  0.000  0.227  0.000  0.792
 
band    13 # energy   16.75610196 # occ.  0.00000000
 
ion      s     py     pz     px    dxy    dyz    dz2    dxz  x2-y2    tot
    1  0.221  0.002  0.000  0.005  0.000  0.000  0.223  0.000  0.000  0.451
    2  0.221  0.002  0.000  0.005  0.000  0.000  0.223  0.000  0.000  0.451
tot    0.442  0.004  0.000  0.011  0.000  0.000  0.446  0.000  0.000  0.902
 
band    14 # energy   30.41701930 # occ.  0.00000000
 
ion      s     py     pz     px    dxy    dyz    dz2    dxz  x2-y2    tot
    1  0.014  0.024  0.000  0.072  0.111  0.000  0.024  0.000  0.037  0.281
    2  0.014  0.024  0.000  0.072  0.111  0.000  0.024  0.000  0.037  0.281
tot    0.028  0.048  0.000  0.144  0.221  0.000  0.048  0.000  0.074  0.563
 
band    15 # energy   32.72324939 # occ.  0.00000000
 
ion      s     py     pz     px    dxy    dyz    dz2    dxz  x2-y2    tot
    1  0.000  0.176  0.000  0.059  0.042  0.000  0.000  0.000  0.125  0.401
    2  0.000  0.176  0.000  0.059  0.042  0.000  0.000  0.000  0.125  0.401
tot    0.000  0.351  0.000  0.117  0.084  0.000  0.000  0.000  0.251  0.802
 
band    16 # energy   32.76051202 # occ.  0.00000000
 
ion      s     py     pz     px    dxy    dyz    dz2    dxz  x2-y2    tot
    1  0.022  0.022  0.000  0.066  0.063  0.000  0.040  0.000  0.021  0.234
    2  0.022  0.022  0.000  0.066  0.063  0.000  0.040  0.000  0.021  0.234
tot    0.044  0.044  0.000  0.131  0.127  0.000  0.080  0.000  0.042  0.468
 
band    17 # energy   35.86902982 # occ.  0.00000000
 
ion      s     py     pz     px    dxy    dyz    dz2    dxz  x2-y2    tot
    1  0.000  0.000  0.010  0.000  0.000  0.012  0.000  0.037  0.000  0.060
    2  0.000  0.000  0.010  0.000  0.000  0.012  0.000  0.037  0.000  0.060
tot    0.000  0.000  0.021  0.000  0.000  0.025  0.000  0.074  0.000  0.119
 
band    18 # energy   36.27680806 # occ.  0.00000000
 
ion      s     py     pz     px    dxy    dyz    dz2    dxz  x2-y2    tot
    1  0.003  0.016  0.000  0.047  0.038  0.000  0.035  0.000  0.013  0.153
    2  0.003  0.016  0.000  0.047  0.038  0.000  0.035  0.000  0.013  0.153
tot    0.007  0.032  0.000  0.095  0.076  0.000  0.070  0.000  0.025  0.305
 
band    19 # energy   37.66813110 # occ.  0.00000000
 
ion      s     py     pz     px    dxy    dyz    dz2    dxz  x2-y2    tot
    1  0.000  0.000  0.031  0.000  0.000  0.028  0.000  0.085  0.000  0.144
    2  0.000  0.000  0.031  0.000  0.000  0.028  0.000  0.085  0.000  0.144
tot    0.000  0.000  0.061  0.000  0.000  0.057  0.000  0.170  0.000  0.288
 
band    20 # energy   38.54768485 # occ.  0.00000000
 
ion      s     py     pz     px    dxy    dyz    dz2    dxz  x2-y2    tot
    1  0.000  0.083  0.000  0.028  0.087  0.000  0.000  0.000  0.261  0.459
    2  0.000  0.083  0.000  0.028  0.087  0.000  0.000  0.000  0.261  0.459
tot    0.000  0.166  0.000  0.055  0.174  0.000  0.000  0.000  0.522  0.918
 
band    21 # energy   39.31452640 # occ.  0.00000000
 
ion      s     py     pz     px    dxy    dyz    dz2    dxz  x2-y2    tot
    1  0.006  0.038  0.000  0.114  0.129  0.000  0.006  0.000  0.043  0.337
    2  0.006  0.038  0.000  0.114  0.129  0.000  0.006  0.000  0.043  0.337
tot    0.012  0.076  0.000  0.229  0.258  0.000  0.012  0.000  0.086  0.673
 
band    22 # energy   40.28784958 # occ.  0.00000000
 
ion      s     py     pz     px    dxy    dyz    dz2    dxz  x2-y2    tot
    1  0.000  0.000  0.000  0.000  0.000  0.187  0.000  0.062  0.000  0.250
    2  0.000  0.000  0.000  0.000  0.000  0.187  0.000  0.062  0.000  0.250
tot    0.000  0.000  0.000  0.000  0.000  0.375  0.000  0.125  0.000  0.500
 
band    23 # energy   41.28909320 # occ.  0.00000000
 
ion      s     py     pz     px    dxy    dyz    dz2    dxz  x2-y2    tot
    1  0.001  0.008  0.000  0.023  0.051  0.000  0.488  0.000  0.017  0.588
    2  0.001  0.008  0.000  0.023  0.051  0.000  0.488  0.000  0.017  0.588
tot    0.003  0.015  0.000  0.046  0.102  0.000  0.976  0.000  0.034  1.176
 
band    24 # energy   41.49880648 # occ.  0.00000000
 
ion      s     py     pz     px    dxy    dyz    dz2    dxz  x2-y2    tot
    1  0.000  0.000  0.196  0.000  0.000  0.043  0.000  0.128  0.000  0.367
    2  0.000  0.000  0.196  0.000  0.000  0.043  0.000  0.128  0.000  0.367
tot    0.000  0.000  0.393  0.000  0.000  0.085  0.000  0.256  0.000  0.734
 
band    25 # energy   43.82488805 # occ.  0.00000000
 
ion      s     py     pz     px    dxy    dyz    dz2    dxz  x2-y2    tot
    1  0.000  0.187  0.000  0.062  0.070  0.000  0.000  0.000  0.210  0.529
    2  0.000  0.187  0.000  0.062  0.070  0.000  0.000  0.000  0.210  0.529
tot    0.000  0.374  0.000  0.125  0.140  0.000  0.000  0.000  0.420  1.058
 
band    26 # energy   43.86407877 # occ.  0.00000000
 
ion      s     py     pz     px    dxy    dyz    dz2    dxz  x2-y2    tot
    1  0.175  0.029  0.000  0.086  0.217  0.000  0.109  0.000  0.072  0.688
    2  0.175  0.029  0.000  0.086  0.217  0.000  0.109  0.000  0.072  0.688
tot    0.350  0.057  0.000  0.172  0.434  0.000  0.219  0.000  0.145  1.376
 
band    27 # energy   44.94647750 # occ.  0.00000000
 
ion      s     py     pz     px    dxy    dyz    dz2    dxz  x2-y2    tot
    1  0.000  0.000  0.000  0.000  0.000  0.302  0.000  0.101  0.000  0.402
    2  0.000  0.000  0.000  0.000  0.000  0.302  0.000  0.101  0.000  0.402
tot    0.000  0.000  0.000  0.000  0.000  0.603  0.000  0.201  0.000  0.804
 
band    28 # energy   45.45800623 # occ.  0.00000000
 
ion      s     py     pz     px    dxy    dyz    dz2    dxz  x2-y2    tot
    1  0.000  0.000  0.060  0.000  0.000  0.015  0.000  0.045  0.000  0.120
    2  0.000  0.000  0.060  0.000  0.000  0.015  0.000  0.045  0.000  0.120
tot    0.000  0.000  0.121  0.000  0.000  0.030  0.000  0.090  0.000  0.241
 

 k-point     3 :    0.16666667 0.00000000 0.00000000     weight = 0.00520833

band     1 # energy    2.32221723 # occ.  1.00000000
 
ion      s     py     pz     px    dxy    dyz    dz2    dxz  x2-y2    tot
    1  0.330  0.008  0.000  0.023  0.002  0.000  0.001  0.000  0.001  0.365
    2  0.330  0.008  0.000  0.023  0.002  0.000  0.001  0.000  0.001  0.365
tot    0.661  0.016  0.000  0.047  0.004  0.000  0.002  0.000  0.001  0.730
 
band     2 # energy    5.65231708 # occ.  1.00000000
 
ion      s     py     pz     px    dxy    dyz    dz2    dxz  x2-y2    tot
    1  0.051  0.004  0.000  0.012  0.019  0.000  0.359  0.000  0.006  0.452
    2  0.051  0.004  0.000  0.012  0.019  0.000  0.359  0.000  0.006  0.452
tot    0.103  0.008  0.000  0.024  0.038  0.000  0.717  0.000  0.013  0.903
 
band     3 # energy    7.18479816 # occ.  1.00000000
 
ion      s     py     pz     px    dxy    dyz    dz2    dxz  x2-y2    tot
    1  0.000  0.001  0.000  0.004  0.265  0.000  0.115  0.000  0.088  0.474
    2  0.000  0.001  0.000  0.004  0.265  0.000  0.115  0.000  0.088  0.474
tot    0.001  0.003  0.000  0.009  0.530  0.000  0.230  0.000  0.177  0.949
 
band     4 # energy    7.50671741 # occ.  1.00000000
 
ion      s     py     pz     px    dxy    dyz    dz2    dxz  x2-y2    tot
    1  0.000  0.000  0.060  0.000  0.000  0.098  0.000  0.293  0.000  0.451
    2  0.000  0.000  0.060  0.000  0.000  0.098  0.000  0.293  0.000  0.451
tot    0.000  0.000  0.120  0.000  0.000  0.196  0.000  0.587  0.000  0.902
 
band     5 # energy    7.79163810 # occ.  1.00000000
 
ion      s     py     pz     px    dxy    dyz    dz2    dxz  x2-y2    tot
    1  0.004  0.000  0.000  0.001  0.315  0.000  0.056  0.000  0.105  0.483
    2  0.004  0.000  0.000  0.001  0.315  0.000  0.056  0.000  0.105  0.483
tot    0.009  0.001  0.000  0.003  0.630  0.000  0.112  0.000  0.210  0.965
 
band     6 # energy    8.10646391 # occ.  1.00000000
 
ion      s     py     pz     px    dxy    dyz    dz2    dxz  x2-y2    tot
    1  0.000  0.000  0.000  0.000  0.000  0.365  0.000  0.122  0.000  0.487
    2  0.000  0.000  0.000  0.000  0.000  0.365  0.000  0.122  0.000  0.487
tot    0.000  0.000  0.000  0.000  0.000  0.730  0.000  0.243  0.000  0.974
 
band     7 # energy    8.12366753 # occ.  1.00000000
 
ion      s     py     pz     px    dxy    dyz    dz2    dxz  x2-y2    tot
    1  0.000  0.002  0.000  0.001  0.120  0.000  0.000  0.000  0.361  0.484
    2  0.000  0.002  0.000  0.001  0.120  0.000  0.000  0.000  0.361  0.484
tot    0.000  0.003  0.000  0.001  0.241  0.000  0.000  0.000  0.723  0.968
 
band     8 # energy    8.18367346 # occ.  1.00000000
 
ion      s     py     pz     px    dxy    dyz    dz2    dxz  x2-y2    tot
    1  0.001  0.000  0.000  0.001  0.113  0.000  0.333  0.000  0.038  0.486
    2  0.001  0.000  0.000  0.001  0.113  0.000  0.333  0.000  0.038  0.486
tot    0.003  0.001  0.000  0.002  0.225  0.000  0.667  0.000  0.075  0.973
 
band     9 # energy    8.32609454 # occ.  1.00000000
 
ion      s     py     pz     px    dxy    dyz    dz2    dxz  x2-y2    tot
    1  0.000  0.000  0.036  0.000  0.000  0.109  0.000  0.328  0.000  0.473
    2  0.000  0.000  0.036  0.000  0.000  0.109  0.000  0.328  0.000  0.473
tot    0.000  0.000  0.071  0.000  0.000  0.219  0.000  0.657  0.000  0.947
 
band    10 # energy    8.38636130 # occ.  1.00000000
 
ion      s     py     pz     px    dxy    dyz    dz2    dxz  x2-y2    tot
    1  0.000  0.002  0.000  0.001  0.122  0.000  0.000  0.000  0.365  0.488
    2  0.000  0.002  0.000  0.001  0.122  0.000  0.000  0.000  0.365  0.488
tot    0.000  0.003  0.000  0.001  0.243  0.000  0.000  0.000  0.729  0.977
 
band    11 # energy    9.56139479 # occ.  1.00000000
 
ion      s     py     pz     px    dxy    dyz    dz2    dxz  x2-y2    tot
    1  0.000  0.000  0.000  0.000  0.000  0.371  0.000  0.124  0.000  0.494
    2  0.000  0.000  0.000  0.000  0.000  0.371  0.000  0.124  0.000  0.494
tot    0.000  0.000  0.000  0.000  0.000  0.742  0.000  0.247  0.000  0.989
 
band    12 # energy   12.91833475 # occ.  0.00000000
 
ion      s     py     pz     px    dxy    dyz    dz2    dxz  x2-y2    tot
    1  0.000  0.000  0.238  0.000  0.000  0.042  0.000  0.125  0.000  0.405
    2  0.000  0.000  0.238  0.000  0.000  0.042  0.000  0.125  0.000  0.405
tot    0.000  0.000  0.477  0.000  0.000  0.083  0.000  0.250  0.000  0.810
 
band    13 # energy   16.90527090 # occ.  0.00000000
 
ion      s     py     pz     px    dxy    dyz    dz2    dxz  x2-y2    tot
    1  0.207  0.008  0.000  0.024  0.001  0.000  0.205  0.000  0.000  0.443
    2  0.207  0.008  0.000  0.024  0.001  0.000  0.205  0.000  0.000  0.443
tot    0.413  0.016  0.000  0.047  0.001  0.000  0.409  0.000  0.000  0.887
 
band    14 # energy   26.59869296 # occ.  0.00000000
 
ion      s     py     pz     px    dxy    dyz    dz2    dxz  x2-y2    tot
    1  0.043  0.037  0.000  0.111  0.118  0.000  0.023  0.000  0.039  0.371
    2  0.043  0.037  0.000  0.111  0.118  0.000  0.023  0.000  0.039  0.371
tot    0.086  0.074  0.000  0.223  0.235  0.000  0.045  0.000  0.078  0.742
 
band    15 # energy   30.32785463 # occ.  0.00000000
 
ion      s     py     pz     px    dxy    dyz    dz2    dxz  x2-y2    tot
    1  0.000  0.191  0.000  0.064  0.032  0.000  0.000  0.000  0.097  0.384
    2  0.000  0.191  0.000  0.064  0.032  0.000  0.000  0.000  0.097  0.384
tot    0.000  0.382  0.000  0.127  0.065  0.000  0.000  0.000  0.194  0.768
 
band    16 # energy   31.82091559 # occ.  0.00000000
 
ion      s     py     pz     px    dxy    dyz    dz2    dxz  x2-y2    tot
    1  0.023  0.006  0.000  0.017  0.143  0.000  0.048  0.000  0.048  0.284
    2  0.023  0.006  0.000  0.017  0.143  0.000  0.048  0.000  0.048  0.284
tot    0.045  0.011  0.000  0.033  0.286  0.000  0.097  0.000  0.095  0.568
 
band    17 # energy   33.73381247 # occ.  0.00000000
 
ion      s     py     pz     px    dxy    dyz    dz2    dxz  x2-y2    tot
    1  0.000  0.000  0.040  0.000  0.000  0.054  0.000  0.162  0.000  0.257
    2  0.000  0.000  0.040  0.000  0.000  0.054  0.000  0.162  0.000  0.257
tot    0.000  0.000  0.081  0.000  0.000  0.108  0.000  0.325  0.000  0.514
 
band    18 # energy   35.97473841 # occ.  0.00000000
 
ion      s     py     pz     px    dxy    dyz    dz2    dxz  x2-y2    tot
    1  0.000  0.000  0.009  0.000  0.000  0.013  0.000  0.040  0.000  0.062
    2  0.000  0.000  0.009  0.000  0.000  0.013  0.000  0.040  0.000  0.062
tot    0.000  0.000  0.018  0.000  0.000  0.027  0.000  0.080  0.000  0.125
 
band    19 # energy   36.75080967 # occ.  0.00000000
 
ion      s     py     pz     px    dxy    dyz    dz2    dxz  x2-y2    tot
    1  0.030  0.038  0.000  0.113  0.051  0.000  0.030  0.000  0.017  0.280
    2  0.030  0.038  0.000  0.113  0.051  0.000  0.030  0.000  0.017  0.280
tot    0.061  0.075  0.000  0.226  0.103  0.000  0.061  0.000  0.034  0.559
 
band    20 # energy   38.93366698 # occ.  0.00000000
 
ion      s     py     pz     px    dxy    dyz    dz2    dxz  x2-y2    tot
    1  0.041  0.041  0.000  0.123  0.000  0.000  0.117  0.000  0.000  0.322
    2  0.041  0.041  0.000  0.123  0.000  0.000  0.117  0.000  0.000  0.322
tot    0.082  0.082  0.000  0.246  0.000  0.000  0.234  0.000  0.000  0.644
 
band    21 # energy   39.46320737 # occ.  0.00000000
 
ion      s     py     pz     px    dxy    dyz    dz2    dxz  x2-y2    tot
    1  0.000  0.000  0.000  0.000  0.000  0.281  0.000  0.094  0.000  0.375
    2  0.000  0.000  0.000  0.000  0.000  0.281  0.000  0.094  0.000  0.375
tot    0.000  0.000  0.000  0.000  0.000  0.563  0.000  0.188  0.000  0.750
 
band    22 # energy   40.15505364 # occ.  0.00000000
 
ion      s     py     pz     px    dxy    dyz    dz2    dxz  x2-y2    tot
    1  0.000  0.000  0.237  0.000  0.000  0.008  0.000  0.024  0.000  0.269
    2  0.000  0.000  0.237  0.000  0.000  0.008  0.000  0.024  0.000  0.269
tot    0.000  0.000  0.474  0.000  0.000  0.016  0.000  0.048  0.000  0.538
 
band    23 # energy   40.67532644 # occ.  0.00000000
 
ion      s     py     pz     px    dxy    dyz    dz2    dxz  x2-y2    tot
    1  0.000  0.052  0.000  0.017  0.109  0.000  0.000  0.000  0.326  0.505
    2  0.000  0.052  0.000  0.017  0.109  0.000  0.000  0.000  0.326  0.505
tot    0.000  0.104  0.000  0.035  0.218  0.000  0.000  0.000  0.653  1.009
 
band    24 # energy   42.21121580 # occ.  0.00000000
 
ion      s     py     pz     px    dxy    dyz    dz2    dxz  x2-y2    tot
    1  0.000  0.231  0.000  0.077  0.025  0.000  0.000  0.000  0.075  0.408
    2  0.000  0.231  0.000  0.077  0.025  0.000  0.000  0.000  0.075  0.408
tot    0.000  0.463  0.000  0.154  0.050  0.000  0.000  0.000  0.150  0.817
 
band    25 # energy   42.59953412 # occ.  0.00000000
 
ion      s     py     pz     px    dxy    dyz    dz2    dxz  x2-y2    tot
    1  0.090  0.007  0.000  0.021  0.057  0.000  0.363  0.000  0.019  0.557
    2  0.090  0.007  0.000  0.021  0.057  0.000  0.363  0.000  0.019  0.557
tot    0.179  0.014  0.000  0.043  0.113  0.000  0.727  0.000  0.038  1.114
 
band    26 # energy   44.72728238 # occ.  0.00000000
 
ion      s     py     pz     px    dxy    dyz    dz2    dxz  x2-y2    tot
    1  0.092  0.002  0.000  0.007  0.200  0.000  0.051  0.000  0.067  0.419
    2  0.092  0.002  0.000  0.007  0.200  0.000  0.051  0.000  0.067  0.419
tot    0.185  0.005  0.000  0.014  0.399  0.000  0.103  0.000  0.133  0.838
 
band    27 # energy   46.49281980 # occ.  0.00000000
 
ion      s     py     pz     px    dxy    dyz    dz2    dxz  x2-y2    tot
    1  2.721  0.001  0.000  0.004  0.023  0.000  0.016  0.000  0.008  2.772