PROCAR lm decomposed
# of k-points:   70         # of bands:   16         # of ions:    2

 k-point     1 :    0.00000000 0.00000000 0.00000000     weight = 0.00125000

band     1 # energy    1.34027371 # occ.  1.00000000
 
ion      s     py     pz     px    dxy    dyz    dz2    dxz  x2-y2    tot
    1  0.362  0.000  0.000  0.000  0.000  0.000  0.000  0.000  0.000  0.362
    2  0.362  0.000  0.000  0.000  0.000  0.000  0.000  0.000  0.000  0.362
tot    0.725  0.000  0.000  0.000  0.000  0.000  0.000  0.000  0.000  0.725
 
band     2 # energy    5.10327842 # occ.  1.00000000
 
ion      s     py     pz     px    dxy    dyz    dz2    dxz  x2-y2    tot
    1  0.080  0.000  0.000  0.000  0.000  0.000  0.367  0.000  0.000  0.447
    2  0.080  0.000  0.000  0.000  0.000  0.000  0.367  0.000  0.000  0.447
tot    0.160  0.000  0.000  0.000  0.000  0.000  0.733  0.000  0.000  0.893
 
band     3 # energy    7.60920740 # occ.  1.00000000
 
ion      s     py     pz     px    dxy    dyz    dz2    dxz  x2-y2    tot
    1  0.000  0.000  0.000  0.000  0.000  0.000  0.486  0.000  0.000  0.486
    2  0.000  0.000  0.000  0.000  0.000  0.000  0.486  0.000  0.000  0.486
tot    0.000  0.000  0.000  0.000  0.000  0.000  0.972  0.000  0.000  0.972
 
band     4 # energy    7.62985745 # occ.  1.00000000
 
ion      s     py     pz     px    dxy    dyz    dz2    dxz  x2-y2    tot
    1  0.000  0.000  0.000  0.000  0.362  0.000  0.000  0.000  0.121  0.483
    2  0.000  0.000  0.000  0.000  0.362  0.000  0.000  0.000  0.121  0.483
tot    0.000  0.000  0.000  0.001  0.723  0.000  0.000  0.000  0.241  0.966
 
band     5 # energy    7.62985850 # occ.  1.00000000
 
ion      s     py     pz     px    dxy    dyz    dz2    dxz  x2-y2    tot
    1  0.000  0.000  0.000  0.000  0.121  0.000  0.000  0.000  0.362  0.483
    2  0.000  0.000  0.000  0.000  0.121  0.000  0.000  0.000  0.362  0.483
tot    0.000  0.001  0.000  0.000  0.241  0.000  0.000  0.000  0.723  0.966
 
band     6 # energy    7.94010478 # occ.  1.00000000
 
ion      s     py     pz     px    dxy    dyz    dz2    dxz  x2-y2    tot
    1  0.000  0.000  0.000  0.001  0.365  0.000  0.000  0.000  0.122  0.487
    2  0.000  0.000  0.000  0.001  0.365  0.000  0.000  0.000  0.122  0.487
tot    0.000  0.000  0.000  0.001  0.730  0.000  0.000  0.000  0.243  0.974
 
band     7 # energy    7.94010587 # occ.  1.00000000
 
ion      s     py     pz     px    dxy    dyz    dz2    dxz  x2-y2    tot
    1  0.000  0.001  0.000  0.000  0.122  0.000  0.000  0.000  0.365  0.487
    2  0.000  0.001  0.000  0.000  0.122  0.000  0.000  0.000  0.365  0.487
tot    0.000  0.001  0.000  0.000  0.243  0.000  0.000  0.000  0.730  0.974
 
band     8 # energy    8.29269110 # occ.  1.00000000
 
ion      s     py     pz     px    dxy    dyz    dz2    dxz  x2-y2    tot
    1  0.000  0.000  0.000  0.000  0.000  0.367  0.000  0.122  0.000  0.490
    2  0.000  0.000  0.000  0.000  0.000  0.367  0.000  0.122  0.000  0.490
tot    0.000  0.000  0.000  0.000  0.000  0.734  0.000  0.245  0.000  0.979
 
band     9 # energy    8.29269156 # occ.  1.00000000
 
ion      s     py     pz     px    dxy    dyz    dz2    dxz  x2-y2    tot
    1  0.000  0.000  0.000  0.000  0.000  0.122  0.000  0.367  0.000  0.490
    2  0.000  0.000  0.000  0.000  0.000  0.122  0.000  0.367  0.000  0.490
tot    0.000  0.000  0.000  0.000  0.000  0.245  0.000  0.734  0.000  0.979
 
band    10 # energy    9.38790425 # occ.  1.00000000
 
ion      s     py     pz     px    dxy    dyz    dz2    dxz  x2-y2    tot
    1  0.000  0.000  0.000  0.000  0.000  0.369  0.000  0.123  0.000  0.492
    2  0.000  0.000  0.000  0.000  0.000  0.369  0.000  0.123  0.000  0.492
tot    0.000  0.000  0.000  0.000  0.000  0.739  0.000  0.246  0.000  0.985
 
band    11 # energy    9.38790489 # occ.  1.00000000
 
ion      s     py     pz     px    dxy    dyz    dz2    dxz  x2-y2    tot
    1  0.000  0.000  0.000  0.000  0.000  0.123  0.000  0.369  0.000  0.492
    2  0.000  0.000  0.000  0.000  0.000  0.123  0.000  0.369  0.000  0.492
tot    0.000  0.000  0.000  0.000  0.000  0.246  0.000  0.739  0.000  0.985
 
band    12 # energy   10.17182233 # occ.  0.82727697
 
ion      s     py     pz     px    dxy    dyz    dz2    dxz  x2-y2    tot
    1  0.000  0.000  0.344  0.000  0.000  0.000  0.000  0.000  0.000  0.344
    2  0.000  0.000  0.344  0.000  0.000  0.000  0.000  0.000  0.000  0.344
tot    0.000  0.000  0.689  0.000  0.000  0.000  0.000  0.000  0.000  0.689
 
band    13 # energy   16.57880911 # occ.  0.00000000
 
ion      s     py     pz     px    dxy    dyz    dz2    dxz  x2-y2    tot
    1  0.225  0.000  0.000  0.000  0.000  0.000  0.228  0.000  0.000  0.453
    2  0.225  0.000  0.000  0.000  0.000  0.000  0.228  0.000  0.000  0.453
tot    0.450  0.000  0.000  0.000  0.000  0.000  0.456  0.000  0.000  0.906
 
band    14 # energy   32.23858219 # occ.  0.00000000
 
ion      s     py     pz     px    dxy    dyz    dz2    dxz  x2-y2    tot
    1  0.007  0.000  0.000  0.000  0.000  0.000  0.033  0.000  0.000  0.039
    2  0.007  0.000  0.000  0.000  0.000  0.000  0.033  0.000  0.000  0.039
tot    0.013  0.000  0.000  0.000  0.000  0.000  0.065  0.000  0.000  0.078
 
band    15 # energy   34.79418325 # occ.  0.00000000
 
ion      s     py     pz     px    dxy    dyz    dz2    dxz  x2-y2    tot
    1  0.000  0.028  0.000  0.242  0.107  0.000  0.000  0.000  0.013  0.389
    2  0.000  0.028  0.000  0.242  0.107  0.000  0.000  0.000  0.013  0.389
tot    0.000  0.057  0.000  0.483  0.213  0.000  0.000  0.000  0.025  0.779
 
band    16 # energy   34.79419222 # occ.  0.00000000
 
ion      s     py     pz     px    dxy    dyz    dz2    dxz  x2-y2    tot
    1  0.000  0.242  0.000  0.028  0.013  0.000  0.000  0.000  0.107  0.389
    2  0.000  0.241  0.000  0.028  0.013  0.000  0.000  0.000  0.107  0.389
tot    0.000  0.483  0.000  0.057  0.025  0.000  0.000  0.000  0.214  0.779
 

 k-point     2 :    0.10000000-0.00000000 0.00000000     weight = 0.00750000

band     1 # energy    1.68925497 # occ.  1.00000000
 
ion      s     py     pz     px    dxy    dyz    dz2    dxz  x2-y2    tot
    1  0.351  0.003  0.000  0.009  0.000  0.000  0.000  0.000  0.000  0.363
    2  0.351  0.003  0.000  0.009  0.000  0.000  0.000  0.000  0.000  0.363
tot    0.701  0.006  0.000  0.018  0.000  0.000  0.000  0.000  0.000  0.725
 
band     2 # energy    5.30812705 # occ.  1.00000000
 
ion      s     py     pz     px    dxy    dyz    dz2    dxz  x2-y2    tot
    1  0.069  0.002  0.000  0.005  0.003  0.000  0.367  0.000  0.001  0.448
    2  0.069  0.002  0.000  0.005  0.003  0.000  0.367  0.000  0.001  0.448
tot    0.139  0.004  0.000  0.011  0.007  0.000  0.735  0.000  0.002  0.896
 
band     3 # energy    7.34402393 # occ.  1.00000000
 
ion      s     py     pz     px    dxy    dyz    dz2    dxz  x2-y2    tot
    1  0.000  0.000  0.000  0.001  0.244  0.000  0.153  0.000  0.081  0.480
    2  0.000  0.000  0.000  0.001  0.244  0.000  0.153  0.000  0.081  0.480
tot    0.000  0.001  0.000  0.002  0.488  0.000  0.306  0.000  0.163  0.959
 
band     4 # energy    7.79158843 # occ.  1.00000000
 
ion      s     py     pz     px    dxy    dyz    dz2    dxz  x2-y2    tot
    1  0.000  0.001  0.000  0.000  0.120  0.000  0.000  0.000  0.361  0.483
    2  0.000  0.001  0.000  0.000  0.120  0.000  0.000  0.000  0.361  0.483
tot    0.000  0.002  0.000  0.001  0.241  0.000  0.000  0.000  0.723  0.966
 
band     5 # energy    7.82010844 # occ.  1.00000000
 
ion      s     py     pz     px    dxy    dyz    dz2    dxz  x2-y2    tot
    1  0.001  0.000  0.000  0.001  0.232  0.000  0.174  0.000  0.077  0.485
    2  0.001  0.000  0.000  0.001  0.232  0.000  0.174  0.000  0.077  0.485
tot    0.001  0.000  0.000  0.001  0.465  0.000  0.348  0.000  0.155  0.971
 
band     6 # energy    7.90197902 # occ.  1.00000000
 
ion      s     py     pz     px    dxy    dyz    dz2    dxz  x2-y2    tot
    1  0.001  0.000  0.000  0.000  0.242  0.000  0.161  0.000  0.081  0.486
    2  0.001  0.000  0.000  0.000  0.242  0.000  0.161  0.000  0.081  0.486
tot    0.002  0.000  0.000  0.001  0.484  0.000  0.323  0.000  0.161  0.971
 
band     7 # energy    8.04536174 # occ.  1.00000000
 
ion      s     py     pz     px    dxy    dyz    dz2    dxz  x2-y2    tot
    1  0.000  0.000  0.026  0.000  0.000  0.112  0.000  0.336  0.000  0.473
    2  0.000  0.000  0.026  0.000  0.000  0.112  0.000  0.336  0.000  0.473
tot    0.000  0.000  0.052  0.000  0.000  0.224  0.000  0.671  0.000  0.947
 
band     8 # energy    8.08305916 # occ.  1.00000000
 
ion      s     py     pz     px    dxy    dyz    dz2    dxz  x2-y2    tot
    1  0.000  0.001  0.000  0.000  0.122  0.000  0.000  0.000  0.365  0.487
    2  0.000  0.001  0.000  0.000  0.122  0.000  0.000  0.000  0.365  0.487
tot    0.000  0.002  0.000  0.001  0.243  0.000  0.000  0.000  0.729  0.975
 
band     9 # energy    8.19367298 # occ.  1.00000000
 
ion      s     py     pz     px    dxy    dyz    dz2    dxz  x2-y2    tot
    1  0.000  0.000  0.000  0.000  0.000  0.366  0.000  0.122  0.000  0.488
    2  0.000  0.000  0.000  0.000  0.000  0.366  0.000  0.122  0.000  0.488
tot    0.000  0.000  0.000  0.000  0.000  0.732  0.000  0.244  0.000  0.977
 
band    10 # energy    8.50981537 # occ.  1.00000000
 
ion      s     py     pz     px    dxy    dyz    dz2    dxz  x2-y2    tot
    1  0.000  0.000  0.074  0.000  0.000  0.095  0.000  0.286  0.000  0.456
    2  0.000  0.000  0.074  0.000  0.000  0.095  0.000  0.286  0.000  0.456
tot    0.000  0.000  0.149  0.000  0.000  0.191  0.000  0.572  0.000  0.911
 
band    11 # energy    9.42914468 # occ.  1.00000000
 
ion      s     py     pz     px    dxy    dyz    dz2    dxz  x2-y2    tot
    1  0.000  0.000  0.000  0.000  0.000  0.370  0.000  0.123  0.000  0.493
    2  0.000  0.000  0.000  0.000  0.000  0.370  0.000  0.123  0.000  0.493
tot    0.000  0.000  0.000  0.000  0.000  0.740  0.000  0.247  0.000  0.987
 
band    12 # energy   11.53634197 # occ.  0.00000000
 
ion      s     py     pz     px    dxy    dyz    dz2    dxz  x2-y2    tot
    1  0.000  0.000  0.240  0.000  0.000  0.040  0.000  0.119  0.000  0.398
    2  0.000  0.000  0.240  0.000  0.000  0.040  0.000  0.119  0.000  0.398
tot    0.000  0.000  0.479  0.000  0.000  0.079  0.000  0.237  0.000  0.796
 
band    13 # energy   16.64212232 # occ.  0.00000000
 
ion      s     py     pz     px    dxy    dyz    dz2    dxz  x2-y2    tot
    1  0.220  0.003  0.000  0.008  0.000  0.000  0.219  0.000  0.000  0.449
    2  0.220  0.003  0.000  0.008  0.000  0.000  0.219  0.000  0.000  0.449
tot    0.439  0.005  0.000  0.016  0.000  0.000  0.438  0.000  0.000  0.899
 
band    14 # energy   29.63484915 # occ.  0.00000000
 
ion      s     py     pz     px    dxy    dyz    dz2    dxz  x2-y2    tot
    1  0.019  0.029  0.000  0.087  0.118  0.000  0.023  0.000  0.039  0.314
    2  0.019  0.029  0.000  0.087  0.118  0.000  0.023  0.000  0.039  0.314
tot    0.037  0.058  0.000  0.173  0.235  0.000  0.046  0.000  0.078  0.628
 
band    15 # energy   32.17544288 # occ.  0.00000000
 
ion      s     py     pz     px    dxy    dyz    dz2    dxz  x2-y2    tot
    1  0.000  0.177  0.000  0.059  0.040  0.000  0.000  0.000  0.120  0.397
    2  0.000  0.177  0.000  0.059  0.040  0.000  0.000  0.000  0.120  0.397
tot    0.000  0.355  0.000  0.118  0.080  0.000  0.000  0.000  0.240  0.793
 
band    16 # energy   32.49572900 # occ.  0.00000000
 
ion      s     py     pz     px    dxy    dyz    dz2    dxz  x2-y2    tot
    1  0.023  0.016  0.000  0.049  0.074  0.000  0.043  0.000  0.025  0.230
    2  0.023  0.016  0.000  0.049  0.074  0.000  0.043  0.000  0.025  0.230
tot    0.046  0.032  0.000  0.097  0.149  0.000  0.086  0.000  0.050  0.459
 

 k-point     3 :    0.20000000-0.00000000 0.00000000     weight = 0.00750000

band     1 # energy    2.67857289 # occ.  1.00000000
 
ion      s     py     pz     px    dxy    dyz    dz2    dxz  x2-y2    tot
    1  0.314  0.011  0.000  0.032  0.005  0.000  0.002  0.000  0.002  0.365
    2  0.314  0.011  0.000  0.032  0.005  0.000  0.002  0.000  0.002  0.365
tot    0.628  0.021  0.000  0.064  0.010  0.000  0.004  0.000  0.003  0.730
 
band     2 # energy    5.75156424 # occ.  1.00000000
 
ion      s     py     pz     px    dxy    dyz    dz2    dxz  x2-y2    tot
    1  0.041  0.005  0.000  0.014  0.042  0.000  0.339  0.000  0.014  0.454
    2  0.041  0.005  0.000  0.014  0.042  0.000  0.339  0.000  0.014  0.454
tot    0.082  0.009  0.000  0.027  0.083  0.000  0.678  0.000  0.028  0.908
 
band     3 # energy    7.03574386 # occ.  1.00000000
 
ion      s     py     pz     px    dxy    dyz    dz2    dxz  x2-y2    tot
    1  0.001  0.003  0.000  0.008  0.258  0.000  0.114  0.000  0.086  0.470
    2  0.001  0.003  0.000  0.008  0.258  0.000  0.114  0.000  0.086  0.470
tot    0.001  0.006  0.000  0.017  0.517  0.000  0.229  0.000  0.172  0.941
 
band     4 # energy    7.13353924 # occ.  1.00000000
 
ion      s     py     pz     px    dxy    dyz    dz2    dxz  x2-y2    tot
    1  0.000  0.000  0.059  0.000  0.000  0.097  0.000  0.291  0.000  0.447
    2  0.000  0.000  0.059  0.000  0.000  0.097  0.000  0.291  0.000  0.447
tot    0.000  0.000  0.118  0.000  0.000  0.194  0.000  0.582  0.000  0.894
 
band     5 # energy    7.66947774 # occ.  1.00000000
 
ion      s     py     pz     px    dxy    dyz    dz2    dxz  x2-y2    tot
    1  0.007  0.001  0.000  0.002  0.298  0.000  0.074  0.000  0.099  0.481
    2  0.007  0.001  0.000  0.002  0.298  0.000  0.074  0.000  0.099  0.481
tot    0.013  0.001  0.000  0.004  0.597  0.000  0.147  0.000  0.199  0.962
 
band     6 # energy    7.96588282 # occ.  1.00000000
 
ion      s     py     pz     px    dxy    dyz    dz2    dxz  x2-y2    tot
    1  0.000  0.000  0.000  0.000  0.000  0.364  0.000  0.121  0.000  0.486
    2  0.000  0.000  0.000  0.000  0.000  0.364  0.000  0.121  0.000  0.486
tot    0.000  0.000  0.000  0.000  0.000  0.729  0.000  0.243  0.000  0.972
 
band     7 # energy    8.17520660 # occ.  1.00000000
 
ion      s     py     pz     px    dxy    dyz    dz2    dxz  x2-y2    tot
    1  0.000  0.000  0.030  0.000  0.000  0.111  0.000  0.334  0.000  0.475
    2  0.000  0.000  0.030  0.000  0.000  0.111  0.000  0.334  0.000  0.475
tot    0.000  0.000  0.059  0.000  0.000  0.223  0.000  0.668  0.000  0.950
 
band     8 # energy    8.23422197 # occ.  1.00000000
 
ion      s     py     pz     px    dxy    dyz    dz2    dxz  x2-y2    tot
    1  0.000  0.002  0.000  0.001  0.121  0.000  0.000  0.000  0.362  0.484
    2  0.000  0.002  0.000  0.001  0.121  0.000  0.000  0.000  0.362  0.484
tot    0.000  0.003  0.000  0.001  0.241  0.000  0.000  0.000  0.723  0.969
 
band     9 # energy    8.25673612 # occ.  1.00000000
 
ion      s     py     pz     px    dxy    dyz    dz2    dxz  x2-y2    tot
    1  0.003  0.001  0.000  0.002  0.106  0.000  0.340  0.000  0.035  0.486
    2  0.003  0.001  0.000  0.002  0.106  0.000  0.340  0.000  0.035  0.486
tot    0.005  0.001  0.000  0.004  0.211  0.000  0.680  0.000  0.070  0.972
 
band    10 # energy    8.47020051 # occ.  1.00000000
 
ion      s     py     pz     px    dxy    dyz    dz2    dxz  x2-y2    tot
    1  0.000  0.002  0.000  0.001  0.122  0.000  0.000  0.000  0.365  0.489
    2  0.000  0.002  0.000  0.001  0.122  0.000  0.000  0.000  0.365  0.489
tot    0.000  0.004  0.000  0.001  0.243  0.000  0.000  0.000  0.729  0.977
 
band    11 # energy    9.50700314 # occ.  1.00000000
 
ion      s     py     pz     px    dxy    dyz    dz2    dxz  x2-y2    tot
    1  0.000  0.000  0.000  0.000  0.000  0.371  0.000  0.124  0.000  0.495
    2  0.000  0.000  0.000  0.000  0.000  0.371  0.000  0.124  0.000  0.495
tot    0.000  0.000  0.000  0.000  0.000  0.742  0.000  0.247  0.000  0.990
 
band    12 # energy   13.52037596 # occ.  0.00000000
 
ion      s     py     pz     px    dxy    dyz    dz2    dxz  x2-y2    tot
    1  0.000  0.000  0.238  0.000  0.000  0.042  0.000  0.125  0.000  0.405
    2  0.000  0.000  0.238  0.000  0.000  0.042  0.000  0.125  0.000  0.405
tot    0.000  0.000  0.477  0.000  0.000  0.083  0.000  0.250  0.000  0.810
 
band    13 # energy   16.87299076 # occ.  0.00000000
 
ion      s     py     pz     px    dxy    dyz    dz2    dxz  x2-y2    tot
    1  0.196  0.012  0.000  0.036  0.001  0.000  0.193  0.000  0.000  0.439
    2  0.196  0.012  0.000  0.036  0.001  0.000  0.193  0.000  0.000  0.439
tot    0.393  0.024  0.000  0.072  0.001  0.000  0.386  0.000  0.000  0.877
 
band    14 # energy   25.01874903 # occ.  0.00000000
 
ion      s     py     pz     px    dxy    dyz    dz2    dxz  x2-y2    tot
    1  0.060  0.038  0.000  0.113  0.113  0.000  0.022  0.000  0.038  0.382
    2  0.060  0.038  0.000  0.113  0.113  0.000  0.022  0.000  0.038  0.382
tot    0.119  0.075  0.000  0.226  0.225  0.000  0.043  0.000  0.075  0.763
 
band    15 # energy   29.40571011 # occ.  0.00000000
 
ion      s     py     pz     px    dxy    dyz    dz2    dxz  x2-y2    tot
    1  0.000  0.198  0.000  0.066  0.028  0.000  0.000  0.000  0.083  0.374
    2  0.000  0.198  0.000  0.066  0.028  0.000  0.000  0.000  0.083  0.374
tot    0.000  0.395  0.000  0.132  0.055  0.000  0.000  0.000  0.166  0.749
 
band    16 # energy   31.36322726 # occ.  0.00000000
 
ion      s     py     pz     px    dxy    dyz    dz2    dxz  x2-y2    tot
    1  0.017  0.004  0.000  0.013  0.178  0.000  0.047  0.000  0.059  0.318
    2  0.017  0.004  0.000  0.013  0.178  0.000  0.047  0.000  0.059  0.318
tot    0.033  0.009  0.000  0.026  0.356  0.000  0.094  0.000  0.119  0.636
 

 k-point     4 :    0.30000000 0.00000000 0.00000000     weight = 0.00750000

band     1 # energy    4.06026211 # occ.  1.00000000
 
ion      s     py     pz     px    dxy    dyz    dz2    dxz  x2-y2    tot
    1  0.244  0.018  0.000  0.054  0.038  0.000  0.011  0.000  0.013  0.377
    2  0.244  0.018  0.000  0.054  0.038  0.000  0.011  0.000  0.013  0.377
tot    0.488  0.036  0.000  0.107  0.076  0.000  0.022  0.000  0.025  0.754
 
band     2 # energy    5.87618292 # occ.  1.00000000
 
ion      s     py     pz     px    dxy    dyz    dz2    dxz  x2-y2    tot
    1  0.016  0.002  0.000  0.006  0.179  0.000  0.199  0.000  0.060  0.462
    2  0.016  0.002  0.000  0.006  0.179  0.000  0.199  0.000  0.060  0.462
tot    0.033  0.004  0.000  0.011  0.357  0.000  0.398  0.000  0.119  0.923
 
band     3 # energy    6.38056975 # occ.  1.00000000
 
ion      s     py     pz     px    dxy    dyz    dz2    dxz  x2-y2    tot
    1  0.000  0.000  0.041  0.000  0.000  0.101  0.000  0.304  0.000  0.446
    2  0.000  0.000  0.041  0.000  0.000  0.101  0.000  0.304  0.000  0.446
tot    0.000  0.000  0.081  0.000  0.000  0.203  0.000  0.609  0.000  0.892
 
band     4 # energy    7.01102327 # occ.  1.00000000
 
ion      s     py     pz     px    dxy    dyz    dz2    dxz  x2-y2    tot
    1  0.004  0.012  0.000  0.037  0.196  0.000  0.139  0.000  0.065  0.453
    2  0.004  0.012  0.000  0.037  0.196  0.000  0.139  0.000  0.065  0.453
tot    0.007  0.025  0.000  0.074  0.392  0.000  0.278  0.000  0.131  0.906
 
band     5 # energy    7.68276007 # occ.  1.00000000
 
ion      s     py     pz     px    dxy    dyz    dz2    dxz  x2-y2    tot
    1  0.011  0.003  0.000  0.008  0.176  0.000  0.222  0.000  0.059  0.478
    2  0.011  0.003  0.000  0.008  0.176  0.000  0.222  0.000  0.059  0.478
tot    0.022  0.005  0.000  0.016  0.352  0.000  0.444  0.000  0.117  0.956
 
band     6 # energy    7.72165946 # occ.  1.00000000
 
ion      s     py     pz     px    dxy    dyz    dz2    dxz  x2-y2    tot
    1  0.000  0.000  0.000  0.000  0.000  0.363  0.000  0.121  0.000  0.484
    2  0.000  0.000  0.000  0.000  0.000  0.363  0.000  0.121  0.000  0.484
tot    0.000  0.000  0.000  0.000  0.000  0.726  0.000  0.242  0.000  0.968
 
band     7 # energy    7.94736053 # occ.  1.00000000
 
ion      s     py     pz     px    dxy    dyz    dz2    dxz  x2-y2    tot
    1  0.000  0.000  0.027  0.000  0.000  0.112  0.000  0.336  0.000  0.475
    2  0.000  0.000  0.027  0.000  0.000  0.112  0.000  0.336  0.000  0.475
tot    0.000  0.000  0.054  0.000  0.000  0.224  0.000  0.672  0.000  0.950
 
band     8 # energy    8.82402919 # occ.  1.00000000
 
ion      s     py     pz     px    dxy    dyz    dz2    dxz  x2-y2    tot
    1  0.000  0.001  0.000  0.000  0.122  0.000  0.000  0.000  0.365  0.488
    2  0.000  0.001  0.000  0.000  0.122  0.000  0.000  0.000  0.365  0.488
tot    0.000  0.003  0.000  0.001  0.243  0.000  0.000  0.000  0.729  0.976
 
band     9 # energy    8.90803131 # occ.  1.00000000
 
ion      s     py     pz     px    dxy    dyz    dz2    dxz  x2-y2    tot
    1  0.012  0.004  0.000  0.011  0.103  0.000  0.319  0.000  0.034  0.483
    2  0.012  0.004  0.000  0.011  0.103  0.000  0.319  0.000  0.034  0.483
tot    0.023  0.007  0.000  0.022  0.207  0.000  0.638  0.000  0.069  0.966
 
band    10 # energy    8.98548832 # occ.  1.00000000
 
ion      s     py     pz     px    dxy    dyz    dz2    dxz  x2-y2    tot
    1  0.000  0.002  0.000  0.001  0.122  0.000  0.000  0.000  0.366  0.491
    2  0.000  0.002  0.000  0.001  0.122  0.000  0.000  0.000  0.366  0.491
tot    0.000  0.005  0.000  0.002  0.244  0.000  0.000  0.000  0.732  0.982
 
band    11 # energy    9.56832292 # occ.  1.00000000
 
ion      s     py     pz     px    dxy    dyz    dz2    dxz  x2-y2    tot
    1  0.000  0.000  0.000  0.000  0.000  0.372  0.000  0.124  0.000  0.496
    2  0.000  0.000  0.000  0.000  0.000  0.372  0.000  0.124  0.000  0.496
tot    0.000  0.000  0.000  0.000  0.000  0.744  0.000  0.248  0.000  0.991
 
band    12 # energy   15.77739445 # occ.  0.00000000
 
ion      s     py     pz     px    dxy    dyz    dz2    dxz  x2-y2    tot
    1  0.000  0.000  0.242  0.000  0.000  0.041  0.000  0.123  0.000  0.407
    2  0.000  0.000  0.242  0.000  0.000  0.041  0.000  0.123  0.000  0.407
tot    0.000  0.000  0.485  0.000  0.000  0.082  0.000  0.247  0.000  0.813
 
band    13 # energy   17.23214295 # occ.  0.00000000
 
ion      s     py     pz     px    dxy    dyz    dz2    dxz  x2-y2    tot
    1  0.111  0.038  0.000  0.114  0.000  0.000  0.158  0.000  0.000  0.422
    2  0.111  0.038  0.000  0.114  0.000  0.000  0.158  0.000  0.000  0.422
tot    0.222  0.076  0.000  0.229  0.000  0.000  0.316  0.000  0.000  0.843
 
band    14 # energy   20.89979012 # occ.  0.00000000
 
ion      s     py     pz     px    dxy    dyz    dz2    dxz  x2-y2    tot
    1  0.157  0.024  0.000  0.071  0.103  0.000  0.011  0.000  0.034  0.400
    2  0.157  0.024  0.000  0.071  0.103  0.000  0.011  0.000  0.034  0.400
tot    0.314  0.047  0.000  0.142  0.206  0.000  0.022  0.000  0.069  0.801
 
band    15 # energy   27.15790719 # occ.  0.00000000
 
ion      s     py     pz     px    dxy    dyz    dz2    dxz  x2-y2    tot
    1  0.000  0.218  0.000  0.073  0.015  0.000  0.000  0.000  0.044  0.350
    2  0.000  0.218  0.000  0.073  0.015  0.000  0.000  0.000  0.044  0.350
tot    0.000  0.437  0.000  0.146  0.029  0.000  0.000  0.000  0.088  0.699
 
band    16 # energy   28.39787838 # occ.  0.00000000
 
ion      s     py     pz     px    dxy    dyz    dz2    dxz  x2-y2    tot
    1  0.000  0.000  0.090  0.000  0.000  0.061  0.000  0.183  0.000  0.334
    2  0.000  0.000  0.090  0.000  0.000  0.061  0.000  0.183  0.000  0.334
tot    0.000  0.000  0.180  0.000  0.000  0.122  0.000  0.366  0.000  0.669
 

 k-point     5 :    0.40000000-0.00000000 0.00000000     weight = 0.00750000

band     1 # energy    5.14596070 # occ.  1.00000000
 
ion      s     py     pz     px    dxy    dyz    dz2    dxz  x2-y2    tot
    1  0.127  0.012  0.000  0.036  0.159  0.000  0.031  0.000  0.053  0.417
    2  0.127  0.012  0.000  0.036  0.159  0.000  0.031  0.000  0.053  0.417
tot    0.254  0.024  0.000  0.072  0.317  0.000  0.062  0.000  0.106  0.835
 
band     2 # energy    5.66251498 # occ.  1.00000000
 
ion      s     py     pz     px    dxy    dyz    dz2    dxz  x2-y2    tot
    1  0.019  0.000  0.000  0.001  0.244  0.000  0.114  0.000  0.081  0.460
    2  0.019  0.000  0.000  0.001  0.244  0.000  0.114  0.000  0.081  0.460
tot    0.038  0.001  0.000  0.003  0.488  0.000  0.228  0.000  0.163  0.920
 
band     3 # energy    5.92631305 # occ.  1.00000000
 
ion      s     py     pz     px    dxy    dyz    dz2    dxz  x2-y2    tot
    1  0.000  0.000  0.023  0.000  0.000  0.106  0.000  0.319  0.000  0.448
    2  0.000  0.000  0.023  0.000  0.000  0.106  0.000  0.319  0.000  0.448
tot    0.000  0.000  0.046  0.000  0.000  0.212  0.000  0.637  0.000  0.896
 
band     4 # energy    7.38281864 # occ.  1.00000000
 
ion      s     py     pz     px    dxy    dyz    dz2    dxz  x2-y2    tot
    1  0.025  0.027  0.000  0.082  0.093  0.000  0.167  0.000  0.031  0.425
    2  0.025  0.027  0.000  0.082  0.093  0.000  0.167  0.000  0.031  0.425
tot    0.050  0.055  0.000  0.164  0.186  0.000  0.334  0.000  0.062  0.851
 
band     5 # energy    7.54267412 # occ.  1.00000000
 
ion      s     py     pz     px    dxy    dyz    dz2    dxz  x2-y2    tot
    1  0.000  0.000  0.000  0.000  0.000  0.362  0.000  0.121  0.000  0.483
    2  0.000  0.000  0.000  0.000  0.000  0.362  0.000  0.121  0.000  0.483
tot    0.000  0.000  0.000  0.000  0.000  0.724  0.000  0.241  0.000  0.965
 
band     6 # energy    7.77567977 # occ.  1.00000000
 
ion      s     py     pz     px    dxy    dyz    dz2    dxz  x2-y2    tot
    1  0.000  0.000  0.028  0.000  0.000  0.111  0.000  0.334  0.000  0.474
    2  0.000  0.000  0.028  0.000  0.000  0.111  0.000  0.334  0.000  0.474
tot    0.000  0.000  0.057  0.000  0.000  0.223  0.000  0.668  0.000  0.947
 
band     7 # energy    7.92939421 # occ.  1.00000000
 
ion      s     py     pz     px    dxy    dyz    dz2    dxz  x2-y2    tot
    1  0.003  0.005  0.000  0.014  0.076  0.000  0.356  0.000  0.025  0.480
    2  0.003  0.005  0.000  0.014  0.076  0.000  0.356  0.000  0.025  0.480
tot    0.006  0.010  0.000  0.029  0.152  0.000  0.712  0.000  0.051  0.960
 
band     8 # energy    9.32426552 # occ.  1.00000000
 
ion      s     py     pz     px    dxy    dyz    dz2    dxz  x2-y2    tot
    1  0.000  0.000  0.000  0.000  0.123  0.000  0.000  0.000  0.370  0.493
    2  0.000  0.000  0.000  0.000  0.123  0.000  0.000  0.000  0.370  0.493
tot    0.000  0.000  0.000  0.000  0.246  0.000  0.000  0.000  0.739  0.986
 
band     9 # energy    9.45760235 # occ.  1.00000000
 
ion      s     py     pz     px    dxy    dyz    dz2    dxz  x2-y2    tot
    1  0.000  0.001  0.000  0.000  0.123  0.000  0.000  0.000  0.370  0.494
    2  0.000  0.001  0.000  0.000  0.123  0.000  0.000  0.000  0.370  0.494
tot    0.000  0.003  0.000  0.001  0.246  0.000  0.000  0.000  0.739  0.989
 
band    10 # energy    9.60097035 # occ.  1.00000000
 
ion      s     py     pz     px    dxy    dyz    dz2    dxz  x2-y2    tot
    1  0.000  0.000  0.000  0.000  0.000  0.372  0.000  0.124  0.000  0.496
    2  0.000  0.000  0.000  0.000  0.000  0.372  0.000  0.124  0.000  0.496
tot    0.000  0.000  0.000  0.000  0.000  0.744  0.000  0.248  0.000  0.992
 
band    11 # energy   10.08248729 # occ.  0.99974000
 
ion      s     py     pz     px    dxy    dyz    dz2    dxz  x2-y2    tot
    1  0.036  0.015  0.000  0.044  0.099  0.000  0.239  0.000  0.033  0.465
    2  0.036  0.015  0.000  0.044  0.099  0.000  0.239  0.000  0.033  0.465
tot    0.072  0.029  0.000  0.088  0.198  0.000  0.478  0.000  0.066  0.930
 
band    12 # energy   15.78321631 # occ.  0.00000000
 
ion      s     py     pz     px    dxy    dyz    dz2    dxz  x2-y2    tot
    1  0.031  0.056  0.000  0.167  0.047  0.000  0.102  0.000  0.016  0.418
    2  0.031  0.056  0.000  0.167  0.047  0.000  0.102  0.000  0.016  0.418
tot    0.063  0.112  0.000  0.335  0.093  0.000  0.203  0.000  0.031  0.836
 
band    13 # energy   18.20557572 # occ.  0.00000000
 
ion      s     py     pz     px    dxy    dyz    dz2    dxz  x2-y2    tot
    1  0.000  0.000  0.249  0.000  0.000  0.039  0.000  0.117  0.000  0.405
    2  0.000  0.000  0.249  0.000  0.000  0.039  0.000  0.117  0.000  0.405
tot    0.000  0.000  0.497  0.000  0.000  0.078  0.000  0.235  0.000  0.810
 
band    14 # energy   19.68897338 # occ.  0.00000000
 
ion      s     py     pz     px    dxy    dyz    dz2    dxz  x2-y2    tot
    1  0.224  0.017  0.000  0.051  0.063  0.000  0.022  0.000  0.021  0.397
    2  0.224  0.017  0.000  0.051  0.063  0.000  0.022  0.000  0.021  0.397
tot    0.448  0.034  0.000  0.102  0.126  0.000  0.043  0.000  0.042  0.795
 
band    15 # energy   25.01417445 # occ.  0.00000000
 
ion      s     py     pz     px    dxy    dyz    dz2    dxz  x2-y2    tot
    1  0.000  0.000  0.112  0.000  0.000  0.065  0.000  0.194  0.000  0.370
    2  0.000  0.000  0.112  0.000  0.000  0.065  0.000  0.194  0.000  0.370
tot    0.000  0.000  0.223  0.000  0.000  0.129  0.000  0.387  0.000  0.740
 
band    16 # energy   25.64207697 # occ.  0.00000000
 
ion      s     py     pz     px    dxy    dyz    dz2    dxz  x2-y2    tot
    1  0.000  0.235  0.000  0.078  0.004  0.000  0.000  0.000  0.013  0.329
    2  0.000  0.235  0.000  0.078  0.004  0.000  0.000  0.000  0.013  0.329
tot    0.000  0.469  0.000  0.156  0.008  0.000  0.000  0.000  0.025  0.659
 

 k-point     6 :    0.50000000-0.00000000 0.00000000     weight = 0.00375000

band     1 # energy    5.47784857 # occ.  1.00000000
 
ion      s     py     pz     px    dxy    dyz    dz2    dxz  x2-y2    tot
    1  0.009  0.000  0.000  0.001  0.262  0.000  0.095  0.000  0.087  0.455
    2  0.009  0.000  0.000  0.001  0.262  0.000  0.095  0.000  0.087  0.455
tot    0.018  0.001  0.000  0.002  0.524  0.000  0.190  0.000  0.175  0.910
 
band     2 # energy    5.50353425 # occ.  1.00000000
 
ion      s     py     pz     px    dxy    dyz    dz2    dxz  x2-y2    tot
    1  0.085  0.006  0.000  0.018  0.225  0.000  0.035  0.000  0.075  0.444
    2  0.085  0.006  0.000  0.018  0.225  0.000  0.035  0.000  0.075  0.444
tot    0.171  0.012  0.000  0.036  0.450  0.000  0.069  0.000  0.150  0.887