PROCAR lm decomposed
# of k-points:   95         # of bands:   24         # of ions:    2

 k-point     1 :    0.00000000 0.00000000 0.00000000     weight = 0.00086806

band     1 # energy    1.37516444 # occ.  1.00000000
 
ion      s     py     pz     px    dxy    dyz    dz2    dxz  x2-y2    tot
    1  0.364  0.000  0.000  0.000  0.000  0.000  0.000  0.000  0.000  0.364
    2  0.364  0.000  0.000  0.000  0.000  0.000  0.000  0.000  0.000  0.364
tot    0.727  0.000  0.000  0.000  0.000  0.000  0.000  0.000  0.000  0.727
 
band     2 # energy    5.15157827 # occ.  1.00000000
 
ion      s     py     pz     px    dxy    dyz    dz2    dxz  x2-y2    tot
    1  0.079  0.000  0.000  0.000  0.000  0.000  0.367  0.000  0.000  0.447
    2  0.079  0.000  0.000  0.000  0.000  0.000  0.367  0.000  0.000  0.447
tot    0.159  0.000  0.000  0.000  0.000  0.000  0.735  0.000  0.000  0.894
 
band     3 # energy    7.68510931 # occ.  1.00000000
 
ion      s     py     pz     px    dxy    dyz    dz2    dxz  x2-y2    tot
    1  0.000  0.000  0.000  0.000  0.000  0.000  0.486  0.000  0.000  0.486
    2  0.000  0.000  0.000  0.000  0.000  0.000  0.486  0.000  0.000  0.486
tot    0.000  0.000  0.000  0.000  0.000  0.000  0.972  0.000  0.000  0.972
 
band     4 # energy    7.69065542 # occ.  1.00000000
 
ion      s     py     pz     px    dxy    dyz    dz2    dxz  x2-y2    tot
    1  0.000  0.000  0.000  0.001  0.482  0.000  0.000  0.000  0.000  0.483
    2  0.000  0.000  0.000  0.001  0.482  0.000  0.000  0.000  0.000  0.483
tot    0.000  0.000  0.000  0.001  0.965  0.000  0.000  0.000  0.000  0.966
 
band     5 # energy    7.69065551 # occ.  1.00000000
 
ion      s     py     pz     px    dxy    dyz    dz2    dxz  x2-y2    tot
    1  0.000  0.001  0.000  0.000  0.000  0.000  0.000  0.000  0.482  0.483
    2  0.000  0.001  0.000  0.000  0.000  0.000  0.000  0.000  0.482  0.483
tot    0.000  0.001  0.000  0.000  0.000  0.000  0.000  0.000  0.965  0.966
 
band     6 # energy    8.00642750 # occ.  1.00000000
 
ion      s     py     pz     px    dxy    dyz    dz2    dxz  x2-y2    tot
    1  0.000  0.000  0.000  0.001  0.487  0.000  0.000  0.000  0.000  0.487
    2  0.000  0.000  0.000  0.001  0.487  0.000  0.000  0.000  0.000  0.487
tot    0.000  0.000  0.000  0.001  0.973  0.000  0.000  0.000  0.000  0.975
 
band     7 # energy    8.00642756 # occ.  1.00000000
 
ion      s     py     pz     px    dxy    dyz    dz2    dxz  x2-y2    tot
    1  0.000  0.001  0.000  0.000  0.000  0.000  0.000  0.000  0.487  0.487
    2  0.000  0.001  0.000  0.000  0.000  0.000  0.000  0.000  0.487  0.487
tot    0.000  0.001  0.000  0.000  0.000  0.000  0.000  0.000  0.973  0.975
 
band     8 # energy    8.35257154 # occ.  1.00000000
 
ion      s     py     pz     px    dxy    dyz    dz2    dxz  x2-y2    tot
    1  0.000  0.000  0.000  0.000  0.000  0.000  0.000  0.490  0.000  0.490
    2  0.000  0.000  0.000  0.000  0.000  0.000  0.000  0.490  0.000  0.490
tot    0.000  0.000  0.000  0.000  0.000  0.000  0.000  0.979  0.000  0.979
 
band     9 # energy    8.35257158 # occ.  1.00000000
 
ion      s     py     pz     px    dxy    dyz    dz2    dxz  x2-y2    tot
    1  0.000  0.000  0.000  0.000  0.000  0.490  0.000  0.000  0.000  0.490
    2  0.000  0.000  0.000  0.000  0.000  0.490  0.000  0.000  0.000  0.490
tot    0.000  0.000  0.000  0.000  0.000  0.979  0.000  0.000  0.000  0.979
 
band    10 # energy    9.46603542 # occ.  1.00000000
 
ion      s     py     pz     px    dxy    dyz    dz2    dxz  x2-y2    tot
    1  0.000  0.000  0.000  0.000  0.000  0.000  0.000  0.492  0.000  0.492
    2  0.000  0.000  0.000  0.000  0.000  0.000  0.000  0.492  0.000  0.492
tot    0.000  0.000  0.000  0.000  0.000  0.000  0.000  0.985  0.000  0.985
 
band    11 # energy    9.46603551 # occ.  1.00000000
 
ion      s     py     pz     px    dxy    dyz    dz2    dxz  x2-y2    tot
    1  0.000  0.000  0.000  0.000  0.000  0.492  0.000  0.000  0.000  0.492
    2  0.000  0.000  0.000  0.000  0.000  0.492  0.000  0.000  0.000  0.492
tot    0.000  0.000  0.000  0.000  0.000  0.985  0.000  0.000  0.000  0.985
 
band    12 # energy   10.25784268 # occ.  0.59676298
 
ion      s     py     pz     px    dxy    dyz    dz2    dxz  x2-y2    tot
    1  0.000  0.000  0.347  0.000  0.000  0.000  0.000  0.000  0.000  0.347
    2  0.000  0.000  0.347  0.000  0.000  0.000  0.000  0.000  0.000  0.347
tot    0.000  0.000  0.693  0.000  0.000  0.000  0.000  0.000  0.000  0.693
 
band    13 # energy   16.71342304 # occ.  0.00000000
 
ion      s     py     pz     px    dxy    dyz    dz2    dxz  x2-y2    tot
    1  0.225  0.000  0.000  0.000  0.000  0.000  0.229  0.000  0.000  0.453
    2  0.225  0.000  0.000  0.000  0.000  0.000  0.229  0.000  0.000  0.453
tot    0.449  0.000  0.000  0.000  0.000  0.000  0.458  0.000  0.000  0.907
 
band    14 # energy   32.27631034 # occ.  0.00000000
 
ion      s     py     pz     px    dxy    dyz    dz2    dxz  x2-y2    tot
    1  0.007  0.000  0.000  0.000  0.000  0.000  0.033  0.000  0.000  0.040
    2  0.007  0.000  0.000  0.000  0.000  0.000  0.033  0.000  0.000  0.040
tot    0.013  0.000  0.000  0.000  0.000  0.000  0.066  0.000  0.000  0.079
 
band    15 # energy   34.84494559 # occ.  0.00000000
 
ion      s     py     pz     px    dxy    dyz    dz2    dxz  x2-y2    tot
    1  0.000  0.271  0.000  0.000  0.000  0.000  0.000  0.000  0.120  0.391
    2  0.000  0.271  0.000  0.000  0.000  0.000  0.000  0.000  0.120  0.391
tot    0.000  0.542  0.000  0.000  0.000  0.000  0.000  0.000  0.241  0.782
 
band    16 # energy   34.84494686 # occ.  0.00000000
 
ion      s     py     pz     px    dxy    dyz    dz2    dxz  x2-y2    tot
    1  0.000  0.000  0.000  0.271  0.120  0.000  0.000  0.000  0.000  0.391
    2  0.000  0.000  0.000  0.271  0.120  0.000  0.000  0.000  0.000  0.391
tot    0.000  0.000  0.000  0.542  0.241  0.000  0.000  0.000  0.000  0.782
 
band    17 # energy   35.40606653 # occ.  0.00000000
 
ion      s     py     pz     px    dxy    dyz    dz2    dxz  x2-y2    tot
    1  0.023  0.000  0.000  0.000  0.000  0.000  0.075  0.000  0.000  0.098
    2  0.023  0.000  0.000  0.000  0.000  0.000  0.075  0.000  0.000  0.098
tot    0.046  0.000  0.000  0.000  0.000  0.000  0.150  0.000  0.000  0.196
 
band    18 # energy   35.85855010 # occ.  0.00000000
 
ion      s     py     pz     px    dxy    dyz    dz2    dxz  x2-y2    tot
    1  0.000  0.000  0.028  0.000  0.000  0.000  0.000  0.000  0.000  0.028
    2  0.000  0.000  0.028  0.000  0.000  0.000  0.000  0.000  0.000  0.028
tot    0.000  0.000  0.056  0.000  0.000  0.000  0.000  0.000  0.000  0.056
 
band    19 # energy   36.19689702 # occ.  0.00000000
 
ion      s     py     pz     px    dxy    dyz    dz2    dxz  x2-y2    tot
    1  0.000  0.088  0.000  0.000  0.000  0.000  0.000  0.000  0.380  0.468
    2  0.000  0.088  0.000  0.000  0.000  0.000  0.000  0.000  0.380  0.468
tot    0.000  0.176  0.000  0.000  0.000  0.000  0.000  0.000  0.760  0.936
 
band    20 # energy   36.19689746 # occ.  0.00000000
 
ion      s     py     pz     px    dxy    dyz    dz2    dxz  x2-y2    tot
    1  0.000  0.000  0.000  0.088  0.380  0.000  0.000  0.000  0.000  0.468
    2  0.000  0.000  0.000  0.088  0.380  0.000  0.000  0.000  0.000  0.468
tot    0.000  0.000  0.000  0.176  0.760  0.000  0.000  0.000  0.000  0.936
 
band    21 # energy   40.80807951 # occ.  0.00000000
 
ion      s     py     pz     px    dxy    dyz    dz2    dxz  x2-y2    tot
    1  0.000  0.000  0.000  0.000  0.000  0.136  0.000  0.000  0.000  0.136
    2  0.000  0.000  0.000  0.000  0.000  0.136  0.000  0.000  0.000  0.136
tot    0.000  0.000  0.000  0.000  0.000  0.271  0.000  0.000  0.000  0.271
 
band    22 # energy   40.80807959 # occ.  0.00000000
 
ion      s     py     pz     px    dxy    dyz    dz2    dxz  x2-y2    tot
    1  0.000  0.000  0.000  0.000  0.000  0.000  0.000  0.136  0.000  0.136
    2  0.000  0.000  0.000  0.000  0.000  0.000  0.000  0.136  0.000  0.136
tot    0.000  0.000  0.000  0.000  0.000  0.000  0.000  0.271  0.000  0.271
 
band    23 # energy   41.71916457 # occ.  0.00000000
 
ion      s     py     pz     px    dxy    dyz    dz2    dxz  x2-y2    tot
    1  0.004  0.000  0.000  0.000  0.000  0.000  0.617  0.000  0.000  0.621
    2  0.004  0.000  0.000  0.000  0.000  0.000  0.617  0.000  0.000  0.621
tot    0.008  0.000  0.000  0.000  0.000  0.000  1.235  0.000  0.000  1.243
 
band    24 # energy   42.21656138 # occ.  0.00000000
 
ion      s     py     pz     px    dxy    dyz    dz2    dxz  x2-y2    tot
    1  0.000  0.000  0.048  0.000  0.000  0.000  0.000  0.000  0.000  0.048
    2  0.000  0.000  0.048  0.000  0.000  0.000  0.000  0.000  0.000  0.048
tot    0.000  0.000  0.097  0.000  0.000  0.000  0.000  0.000  0.000  0.097
 

 k-point     2 :    0.08333333 0.00000000 0.00000000     weight = 0.00520833

band     1 # energy    1.61848889 # occ.  1.00000000
 
ion      s     py     pz     px    dxy    dyz    dz2    dxz  x2-y2    tot
    1  0.355  0.002  0.000  0.006  0.000  0.000  0.000  0.000  0.000  0.364
    2  0.355  0.002  0.000  0.006  0.000  0.000  0.000  0.000  0.000  0.364
tot    0.711  0.004  0.000  0.012  0.000  0.000  0.000  0.000  0.000  0.728
 
band     2 # energy    5.29608202 # occ.  1.00000000
 
ion      s     py     pz     px    dxy    dyz    dz2    dxz  x2-y2    tot
    1  0.072  0.001  0.000  0.004  0.002  0.000  0.368  0.000  0.001  0.448
    2  0.072  0.001  0.000  0.004  0.002  0.000  0.368  0.000  0.001  0.448
tot    0.144  0.003  0.000  0.008  0.004  0.000  0.736  0.000  0.001  0.896
 
band     3 # energy    7.45878999 # occ.  1.00000000
 
ion      s     py     pz     px    dxy    dyz    dz2    dxz  x2-y2    tot
    1  0.000  0.000  0.000  0.001  0.238  0.000  0.162  0.000  0.079  0.481
    2  0.000  0.000  0.000  0.001  0.238  0.000  0.162  0.000  0.079  0.481
tot    0.000  0.001  0.000  0.002  0.477  0.000  0.323  0.000  0.159  0.962
 
band     4 # energy    7.80392673 # occ.  1.00000000
 
ion      s     py     pz     px    dxy    dyz    dz2    dxz  x2-y2    tot
    1  0.000  0.001  0.000  0.000  0.120  0.000  0.000  0.000  0.361  0.483
    2  0.000  0.001  0.000  0.000  0.120  0.000  0.000  0.000  0.361  0.483
tot    0.000  0.002  0.000  0.001  0.241  0.000  0.000  0.000  0.723  0.966
 
band     5 # energy    7.87847497 # occ.  1.00000000
 
ion      s     py     pz     px    dxy    dyz    dz2    dxz  x2-y2    tot
    1  0.000  0.000  0.000  0.000  0.152  0.000  0.283  0.000  0.051  0.486
    2  0.000  0.000  0.000  0.000  0.152  0.000  0.283  0.000  0.051  0.486
tot    0.000  0.000  0.000  0.001  0.304  0.000  0.565  0.000  0.101  0.972
 
band     6 # energy    7.96161351 # occ.  1.00000000
 
ion      s     py     pz     px    dxy    dyz    dz2    dxz  x2-y2    tot
    1  0.001  0.000  0.000  0.001  0.331  0.000  0.044  0.000  0.110  0.486
    2  0.001  0.000  0.000  0.001  0.331  0.000  0.044  0.000  0.110  0.486
tot    0.002  0.000  0.000  0.001  0.661  0.000  0.087  0.000  0.220  0.972
 
band     7 # energy    8.10625216 # occ.  1.00000000
 
ion      s     py     pz     px    dxy    dyz    dz2    dxz  x2-y2    tot
    1  0.000  0.001  0.000  0.000  0.122  0.000  0.000  0.000  0.365  0.488
    2  0.000  0.001  0.000  0.000  0.122  0.000  0.000  0.000  0.365  0.488
tot    0.000  0.002  0.000  0.001  0.243  0.000  0.000  0.000  0.730  0.975
 
band     8 # energy    8.20431635 # occ.  1.00000000
 
ion      s     py     pz     px    dxy    dyz    dz2    dxz  x2-y2    tot
    1  0.000  0.000  0.011  0.000  0.000  0.118  0.000  0.353  0.000  0.482
    2  0.000  0.000  0.011  0.000  0.000  0.118  0.000  0.353  0.000  0.482
tot    0.000  0.000  0.022  0.000  0.000  0.235  0.000  0.706  0.000  0.964
 
band     9 # energy    8.28157049 # occ.  1.00000000
 
ion      s     py     pz     px    dxy    dyz    dz2    dxz  x2-y2    tot
    1  0.000  0.000  0.000  0.000  0.000  0.367  0.000  0.122  0.000  0.489
    2  0.000  0.000  0.000  0.000  0.000  0.367  0.000  0.122  0.000  0.489
tot    0.000  0.000  0.000  0.000  0.000  0.733  0.000  0.244  0.000  0.978
 
band    10 # energy    8.71088079 # occ.  1.00000000
 
ion      s     py     pz     px    dxy    dyz    dz2    dxz  x2-y2    tot
    1  0.000  0.000  0.087  0.000  0.000  0.091  0.000  0.273  0.000  0.451
    2  0.000  0.000  0.087  0.000  0.000  0.091  0.000  0.273  0.000  0.451
tot    0.000  0.000  0.174  0.000  0.000  0.182  0.000  0.546  0.000  0.902
 
band    11 # energy    9.49642488 # occ.  1.00000000
 
ion      s     py     pz     px    dxy    dyz    dz2    dxz  x2-y2    tot
    1  0.000  0.000  0.000  0.000  0.000  0.370  0.000  0.123  0.000  0.493
    2  0.000  0.000  0.000  0.000  0.000  0.370  0.000  0.123  0.000  0.493
tot    0.000  0.000  0.000  0.000  0.000  0.740  0.000  0.247  0.000  0.986
 
band    12 # energy   11.32732321 # occ.  0.00000000
 
ion      s     py     pz     px    dxy    dyz    dz2    dxz  x2-y2    tot
    1  0.000  0.000  0.245  0.000  0.000  0.038  0.000  0.113  0.000  0.396
    2  0.000  0.000  0.245  0.000  0.000  0.038  0.000  0.113  0.000  0.396
tot    0.000  0.000  0.490  0.000  0.000  0.076  0.000  0.227  0.000  0.792
 
band    13 # energy   16.75610087 # occ.  0.00000000
 
ion      s     py     pz     px    dxy    dyz    dz2    dxz  x2-y2    tot
    1  0.221  0.002  0.000  0.005  0.000  0.000  0.223  0.000  0.000  0.451
    2  0.221  0.002  0.000  0.005  0.000  0.000  0.223  0.000  0.000  0.451
tot    0.442  0.004  0.000  0.011  0.000  0.000  0.446  0.000  0.000  0.902
 
band    14 # energy   30.41702143 # occ.  0.00000000
 
ion      s     py     pz     px    dxy    dyz    dz2    dxz  x2-y2    tot
    1  0.014  0.024  0.000  0.072  0.111  0.000  0.024  0.000  0.037  0.281
    2  0.014  0.024  0.000  0.072  0.111  0.000  0.024  0.000  0.037  0.281
tot    0.028  0.048  0.000  0.144  0.221  0.000  0.048  0.000  0.074  0.563
 
band    15 # energy   32.72324996 # occ.  0.00000000
 
ion      s     py     pz     px    dxy    dyz    dz2    dxz  x2-y2    tot
    1  0.000  0.176  0.000  0.059  0.042  0.000  0.000  0.000  0.125  0.401
    2  0.000  0.176  0.000  0.059  0.042  0.000  0.000  0.000  0.125  0.401
tot    0.000  0.351  0.000  0.117  0.084  0.000  0.000  0.000  0.251  0.802
 
band    16 # energy   32.76051468 # occ.  0.00000000
 
ion      s     py     pz     px    dxy    dyz    dz2    dxz  x2-y2    tot
    1  0.022  0.022  0.000  0.066  0.063  0.000  0.040  0.000  0.021  0.234
    2  0.022  0.022  0.000  0.066  0.063  0.000  0.040  0.000  0.021  0.234
tot    0.044  0.044  0.000  0.131  0.127  0.000  0.080  0.000  0.042  0.468
 
band    17 # energy   35.86903576 # occ.  0.00000000
 
ion      s     py     pz     px    dxy    dyz    dz2    dxz  x2-y2    tot
    1  0.000  0.000  0.010  0.000  0.000  0.012  0.000  0.037  0.000  0.060
    2  0.000  0.000  0.010  0.000  0.000  0.012  0.000  0.037  0.000  0.060
tot    0.000  0.000  0.021  0.000  0.000  0.025  0.000  0.074  0.000  0.119
 
band    18 # energy   36.27681277 # occ.  0.00000000
 
ion      s     py     pz     px    dxy    dyz    dz2    dxz  x2-y2    tot
    1  0.003  0.016  0.000  0.047  0.038  0.000  0.035  0.000  0.013  0.153
    2  0.003  0.016  0.000  0.047  0.038  0.000  0.035  0.000  0.013  0.153
tot    0.007  0.032  0.000  0.095  0.076  0.000  0.070  0.000  0.025  0.305
 
band    19 # energy   37.66813349 # occ.  0.00000000
 
ion      s     py     pz     px    dxy    dyz    dz2    dxz  x2-y2    tot
    1  0.000  0.000  0.031  0.000  0.000  0.028  0.000  0.085  0.000  0.144
    2  0.000  0.000  0.031  0.000  0.000  0.028  0.000  0.085  0.000  0.144
tot    0.000  0.000  0.061  0.000  0.000  0.057  0.000  0.170  0.000  0.288
 
band    20 # energy   38.54768622 # occ.  0.00000000
 
ion      s     py     pz     px    dxy    dyz    dz2    dxz  x2-y2    tot
    1  0.000  0.083  0.000  0.028  0.087  0.000  0.000  0.000  0.261  0.459
    2  0.000  0.083  0.000  0.028  0.087  0.000  0.000  0.000  0.261  0.459
tot    0.000  0.166  0.000  0.055  0.174  0.000  0.000  0.000  0.522  0.918
 
band    21 # energy   39.31452799 # occ.  0.00000000
 
ion      s     py     pz     px    dxy    dyz    dz2    dxz  x2-y2    tot
    1  0.006  0.038  0.000  0.114  0.129  0.000  0.006  0.000  0.043  0.337
    2  0.006  0.038  0.000  0.114  0.129  0.000  0.006  0.000  0.043  0.337
tot    0.012  0.076  0.000  0.229  0.258  0.000  0.012  0.000  0.086  0.673
 
band    22 # energy   40.28785392 # occ.  0.00000000
 
ion      s     py     pz     px    dxy    dyz    dz2    dxz  x2-y2    tot
    1  0.000  0.000  0.000  0.000  0.000  0.187  0.000  0.062  0.000  0.250
    2  0.000  0.000  0.000  0.000  0.000  0.187  0.000  0.062  0.000  0.250
tot    0.000  0.000  0.000  0.000  0.000  0.375  0.000  0.125  0.000  0.500
 
band    23 # energy   41.28909457 # occ.  0.00000000
 
ion      s     py     pz     px    dxy    dyz    dz2    dxz  x2-y2    tot
    1  0.001  0.008  0.000  0.023  0.051  0.000  0.488  0.000  0.017  0.588
    2  0.001  0.008  0.000  0.023  0.051  0.000  0.488  0.000  0.017  0.588
tot    0.003  0.015  0.000  0.046  0.102  0.000  0.976  0.000  0.034  1.176
 
band    24 # energy   41.49880598 # occ.  0.00000000
 
ion      s     py     pz     px    dxy    dyz    dz2    dxz  x2-y2    tot
    1  0.000  0.000  0.196  0.000  0.000  0.043  0.000  0.128  0.000  0.367
    2  0.000  0.000  0.196  0.000  0.000  0.043  0.000  0.128  0.000  0.367
tot    0.000  0.000  0.393  0.000  0.000  0.085  0.000  0.256  0.000  0.734
 

 k-point     3 :    0.16666667 0.00000000 0.00000000     weight = 0.00520833

band     1 # energy    2.32221945 # occ.  1.00000000
 
ion      s     py     pz     px    dxy    dyz    dz2    dxz  x2-y2    tot
    1  0.330  0.008  0.000  0.023  0.002  0.000  0.001  0.000  0.001  0.365
    2  0.330  0.008  0.000  0.023  0.002  0.000  0.001  0.000  0.001  0.365
tot    0.661  0.016  0.000  0.047  0.004  0.000  0.002  0.000  0.001  0.730
 
band     2 # energy    5.65231285 # occ.  1.00000000
 
ion      s     py     pz     px    dxy    dyz    dz2    dxz  x2-y2    tot
    1  0.051  0.004  0.000  0.012  0.019  0.000  0.359  0.000  0.006  0.452
    2  0.051  0.004  0.000  0.012  0.019  0.000  0.359  0.000  0.006  0.452
tot    0.103  0.008  0.000  0.024  0.038  0.000  0.717  0.000  0.013  0.903
 
band     3 # energy    7.18479180 # occ.  1.00000000
 
ion      s     py     pz     px    dxy    dyz    dz2    dxz  x2-y2    tot
    1  0.000  0.001  0.000  0.004  0.265  0.000  0.115  0.000  0.088  0.474
    2  0.000  0.001  0.000  0.004  0.265  0.000  0.115  0.000  0.088  0.474
tot    0.001  0.003  0.000  0.009  0.530  0.000  0.230  0.000  0.177  0.949
 
band     4 # energy    7.50671292 # occ.  1.00000000
 
ion      s     py     pz     px    dxy    dyz    dz2    dxz  x2-y2    tot
    1  0.000  0.000  0.060  0.000  0.000  0.098  0.000  0.293  0.000  0.451
    2  0.000  0.000  0.060  0.000  0.000  0.098  0.000  0.293  0.000  0.451
tot    0.000  0.000  0.120  0.000  0.000  0.196  0.000  0.587  0.000  0.902
 
band     5 # energy    7.79163151 # occ.  1.00000000
 
ion      s     py     pz     px    dxy    dyz    dz2    dxz  x2-y2    tot
    1  0.004  0.000  0.000  0.001  0.315  0.000  0.056  0.000  0.105  0.483
    2  0.004  0.000  0.000  0.001  0.315  0.000  0.056  0.000  0.105  0.483
tot    0.009  0.001  0.000  0.003  0.630  0.000  0.112  0.000  0.210  0.965
 
band     6 # energy    8.10645743 # occ.  1.00000000
 
ion      s     py     pz     px    dxy    dyz    dz2    dxz  x2-y2    tot
    1  0.000  0.000  0.000  0.000  0.000  0.365  0.000  0.122  0.000  0.487
    2  0.000  0.000  0.000  0.000  0.000  0.365  0.000  0.122  0.000  0.487
tot    0.000  0.000  0.000  0.000  0.000  0.730  0.000  0.243  0.000  0.974
 
band     7 # energy    8.12366102 # occ.  1.00000000
 
ion      s     py     pz     px    dxy    dyz    dz2    dxz  x2-y2    tot
    1  0.000  0.002  0.000  0.001  0.120  0.000  0.000  0.000  0.361  0.484
    2  0.000  0.002  0.000  0.001  0.120  0.000  0.000  0.000  0.361  0.484
tot    0.000  0.003  0.000  0.001  0.241  0.000  0.000  0.000  0.723  0.968
 
band     8 # energy    8.18366668 # occ.  1.00000000
 
ion      s     py     pz     px    dxy    dyz    dz2    dxz  x2-y2    tot
    1  0.001  0.000  0.000  0.001  0.113  0.000  0.333  0.000  0.038  0.486
    2  0.001  0.000  0.000  0.001  0.113  0.000  0.333  0.000  0.038  0.486
tot    0.003  0.001  0.000  0.002  0.225  0.000  0.667  0.000  0.075  0.973
 
band     9 # energy    8.32608908 # occ.  1.00000000
 
ion      s     py     pz     px    dxy    dyz    dz2    dxz  x2-y2    tot
    1  0.000  0.000  0.036  0.000  0.000  0.109  0.000  0.328  0.000  0.473
    2  0.000  0.000  0.036  0.000  0.000  0.109  0.000  0.328  0.000  0.473
tot    0.000  0.000  0.071  0.000  0.000  0.219  0.000  0.657  0.000  0.947
 
band    10 # energy    8.38635462 # occ.  1.00000000
 
ion      s     py     pz     px    dxy    dyz    dz2    dxz  x2-y2    tot
    1  0.000  0.002  0.000  0.001  0.122  0.000  0.000  0.000  0.365  0.488
    2  0.000  0.002  0.000  0.001  0.122  0.000  0.000  0.000  0.365  0.488
tot    0.000  0.003  0.000  0.001  0.243  0.000  0.000  0.000  0.729  0.977
 
band    11 # energy    9.56138845 # occ.  1.00000000
 
ion      s     py     pz     px    dxy    dyz    dz2    dxz  x2-y2    tot
    1  0.000  0.000  0.000  0.000  0.000  0.371  0.000  0.124  0.000  0.494
    2  0.000  0.000  0.000  0.000  0.000  0.371  0.000  0.124  0.000  0.494
tot    0.000  0.000  0.000  0.000  0.000  0.742  0.000  0.247  0.000  0.989
 
band    12 # energy   12.91833496 # occ.  0.00000000
 
ion      s     py     pz     px    dxy    dyz    dz2    dxz  x2-y2    tot
    1  0.000  0.000  0.238  0.000  0.000  0.042  0.000  0.125  0.000  0.405
    2  0.000  0.000  0.238  0.000  0.000  0.042  0.000  0.125  0.000  0.405
tot    0.000  0.000  0.477  0.000  0.000  0.083  0.000  0.250  0.000  0.810
 
band    13 # energy   16.90527013 # occ.  0.00000000
 
ion      s     py     pz     px    dxy    dyz    dz2    dxz  x2-y2    tot
    1  0.207  0.008  0.000  0.024  0.001  0.000  0.205  0.000  0.000  0.443
    2  0.207  0.008  0.000  0.024  0.001  0.000  0.205  0.000  0.000  0.443
tot    0.413  0.016  0.000  0.047  0.001  0.000  0.409  0.000  0.000  0.887
 
band    14 # energy   26.59869440 # occ.  0.00000000
 
ion      s     py     pz     px    dxy    dyz    dz2    dxz  x2-y2    tot
    1  0.043  0.037  0.000  0.111  0.118  0.000  0.023  0.000  0.039  0.371
    2  0.043  0.037  0.000  0.111  0.118  0.000  0.023  0.000  0.039  0.371
tot    0.086  0.074  0.000  0.223  0.235  0.000  0.045  0.000  0.078  0.742
 
band    15 # energy   30.32785549 # occ.  0.00000000
 
ion      s     py     pz     px    dxy    dyz    dz2    dxz  x2-y2    tot
    1  0.000  0.191  0.000  0.064  0.032  0.000  0.000  0.000  0.097  0.384
    2  0.000  0.191  0.000  0.064  0.032  0.000  0.000  0.000  0.097  0.384
tot    0.000  0.382  0.000  0.127  0.065  0.000  0.000  0.000  0.194  0.768
 
band    16 # energy   31.82091921 # occ.  0.00000000
 
ion      s     py     pz     px    dxy    dyz    dz2    dxz  x2-y2    tot
    1  0.023  0.006  0.000  0.017  0.143  0.000  0.048  0.000  0.048  0.284
    2  0.023  0.006  0.000  0.017  0.143  0.000  0.048  0.000  0.048  0.284
tot    0.045  0.011  0.000  0.033  0.286  0.000  0.097  0.000  0.095  0.568
 
band    17 # energy   33.73381525 # occ.  0.00000000
 
ion      s     py     pz     px    dxy    dyz    dz2    dxz  x2-y2    tot
    1  0.000  0.000  0.040  0.000  0.000  0.054  0.000  0.162  0.000  0.257
    2  0.000  0.000  0.040  0.000  0.000  0.054  0.000  0.162  0.000  0.257
tot    0.000  0.000  0.081  0.000  0.000  0.108  0.000  0.325  0.000  0.514
 
band    18 # energy   35.97474331 # occ.  0.00000000
 
ion      s     py     pz     px    dxy    dyz    dz2    dxz  x2-y2    tot
    1  0.000  0.000  0.009  0.000  0.000  0.013  0.000  0.040  0.000  0.062
    2  0.000  0.000  0.009  0.000  0.000  0.013  0.000  0.040  0.000  0.062
tot    0.000  0.000  0.018  0.000  0.000  0.027  0.000  0.080  0.000  0.125
 
band    19 # energy   36.75081029 # occ.  0.00000000
 
ion      s     py     pz     px    dxy    dyz    dz2    dxz  x2-y2    tot
    1  0.030  0.038  0.000  0.113  0.051  0.000  0.030  0.000  0.017  0.280
    2  0.030  0.038  0.000  0.113  0.051  0.000  0.030  0.000  0.017  0.280
tot    0.061  0.075  0.000  0.226  0.103  0.000  0.061  0.000  0.034  0.559
 
band    20 # energy   38.93366995 # occ.  0.00000000
 
ion      s     py     pz     px    dxy    dyz    dz2    dxz  x2-y2    tot
    1  0.041  0.041  0.000  0.123  0.000  0.000  0.117  0.000  0.000  0.322
    2  0.041  0.041  0.000  0.123  0.000  0.000  0.117  0.000  0.000  0.322
tot    0.082  0.082  0.000  0.246  0.000  0.000  0.234  0.000  0.000  0.644
 
band    21 # energy   39.46321109 # occ.  0.00000000
 
ion      s     py     pz     px    dxy    dyz    dz2    dxz  x2-y2    tot
    1  0.000  0.000  0.000  0.000  0.000  0.281  0.000  0.094  0.000  0.375
    2  0.000  0.000  0.000  0.000  0.000  0.281  0.000  0.094  0.000  0.375
tot    0.000  0.000  0.000  0.000  0.000  0.563  0.000  0.188  0.000  0.750
 
band    22 # energy   40.15505341 # occ.  0.00000000
 
ion      s     py     pz     px    dxy    dyz    dz2    dxz  x2-y2    tot
    1  0.000  0.000  0.237  0.000  0.000  0.008  0.000  0.024  0.000  0.269
    2  0.000  0.000  0.237  0.000  0.000  0.008  0.000  0.024  0.000  0.269
tot    0.000  0.000  0.474  0.000  0.000  0.016  0.000  0.048  0.000  0.538
 
band    23 # energy   40.67532703 # occ.  0.00000000
 
ion      s     py     pz     px    dxy    dyz    dz2    dxz  x2-y2    tot
    1  0.000  0.052  0.000  0.017  0.109  0.000  0.000  0.000  0.326  0.505
    2  0.000  0.052  0.000  0.017  0.109  0.000  0.000  0.000  0.326  0.505
tot    0.000  0.104  0.000  0.035  0.218  0.000  0.000  0.000  0.653  1.009
 
band    24 # energy   42.21121386 # occ.  0.00000000
 
ion      s     py     pz     px    dxy    dyz    dz2    dxz  x2-y2    tot
    1  0.000  0.231  0.000  0.077  0.025  0.000  0.000  0.000  0.075  0.408
    2  0.000  0.231  0.000  0.077  0.025  0.000  0.000  0.000  0.075  0.408
tot    0.000  0.463  0.000  0.154  0.050  0.000  0.000  0.000  0.150  0.817
 

 k-point     4 :    0.25000000-0.00000000 0.00000000     weight = 0.00520833

band     1 # energy    3.38574803 # occ.  1.00000000
 
ion      s     py     pz     px    dxy    dyz    dz2    dxz  x2-y2    tot
    1  0.286  0.015  0.000  0.045  0.014  0.000  0.005  0.000  0.005  0.370
    2  0.286  0.015  0.000  0.045  0.014  0.000  0.005  0.000  0.005  0.370
tot    0.571  0.030  0.000  0.090  0.028  0.000  0.010  0.000  0.009  0.740
 
band     2 # energy    5.93399766 # occ.  1.00000000
 
ion      s     py     pz     px    dxy    dyz    dz2    dxz  x2-y2    tot
    1  0.025  0.004  0.000  0.012  0.105  0.000  0.278  0.000  0.035  0.459
    2  0.025  0.004  0.000  0.012  0.105  0.000  0.278  0.000  0.035  0.459
tot    0.051  0.008  0.000  0.023  0.210  0.000  0.556  0.000  0.070  0.917
 
band     3 # energy    6.78186979 # occ.  1.00000000
 
ion      s     py     pz     px    dxy    dyz    dz2    dxz  x2-y2    tot
    1  0.000  0.000  0.051  0.000  0.000  0.099  0.000  0.297  0.000  0.447
    2  0.000  0.000  0.051  0.000  0.000  0.099  0.000  0.297  0.000  0.447
tot    0.000  0.000  0.102  0.000  0.000  0.198  0.000  0.594  0.000  0.894
 
band     4 # energy    7.02176594 # occ.  1.00000000
 
ion      s     py     pz     px    dxy    dyz    dz2    dxz  x2-y2    tot
    1  0.001  0.007  0.000  0.020  0.230  0.000  0.129  0.000  0.077  0.463
    2  0.001  0.007  0.000  0.020  0.230  0.000  0.129  0.000  0.077  0.463
tot    0.002  0.013  0.000  0.040  0.459  0.000  0.259  0.000  0.153  0.926
 
band     5 # energy    7.70322976 # occ.  1.00000000
 
ion      s     py     pz     px    dxy    dyz    dz2    dxz  x2-y2    tot
    1  0.010  0.001  0.000  0.004  0.251  0.000  0.129  0.000  0.084  0.479
    2  0.010  0.001  0.000  0.004  0.251  0.000  0.129  0.000  0.084  0.479
tot    0.020  0.003  0.000  0.008  0.502  0.000  0.257  0.000  0.167  0.958
 
band     6 # energy    7.89589374 # occ.  1.00000000
 
ion      s     py     pz     px    dxy    dyz    dz2    dxz  x2-y2    tot
    1  0.000  0.000  0.000  0.000  0.000  0.364  0.000  0.121  0.000  0.485
    2  0.000  0.000  0.000  0.000  0.000  0.364  0.000  0.121  0.000  0.485
tot    0.000  0.000  0.000  0.000  0.000  0.728  0.000  0.243  0.000  0.970
 
band     7 # energy    8.12661107 # occ.  1.00000000
 
ion      s     py     pz     px    dxy    dyz    dz2    dxz  x2-y2    tot
    1  0.000  0.000  0.028  0.000  0.000  0.112  0.000  0.336  0.000  0.476
    2  0.000  0.000  0.028  0.000  0.000  0.112  0.000  0.336  0.000  0.476
tot    0.000  0.000  0.056  0.000  0.000  0.224  0.000  0.672  0.000  0.951
 
band     8 # energy    8.58633385 # occ.  1.00000000
 
ion      s     py     pz     px    dxy    dyz    dz2    dxz  x2-y2    tot
    1  0.000  0.002  0.000  0.001  0.121  0.000  0.000  0.000  0.363  0.486
    2  0.000  0.002  0.000  0.001  0.121  0.000  0.000  0.000  0.363  0.486
tot    0.000  0.003  0.000  0.001  0.242  0.000  0.000  0.000  0.725  0.972
 
band     9 # energy    8.61121903 # occ.  1.00000000
 
ion      s     py     pz     px    dxy    dyz    dz2    dxz  x2-y2    tot
    1  0.006  0.002  0.000  0.005  0.101  0.000  0.338  0.000  0.034  0.485
    2  0.006  0.002  0.000  0.005  0.101  0.000  0.338  0.000  0.034  0.485
tot    0.011  0.003  0.000  0.010  0.202  0.000  0.677  0.000  0.067  0.971
 
band    10 # energy    8.78888822 # occ.  1.00000000
 
ion      s     py     pz     px    dxy    dyz    dz2    dxz  x2-y2    tot
    1  0.000  0.002  0.000  0.001  0.122  0.000  0.000  0.000  0.365  0.490
    2  0.000  0.002  0.000  0.001  0.122  0.000  0.000  0.000  0.365  0.490
tot    0.000  0.004  0.000  0.001  0.243  0.000  0.000  0.000  0.730  0.980
 
band    11 # energy    9.62298559 # occ.  1.00000000
 
ion      s     py     pz     px    dxy    dyz    dz2    dxz  x2-y2    tot