<?xml version="1.0" encoding="ISO-8859-1"?>
<modeling>
 <generator>
  <i name="program" type="string">vasp </i>
  <i name="version" type="string">6.3.2  </i>
  <i name="subversion" type="string">27Jun22 (build Aug 12 2022 00:53:59) complex                          parallel </i>
  <i name="platform" type="string">tv2STD </i>
  <i name="date" type="string">2024 12 03 </i>
  <i name="time" type="string">02:37:52 </i>
 </generator>
 <incar>
  <i type="string" name="SYSTEM">Co-hcc</i>
  <i type="int" name="ISTART">     0</i>
  <i type="string" name="PREC">Accurate      normal | accurate</i>
  <i type="string" name="ALGO">Normal     Normal, Fast, Very_Fast</i>
  <i type="logical" name="ADDGRID"> F  </i>
  <i type="int" name="ISPIN">     2</i>
  <i type="int" name="ICHARG">     2</i>
  <i type="int" name="INIWAV">     1</i>
  <i type="int" name="NELM">   100</i>
  <i type="int" name="IBRION">     2</i>
  <i name="EDIFF">      0.00000100</i>
  <i name="EDIFFG">     -0.02000000</i>
  <i type="int" name="NSW">   100</i>
  <i type="int" name="ISIF">     2</i>
  <i type="int" name="ISYM">     1</i>
  <i name="ENCUT">    425.00000000</i>
  <v name="MAGMOM">      3.00000000      3.00000000</v>
  <i type="logical" name="LREAL"> F  </i>
  <i type="int" name="ISMEAR">     0</i>
  <i name="SIGMA">      0.05000000</i>
  <i type="int" name="NWRITE">     2</i>
  <i type="logical" name="LWAVE"> F  </i>
  <i type="logical" name="LCHARG"> F  </i>
  <i type="int" name="LORBIT">    11</i>
 </incar>
 <primitive_cell>
  <structure name="primitive_cell" >
   <crystal>
    <varray name="basis" >
     <v>       1.24613780      -2.15837399       0.00000000 </v>
     <v>       1.24613780       2.15837399       0.00000000 </v>
     <v>       0.00000000       0.00000000       4.02015843 </v>
    </varray>
    <i name="volume">     21.62548890 </i>
    <varray name="rec_basis" >
     <v>       0.40123973      -0.23165587       0.00000000 </v>
     <v>       0.40123973       0.23165587       0.00000000 </v>
     <v>       0.00000000       0.00000000       0.24874642 </v>
    </varray>
   </crystal>
   <varray name="positions" >
    <v>       0.33333333       0.66666667       0.25000000 </v>
    <v>       0.66666667       0.33333333       0.75000000 </v>
   </varray>
  </structure>
  <varray name="primitive_index" >
   <v type="int" >        1 </v>
   <v type="int" >        2 </v>
  </varray>
 </primitive_cell>
 <kpoints>
  <generation param="Gamma">
   <v type="int" name="divisions">      12       12        8 </v>
   <v name="usershift">      0.00000000       0.00000000       0.00000000 </v>
   <v name="genvec1">      0.08333333       0.00000000       0.00000000 </v>
   <v name="genvec2">      0.00000000       0.08333333       0.00000000 </v>
   <v name="genvec3">      0.00000000       0.00000000       0.12500000 </v>
   <v name="shift">      0.00000000       0.00000000       0.00000000 </v>
  </generation>
  <varray name="kpointlist" >
   <v>       0.00000000       0.00000000       0.00000000 </v>
   <v>       0.08333333       0.00000000       0.00000000 </v>
   <v>       0.16666667       0.00000000       0.00000000 </v>
   <v>       0.25000000      -0.00000000       0.00000000 </v>
   <v>       0.33333333      -0.00000000       0.00000000 </v>
   <v>       0.41666667       0.00000000       0.00000000 </v>
   <v>       0.50000000      -0.00000000       0.00000000 </v>
   <v>       0.08333333       0.08333333       0.00000000 </v>
   <v>       0.16666667       0.08333333       0.00000000 </v>
   <v>       0.25000000       0.08333333       0.00000000 </v>
   <v>       0.33333333       0.08333333       0.00000000 </v>
   <v>       0.41666667       0.08333333       0.00000000 </v>
   <v>       0.16666667       0.16666667       0.00000000 </v>
   <v>       0.25000000       0.16666667       0.00000000 </v>
   <v>       0.33333333       0.16666667       0.00000000 </v>
   <v>       0.41666667       0.16666667       0.00000000 </v>
   <v>       0.25000000       0.25000000       0.00000000 </v>
   <v>       0.33333333       0.25000000       0.00000000 </v>
   <v>       0.33333333       0.33333333       0.00000000 </v>
   <v>       0.00000000       0.00000000       0.12500000 </v>
   <v>       0.08333333       0.00000000       0.12500000 </v>
   <v>       0.16666667       0.00000000       0.12500000 </v>
   <v>       0.25000000      -0.00000000       0.12500000 </v>
   <v>       0.33333333      -0.00000000       0.12500000 </v>
   <v>       0.41666667       0.00000000       0.12500000 </v>
   <v>       0.50000000      -0.00000000       0.12500000 </v>
   <v>       0.08333333       0.08333333       0.12500000 </v>
   <v>       0.16666667       0.08333333       0.12500000 </v>
   <v>       0.25000000       0.08333333       0.12500000 </v>
   <v>       0.33333333       0.08333333       0.12500000 </v>
   <v>       0.41666667       0.08333333       0.12500000 </v>
   <v>       0.16666667       0.16666667       0.12500000 </v>
   <v>       0.25000000       0.16666667       0.12500000 </v>
   <v>       0.33333333       0.16666667       0.12500000 </v>
   <v>       0.41666667       0.16666667       0.12500000 </v>
   <v>       0.25000000       0.25000000       0.12500000 </v>
   <v>       0.33333333       0.25000000       0.12500000 </v>
   <v>       0.33333333       0.33333333       0.12500000 </v>
   <v>       0.00000000       0.00000000       0.25000000 </v>
   <v>       0.08333333       0.00000000       0.25000000 </v>
   <v>       0.16666667       0.00000000       0.25000000 </v>
   <v>       0.25000000      -0.00000000       0.25000000 </v>
   <v>       0.33333333      -0.00000000       0.25000000 </v>
   <v>       0.41666667       0.00000000       0.25000000 </v>
   <v>       0.50000000      -0.00000000       0.25000000 </v>
   <v>       0.08333333       0.08333333       0.25000000 </v>
   <v>       0.16666667       0.08333333       0.25000000 </v>
   <v>       0.25000000       0.08333333       0.25000000 </v>
   <v>       0.33333333       0.08333333       0.25000000 </v>
   <v>       0.41666667       0.08333333       0.25000000 </v>
   <v>       0.16666667       0.16666667       0.25000000 </v>
   <v>       0.25000000       0.16666667       0.25000000 </v>
   <v>       0.33333333       0.16666667       0.25000000 </v>
   <v>       0.41666667       0.16666667       0.25000000 </v>
   <v>       0.25000000       0.25000000       0.25000000 </v>
   <v>       0.33333333       0.25000000       0.25000000 </v>
   <v>       0.33333333       0.33333333       0.25000000 </v>
   <v>       0.00000000       0.00000000       0.37500000 </v>
   <v>       0.08333333       0.00000000       0.37500000 </v>
   <v>       0.16666667       0.00000000       0.37500000 </v>
   <v>       0.25000000      -0.00000000       0.37500000 </v>
   <v>       0.33333333      -0.00000000       0.37500000 </v>
   <v>       0.41666667       0.00000000       0.37500000 </v>
   <v>       0.50000000      -0.00000000       0.37500000 </v>
   <v>       0.08333333       0.08333333       0.37500000 </v>
   <v>       0.16666667       0.08333333       0.37500000 </v>
   <v>       0.25000000       0.08333333       0.37500000 </v>
   <v>       0.33333333       0.08333333       0.37500000 </v>
   <v>       0.41666667       0.08333333       0.37500000 </v>
   <v>       0.16666667       0.16666667       0.37500000 </v>
   <v>       0.25000000       0.16666667       0.37500000 </v>
   <v>       0.33333333       0.16666667       0.37500000 </v>
   <v>       0.41666667       0.16666667       0.37500000 </v>
   <v>       0.25000000       0.25000000       0.37500000 </v>
   <v>       0.33333333       0.25000000       0.37500000 </v>
   <v>       0.33333333       0.33333333       0.37500000 </v>
   <v>       0.00000000       0.00000000       0.50000000 </v>
   <v>       0.08333333       0.00000000       0.50000000 </v>
   <v>       0.16666667       0.00000000       0.50000000 </v>
   <v>       0.25000000      -0.00000000       0.50000000 </v>
   <v>       0.33333333      -0.00000000       0.50000000 </v>
   <v>       0.41666667       0.00000000       0.50000000 </v>
   <v>       0.50000000      -0.00000000       0.50000000 </v>
   <v>       0.08333333       0.08333333       0.50000000 </v>
   <v>       0.16666667       0.08333333       0.50000000 </v>
   <v>       0.25000000       0.08333333       0.50000000 </v>
   <v>       0.33333333       0.08333333       0.50000000 </v>
   <v>       0.41666667       0.08333333       0.50000000 </v>
   <v>       0.16666667       0.16666667       0.50000000 </v>
   <v>       0.25000000       0.16666667       0.50000000 </v>
   <v>       0.33333333       0.16666667       0.50000000 </v>
   <v>       0.41666667       0.16666667       0.50000000 </v>
   <v>       0.25000000       0.25000000       0.50000000 </v>
   <v>       0.33333333       0.25000000       0.50000000 </v>
   <v>       0.33333333       0.33333333       0.50000000 </v>
  </varray>
  <varray name="weights" >
   <v>       0.00086806 </v>
   <v>       0.00520833 </v>
   <v>       0.00520833 </v>
   <v>       0.00520833 </v>
   <v>       0.00520833 </v>
   <v>       0.00520833 </v>
   <v>       0.00260417 </v>
   <v>       0.00520833 </v>
   <v>       0.01041667 </v>
   <v>       0.01041667 </v>
   <v>       0.01041667 </v>
   <v>       0.01041667 </v>
   <v>       0.00520833 </v>
   <v>       0.01041667 </v>
   <v>       0.01041667 </v>
   <v>       0.00520833 </v>
   <v>       0.00520833 </v>
   <v>       0.01041667 </v>
   <v>       0.00173611 </v>
   <v>       0.00173611 </v>
   <v>       0.01041667 </v>
   <v>       0.01041667 </v>
   <v>       0.01041667 </v>
   <v>       0.01041667 </v>
   <v>       0.01041667 </v>
   <v>       0.00520833 </v>
   <v>       0.01041667 </v>
   <v>       0.02083333 </v>
   <v>       0.02083333 </v>
   <v>       0.02083333 </v>
   <v>       0.02083333 </v>
   <v>       0.01041667 </v>
   <v>       0.02083333 </v>
   <v>       0.02083333 </v>
   <v>       0.01041667 </v>
   <v>       0.01041667 </v>
   <v>       0.02083333 </v>
   <v>       0.00347222 </v>
   <v>       0.00173611 </v>
   <v>       0.01041667 </v>
   <v>       0.01041667 </v>
   <v>       0.01041667 </v>
   <v>       0.01041667 </v>
   <v>       0.01041667 </v>
   <v>       0.00520833 </v>
   <v>       0.01041667 </v>
   <v>       0.02083333 </v>
   <v>       0.02083333 </v>
   <v>       0.02083333 </v>
   <v>       0.02083333 </v>
   <v>       0.01041667 </v>
   <v>       0.02083333 </v>
   <v>       0.02083333 </v>
   <v>       0.01041667 </v>
   <v>       0.01041667 </v>
   <v>       0.02083333 </v>
   <v>       0.00347222 </v>
   <v>       0.00173611 </v>
   <v>       0.01041667 </v>
   <v>       0.01041667 </v>
   <v>       0.01041667 </v>
   <v>       0.01041667 </v>
   <v>       0.01041667 </v>
   <v>       0.00520833 </v>
   <v>       0.01041667 </v>
   <v>       0.02083333 </v>
   <v>       0.02083333 </v>
   <v>       0.02083333 </v>
   <v>       0.02083333 </v>
   <v>       0.01041667 </v>
   <v>       0.02083333 </v>
   <v>       0.02083333 </v>
   <v>       0.01041667 </v>
   <v>       0.01041667 </v>
   <v>       0.02083333 </v>
   <v>       0.00347222 </v>
   <v>       0.00086806 </v>
   <v>       0.00520833 </v>
   <v>       0.00520833 </v>
   <v>       0.00520833 </v>
   <v>       0.00520833 </v>
   <v>       0.00520833 </v>
   <v>       0.00260417 </v>
   <v>       0.00520833 </v>
   <v>       0.01041667 </v>
   <v>       0.01041667 </v>
   <v>       0.01041667 </v>
   <v>       0.01041667 </v>
   <v>       0.00520833 </v>
   <v>       0.01041667 </v>
   <v>       0.01041667 </v>
   <v>       0.00520833 </v>
   <v>       0.00520833 </v>
   <v>       0.01041667 </v>
   <v>       0.00173611 </v>
  </varray>
 </kpoints>
 <parameters>
  <separator name="general" >
   <i type="string" name="SYSTEM">Co-hcc</i>
   <i type="logical" name="LCOMPAT"> F  </i>
  </separator>
  <separator name="electronic" >
   <i type="string" name="PREC">accura</i>
   <i name="ENMAX">    425.00000000</i>
   <i name="ENAUG">    477.81800000</i>
   <i name="EDIFF">      0.00000100</i>
   <i type="int" name="IALGO">    38</i>
   <i type="int" name="IWAVPR">    11</i>
   <i type="int" name="NBANDS">    28</i>
   <i type="int" name="NBANDSLOW">    -1</i>
   <i type="int" name="NBANDSHIGH">    -1</i>
   <i name="NELECT">     18.00000000</i>
   <i type="int" name="TURBO">     0</i>
   <i type="int" name="IRESTART">     0</i>
   <i type="int" name="NREBOOT">     0</i>
   <i type="int" name="NMIN">     0</i>
   <i name="EREF">      0.00000000</i>
   <separator name="electronic smearing" >
    <i type="int" name="ISMEAR">     0</i>
    <i name="SIGMA">      0.05000000</i>
    <i name="KSPACING">      0.50000000</i>
    <i type="logical" name="KGAMMA"> T  </i>
    <i type="logical" name="KBLOWUP"> T  </i>
   </separator>
   <separator name="electronic projectors" >
    <i type="logical" name="LREAL"> F  </i>
    <v name="ROPT">      0.00000000</v>
    <i type="int" name="LMAXPAW">  -100</i>
    <i type="int" name="LMAXMIX">     2</i>
    <i type="logical" name="NLSPLINE"> F  </i>
   </separator>
   <separator name="electronic startup" >
    <i type="int" name="ISTART">     0</i>
    <i type="int" name="ICHARG">     2</i>
    <i type="int" name="INIWAV">     1</i>
   </separator>
   <separator name="electronic spin" >
    <i type="int" name="ISPIN">     2</i>
    <i type="logical" name="LNONCOLLINEAR"> F  </i>
    <v name="MAGMOM">      3.00000000      3.00000000</v>
    <i name="NUPDOWN">     -1.00000000</i>
    <i type="logical" name="LSORBIT"> F  </i>
    <v name="SAXIS">      0.00000000      0.00000000      1.00000000</v>
    <i type="logical" name="LSPIRAL"> F  </i>
    <v name="QSPIRAL">      0.00000000      0.00000000      0.00000000</v>
    <i type="logical" name="LZEROZ"> F  </i>
   </separator>
   <separator name="electronic exchange-correlation" >
    <i type="logical" name="LASPH"> F  </i>
    <i type="logical" name="LMETAGGA"> F  </i>
   </separator>
   <separator name="electronic convergence" >
    <i type="int" name="NELM">   100</i>
    <i type="int" name="NELMDL">    -5</i>
    <i type="int" name="NELMIN">     2</i>
    <i name="ENINI">    425.00000000</i>
    <separator name="electronic convergence detail" >
     <i type="logical" name="LDIAG"> T  </i>
     <i type="logical" name="LSUBROT"> F  </i>
     <i name="WEIMIN">      0.00100000</i>
     <i name="EBREAK">      0.00000001</i>
     <i name="DEPER">      0.30000000</i>
     <i type="int" name="NRMM">     4</i>
     <i name="TIME">      0.40000000</i>
    </separator>
   </separator>
   <separator name="electronic mixer" >
    <i name="AMIX">      0.40000000</i>
    <i name="BMIX">      1.00000000</i>
    <i name="AMIN">      0.10000000</i>
    <i name="AMIX_MAG">      1.60000000</i>
    <i name="BMIX_MAG">      1.00000000</i>
    <separator name="electronic mixer details" >
     <i type="int" name="IMIX">     4</i>
     <i type="logical" name="MIXFIRST"> F  </i>
     <i type="int" name="MAXMIX">   -45</i>
     <i name="WC">    100.00000000</i>
     <i type="int" name="INIMIX">     1</i>
     <i type="int" name="MIXPRE">     1</i>
     <i type="int" name="MREMOVE">     5</i>
    </separator>
   </separator>
   <separator name="electronic dipolcorrection" >
    <i type="logical" name="LDIPOL"> F  </i>
    <i type="logical" name="LMONO"> F  </i>
    <i type="int" name="IDIPOL">     0</i>
    <i name="EPSILON">      1.00000000</i>
    <v name="DIPOL">   -100.00000000   -100.00000000   -100.00000000</v>
    <i name="EFIELD">      0.00000000</i>
   </separator>
  </separator>
  <separator name="grids" >
   <i type="int" name="NGX">    18</i>
   <i type="int" name="NGY">    18</i>
   <i type="int" name="NGZ">    28</i>
   <i type="int" name="NGXF">    36</i>
   <i type="int" name="NGYF">    36</i>
   <i type="int" name="NGZF">    56</i>
   <i type="logical" name="ADDGRID"> F  </i>
  </separator>
  <separator name="ionic" >
   <i type="int" name="NSW">   100</i>
   <i type="int" name="IBRION">     2</i>
   <i type="int" name="MDALGO">     0</i>
   <i type="int" name="ISIF">     2</i>
   <i name="PSTRESS">      0.00000000</i>
   <i name="EDIFFG">     -0.02000000</i>
   <i type="int" name="NFREE">     1</i>
   <i name="POTIM">      0.50000000</i>
   <i name="SMASS">     -3.00000000</i>
   <i name="SCALEE">      1.00000000</i>
  </separator>
  <separator name="ionic md" >
   <i name="TEBEG">      0.00010000</i>
   <i name="TEEND">      0.00010000</i>
   <i type="int" name="NBLOCK">     1</i>
   <i type="int" name="KBLOCK">   100</i>
   <i type="int" name="NPACO">   256</i>
   <i name="APACO">     10.00000000</i>
  </separator>
  <separator name="symmetry" >
   <i type="int" name="ISYM">     1</i>
   <i name="SYMPREC">      0.00001000</i>
  </separator>
  <separator name="dos" >
   <i type="int" name="LORBIT">    11</i>
   <v name="RWIGS">     -1.00000000</v>
   <i type="int" name="NEDOS">   301</i>
   <i name="EMIN">     10.00000000</i>
   <i name="EMAX">    -10.00000000</i>
   <i name="EFERMI">      0.00000000</i>
  </separator>
  <separator name="writing" >
   <i type="int" name="NWRITE">     2</i>
   <i type="logical" name="LWAVE"> F  </i>
   <i type="logical" name="LDOWNSAMPLE"> F  </i>
   <i type="logical" name="LCHARG"> F  </i>
   <i type="logical" name="LPARD"> F  </i>
   <i type="logical" name="LVTOT"> F  </i>
   <i type="logical" name="LVHAR"> F  </i>
   <i type="logical" name="LELF"> F  </i>
   <i type="logical" name="LOPTICS"> F  </i>
   <v name="STM">      0.00000000      0.00000000      0.00000000      0.00000000      0.00000000      0.00000000      0.00000000</v>
  </separator>
  <separator name="performance" >
   <i type="int" name="NPAR">    28</i>
   <i type="int" name="NSIM">     4</i>
   <i type="int" name="NBLK">    -1</i>
   <i type="logical" name="LPLANE"> T  </i>
   <i type="logical" name="LSCALAPACK"> T  </i>
   <i type="logical" name="LSCAAWARE"> T  </i>
   <i type="logical" name="LSCALU"> F  </i>
   <i type="logical" name="LASYNC"> F  </i>
   <i type="logical" name="LORBITALREAL"> F  </i>
  </separator>
  <separator name="miscellaneous" >
   <i type="int" name="IDIOT">     3</i>
   <i type="int" name="PHON_NSTRUCT">    -1</i>
   <i type="logical" name="LMUSIC"> F  </i>
   <v name="POMASS">     58.93300000</v>
   <v name="DARWINR">      0.00000000</v>
   <v name="DARWINV">      1.00000000</v>
   <i type="logical" name="LCORR"> T  </i>
  </separator>
  <i type="logical" name="GGA_COMPAT"> T  </i>
  <i type="logical" name="LBERRY"> F  </i>
  <i type="int" name="ICORELEVEL">     0</i>
  <i type="logical" name="LDAU"> F  </i>
  <i type="int" name="I_CONSTRAINED_M">     0</i>
  <separator name="electronic exchange-correlation" >
   <i type="string" name="GGA">--</i>
   <i type="int" name="VOSKOWN">     0</i>
   <i type="logical" name="LHFCALC"> F  </i>
   <i type="string" name="PRECFOCK"></i>
   <i type="logical" name="LSYMGRAD"> F  </i>
   <i type="logical" name="LHFONE"> F  </i>
   <i type="logical" name="LRHFCALC"> F  </i>
   <i type="logical" name="LTHOMAS"> F  </i>
   <i type="logical" name="LMODELHF"> F  </i>
   <i type="logical" name="LFOCKACE"> F  </i>
   <i name="ENCUT4O">     -1.00000000</i>
   <i type="int" name="EXXOEP">     0</i>
   <i type="int" name="FOURORBIT">     0</i>
   <i name="AEXX">      0.00000000</i>
   <i name="HFALPHA">      0.00000000</i>
   <i name="MCALPHA">      0.00000000</i>
   <i name="ALDAX">      1.00000000</i>
   <i name="AGGAX">      1.00000000</i>
   <i name="ALDAC">      1.00000000</i>
   <i name="AGGAC">      1.00000000</i>
   <i type="int" name="NKREDX">     1</i>
   <i type="int" name="NKREDY">     1</i>
   <i type="int" name="NKREDZ">     1</i>
   <i type="logical" name="SHIFTRED"> F  </i>
   <i type="logical" name="ODDONLY"> F  </i>
   <i type="logical" name="EVENONLY"> F  </i>
   <i type="int" name="LMAXFOCK">     0</i>
   <i type="int" name="NMAXFOCKAE">     0</i>
   <i type="logical" name="LFOCKAEDFT"> F  </i>
   <i name="HFSCREEN">      0.00000000</i>
   <i name="HFSCREENC">      0.00000000</i>
   <i type="int" name="NBANDSGWLOW">     0</i>
  </separator>
  <separator name="vdW DFT" >
   <i type="logical" name="LUSE_VDW"> F  </i>
   <i name="Zab_VDW">     -0.84910000</i>
   <i name="PARAM1">      0.12340000</i>
   <i name="PARAM2">      1.00000000</i>
   <i name="PARAM3">      0.00000000</i>
  </separator>
  <separator name="model GW" >
   <i type="int" name="MODEL_GW">     0</i>
   <i name="MODEL_EPS0">      6.48764667</i>
   <i name="MODEL_ALPHA">      1.00000000</i>
  </separator>
  <separator name="linear response parameters" >
   <i type="logical" name="LEPSILON"> F  </i>
   <i type="logical" name="LRPA"> F  </i>
   <i type="logical" name="LNABLA"> F  </i>
   <i type="logical" name="LVEL"> F  </i>
   <i name="CSHIFT">      0.10000000</i>
   <i name="OMEGAMAX">     -1.00000000</i>
   <i name="DEG_THRESHOLD">      0.00200000</i>
   <i name="RTIME">     -0.10000000</i>
   <i name="WPLASMAI">      0.00000000</i>
   <v name="DFIELD">      0.00000000      0.00000000      0.00000000</v>
   <v name="WPLASMA">      0.00000000      0.00000000      0.00000000      0.00000000      0.00000000      0.00000000      0.00000000      0.00000000      0.00000000</v>
  </separator>
  <separator name="orbital magnetization" >
   <i type="logical" name="NUCIND"> F  </i>
   <v name="MAGPOS">      0.00000000      0.00000000      0.00000000</v>
   <i type="logical" name="LNICSALL"> T  </i>
   <i type="logical" name="ORBITALMAG"> F  </i>
   <i type="logical" name="LMAGBLOCH"> F  </i>
   <i type="logical" name="LCHIMAG"> F  </i>
   <i type="logical" name="LGAUGE"> T  </i>
   <i type="int" name="MAGATOM">     0</i>
   <v name="MAGDIPOL">      0.00000000      0.00000000      0.00000000</v>
   <v name="AVECCONST">      0.00000000      0.00000000      0.00000000</v>
  </separator>
  <separator name="response functions" >
   <i type="logical" name="LFINITE_TEMPERATURE"> F  </i>
   <i type="logical" name="LADDER"> F  </i>
   <i type="logical" name="LRPAFORCE"> F  </i>
   <i type="logical" name="LFXC"> F  </i>
   <i type="logical" name="LHARTREE"> T  </i>
   <i type="int" name="IBSE">     0</i>
   <v type="int" name="KPOINT">    -1     0     0     0</v>
   <i type="logical" name="LTCTC"> F  </i>
   <i type="logical" name="LTCTE"> F  </i>
   <i type="logical" name="LTETE"> F  </i>
   <i type="logical" name="LTRIPLET"> F  </i>
   <i type="logical" name="LFXCEPS"> F  </i>
   <i type="logical" name="LFXHEG"> F  </i>
   <i type="int" name="NATURALO">     2</i>
   <i type="logical" name="LHOLEGF"> F  </i>
   <i type="logical" name="L2ORDER"> F  </i>
   <i type="logical" name="LDMP1"> F  </i>
   <i type="logical" name="LMP2LT"> F  </i>
   <i type="logical" name="LSMP2LT"> F  </i>
   <i type="logical" name="LGWLF"> F  </i>
   <i name="ENCUTGW">     -2.00000000</i>
   <i name="ENCUTGWSOFT">     -2.00000000</i>
   <i name="ENCUTLF">     -1.00000000</i>
   <i type="logical" name="LESF_SPLINES"> F  </i>
   <i type="int" name="LMAXMP2">    -1</i>
   <i name="SCISSOR">      0.00000000</i>
   <i type="int" name="NOMEGA">     0</i>
   <i type="int" name="NOMEGAR">     0</i>
   <i type="int" name="NBANDSGW">    -1</i>
   <i type="int" name="NBANDSO">    -1</i>
   <i type="int" name="NBANDSV">    -1</i>
   <i type="int" name="NELMGW">     1</i>
   <i type="int" name="NELMHF">     1</i>
   <i type="int" name="DIM">     3</i>
   <i type="int" name="IESPILON">     4</i>
   <i type="int" name="ANTIRES">     0</i>
   <i name="OMEGAMAX">    -30.00000000</i>
   <i name="OMEGAMIN">    -30.00000000</i>
   <i name="OMEGATL">   -200.00000000</i>
   <i type="int" name="OMEGAGRID">     0</i>
   <i name="CSHIFT">     -0.10000000</i>
   <i type="logical" name="LSELFENERGY"> F  </i>
   <i type="logical" name="LSPECTRAL"> F  </i>
   <i type="logical" name="LSPECTRALGW"> F  </i>
   <i type="logical" name="LSINGLES"> F  </i>
   <i type="logical" name="LFERMIGW"> F  </i>
   <i type="logical" name="ODDONLYGW"> F  </i>
   <i type="logical" name="EVENONLYGW"> F  </i>
   <i type="int" name="NKREDLFX">     1</i>
   <i type="int" name="NKREDLFY">     1</i>
   <i type="int" name="NKREDLFZ">     1</i>
   <i type="int" name="MAXMEM">  2800</i>
   <i type="int" name="TELESCOPE">     0</i>
   <i type="int" name="NTAUPAR">    -1</i>
   <i type="int" name="NOMEGAPAR">    -1</i>
   <i name="DAMP_NEWTON">      0.80000001</i>
   <i name="LAMBDA">      1.00000000</i>
  </separator>
  <separator name="External order field" >
   <i name="OFIELD_KAPPA">      0.00000000</i>
   <v name="OFIELD_K">      0.00000000      0.00000000      0.00000000</v>
   <i name="OFIELD_Q6_NEAR">      0.00000000</i>
   <i name="OFIELD_Q6_FAR">      0.00000000</i>
   <i name="OFIELD_A">      0.00000000</i>
  </separator>
  <separator name="optional k-points parameters" >
   <i type="int" name="KPOINTS_OPT_MODE">     1</i>
   <i type="logical" name="LKPOINTS_OPT"> F  </i>
  </separator>
 </parameters>
 <atominfo>
  <atoms>       2 </atoms>
  <types>       1 </types>
  <array name="atoms" >
   <dimension dim="1">ion</dimension>
   <field type="string">element</field>
   <field type="int">atomtype</field>
   <set>
    <rc><c>Co</c><c>   1</c></rc>
    <rc><c>Co</c><c>   1</c></rc>
   </set>
  </array>
  <array name="atomtypes" >
   <dimension dim="1">type</dimension>
   <field type="int">atomspertype</field>
   <field type="string">element</field>
   <field>mass</field>
   <field>valence</field>
   <field type="string">pseudopotential</field>
   <set>
    <rc><c>   2</c><c>Co</c><c>     58.93300000</c><c>      9.00000000</c><c>  PAW_PBE Co 02Aug2007                  </c></rc>
   </set>
  </array>
 </atominfo>
 <structure name="initialpos" >
  <crystal>
   <varray name="basis" >
    <v>       1.24613780      -2.15837399       0.00000000 </v>
    <v>       1.24613780       2.15837399       0.00000000 </v>
    <v>       0.00000000       0.00000000       4.02015843 </v>
   </varray>
   <i name="volume">     21.62548890 </i>
   <varray name="rec_basis" >
    <v>       0.40123973      -0.23165587       0.00000000 </v>
    <v>       0.40123973       0.23165587       0.00000000 </v>
    <v>       0.00000000       0.00000000       0.24874642 </v>
   </varray>
  </crystal>
  <varray name="positions" >
   <v>       0.33333333       0.66666667       0.25000000 </v>
   <v>       0.66666667       0.33333333       0.75000000 </v>
  </varray>
 </structure>
 <calculation>
  <scstep>
   <time name="dav">    0.90    0.90</time>
   <time name="total">    0.91    0.91</time>
   <energy>
    <i name="alphaZ">     78.34771475 </i>
    <i name="ewald">  -1523.37454503 </i>
    <i name="hartreedc">   -299.30680901 </i>
    <i name="XCdc">     35.65145316 </i>
    <i name="pawpsdc">   1439.98163886 </i>
    <i name="pawaedc">  -1545.88690193 </i>
    <i name="eentropy">     -0.00264798 </i>
    <i name="bandstr">    187.30622234 </i>
    <i name="atom">   1626.72322989 </i>
    <i name="e_fr_energy">     -0.56064495 </i>
    <i name="e_wo_entrp">     -0.55799697 </i>
    <i name="e_0_energy">     -0.55932096 </i>
   </energy>
  </scstep>
  <scstep>
   <time name="dav">    1.59    1.60</time>
   <time name="total">    1.59    1.60</time>
   <energy>
    <i name="e_fr_energy">    -15.59548027 </i>
    <i name="e_wo_entrp">    -15.59379866 </i>
    <i name="e_0_energy">    -15.59463946 </i>
   </energy>
  </scstep>
  <scstep>
   <time name="dav">    1.47    1.48</time>
   <time name="total">    1.47    1.48</time>
   <energy>
    <i name="e_fr_energy">    -15.64526051 </i>
    <i name="e_wo_entrp">    -15.64356580 </i>
    <i name="e_0_energy">    -15.64441315 </i>
   </energy>
  </scstep>
  <scstep>
   <time name="dav">    2.18    2.19</time>
   <time name="total">    2.18    2.19</time>
   <energy>
    <i name="e_fr_energy">    -15.64532193 </i>
    <i name="e_wo_entrp">    -15.64362721 </i>
    <i name="e_0_energy">    -15.64447457 </i>
   </energy>
  </scstep>
  <scstep>
   <time name="dav">    1.58    1.58</time>
   <time name="total">    1.61    1.62</time>
   <energy>
    <i name="e_fr_energy">    -15.64532194 </i>
    <i name="e_wo_entrp">    -15.64362722 </i>
    <i name="e_0_energy">    -15.64447458 </i>
   </energy>
  </scstep>
  <scstep>
   <time name="dav">    2.37    2.38</time>
   <time name="total">    2.41    2.42</time>
   <energy>
    <i name="e_fr_energy">    -14.47235345 </i>
    <i name="e_wo_entrp">    -14.47025540 </i>
    <i name="e_0_energy">    -14.47130442 </i>
   </energy>
  </scstep>
  <scstep>
   <time name="dav">    2.03    2.04</time>
   <time name="total">    2.07    2.08</time>
   <energy>
    <i name="e_fr_energy">    -14.10704131 </i>
    <i name="e_wo_entrp">    -14.10547509 </i>
    <i name="e_0_energy">    -14.10625820 </i>
   </energy>
  </scstep>
  <scstep>
   <time name="dav">    2.15    2.16</time>
   <time name="total">    2.19    2.20</time>
   <energy>
    <i name="e_fr_energy">    -14.08122037 </i>
    <i name="e_wo_entrp">    -14.07968363 </i>
    <i name="e_0_energy">    -14.08045200 </i>
   </energy>
  </scstep>
  <scstep>
   <time name="dav">    2.51    2.52</time>
   <time name="total">    2.55    2.56</time>
   <energy>
    <i name="e_fr_energy">    -14.06739939 </i>
    <i name="e_wo_entrp">    -14.06570725 </i>
    <i name="e_0_energy">    -14.06655332 </i>
   </energy>
  </scstep>
  <scstep>
   <time name="dav">    2.49    2.50</time>
   <time name="total">    2.53    2.54</time>
   <energy>
    <i name="e_fr_energy">    -14.06634194 </i>
    <i name="e_wo_entrp">    -14.06459452 </i>
    <i name="e_0_energy">    -14.06546823 </i>
   </energy>
  </scstep>
  <scstep>
   <time name="dav">    1.93    1.94</time>
   <time name="total">    1.97    1.98</time>
   <energy>
    <i name="e_fr_energy">    -14.06634484 </i>
    <i name="e_wo_entrp">    -14.06462500 </i>
    <i name="e_0_energy">    -14.06548492 </i>
   </energy>
  </scstep>
  <scstep>
   <time name="dav">    2.57    2.59</time>
   <time name="total">    2.62    2.63</time>
   <energy>
    <i name="e_fr_energy">    -14.06634142 </i>
    <i name="e_wo_entrp">    -14.06461762 </i>
    <i name="e_0_energy">    -14.06547952 </i>
   </energy>
  </scstep>
  <scstep>
   <time name="dav">    2.41    2.42</time>
   <time name="total">    2.42    2.43</time>
   <energy>
    <i name="alphaZ">     78.34771475 </i>
    <i name="ewald">  -1523.37454503 </i>
    <i name="hartreedc">   -263.96679633 </i>
    <i name="XCdc">     32.86569564 </i>
    <i name="pawpsdc">   1809.99088655 </i>
    <i name="pawaedc">  -1916.01987379 </i>
    <i name="eentropy">     -0.00172391 </i>
    <i name="bandstr">    141.36907097 </i>
    <i name="atom">   1626.72322989 </i>
    <i name="e_fr_energy">    -14.06634126 </i>
    <i name="e_wo_entrp">    -14.06461735 </i>
    <i name="e_0_energy">    -14.06547931 </i>
   </energy>
  </scstep>
  <structure>
   <crystal>
    <varray name="basis" >
     <v>       1.24613780      -2.15837399       0.00000000 </v>
     <v>       1.24613780       2.15837399       0.00000000 </v>
     <v>       0.00000000       0.00000000       4.02015843 </v>
    </varray>
    <i name="volume">     21.62548890 </i>
    <varray name="rec_basis" >
     <v>       0.40123973      -0.23165587       0.00000000 </v>
     <v>       0.40123973       0.23165587       0.00000000 </v>
     <v>       0.00000000       0.00000000       0.24874642 </v>
    </varray>
   </crystal>
   <varray name="positions" >
    <v>       0.33333333       0.66666667       0.25000000 </v>
    <v>       0.66666667       0.33333333       0.75000000 </v>
   </varray>
  </structure>
  <varray name="forces" >
   <v>       0.00000000      -0.00000000      -0.00000000 </v>
   <v>      -0.00000000       0.00000000       0.00000000 </v>
  </varray>
  <varray name="stress" >
   <v>       0.24103528       0.00000000       0.00000000 </v>
   <v>       0.00000000       0.24103528      -0.00000000 </v>
   <v>       0.00000000       0.00000000      -0.11889718 </v>
  </varray>
  <energy>
   <i name="e_fr_energy">    -14.06634126 </i>
   <i name="e_wo_entrp">    -14.06461735 </i>
   <i name="e_0_energy">    -14.06547931 </i>
  </energy>
  <time name="totalsc">   26.78   26.91</time>
  <eigenvalues>
   <array>
    <dimension dim="1">band</dimension>
    <dimension dim="2">kpoint</dimension>
    <dimension dim="3">spin</dimension>
    <field>eigene</field>
    <field>occ</field>
    <set>
     <set comment="spin 1">
      <set comment="kpoint 1">
       <r>    1.3752    1.0000 </r>
       <r>    5.1516    1.0000 </r>
       <r>    7.6851    1.0000 </r>
       <r>    7.6907    1.0000 </r>
       <r>    7.6907    1.0000 </r>
       <r>    8.0064    1.0000 </r>
       <r>    8.0064    1.0000 </r>
       <r>    8.3526    1.0000 </r>
       <r>    8.3526    1.0000 </r>
       <r>    9.4660    1.0000 </r>
       <r>    9.4660    1.0000 </r>
       <r>   10.2578    0.5969 </r>
       <r>   16.7134    0.0000 </r>
       <r>   32.2763    0.0000 </r>
       <r>   34.8449    0.0000 </r>
       <r>   34.8449    0.0000 </r>
       <r>   35.4061    0.0000 </r>
       <r>   35.8585    0.0000 </r>
       <r>   36.1969    0.0000 </r>
       <r>   36.1969    0.0000 </r>
       <r>   40.8081    0.0000 </r>
       <r>   40.8081    0.0000 </r>
       <r>   41.7192    0.0000 </r>
       <r>   42.2166    0.0000 </r>
       <r>   43.9929    0.0000 </r>
       <r>   43.9929    0.0000 </r>
       <r>   44.7961    0.0000 </r>
       <r>   46.3133    0.0000 </r>
      </set>
      <set comment="kpoint 2">
       <r>    1.6185    1.0000 </r>
       <r>    5.2961    1.0000 </r>
       <r>    7.4588    1.0000 </r>
       <r>    7.8039    1.0000 </r>
       <r>    7.8785    1.0000 </r>
       <r>    7.9616    1.0000 </r>
       <r>    8.1063    1.0000 </r>
       <r>    8.2043    1.0000 </r>
       <r>    8.2816    1.0000 </r>
       <r>    8.7109    1.0000 </r>
       <r>    9.4964    1.0000 </r>
       <r>   11.3273    0.0000 </r>
       <r>   16.7561    0.0000 </r>
       <r>   30.4170    0.0000 </r>
       <r>   32.7232    0.0000 </r>
       <r>   32.7605    0.0000 </r>
       <r>   35.8690    0.0000 </r>
       <r>   36.2768    0.0000 </r>
       <r>   37.6681    0.0000 </r>
       <r>   38.5477    0.0000 </r>
       <r>   39.3145    0.0000 </r>
       <r>   40.2878    0.0000 </r>
       <r>   41.2891    0.0000 </r>
       <r>   41.4988    0.0000 </r>
       <r>   43.8249    0.0000 </r>
       <r>   43.8641    0.0000 </r>
       <r>   44.9465    0.0000 </r>
       <r>   45.4580    0.0000 </r>
      </set>
      <set comment="kpoint 3">
       <r>    2.3222    1.0000 </r>
       <r>    5.6523    1.0000 </r>
       <r>    7.1848    1.0000 </r>
       <r>    7.5067    1.0000 </r>
       <r>    7.7916    1.0000 </r>
       <r>    8.1065    1.0000 </r>
       <r>    8.1237    1.0000 </r>
       <r>    8.1837    1.0000 </r>
       <r>    8.3261    1.0000 </r>
       <r>    8.3864    1.0000 </r>
       <r>    9.5614    1.0000 </r>
       <r>   12.9183    0.0000 </r>
       <r>   16.9053    0.0000 </r>
       <r>   26.5987    0.0000 </r>
       <r>   30.3279    0.0000 </r>
       <r>   31.8209    0.0000 </r>
       <r>   33.7338    0.0000 </r>
       <r>   35.9747    0.0000 </r>
       <r>   36.7508    0.0000 </r>
       <r>   38.9337    0.0000 </r>
       <r>   39.4632    0.0000 </r>
       <r>   40.1551    0.0000 </r>
       <r>   40.6753    0.0000 </r>
       <r>   42.2112    0.0000 </r>
       <r>   42.5995    0.0000 </r>
       <r>   44.7273    0.0000 </r>
       <r>   46.4928    0.0000 </r>
       <r>   47.0574    0.0000 </r>
      </set>
      <set comment="kpoint 4">
       <r>    3.3857    1.0000 </r>
       <r>    5.9340    1.0000 </r>
       <r>    6.7819    1.0000 </r>
       <r>    7.0218    1.0000 </r>
       <r>    7.7032    1.0000 </r>
       <r>    7.8959    1.0000 </r>
       <r>    8.1266    1.0000 </r>
       <r>    8.5863    1.0000 </r>
       <r>    8.6112    1.0000 </r>
       <r>    8.7889    1.0000 </r>
       <r>    9.6230    1.0000 </r>
       <r>   14.7169    0.0000 </r>
       <r>   17.1922    0.0000 </r>
       <r>   22.8909    0.0000 </r>
       <r>   28.2496    0.0000 </r>
       <r>   30.3808    0.0000 </r>
       <r>   30.6176    0.0000 </r>
       <r>   34.4751    0.0000 </r>
       <r>   34.9543    0.0000 </r>
       <r>   38.6701    0.0000 </r>
       <r>   38.7945    0.0000 </r>
       <r>   39.5702    0.0000 </r>
       <r>   40.7297    0.0000 </r>
       <r>   43.6297    0.0000 </r>
       <r>   45.3203    0.0000 </r>
       <r>   46.4849    0.0000 </r>
       <r>   47.2275    0.0000 </r>
       <r>   48.6883    0.0000 </r>
      </set>
      <set comment="kpoint 5">
       <r>    4.5409    1.0000 </r>
       <r>    5.8628    1.0000 </r>
       <r>    6.2528    1.0000 </r>
       <r>    7.1406    1.0000 </r>
       <r>    7.7062    1.0000 </r>
       <r>    7.8300    1.0000 </r>
       <r>    7.9521    1.0000 </r>
       <r>    9.0788    1.0000 </r>
       <r>    9.2252    1.0000 </r>
       <r>    9.2968    1.0000 </r>
       <r>    9.6655    1.0000 </r>
       <r>   16.6786    0.0000 </r>
       <r>   17.2568    0.0000 </r>
       <r>   20.0335    0.0000 </r>
       <r>   26.6012    0.0000 </r>
       <r>   27.3087    0.0000 </r>
       <r>   28.3572    0.0000 </r>
       <r>   32.9912    0.0000 </r>
       <r>   33.8207    0.0000 </r>
       <r>   36.8791    0.0000 </r>
       <r>   38.3362    0.0000 </r>
       <r>   40.3487    0.0000 </r>
       <r>   42.5156    0.0000 </r>
       <r>   44.6848    0.0000 </r>
       <r>   46.7704    0.0000 </r>
       <r>   47.4533    0.0000 </r>
       <r>   48.8628    0.0000 </r>
       <r>   51.3549    0.0000 </r>
      </set>
      <set comment="kpoint 6">
       <r>    5.2880    1.0000 </r>
       <r>    5.6767    1.0000 </r>
       <r>    5.9353    1.0000 </r>
       <r>    7.5157    1.0000 </r>
       <r>    7.5767    1.0000 </r>
       <r>    7.8293    1.0000 </r>
       <r>    8.0334    1.0000 </r>
       <r>    9.4466    1.0000 </r>
       <r>    9.5860    1.0000 </r>
       <r>    9.6883    1.0000 </r>
       <r>   10.4206    0.0000 </r>
       <r>   15.3658    0.0000 </r>
       <r>   18.7079    0.0000 </r>
       <r>   19.9610    0.0000 </r>
       <r>   24.6258    0.0000 </r>
       <r>   25.5178    0.0000 </r>
       <r>   25.7369    0.0000 </r>
       <r>   32.4937    0.0000 </r>
       <r>   33.0476    0.0000 </r>
       <r>   35.7151    0.0000 </r>
       <r>   38.0738    0.0000 </r>
       <r>   40.8355    0.0000 </r>
       <r>   44.9383    0.0000 </r>
       <r>   45.2239    0.0000 </r>
       <r>   46.8681    0.0000 </r>
       <r>   47.5661    0.0000 </r>
       <r>   50.9770    0.0000 </r>
       <r>   52.2990    0.0000 </r>
      </set>
      <set comment="kpoint 7">
       <r>    5.5256    1.0000 </r>
       <r>    5.5505    1.0000 </r>
       <r>    5.8298    1.0000 </r>
       <r>    7.5310    1.0000 </r>
       <r>    7.7674    1.0000 </r>
       <r>    7.7852    1.0000 </r>
       <r>    8.1098    1.0000 </r>
       <r>    9.5795    1.0000 </r>
       <r>    9.6954    1.0000 </r>
       <r>    9.7319    1.0000 </r>
       <r>   11.5975    0.0000 </r>
       <r>   13.6151    0.0000 </r>
       <r>   20.0345    0.0000 </r>
       <r>   20.6847    0.0000 </r>
       <r>   23.0842    0.0000 </r>
       <r>   24.3160    0.0000 </r>
       <r>   25.1361    0.0000 </r>
       <r>   32.3728    0.0000 </r>
       <r>   32.7791    0.0000 </r>
       <r>   35.3108    0.0000 </r>
       <r>   37.9886    0.0000 </r>
       <r>   41.0173    0.0000 </r>
       <r>   45.3733    0.0000 </r>
       <r>   46.8543    0.0000 </r>
       <r>   47.4155    0.0000 </r>
       <r>   47.5764    0.0000 </r>
       <r>   48.2272    0.0000 </r>
       <r>   53.3692    0.0000 </r>
      </set>
      <set comment="kpoint 8">
       <r>    2.0929    1.0000 </r>
       <r>    5.5523    1.0000 </r>
       <r>    7.2425    1.0000 </r>
       <r>    7.7520    1.0000 </r>
       <r>    7.8570    1.0000 </r>
       <r>    8.0354    1.0000 </r>
       <r>    8.0361    1.0000 </r>
       <r>    8.0800    1.0000 </r>
       <r>    8.3278    1.0000 </r>
       <r>    8.4447    1.0000 </r>
       <r>    9.5345    1.0000 </r>
       <r>   12.4714    0.0000 </r>
       <r>   16.8540    0.0000 </r>
       <r>   28.3417    0.0000 </r>
       <r>   29.0656    0.0000 </r>
       <r>   34.3121    0.0000 </r>
       <r>   35.2541    0.0000 </r>
       <r>   35.4246    0.0000 </r>
       <r>   35.5475    0.0000 </r>
       <r>   38.6938    0.0000 </r>
       <r>   39.5789    0.0000 </r>
       <r>   40.1488    0.0000 </r>
       <r>   42.2805    0.0000 </r>
       <r>   42.7289    0.0000 </r>
       <r>   42.9675    0.0000 </r>
       <r>   43.3405    0.0000 </r>
       <r>   44.1267    0.0000 </r>
       <r>   46.7363    0.0000 </r>
      </set>
      <set comment="kpoint 9">
       <r>    2.9853    1.0000 </r>
       <r>    5.9161    1.0000 </r>
       <r>    6.9716    1.0000 </r>
       <r>    7.0496    1.0000 </r>
       <r>    7.7401    1.0000 </r>
       <r>    7.8579    1.0000 </r>
       <r>    8.2885    1.0000 </r>
       <r>    8.2896    1.0000 </r>
       <r>    8.4569    1.0000 </r>
       <r>    8.7426    1.0000 </r>
       <r>    9.5815    1.0000 </r>
       <r>   14.0674    0.0000 </r>
       <r>   17.0933    0.0000 </r>
       <r>   24.7858    0.0000 </r>
       <r>   27.0034    0.0000 </r>
       <r>   32.0791    0.0000 </r>
       <r>   33.0646    0.0000 </r>
       <r>   34.1352    0.0000 </r>
       <r>   35.7075    0.0000 </r>
       <r>   37.0727    0.0000 </r>
       <r>   38.9134    0.0000 </r>
       <r>   40.7839    0.0000 </r>
       <r>   42.3081    0.0000 </r>
       <r>   42.7714    0.0000 </r>
       <r>   44.6160    0.0000 </r>
       <r>   46.3572    0.0000 </r>
       <r>   46.5307    0.0000 </r>
       <r>   46.8494    0.0000 </r>
      </set>
      <set comment="kpoint 10">
       <r>    4.1327    1.0000 </r>
       <r>    6.0305    1.0000 </r>
       <r>    6.4702    1.0000 </r>
       <r>    6.9062    1.0000 </r>
       <r>    7.6713    1.0000 </r>
       <r>    7.7561    1.0000 </r>
       <r>    8.0949    1.0000 </r>
       <r>    8.6888    1.0000 </r>
       <r>    8.9563    1.0000 </r>
       <r>    9.3080    1.0000 </r>
       <r>    9.6212    1.0000 </r>
       <r>   15.9093    0.0000 </r>
       <r>   17.4530    0.0000 </r>
       <r>   21.3346    0.0000 </r>
       <r>   25.4623    0.0000 </r>
       <r>   28.9164    0.0000 </r>
       <r>   30.3595    0.0000 </r>
       <r>   32.8737    0.0000 </r>
       <r>   35.0044    0.0000 </r>
       <r>   35.4445    0.0000 </r>
       <r>   39.5634    0.0000 </r>
       <r>   42.1807    0.0000 </r>
       <r>   42.4356    0.0000 </r>
       <r>   43.4466    0.0000 </r>
       <r>   45.9025    0.0000 </r>
       <r>   47.1853    0.0000 </r>
       <r>   47.6240    0.0000 </r>
       <r>   49.5436    0.0000 </r>
      </set>
      <set comment="kpoint 11">
       <r>    5.1323    1.0000 </r>
       <r>    5.8553    1.0000 </r>
       <r>    6.0764    1.0000 </r>
       <r>    7.1483    1.0000 </r>
       <r>    7.5502    1.0000 </r>
       <r>    7.9042    1.0000 </r>
       <r>    7.9501    1.0000 </r>
       <r>    9.1873    1.0000 </r>
       <r>    9.3825    1.0000 </r>
       <r>    9.6460    1.0000 </r>
       <r>   10.1162    1.0000 </r>
       <r>   16.7254    0.0000 </r>
       <r>   17.9121    0.0000 </r>
       <r>   19.7261    0.0000 </r>
       <r>   24.2670    0.0000 </r>
       <r>   26.0334    0.0000 </r>
       <r>   27.3871    0.0000 </r>
       <r>   31.9563    0.0000 </r>
       <r>   34.3299    0.0000 </r>
       <r>   34.4140    0.0000 </r>
       <r>   39.6119    0.0000 </r>
       <r>   42.5147    0.0000 </r>
       <r>   44.0710    0.0000 </r>
       <r>   45.0197    0.0000 </r>
       <r>   46.6953    0.0000 </r>
       <r>   47.4678    0.0000 </r>
       <r>   48.8896    0.0000 </r>
       <r>   52.6641    0.0000 </r>
      </set>
      <set comment="kpoint 12">
       <r>    5.5653    1.0000 </r>
       <r>    5.6975    1.0000 </r>
       <r>    5.8791    1.0000 </r>
       <r>    7.5015    1.0000 </r>
       <r>    7.5226    1.0000 </r>
       <r>    7.7782    1.0000 </r>
       <r>    8.1056    1.0000 </r>
       <r>    9.5421    1.0000 </r>
       <r>    9.6129    1.0000 </r>
       <r>    9.6569    1.0000 </r>
       <r>   11.4177    0.0000 </r>
       <r>   14.3879    0.0000 </r>
       <r>   19.8324    0.0000 </r>
       <r>   20.5857    0.0000 </r>
       <r>   23.4761    0.0000 </r>
       <r>   23.6785    0.0000 </r>
       <r>   25.1394    0.0000 </r>
       <r>   31.4790    0.0000 </r>
       <r>   33.7410    0.0000 </r>
       <r>   34.1152    0.0000 </r>
       <r>   39.5028    0.0000 </r>
       <r>   42.7298    0.0000 </r>
       <r>   45.3964    0.0000 </r>
       <r>   46.5295    0.0000 </r>
       <r>   46.8350    0.0000 </r>
       <r>   47.5380    0.0000 </r>
       <r>   49.6534    0.0000 </r>
       <r>   51.6083    0.0000 </r>
      </set>
      <set comment="kpoint 13">
       <r>    3.9885    1.0000 </r>
       <r>    6.2102    1.0000 </r>
       <r>    6.5848    1.0000 </r>
       <r>    6.6794    1.0000 </r>
       <r>    7.6021    1.0000 </r>
       <r>    7.7514    1.0000 </r>
       <r>    8.1869    1.0000 </r>
       <r>    8.4561    1.0000 </r>
       <r>    8.9454    1.0000 </r>
       <r>    9.3288    1.0000 </r>
       <r>    9.5832    1.0000 </r>
       <r>   15.6490    0.0000 </r>
       <r>   17.4924    0.0000 </r>
       <r>   23.0473    0.0000 </r>
       <r>   23.5092    0.0000 </r>
       <r>   30.4479    0.0000 </r>
       <r>   31.2788    0.0000 </r>
       <r>   32.3872    0.0000 </r>
       <r>   33.1558    0.0000 </r>
       <r>   37.8637    0.0000 </r>
       <r>   39.9506    0.0000 </r>
       <r>   40.4467    0.0000 </r>
       <r>   43.9355    0.0000 </r>
       <r>   45.1851    0.0000 </r>
       <r>   45.5548    0.0000 </r>
       <r>   46.6498    0.0000 </r>
       <r>   46.7235    0.0000 </r>
       <r>   47.3205    0.0000 </r>
      </set>
      <set comment="kpoint 14">
       <r>    5.0817    1.0000 </r>
       <r>    6.1920    1.0000 </r>
       <r>    6.2173    1.0000 </r>
       <r>    6.6590    1.0000 </r>
       <r>    7.4483    1.0000 </r>
       <r>    7.8972    1.0000 </r>
       <r>    7.9969    1.0000 </r>
       <r>    8.7619    1.0000 </r>
       <r>    9.3850    1.0000 </r>
       <r>    9.5810    1.0000 </r>
       <r>   10.1361    0.9999 </r>
       <r>   17.5123    0.0000 </r>
       <r>   17.8704    0.0000 </r>
       <r>   20.2181    0.0000 </r>
       <r>   22.0975    0.0000 </r>
       <r>   27.7950    0.0000 </r>
       <r>   29.3540    0.0000 </r>
       <r>   29.8865    0.0000 </r>
       <r>   31.8614    0.0000 </r>
       <r>   38.0163    0.0000 </r>
       <r>   41.3085    0.0000 </r>
       <r>   42.7641    0.0000 </r>
       <r>   44.5575    0.0000 </r>
       <r>   45.1477    0.0000 </r>
       <r>   46.5343    0.0000 </r>
       <r>   47.2196    0.0000 </r>
       <r>   48.2717    0.0000 </r>
       <r>   48.6999    0.0000 </r>
      </set>
      <set comment="kpoint 15">
       <r>    5.7571    1.0000 </r>
       <r>    5.9895    1.0000 </r>
       <r>    5.9925    1.0000 </r>
       <r>    6.9809    1.0000 </r>
       <r>    7.4062    1.0000 </r>
       <r>    7.7911    1.0000 </r>
       <r>    8.0993    1.0000 </r>
       <r>    9.1653    1.0000 </r>
       <r>    9.5783    1.0000 </r>
       <r>    9.6034    1.0000 </r>
       <r>   11.3295    0.0000 </r>
       <r>   16.0607    0.0000 </r>
       <r>   19.5350    0.0000 </r>
       <r>   20.1632    0.0000 </r>
       <r>   21.3368    0.0000 </r>
       <r>   25.1154    0.0000 </r>
       <r>   26.4690    0.0000 </r>
       <r>   29.2297    0.0000 </r>
       <r>   31.1077    0.0000 </r>
       <r>   37.6765    0.0000 </r>
       <r>   42.1064    0.0000 </r>
       <r>   44.7945    0.0000 </r>
       <r>   46.0487    0.0000 </r>
       <r>   46.2226    0.0000 </r>
       <r>   46.5758    0.0000 </r>
       <r>   47.3994    0.0000 </r>
       <r>   48.2674    0.0000 </r>
       <r>   51.6061    0.0000 </r>
      </set>
      <set comment="kpoint 16">
       <r>    5.8951    1.0000 </r>
       <r>    5.9129    1.0000 </r>
       <r>    5.9209    1.0000 </r>
       <r>    7.2051    1.0000 </r>
       <r>    7.4229    1.0000 </r>
       <r>    7.6843    1.0000 </r>
       <r>    8.1853    1.0000 </r>
       <r>    9.4374    1.0000 </r>
       <r>    9.5770    1.0000 </r>
       <r>    9.5827    1.0000 </r>
       <r>   12.6188    0.0000 </r>
       <r>   14.1885    0.0000 </r>
       <r>   20.6605    0.0000 </r>
       <r>   20.9746    0.0000 </r>
       <r>   21.3762    0.0000 </r>
       <r>   23.4540    0.0000 </r>
       <r>   24.9828    0.0000 </r>
       <r>   29.0142    0.0000 </r>
       <r>   30.8407    0.0000 </r>
       <r>   37.5427    0.0000 </r>
       <r>   42.2598    0.0000 </r>
       <r>   45.5657    0.0000 </r>
       <r>   45.7117    0.0000 </r>
       <r>   46.8606    0.0000 </r>
       <r>   47.4779    0.0000 </r>
       <r>   47.8775    0.0000 </r>
       <r>   49.5926    0.0000 </r>
       <r>   50.8327    0.0000 </r>
      </set>
      <set comment="kpoint 17">
       <r>    5.8944    1.0000 </r>
       <r>    6.0528    1.0000 </r>
       <r>    6.3912    1.0000 </r>
       <r>    6.4447    1.0000 </r>
       <r>    7.3428    1.0000 </r>
       <r>    7.8064    1.0000 </r>
       <r>    8.1039    1.0000 </r>
       <r>    8.9406    1.0000 </r>
       <r>    9.5379    1.0000 </r>
       <r>    9.6099    1.0000 </r>
       <r>   11.3333    0.0000 </r>
       <r>   17.8519    0.0000 </r>
       <r>   18.5771    0.0000 </r>
       <r>   19.4174    0.0000 </r>
       <r>   20.7710    0.0000 </r>
       <r>   26.9678    0.0000 </r>
       <r>   27.0894    0.0000 </r>
       <r>   28.1140    0.0000 </r>
       <r>   29.0053    0.0000 </r>
       <r>   41.0268    0.0000 </r>
       <r>   42.8274    0.0000 </r>
       <r>   43.3094    0.0000 </r>
       <r>   45.6892    0.0000 </r>
       <r>   47.1236    0.0000 </r>
       <r>   47.2091    0.0000 </r>
       <r>   47.6916    0.0000 </r>
       <r>   48.6867    0.0000 </r>
       <r>   49.4418    0.0000 </r>
      </set>
      <set comment="kpoint 18">
       <r>    5.9745    1.0000 </r>
       <r>    6.1675    1.0000 </r>
       <r>    6.2582    1.0000 </r>
       <r>    6.7641    1.0000 </r>
       <r>    7.3626    1.0000 </r>
       <r>    7.6090    1.0000 </r>
       <r>    8.2705    1.0000 </r>
       <r>    9.2128    1.0000 </r>
       <r>    9.5124    1.0000 </r>
       <r>    9.5561    1.0000 </r>
       <r>   13.0119    0.0000 </r>
       <r>   15.5942    0.0000 </r>
       <r>   17.9351    0.0000 </r>
       <r>   21.4544    0.0000 </r>
       <r>   21.8319    0.0000 </r>
       <r>   24.4909    0.0000 </r>
       <r>   25.9370    0.0000 </r>
       <r>   26.6735    0.0000 </r>
       <r>   28.2101    0.0000 </r>
       <r>   41.4451    0.0000 </r>
       <r>   44.9120    0.0000 </r>
       <r>   45.1696    0.0000 </r>
       <r>   46.5428    0.0000 </r>
       <r>   47.2676    0.0000 </r>
       <r>   47.8855    0.0000 </r>
       <r>   48.1514    0.0000 </r>
       <r>   48.2941    0.0000 </r>
       <r>   50.6548    0.0000 </r>
      </set>
      <set comment="kpoint 19">
       <r>    5.9796    1.0000 </r>
       <r>    6.3594    1.0000 </r>
       <r>    6.3594    1.0000 </r>
       <r>    6.6429    1.0000 </r>
       <r>    7.4398    1.0000 </r>
       <r>    7.4398    1.0000 </r>
       <r>    8.3670    1.0000 </r>
       <r>    9.3577    1.0000 </r>
       <r>    9.3577    1.0000 </r>
       <r>    9.4860    1.0000 </r>
       <r>   14.7671    0.0000 </r>
       <r>   15.5896    0.0000 </r>
       <r>   15.5896    0.0000 </r>
       <r>   22.6984    0.0000 </r>
       <r>   23.4471    0.0000 </r>
       <r>   23.4471    0.0000 </r>
       <r>   25.3045    0.0000 </r>
       <r>   26.2674    0.0000 </r>
       <r>   26.2674    0.0000 </r>
       <r>   43.9732    0.0000 </r>
       <r>   45.8883    0.0000 </r>
       <r>   45.8883    0.0000 </r>
       <r>   47.3281    0.0000 </r>
       <r>   47.3281    0.0000 </r>
       <r>   47.6244    0.0000 </r>
       <r>   47.6244    0.0000 </r>
       <r>   48.5098    0.0000 </r>
       <r>   49.6806    0.0000 </r>
      </set>
      <set comment="kpoint 20">
       <r>    1.5338    1.0000 </r>
       <r>    5.1219    1.0000 </r>
       <r>    7.6440    1.0000 </r>
       <r>    7.6479    1.0000 </r>
       <r>    7.6479    1.0000 </r>
       <r>    7.9631    1.0000 </r>
       <r>    7.9631    1.0000 </r>
       <r>    8.4516    1.0000 </r>
       <r>    8.4516    1.0000 </r>
       <r>    9.4579    1.0000 </r>
       <r>    9.4579    1.0000 </r>
       <r>    9.6358    1.0000 </r>
       <r>   17.6469    0.0000 </r>
       <r>   32.2193    0.0000 </r>
       <r>   34.5858    0.0000 </r>
       <r>   34.9880    0.0000 </r>
       <r>   34.9880    0.0000 </r>
       <r>   35.0857    0.0000 </r>
       <r>   36.2479    0.0000 </r>
       <r>   36.2479    0.0000 </r>
       <r>   40.4204    0.0000 </r>
       <r>   40.4204    0.0000 </r>
       <r>   42.0817    0.0000 </r>
       <r>   42.5676    0.0000 </r>
       <r>   42.9092    0.0000 </r>
       <r>   42.9092    0.0000 </r>
       <r>   45.8423    0.0000 </r>
       <r>   46.4260    0.0000 </r>
      </set>
      <set comment="kpoint 21">
       <r>    1.7747    1.0000 </r>
       <r>    5.2748    1.0000 </r>
       <r>    7.4560    1.0000 </r>
       <r>    7.7490    1.0000 </r>
       <r>    7.7685    1.0000 </r>
       <r>    7.8563    1.0000 </r>
       <r>    8.0579    1.0000 </r>
       <r>    8.3363    1.0000 </r>
       <r>    8.4003    1.0000 </r>
       <r>    8.6246    1.0000 </r>
       <r>    9.4839    1.0000 </r>
       <r>   10.7843    0.0000 </r>
       <r>   17.7392    0.0000 </r>
       <r>   30.4988    0.0000 </r>
       <r>   32.7396    0.0000 </r>
       <r>   32.8759    0.0000 </r>
       <r>   34.6082    0.0000 </r>
       <r>   35.6033    0.0000 </r>
       <r>   37.5814    0.0000 </r>
       <r>   38.4823    0.0000 </r>
       <r>   39.6468    0.0000 </r>
       <r>   39.9184    0.0000 </r>
       <r>   40.4654    0.0000 </r>
       <r>   42.3636    0.0000 </r>
       <r>   43.8455    0.0000 </r>
       <r>   44.9264    0.0000 </r>
       <r>   45.3166    0.0000 </r>
       <r>   45.5060    0.0000 </r>
      </set>
      <set comment="kpoint 22">
       <r>    2.4692    1.0000 </r>
       <r>    5.6565    1.0000 </r>
       <r>    7.2012    1.0000 </r>
       <r>    7.3429    1.0000 </r>
       <r>    7.7372    1.0000 </r>
       <r>    7.9647    1.0000 </r>
       <r>    8.1005    1.0000 </r>
       <r>    8.2752    1.0000 </r>
       <r>    8.3966    1.0000 </r>
       <r>    8.4826    1.0000 </r>
       <r>    9.5391    1.0000 </r>
       <r>   12.1479    0.0000 </r>
       <r>   18.0480    0.0000 </r>
       <r>   26.7287    0.0000 </r>
       <r>   30.5089    0.0000 </r>
       <r>   31.5428    0.0000 </r>
       <r>   33.3079    0.0000 </r>
       <r>   34.8217    0.0000 </r>
       <r>   37.1379    0.0000 </r>
       <r>   38.0792    0.0000 </r>
       <r>   38.9394    0.0000 </r>
       <r>   39.8894    0.0000 </r>
       <r>   41.2255    0.0000 </r>
       <r>   43.3284    0.0000 </r>
       <r>   43.7291    0.0000 </r>
       <r>   45.4888    0.0000 </r>
       <r>   46.5307    0.0000 </r>
       <r>   46.6027    0.0000 </r>
      </set>
      <set comment="kpoint 23">
       <r>    3.5080    1.0000 </r>
       <r>    5.9671    1.0000 </r>
       <r>    6.6968    1.0000 </r>
       <r>    7.0526    1.0000 </r>
       <r>    7.6074    1.0000 </r>
       <r>    7.9162    1.0000 </r>
       <r>    8.1374    1.0000 </r>
       <r>    8.6211    1.0000 </r>
       <r>    8.6777    1.0000 </r>
       <r>    8.7553    1.0000 </r>
       <r>    9.5912    1.0000 </r>
       <r>   13.5711    0.0000 </r>
       <r>   18.6306    0.0000 </r>
       <r>   23.0350    0.0000 </r>
       <r>   28.4559    0.0000 </r>
       <r>   29.0566    0.0000 </r>
       <r>   31.5194    0.0000 </r>
       <r>   34.3637    0.0000 </r>
       <r>   35.0400    0.0000 </r>
       <r>   36.6528    0.0000 </r>
       <r>   38.4680    0.0000 </r>
       <r>   40.6055    0.0000 </r>
       <r>   40.8108    0.0000 </r>
       <r>   45.4147    0.0000 </r>
       <r>   45.6164    0.0000 </r>
       <r>   46.6611    0.0000 </r>
       <r>   47.3282    0.0000 </r>
       <r>   48.7765    0.0000 </r>
      </set>
      <set comment="kpoint 24">
       <r>    4.5960    1.0000 </r>
       <r>    5.8907    1.0000 </r>
       <r>    6.2763    1.0000 </r>
       <r>    7.0388    1.0000 </r>
       <r>    7.7585    1.0000 </r>
       <r>    7.7632    1.0000 </r>
       <r>    8.1842    1.0000 </r>
       <r>    9.0961    1.0000 </r>
       <r>    9.1699    1.0000 </r>
       <r>    9.2561    1.0000 </r>
       <r>    9.6310    1.0000 </r>
       <r>   14.9201    0.0000 </r>
       <r>   18.9208    0.0000 </r>
       <r>   20.4576    0.0000 </r>
       <r>   26.0712    0.0000 </r>
       <r>   26.8285    0.0000 </r>
       <r>   29.6235    0.0000 </r>
       <r>   33.1671    0.0000 </r>
       <r>   33.5744    0.0000 </r>
       <r>   35.3440    0.0000 </r>
       <r>   39.3799    0.0000 </r>
       <r>   39.9533    0.0000 </r>
       <r>   41.6996    0.0000 </r>
       <r>   46.5093    0.0000 </r>
       <r>   46.8474    0.0000 </r>
       <r>   47.8371    0.0000 </r>
       <r>   49.0339    0.0000 </r>
       <r>   49.8736    0.0000 </r>
      </set>
      <set comment="kpoint 25">
       <r>    5.2117    1.0000 </r>
       <r>    5.6689    1.0000 </r>
       <r>    6.1477    1.0000 </r>
       <r>    7.0546    1.0000 </r>
       <r>    7.6409    1.0000 </r>
       <r>    8.0271    1.0000 </r>
       <r>    8.4080    1.0000 </r>
       <r>    9.4401    1.0000 </r>
       <r>    9.5121    1.0000 </r>
       <r>    9.6760    1.0000 </r>
       <r>   10.3330    0.0299 </r>
       <r>   14.9344    0.0000 </r>
       <r>   18.0886    0.0000 </r>
       <r>   20.8413    0.0000 </r>
       <r>   23.9059    0.0000 </r>
       <r>   25.7603    0.0000 </r>
       <r>   27.1021    0.0000 </r>
       <r>   32.5675    0.0000 </r>
       <r>   32.8855    0.0000 </r>
       <r>   34.4185    0.0000 </r>
       <r>   39.4724    0.0000 </r>
       <r>   40.5955    0.0000 </r>
       <r>   42.4258    0.0000 </r>
       <r>   46.3293    0.0000 </r>
       <r>   47.1183    0.0000 </r>
       <r>   47.8385    0.0000 </r>
       <r>   50.2613    0.0000 </r>
       <r>   52.1860    0.0000 </r>
      </set>
      <set comment="kpoint 26">
       <r>    5.3416    1.0000 </r>
       <r>    5.5582    1.0000 </r>
       <r>    6.1430    1.0000 </r>
       <r>    7.0779    1.0000 </r>
       <r>    7.5986    1.0000 </r>
       <r>    8.1099    1.0000 </r>
       <r>    8.5797    1.0000 </r>
       <r>    9.5336    1.0000 </r>
       <r>    9.6460    1.0000 </r>
       <r>    9.7273    1.0000 </r>
       <r>   11.4865    0.0000 </r>
       <r>   13.5234    0.0000 </r>
       <r>   19.4452    0.0000 </r>
       <r>   19.8041    0.0000 </r>
       <r>   24.2564    0.0000 </r>
       <r>   25.2264    0.0000 </r>
       <r>   25.3843    0.0000 </r>
       <r>   32.4271    0.0000 </r>
       <r>   32.6427    0.0000 </r>
       <r>   34.0845    0.0000 </r>
       <r>   39.3213    0.0000 </r>
       <r>   41.2473    0.0000 </r>
       <r>   42.6726    0.0000 </r>
       <r>   45.8039    0.0000 </r>
       <r>   47.1956    0.0000 </r>
       <r>   47.8580    0.0000 </r>
       <r>   50.6809    0.0000 </r>
       <r>   53.3811    0.0000 </r>
      </set>
      <set comment="kpoint 27">
       <r>    2.2434    1.0000 </r>
       <r>    5.5484    1.0000 </r>
       <r>    7.2559    1.0000 </r>
       <r>    7.5251    1.0000 </r>
       <r>    7.8104    1.0000 </r>
       <r>    7.9100    1.0000 </r>
       <r>    8.0426    1.0000 </r>
       <r>    8.2043    1.0000 </r>
       <r>    8.4025    1.0000 </r>
       <r>    8.5003    1.0000 </r>
       <r>    9.5170    1.0000 </r>
       <r>   11.7763    0.0000 </r>
       <r>   17.9416    0.0000 </r>
       <r>   28.4521    0.0000 </r>
       <r>   29.2084    0.0000 </r>
       <r>   33.8095    0.0000 </r>
       <r>   33.9441    0.0000 </r>
       <r>   35.0543    0.0000 </r>
       <r>   36.5644    0.0000 </r>
       <r>   37.1112    0.0000 </r>
       <r>   40.1177    0.0000 </r>
       <r>   40.6185    0.0000 </r>
       <r>   42.0631    0.0000 </r>
       <r>   42.2801    0.0000 </r>
       <r>   42.9584    0.0000 </r>
       <r>   44.8369    0.0000 </r>
       <r>   45.2463    0.0000 </r>
       <r>   46.8698    0.0000 </r>
      </set>
      <set comment="kpoint 28">
       <r>    3.1201    1.0000 </r>
       <r>    5.9446    1.0000 </r>
       <r>    6.9181    1.0000 </r>
       <r>    7.0046    1.0000 </r>
       <r>    7.6747    1.0000 </r>
       <r>    7.8736    1.0000 </r>
       <r>    8.1443    1.0000 </r>
       <r>    8.3713    1.0000 </r>
       <r>    8.5958    1.0000 </r>
       <r>    8.7262    1.0000 </r>
       <r>    9.5600    1.0000 </r>
       <r>   13.0780    0.0000 </r>
       <r>   18.4078    0.0000 </r>
       <r>   24.9259    0.0000 </r>
       <r>   27.1547    0.0000 </r>
       <r>   30.9443    0.0000 </r>
       <r>   33.0826    0.0000 </r>
       <r>   33.9948    0.0000 </r>
       <r>   36.3341    0.0000 </r>
       <r>   36.9894    0.0000 </r>
       <r>   38.0126    0.0000 </r>
       <r>   40.0371    0.0000 </r>
       <r>   42.6942    0.0000 </r>
       <r>   43.6985    0.0000 </r>
       <r>   45.5483    0.0000 </r>
       <r>   46.1000    0.0000 </r>
       <r>   46.8815    0.0000 </r>
       <r>   47.1796    0.0000 </r>
      </set>
      <set comment="kpoint 29">
       <r>    4.2263    1.0000 </r>
       <r>    6.0759    1.0000 </r>
       <r>    6.4152    1.0000 </r>
       <r>    6.9329    1.0000 </r>
       <r>    7.5807    1.0000 </r>
       <r>    7.8528    1.0000 </r>
       <r>    8.0832    1.0000 </r>
       <r>    8.6986    1.0000 </r>
       <r>    9.0109    1.0000 </r>
       <r>    9.2282    1.0000 </r>
       <r>    9.6249    1.0000 </r>
       <r>   14.4664    0.0000 </r>
       <r>   19.1217    0.0000 </r>
       <r>   21.5029    0.0000 </r>
       <r>   25.6231    0.0000 </r>
       <r>   27.7688    0.0000 </r>
       <r>   31.5385    0.0000 </r>
       <r>   32.0385    0.0000 </r>
       <r>   35.2044    0.0000 </r>
       <r>   36.2232    0.0000 </r>
       <r>   37.9876    0.0000 </r>
       <r>   40.7475    0.0000 </r>
       <r>   43.4481    0.0000 </r>
       <r>   44.7512    0.0000 </r>
       <r>   46.6759    0.0000 </r>
       <r>   47.1701    0.0000 </r>
       <r>   48.0526    0.0000 </r>
       <r>   48.7314    0.0000 </r>
      </set>
      <set comment="kpoint 30">
       <r>    5.1218    1.0000 </r>
       <r>    5.8751    1.0000 </r>
       <r>    6.1782    1.0000 </r>
       <r>    6.9690    1.0000 </r>
       <r>    7.6142    1.0000 </r>
       <r>    7.9421    1.0000 </r>
       <r>    8.1320    1.0000 </r>
       <r>    9.1592    1.0000 </r>
       <r>    9.4181    1.0000 </r>
       <r>    9.5348    1.0000 </r>
       <r>   10.1193    1.0000 </r>
       <r>   15.5216    0.0000 </r>
       <r>   18.3149    0.0000 </r>
       <r>   20.7418    0.0000 </r>
       <r>   24.3231    0.0000 </r>
       <r>   25.1063    0.0000 </r>
       <r>   28.7475    0.0000 </r>
       <r>   31.1313    0.0000 </r>
       <r>   34.4846    0.0000 </r>
       <r>   35.0581    0.0000 </r>
       <r>   38.7299    0.0000 </r>
       <r>   41.4301    0.0000 </r>
       <r>   43.8312    0.0000 </r>
       <r>   46.5176    0.0000 </r>
       <r>   47.0087    0.0000 </r>
       <r>   47.9375    0.0000 </r>
       <r>   48.1108    0.0000 </r>
       <r>   51.0924    0.0000 </r>
      </set>
      <set comment="kpoint 31">
       <r>    5.4131    1.0000 </r>
       <r>    5.6905    1.0000 </r>
       <r>    6.1805    1.0000 </r>
       <r>    7.0260    1.0000 </r>
       <r>    7.5384    1.0000 </r>
       <r>    8.1283    1.0000 </r>
       <r>    8.3136    1.0000 </r>
       <r>    9.4906    1.0000 </r>
       <r>    9.5949    1.0000 </r>
       <r>    9.6317    1.0000 </r>
       <r>   11.3820    0.0000 </r>
       <r>   14.2546    0.0000 </r>
       <r>   18.8619    0.0000 </r>
       <r>   20.6708    0.0000 </r>
       <r>   23.5944    0.0000 </r>
       <r>   24.2247    0.0000 </r>
       <r>   26.2368    0.0000 </r>
       <r>   30.6609    0.0000 </r>
       <r>   34.1842    0.0000 </r>
       <r>   34.4147    0.0000 </r>
       <r>   39.0374    0.0000 </r>
       <r>   42.4451    0.0000 </r>
       <r>   43.6628    0.0000 </r>
       <r>   46.1285    0.0000 </r>
       <r>   47.1772    0.0000 </r>
       <r>   47.9452    0.0000 </r>
       <r>   50.1708    0.0000 </r>
       <r>   52.0904    0.0000 </r>
      </set>
      <set comment="kpoint 32">
       <r>    4.0949    1.0000 </r>
       <r>    6.2647    1.0000 </r>
       <r>    6.5094    1.0000 </r>
       <r>    6.7088    1.0000 </r>
       <r>    7.5915    1.0000 </r>
       <r>    7.7587    1.0000 </r>
       <r>    8.1061    1.0000 </r>
       <r>    8.4991    1.0000 </r>
       <r>    9.0201    1.0000 </r>
       <r>    9.2271    1.0000 </r>
       <r>    9.6207    1.0000 </r>
       <r>   14.3070    0.0000 </r>
       <r>   19.0999    0.0000 </r>
       <r>   23.1922    0.0000 </r>
       <r>   23.6772    0.0000 </r>
       <r>   29.3857    0.0000 </r>
       <r>   30.1609    0.0000 </r>
       <r>   33.6646    0.0000 </r>
       <r>   34.2687    0.0000 </r>
       <r>   37.5567    0.0000 </r>
       <r>   38.4876    0.0000 </r>
       <r>   40.4229    0.0000 </r>
       <r>   44.2465    0.0000 </r>
       <r>   44.3698    0.0000 </r>
       <r>   46.4315    0.0000 </r>
       <r>   46.9569    0.0000 </r>
       <r>   47.1214    0.0000 </r>
       <r>   48.1173    0.0000 </r>
      </set>
      <set comment="kpoint 33">
       <r>    5.1247    1.0000 </r>
       <r>    6.1712    1.0000 </r>
       <r>    6.2611    1.0000 </r>
       <r>    6.7030    1.0000 </r>
       <r>    7.4906    1.0000 </r>
       <r>    7.9079    1.0000 </r>
       <r>    7.9420    1.0000 </r>
       <r>    8.7771    1.0000 </r>
       <r>    9.4392    1.0000 </r>
       <r>    9.4461    1.0000 </r>
       <r>   10.1948    0.9787 </r>
       <r>   15.6610    0.0000 </r>
       <r>   19.5612    0.0000 </r>
       <r>   20.7088    0.0000 </r>
       <r>   22.2750    0.0000 </r>
       <r>   26.6325    0.0000 </r>
       <r>   28.7867    0.0000 </r>
       <r>   30.7443    0.0000 </r>
       <r>   33.1250    0.0000 </r>
       <r>   37.9976    0.0000 </r>
       <r>   39.4849    0.0000 </r>
       <r>   42.4159    0.0000 </r>
       <r>   44.2063    0.0000 </r>
       <r>   46.2644    0.0000 </r>
       <r>   46.8632    0.0000 </r>
       <r>   47.1844    0.0000 </r>
       <r>   48.0191    0.0000 </r>
       <r>   48.9071    0.0000 </r>
      </set>
      <set comment="kpoint 34">
       <r>    5.6355    1.0000 </r>
       <r>    6.0301    1.0000 </r>
       <r>    6.1859    1.0000 </r>
       <r>    6.8369    1.0000 </r>
       <r>    7.4624    1.0000 </r>
       <r>    7.8723    1.0000 </r>
       <r>    8.1342    1.0000 </r>
       <r>    9.1585    1.0000 </r>
       <r>    9.4582    1.0000 </r>
       <r>    9.6424    1.0000 </r>
       <r>   11.3792    0.0000 </r>
       <r>   15.7812    0.0000 </r>
       <r>   18.5087    0.0000 </r>
       <r>   21.2295    0.0000 </r>
       <r>   21.6211    0.0000 </r>
       <r>   24.4064    0.0000 </r>
       <r>   27.8112    0.0000 </r>
       <r>   28.1780    0.0000 </r>
       <r>   32.4282    0.0000 </r>
       <r>   37.7270    0.0000 </r>
       <r>   40.6230    0.0000 </r>
       <r>   43.0808    0.0000 </r>
       <r>   46.3172    0.0000 </r>
       <r>   46.8548    0.0000 </r>
       <r>   47.0365    0.0000 </r>
       <r>   47.3489    0.0000 </r>
       <r>   48.0360    0.0000 </r>
       <r>   50.5906    0.0000 </r>
      </set>
      <set comment="kpoint 35">
       <r>    5.6674    1.0000 </r>
       <r>    5.9405    1.0000 </r>
       <r>    6.2791    1.0000 </r>
       <r>    6.9165    1.0000 </r>
       <r>    7.3999    1.0000 </r>
       <r>    7.9404    1.0000 </r>
       <r>    8.2244    1.0000 </r>
       <r>    9.4353    1.0000 </r>
       <r>    9.4419    1.0000 </r>
       <r>    9.6203    1.0000 </r>
       <r>   12.6800    0.0000 </r>
       <r>   14.1660    0.0000 </r>
       <r>   19.9907    0.0000 </r>
       <r>   20.3704    0.0000 </r>
       <r>   21.1693    0.0000 </r>
       <r>   24.7041    0.0000 </r>
       <r>   25.9601    0.0000 </r>
       <r>   27.9087    0.0000 </r>
       <r>   32.1812    0.0000 </r>
       <r>   37.6007    0.0000 </r>
       <r>   41.1735    0.0000 </r>
       <r>   43.0947    0.0000 </r>
       <r>   46.2981    0.0000 </r>
       <r>   46.5494    0.0000 </r>
       <r>   47.1434    0.0000 </r>
       <r>   48.8397    0.0000 </r>
       <r>   48.9065    0.0000 </r>
       <r>   51.7702    0.0000 </r>
      </set>
      <set comment="kpoint 36">
       <r>    5.8980    1.0000 </r>
       <r>    6.0203    1.0000 </r>
       <r>    6.4420    1.0000 </r>
       <r>    6.5013    1.0000 </r>
       <r>    7.4425    1.0000 </r>
       <r>    7.7203    1.0000 </r>
       <r>    8.0986    1.0000 </r>
       <r>    8.9598    1.0000 </r>
       <r>    9.4117    1.0000 </r>
       <r>    9.6503    1.0000 </r>
       <r>   11.4083    0.0000 </r>
       <r>   16.8615    0.0000 </r>
       <r>   18.7395    0.0000 </r>
       <r>   19.4897    0.0000 </r>
       <r>   21.8921    0.0000 </r>
       <r>   25.8243    0.0000 </r>
       <r>   25.9169    0.0000 </r>
       <r>   29.7097    0.0000 </r>
       <r>   30.3321    0.0000 </r>
       <r>   40.4304    0.0000 </r>
       <r>   41.8618    0.0000 </r>
       <r>   42.8328    0.0000 </r>
       <r>   45.5079    0.0000 </r>
       <r>   46.3507    0.0000 </r>
       <r>   47.0452    0.0000 </r>
       <r>   47.1032    0.0000 </r>
       <r>   49.0937    0.0000 </r>
       <r>   50.2732    0.0000 </r>
      </set>
      <set comment="kpoint 37">
       <r>    5.9337    1.0000 </r>
       <r>    6.2467    1.0000 </r>
       <r>    6.3375    1.0000 </r>
       <r>    6.6920    1.0000 </r>
       <r>    7.3932    1.0000 </r>
       <r>    7.6038    1.0000 </r>
       <r>    8.2724    1.0000 </r>
       <r>    9.2260    1.0000 </r>
       <r>    9.3799    1.0000 </r>
       <r>    9.5847    1.0000 </r>
       <r>   13.1233    0.0000 </r>
       <r>   15.6186    0.0000 </r>
       <r>   17.9745    0.0000 </r>
       <r>   20.2535    0.0000 </r>
       <r>   22.0931    0.0000 </r>
       <r>   24.3871    0.0000 </r>
       <r>   25.7823    0.0000 </r>
       <r>   27.3666    0.0000 </r>
       <r>   29.6524    0.0000 </r>
       <r>   41.2786    0.0000 </r>
       <r>   42.9528    0.0000 </r>
       <r>   44.3354    0.0000 </r>
       <r>   45.9551    0.0000 </r>
       <r>   46.8024    0.0000 </r>
       <r>   46.9710    0.0000 </r>
       <r>   47.8451    0.0000 </r>
       <r>   49.5757    0.0000 </r>
       <r>   50.9346    0.0000 </r>
      </set>
      <set comment="kpoint 38">
       <r>    6.0346    1.0000 </r>
       <r>    6.3724    1.0000 </r>
       <r>    6.3724    1.0000 </r>
       <r>    6.6551    1.0000 </r>
       <r>    7.4244    1.0000 </r>
       <r>    7.4244    1.0000 </r>
       <r>    8.3501    1.0000 </r>
       <r>    9.3467    1.0000 </r>
       <r>    9.3819    1.0000 </r>
       <r>    9.3819    1.0000 </r>
       <r>   14.9989    0.0000 </r>
       <r>   15.6360    0.0000 </r>
       <r>   15.6360    0.0000 </r>
       <r>   21.7460    0.0000 </r>
       <r>   22.5203    0.0000 </r>
       <r>   22.5203    0.0000 </r>
       <r>   26.4856    0.0000 </r>
       <r>   27.4922    0.0000 </r>
       <r>   27.4922    0.0000 </r>
       <r>   43.0271    0.0000 </r>
       <r>   44.9193    0.0000 </r>
       <r>   44.9193    0.0000 </r>
       <r>   46.2459    0.0000 </r>
       <r>   46.2459    0.0000 </r>
       <r>   46.5106    0.0000 </r>
       <r>   48.0643    0.0000 </r>
       <r>   48.0643    0.0000 </r>
       <r>   51.4738    0.0000 </r>
      </set>
      <set comment="kpoint 39">
       <r>    1.9987    1.0000 </r>
       <r>    4.9600    1.0000 </r>
       <r>    7.5363    1.0000 </r>
       <r>    7.5854    1.0000 </r>
       <r>    7.5854    1.0000 </r>
       <r>    7.8537    1.0000 </r>
       <r>    7.8537    1.0000 </r>
       <r>    8.4891    1.0000 </r>
       <r>    8.6741    1.0000 </r>
       <r>    8.6741    1.0000 </r>
       <r>    9.4184    1.0000 </r>
       <r>    9.4184    1.0000 </r>
       <r>   19.7916    0.0000 </r>
       <r>   31.3666    0.0000 </r>
       <r>   32.7235    0.0000 </r>
       <r>   34.3644    0.0000 </r>
       <r>   35.4011    0.0000 </r>
       <r>   35.4011    0.0000 </r>
       <r>   36.3893    0.0000 </r>
       <r>   36.3893    0.0000 </r>
       <r>   39.6544    0.0000 </r>
       <r>   39.6544    0.0000 </r>
       <r>   41.2192    0.0000 </r>
       <r>   41.2192    0.0000 </r>
       <r>   42.7250    0.0000 </r>
       <r>   43.2509    0.0000 </r>
       <r>   46.7588    0.0000 </r>
       <r>   46.7642    0.0000 </r>
      </set>
      <set comment="kpoint 40">
       <r>    2.2323    1.0000 </r>
       <r>    5.1348    1.0000 </r>
       <r>    7.4652    1.0000 </r>
       <r>    7.5608    1.0000 </r>
       <r>    7.6045    1.0000 </r>
       <r>    7.6768    1.0000 </r>
       <r>    7.9472    1.0000 </r>
       <r>    8.1995    1.0000 </r>
       <r>    8.6408    1.0000 </r>
       <r>    8.6838    1.0000 </r>
       <r>    9.4335    1.0000 </r>
       <r>   10.0022    1.0000 </r>
       <r>   19.9317    0.0000 </r>
       <r>   30.6997    0.0000 </r>
       <r>   31.7564    0.0000 </r>
       <r>   32.9276    0.0000 </r>
       <r>   33.3302    0.0000 </r>
       <r>   34.6701    0.0000 </r>
       <r>   36.7391    0.0000 </r>
       <r>   37.6345    0.0000 </r>
       <r>   39.3638    0.0000 </r>
       <r>   40.4337    0.0000 </r>
       <r>   40.6208    0.0000 </r>
       <r>   42.7426    0.0000 </r>
       <r>   43.4921    0.0000 </r>
       <r>   45.4283    0.0000 </r>
       <r>   46.1008    0.0000 </r>
       <r>   46.6633    0.0000 </r>
      </set>
      <set comment="kpoint 41">
       <r>    2.8987    1.0000 </r>
       <r>    5.5836    1.0000 </r>
       <r>    7.0179    1.0000 </r>
       <r>    7.2606    1.0000 </r>
       <r>    7.5269    1.0000 </r>
       <r>    7.8867    1.0000 </r>
       <r>    8.0058    1.0000 </r>
       <r>    8.2056    1.0000 </r>
       <r>    8.6129    1.0000 </r>
       <r>    8.7440    1.0000 </r>
       <r>    9.4647    1.0000 </r>
       <r>   10.9659    0.0000 </r>
       <r>   20.3645    0.0000 </r>
       <r>   27.1147    0.0000 </r>
       <r>   30.5889    0.0000 </r>
       <r>   31.0457    0.0000 </r>
       <r>   32.4291    0.0000 </r>
       <r>   33.0626    0.0000 </r>
       <r>   35.8294    0.0000 </r>
       <r>   36.2429    0.0000 </r>
       <r>   40.1553    0.0000 </r>
       <r>   41.5338    0.0000 </r>
       <r>   41.6739    0.0000 </r>
       <r>   43.9640    0.0000 </r>
       <r>   44.9882    0.0000 </r>
       <r>   46.0489    0.0000 </r>
       <r>   46.4657    0.0000 </r>
       <r>   46.7754    0.0000 </r>
      </set>
      <set comment="kpoint 42">
       <r>    3.8602    1.0000 </r>
       <r>    5.9720    1.0000 </r>
       <r>    6.5224    1.0000 </r>
       <r>    7.1216    1.0000 </r>
       <r>    7.4506    1.0000 </r>
       <r>    7.9810    1.0000 </r>
       <r>    8.0715    1.0000 </r>
       <r>    8.5870    1.0000 </r>
       <r>    8.7937    1.0000 </r>
       <r>    8.8925    1.0000 </r>
       <r>    9.4972    1.0000 </r>
       <r>   12.0126    0.0000 </r>
       <r>   21.0595    0.0000 </r>
       <r>   23.4691    0.0000 </r>
       <r>   27.5894    0.0000 </r>
       <r>   29.0621    0.0000 </r>
       <r>   31.9916    0.0000 </r>
       <r>   32.8363    0.0000 </r>
       <r>   34.6870    0.0000 </r>
       <r>   34.9579    0.0000 </r>
       <r>   37.8908    0.0000 </r>
       <r>   42.1374    0.0000 </r>
       <r>   42.6695    0.0000 </r>
       <r>   46.2453    0.0000 </r>
       <r>   46.6133    0.0000 </r>
       <r>   46.9204    0.0000 </r>
       <r>   47.7029    0.0000 </r>
       <r>   47.9705    0.0000 </r>
      </set>
      <set comment="kpoint 43">
       <r>    4.7555    1.0000 </r>
       <r>    5.8777    1.0000 </r>
       <r>    6.3210    1.0000 </r>
       <r>    6.9507    1.0000 </r>
       <r>    7.7564    1.0000 </r>
       <r>    7.9104    1.0000 </r>
       <r>    8.5329    1.0000 </r>
       <r>    8.9959    1.0000 </r>
       <r>    9.1548    1.0000 </r>
       <r>    9.2020    1.0000 </r>
       <r>    9.5468    1.0000 </r>
       <r>   13.1058    0.0000 </r>
       <r>   19.9521    0.0000 </r>
       <r>   22.0562    0.0000 </r>
       <r>   24.8224    0.0000 </r>
       <r>   27.4914    0.0000 </r>
       <r>   30.8710    0.0000 </r>
       <r>   32.7588    0.0000 </r>
       <r>   33.3808    0.0000 </r>
       <r>   33.7351    0.0000 </r>
       <r>   37.1189    0.0000 </r>
       <r>   42.1525    0.0000 </r>
       <r>   42.9057    0.0000 </r>
       <r>   45.9721    0.0000 </r>
       <r>   47.1132    0.0000 </r>
       <r>   47.3819    0.0000 </r>
       <r>   49.4201    0.0000 </r>
       <r>   49.9388    0.0000 </r>
      </set>
      <set comment="kpoint 44">
       <r>    5.1330    1.0000 </r>
       <r>    5.6824    1.0000 </r>
       <r>    6.3887    1.0000 </r>
       <r>    6.7314    1.0000 </r>
       <r>    7.8279    1.0000 </r>
       <r>    8.0939    1.0000 </r>
       <r>    9.1859    1.0000 </r>
       <r>    9.2313    1.0000 </r>
       <r>    9.4930    1.0000 </r>
       <r>    9.6493    1.0000 </r>
       <r>   10.0859    1.0000 </r>
       <r>   13.7925    0.0000 </r>
       <r>   17.8842    0.0000 </r>
       <r>   20.7098    0.0000 </r>
       <r>   24.8296    0.0000 </r>
       <r>   26.4628    0.0000 </r>
       <r>   28.9498    0.0000 </r>
       <r>   32.4478    0.0000 </r>
       <r>   32.5002    0.0000 </r>
       <r>   32.8239    0.0000 </r>
       <r>   38.1957    0.0000 </r>
       <r>   41.6995    0.0000 </r>
       <r>   42.2458    0.0000 </r>
       <r>   44.7256    0.0000 </r>
       <r>   47.1572    0.0000 </r>
       <r>   47.6726    0.0000 </r>
       <r>   51.0765    0.0000 </r>
       <r>   52.5858    0.0000 </r>
      </set>
      <set comment="kpoint 45">
       <r>    5.1810    1.0000 </r>
       <r>    5.6069    1.0000 </r>
       <r>    6.5239    1.0000 </r>
       <r>    6.5737    1.0000 </r>
       <r>    7.7956    1.0000 </r>
       <r>    8.2025    1.0000 </r>
       <r>    9.2845    1.0000 </r>
       <r>    9.3737    1.0000 </r>
       <r>    9.6351    1.0000 </r>
       <r>    9.7146    1.0000 </r>
       <r>   11.2156    0.0000 </r>
       <r>   13.2210    0.0000 </r>
       <r>   18.4857    0.0000 </r>
       <r>   18.6255    0.0000 </r>
       <r>   26.1016    0.0000 </r>
       <r>   26.3267    0.0000 </r>
       <r>   27.0877    0.0000 </r>
       <r>   32.1876    0.0000 </r>
       <r>   32.3023    0.0000 </r>
       <r>   32.5916    0.0000 </r>
       <r>   39.4172    0.0000 </r>
       <r>   40.8992    0.0000 </r>
       <r>   41.5419    0.0000 </r>
       <r>   44.5741    0.0000 </r>
       <r>   47.1416    0.0000 </r>
       <r>   47.8232    0.0000 </r>
       <r>   51.3843    0.0000 </r>
       <r>   54.2692    0.0000 </r>
      </set>
      <set comment="kpoint 46">
       <r>    2.6837    1.0000 </r>
       <r>    5.4535    1.0000 </r>
       <r>    7.1758    1.0000 </r>
[...]
       </set>
       <set comment="band 28">
        <r>  0.0287  0.0249  0.0117  0.0735  0.0595  0.0089  0.0003  0.0137  0.1763 </r>
        <r>  0.0190  0.0165  0.0177  0.0488  0.0395  0.0135  0.0002  0.0206  0.1170 </r>
       </set>
      </set>
      <set comment="kpoint 93">
       <set comment="band 1">
        <r>  0.0795  0.0074  0.0072  0.0454  0.0307  0.0001  0.0357  0.1424  0.0454 </r>
        <r>  0.0349  0.0033  0.0165  0.0200  0.0135  0.0003  0.0157  0.3238  0.0200 </r>
       </set>
       <set comment="band 2">
        <r>  0.0349  0.0033  0.0165  0.0200  0.0135  0.0003  0.0157  0.3238  0.0200 </r>
        <r>  0.0795  0.0074  0.0072  0.0454  0.0307  0.0001  0.0357  0.1424  0.0454 </r>
       </set>
       <set comment="band 3">
        <r>  0.0211  0.0520  0.0043  0.0116  0.5722  0.0093  0.0060  0.0000  0.0348 </r>
        <r>  0.0031  0.0076  0.0291  0.0017  0.0837  0.0634  0.0009  0.0001  0.0051 </r>
       </set>
       <set comment="band 4">
        <r>  0.0031  0.0076  0.0291  0.0017  0.0837  0.0634  0.0009  0.0001  0.0051 </r>
        <r>  0.0211  0.0520  0.0043  0.0116  0.5722  0.0093  0.0060  0.0000  0.0348 </r>
       </set>
       <set comment="band 5">
        <r>  0.0012  0.0000  0.0021  0.0774  0.0016  0.0539  0.2736  0.0057  0.1332 </r>
        <r>  0.0003  0.0000  0.0077  0.0210  0.0004  0.1992  0.0741  0.0212  0.0361 </r>
       </set>
       <set comment="band 6">
        <r>  0.0003  0.0000  0.0077  0.0210  0.0004  0.1992  0.0741  0.0212  0.0361 </r>
        <r>  0.0012  0.0000  0.0021  0.0774  0.0016  0.0539  0.2736  0.0057  0.1332 </r>
       </set>
       <set comment="band 7">
        <r>  0.0079  0.0000  0.0000  0.0011  0.1059  0.0755  0.0347  0.0138  0.1707 </r>
        <r>  0.0014  0.0000  0.0000  0.0002  0.0190  0.4197  0.0062  0.0766  0.0307 </r>
       </set>
       <set comment="band 8">
        <r>  0.0014  0.0000  0.0000  0.0002  0.0190  0.4197  0.0062  0.0766  0.0307 </r>
        <r>  0.0079  0.0000  0.0000  0.0011  0.1059  0.0755  0.0347  0.0138  0.1707 </r>
       </set>
       <set comment="band 9">
        <r>  0.0000  0.0000  0.0030  0.0003  0.0007  0.0835  0.0410  0.1939  0.0132 </r>
        <r>  0.0000  0.0001  0.0003  0.0029  0.0085  0.0073  0.4669  0.0170  0.1506 </r>
       </set>
       <set comment="band 10">
        <r>  0.0000  0.0001  0.0003  0.0029  0.0085  0.0073  0.4669  0.0170  0.1506 </r>
        <r>  0.0000  0.0000  0.0030  0.0003  0.0007  0.0835  0.0410  0.1939  0.0132 </r>
       </set>
       <set comment="band 11">
        <r>  0.0057  0.0002  0.0696  0.0132  0.0014  0.0066  0.0001  0.1366  0.0267 </r>
        <r>  0.0738  0.0032  0.0053  0.1714  0.0183  0.0005  0.0011  0.0105  0.3474 </r>
       </set>
       <set comment="band 12">
        <r>  0.0738  0.0032  0.0053  0.1714  0.0183  0.0005  0.0011  0.0105  0.3474 </r>
        <r>  0.0057  0.0002  0.0696  0.0132  0.0014  0.0066  0.0001  0.1366  0.0267 </r>
       </set>
       <set comment="band 13">
        <r>  0.0004  0.2667  0.0093  0.0064  0.2763  0.0059  0.0018  0.0098  0.0012 </r>
        <r>  0.0001  0.0440  0.0566  0.0011  0.0456  0.0356  0.0003  0.0591  0.0002 </r>
       </set>
       <set comment="band 14">
        <r>  0.0001  0.0440  0.0566  0.0011  0.0456  0.0356  0.0003  0.0591  0.0002 </r>
        <r>  0.0004  0.2667  0.0093  0.0064  0.2763  0.0059  0.0018  0.0098  0.0012 </r>
       </set>
       <set comment="band 15">
        <r>  0.0163  0.0001  0.0043  0.0073  0.0000  0.1190  0.0027  0.0838  0.0000 </r>
        <r>  0.3574  0.0011  0.0002  0.1595  0.0009  0.0054  0.0592  0.0038  0.0001 </r>
       </set>
       <set comment="band 16">
        <r>  0.3574  0.0011  0.0002  0.1595  0.0009  0.0054  0.0592  0.0038  0.0001 </r>
        <r>  0.0163  0.0001  0.0043  0.0073  0.0000  0.1190  0.0027  0.0838  0.0000 </r>
       </set>
       <set comment="band 17">
        <r>  0.0005  0.0000  0.2595  0.0008  0.0000  0.0285  0.0010  0.0945  0.0003 </r>
        <r>  0.0440  0.0000  0.0029  0.0711  0.0025  0.0003  0.0919  0.0010  0.0252 </r>
       </set>
       <set comment="band 18">
        <r>  0.0440  0.0000  0.0029  0.0711  0.0025  0.0003  0.0919  0.0010  0.0252 </r>
        <r>  0.0005  0.0000  0.2595  0.0008  0.0000  0.0285  0.0010  0.0945  0.0003 </r>
       </set>
       <set comment="band 19">
        <r>  0.0002  0.0013  0.0859  0.0003  0.0023  0.1197  0.0012  0.0981  0.0003 </r>
        <r>  0.0082  0.0618  0.0018  0.0147  0.1116  0.0025  0.0568  0.0021  0.0130 </r>
       </set>
       <set comment="band 20">
        <r>  0.0082  0.0618  0.0018  0.0147  0.1116  0.0025  0.0568  0.0021  0.0130 </r>
        <r>  0.0002  0.0013  0.0859  0.0003  0.0023  0.1197  0.0012  0.0981  0.0003 </r>
       </set>
       <set comment="band 21">
        <r>  0.0004  0.0001  0.0779  0.0006  0.0005  0.0060  0.0031  0.1977  0.0004 </r>
        <r>  0.0317  0.0082  0.0009  0.0500  0.0385  0.0001  0.2618  0.0024  0.0372 </r>
       </set>
       <set comment="band 22">
        <r>  0.0317  0.0082  0.0009  0.0500  0.0385  0.0001  0.2618  0.0024  0.0372 </r>
        <r>  0.0004  0.0001  0.0779  0.0006  0.0005  0.0060  0.0031  0.1977  0.0004 </r>
       </set>
       <set comment="band 23">
        <r>  0.0005  0.0997  0.0370  0.0005  0.0749  0.0184  0.0000  0.0086  0.0000 </r>
        <r>  0.0008  0.1686  0.0219  0.0008  0.1267  0.0109  0.0000  0.0051  0.0000 </r>
       </set>
       <set comment="band 24">
        <r>  0.0008  0.1686  0.0219  0.0008  0.1267  0.0109  0.0000  0.0051  0.0000 </r>
        <r>  0.0005  0.0997  0.0370  0.0005  0.0749  0.0184  0.0000  0.0086  0.0000 </r>
       </set>
       <set comment="band 25">
        <r>  0.3501  0.0000  0.0060  0.0006  0.0005  0.2247  0.0003  0.0433  0.0595 </r>
        <r>  0.8933  0.0001  0.0024  0.0016  0.0013  0.0881  0.0009  0.0170  0.1518 </r>
       </set>
       <set comment="band 26">
        <r>  0.8933  0.0001  0.0024  0.0016  0.0013  0.0881  0.0009  0.0170  0.1518 </r>
        <r>  0.3501  0.0000  0.0060  0.0006  0.0005  0.2247  0.0003  0.0433  0.0595 </r>
       </set>
       <set comment="band 27">
        <r>  2.5496  0.0000  0.0030  0.0006  0.0001  0.0429  0.0004  0.0056  0.0254 </r>
        <r>  2.5400  0.0000  0.0030  0.0006  0.0001  0.0431  0.0004  0.0056  0.0253 </r>
       </set>
       <set comment="band 28">
        <r>  2.5400  0.0000  0.0030  0.0006  0.0001  0.0431  0.0004  0.0056  0.0253 </r>
        <r>  2.5496  0.0000  0.0030  0.0006  0.0001  0.0429  0.0004  0.0056  0.0254 </r>
       </set>
      </set>
      <set comment="kpoint 94">
       <set comment="band 1">
        <r>  0.0370  0.0146  0.0016  0.0212  0.0650  0.0175  0.0421  0.1894  0.0363 </r>
        <r>  0.0273  0.0107  0.0021  0.0156  0.0479  0.0237  0.0310  0.2568  0.0268 </r>
       </set>
       <set comment="band 2">
        <r>  0.0273  0.0107  0.0021  0.0156  0.0479  0.0237  0.0310  0.2568  0.0268 </r>
        <r>  0.0370  0.0146  0.0016  0.0212  0.0650  0.0175  0.0421  0.1894  0.0363 </r>
       </set>
       <set comment="band 3">
        <r>  0.0033  0.0100  0.0061  0.0005  0.0659  0.1966  0.0354  0.0591  0.0036 </r>
        <r>  0.0128  0.0392  0.0016  0.0018  0.2583  0.0501  0.1390  0.0151  0.0142 </r>
       </set>
       <set comment="band 4">
        <r>  0.0128  0.0392  0.0016  0.0018  0.2583  0.0501  0.1390  0.0151  0.0142 </r>
        <r>  0.0033  0.0100  0.0061  0.0005  0.0659  0.1966  0.0354  0.0591  0.0036 </r>
       </set>
       <set comment="band 5">
        <r>  0.0066  0.0208  0.0040  0.1045  0.1685  0.0171  0.0515  0.0006  0.2510 </r>
        <r>  0.0007  0.0023  0.0365  0.0115  0.0186  0.1554  0.0057  0.0054  0.0276 </r>
       </set>
       <set comment="band 6">
        <r>  0.0007  0.0023  0.0365  0.0115  0.0186  0.1554  0.0057  0.0054  0.0276 </r>
        <r>  0.0066  0.0208  0.0040  0.1045  0.1685  0.0171  0.0515  0.0006  0.2510 </r>
       </set>
       <set comment="band 7">
        <r>  0.0017  0.0013  0.0007  0.0057  0.0850  0.1573  0.0110  0.0641  0.1554 </r>
        <r>  0.0016  0.0012  0.0007  0.0054  0.0806  0.1658  0.0104  0.0675  0.1475 </r>
       </set>
       <set comment="band 8">
        <r>  0.0016  0.0012  0.0007  0.0054  0.0806  0.1658  0.0104  0.0675  0.1475 </r>
        <r>  0.0017  0.0013  0.0007  0.0057  0.0850  0.1573  0.0110  0.0641  0.1554 </r>
       </set>
       <set comment="band 9">
        <r>  0.0001  0.0000  0.0011  0.0001  0.0006  0.0996  0.0358  0.1726  0.0028 </r>
        <r>  0.0013  0.0002  0.0001  0.0016  0.0096  0.0060  0.5987  0.0103  0.0466 </r>
       </set>
       <set comment="band 10">
        <r>  0.0013  0.0002  0.0001  0.0016  0.0096  0.0060  0.5987  0.0103  0.0466 </r>
        <r>  0.0001  0.0000  0.0011  0.0001  0.0006  0.0996  0.0358  0.1726  0.0028 </r>
       </set>
       <set comment="band 11">
        <r>  0.0337  0.0273  0.0033  0.2535  0.0396  0.0003  0.0016  0.0020  0.3020 </r>
        <r>  0.0011  0.0009  0.1039  0.0080  0.0013  0.0099  0.0001  0.0634  0.0096 </r>
       </set>
       <set comment="band 12">
        <r>  0.0011  0.0009  0.1039  0.0080  0.0013  0.0099  0.0001  0.0634  0.0096 </r>
        <r>  0.0337  0.0273  0.0033  0.2535  0.0396  0.0003  0.0016  0.0020  0.3020 </r>
       </set>
       <set comment="band 13">
        <r>  0.0682  0.1114  0.0197  0.0085  0.1239  0.0277  0.0037  0.0542  0.0080 </r>
        <r>  0.0664  0.1085  0.0202  0.0083  0.1207  0.0284  0.0036  0.0557  0.0078 </r>
       </set>
       <set comment="band 14">
        <r>  0.0664  0.1085  0.0202  0.0083  0.1207  0.0284  0.0036  0.0557  0.0078 </r>
        <r>  0.0682  0.1114  0.0197  0.0085  0.1239  0.0277  0.0037  0.0542  0.0080 </r>
       </set>
       <set comment="band 15">
        <r>  0.0034  0.0008  0.0129  0.0007  0.0004  0.1317  0.0004  0.0736  0.0001 </r>
        <r>  0.3474  0.0872  0.0001  0.0692  0.0429  0.0013  0.0425  0.0007  0.0061 </r>
       </set>
       <set comment="band 16">
        <r>  0.3474  0.0872  0.0001  0.0692  0.0429  0.0013  0.0425  0.0007  0.0061 </r>
        <r>  0.0034  0.0008  0.0129  0.0007  0.0004  0.1317  0.0004  0.0736  0.0001 </r>
       </set>
       <set comment="band 17">
        <r>  0.0003  0.0002  0.2548  0.0025  0.0001  0.0428  0.0007  0.0918  0.0009 </r>
        <r>  0.0111  0.0078  0.0065  0.0964  0.0041  0.0011  0.0254  0.0024  0.0350 </r>
       </set>
       <set comment="band 18">
        <r>  0.0111  0.0078  0.0065  0.0964  0.0041  0.0011  0.0254  0.0024  0.0350 </r>
        <r>  0.0003  0.0002  0.2548  0.0025  0.0001  0.0428  0.0007  0.0918  0.0009 </r>
       </set>
       <set comment="band 19">
        <r>  0.0001  0.0003  0.1410  0.0000  0.0004  0.1085  0.0003  0.1642  0.0000 </r>
        <r>  0.0202  0.0691  0.0006  0.0017  0.0980  0.0005  0.0650  0.0007  0.0093 </r>
       </set>
       <set comment="band 20">
        <r>  0.0202  0.0691  0.0006  0.0017  0.0980  0.0005  0.0650  0.0007  0.0093 </r>
        <r>  0.0001  0.0003  0.1410  0.0000  0.0004  0.1085  0.0003  0.1642  0.0000 </r>
       </set>
       <set comment="band 21">
        <r>  0.0005  0.0004  0.0448  0.0003  0.0000  0.0628  0.0032  0.0878  0.0001 </r>
        <r>  0.0521  0.0355  0.0004  0.0291  0.0023  0.0006  0.3259  0.0009  0.0066 </r>
       </set>
       <set comment="band 22">
        <r>  0.0521  0.0355  0.0004  0.0291  0.0023  0.0006  0.3259  0.0009  0.0066 </r>
        <r>  0.0005  0.0004  0.0448  0.0003  0.0000  0.0628  0.0032  0.0878  0.0001 </r>
       </set>
       <set comment="band 23">
        <r>  0.0151  0.0167  0.0301  0.0010  0.0271  0.1042  0.0005  0.0436  0.0044 </r>
        <r>  0.1204  0.1326  0.0038  0.0079  0.2159  0.0131  0.0038  0.0055  0.0347 </r>
       </set>
       <set comment="band 24">
        <r>  0.1204  0.1326  0.0038  0.0079  0.2159  0.0131  0.0038  0.0055  0.0347 </r>
        <r>  0.0151  0.0167  0.0301  0.0010  0.0271  0.1042  0.0005  0.0436  0.0044 </r>
       </set>
       <set comment="band 25">
        <r>  0.4900  0.0116  0.0104  0.0054  0.0108  0.1009  0.0017  0.0187  0.0341 </r>
        <r>  1.5013  0.0354  0.0034  0.0166  0.0331  0.0329  0.0051  0.0061  0.1045 </r>
       </set>
       <set comment="band 26">
        <r>  1.5013  0.0354  0.0034  0.0166  0.0331  0.0329  0.0051  0.0061  0.1045 </r>
        <r>  0.4900  0.0116  0.0104  0.0054  0.0108  0.1009  0.0017  0.0187  0.0341 </r>
       </set>
       <set comment="band 27">
        <r>  2.6839  0.0066  0.0038  0.0398  0.0096  0.0131  0.0016  0.0001  0.1166 </r>
        <r>  0.8662  0.0021  0.0119  0.0129  0.0031  0.0407  0.0005  0.0004  0.0376 </r>
       </set>
       <set comment="band 28">
        <r>  0.8662  0.0021  0.0119  0.0129  0.0031  0.0407  0.0005  0.0004  0.0376 </r>
        <r>  2.6839  0.0066  0.0038  0.0398  0.0096  0.0131  0.0016  0.0001  0.1166 </r>
       </set>
      </set>
      <set comment="kpoint 95">
       <set comment="band 1">
        <r>  0.0000  0.0196  0.0000  0.0196  0.0456  0.1456  0.0000  0.1456  0.0456 </r>
        <r>  0.0000  0.0444  0.0000  0.0444  0.1032  0.0643  0.0000  0.0643  0.1032 </r>
       </set>
       <set comment="band 2">
        <r>  0.0000  0.0444  0.0000  0.0444  0.1032  0.0643  0.0000  0.0643  0.1032 </r>
        <r>  0.0000  0.0196  0.0000  0.0196  0.0456  0.1456  0.0000  0.1456  0.0456 </r>
       </set>
       <set comment="band 3">
        <r>  0.0471  0.0000  0.0000  0.0000  0.0000  0.0940  0.1813  0.0940  0.0000 </r>
        <r>  0.0221  0.0000  0.0000  0.0000  0.0000  0.2003  0.0851  0.2003  0.0000 </r>
       </set>
       <set comment="band 4">
        <r>  0.0221  0.0000  0.0000  0.0000  0.0000  0.2003  0.0851  0.2003  0.0000 </r>
        <r>  0.0471  0.0000  0.0000  0.0000  0.0000  0.0940  0.1813  0.0940  0.0000 </r>
       </set>
       <set comment="band 5">
        <r>  0.0000  0.0660  0.0022  0.0660  0.3407  0.0000  0.0000  0.0000  0.3407 </r>
        <r>  0.0000  0.0031  0.0455  0.0031  0.0162  0.0000  0.0000  0.0000  0.0162 </r>
       </set>
       <set comment="band 6">
        <r>  0.0000  0.0031  0.0455  0.0031  0.0162  0.0000  0.0000  0.0000  0.0162 </r>
        <r>  0.0000  0.0660  0.0022  0.0660  0.3407  0.0000  0.0000  0.0000  0.3407 </r>
       </set>
       <set comment="band 7">
        <r>  0.0000  0.0000  0.0000  0.0000  0.0000  0.2200  0.0000  0.2200  0.0000 </r>
        <r>  0.0000  0.0038  0.0000  0.0038  0.2586  0.0000  0.0000  0.0000  0.2586 </r>
       </set>
       <set comment="band 8">
        <r>  0.0000  0.0038  0.0000  0.0038  0.2586  0.0000  0.0000  0.0000  0.2586 </r>
        <r>  0.0000  0.0000  0.0000  0.0000  0.0000  0.2200  0.0000  0.2200  0.0000 </r>
       </set>
       <set comment="band 9">
        <r>  0.0004  0.0000  0.0000  0.0000  0.0000  0.1289  0.0665  0.1289  0.0000 </r>
        <r>  0.0034  0.0000  0.0000  0.0000  0.0000  0.0136  0.6304  0.0136  0.0000 </r>
       </set>
       <set comment="band 10">
        <r>  0.0034  0.0000  0.0000  0.0000  0.0000  0.0136  0.6304  0.0136  0.0000 </r>
        <r>  0.0004  0.0000  0.0000  0.0000  0.0000  0.1289  0.0665  0.1289  0.0000 </r>
       </set>
       <set comment="band 11">
        <r>  0.0000  0.1614  0.0029  0.1614  0.1788  0.0000  0.0000  0.0000  0.1788 </r>
        <r>  0.0000  0.0028  0.1652  0.0028  0.0031  0.0000  0.0000  0.0000  0.0031 </r>
       </set>
       <set comment="band 12">
        <r>  0.0000  0.0028  0.1652  0.0028  0.0031  0.0000  0.0000  0.0000  0.0031 </r>
        <r>  0.0000  0.1614  0.0029  0.1614  0.1788  0.0000  0.0000  0.0000  0.1788 </r>
       </set>
       <set comment="band 13">
        <r>  0.0000  0.0905  0.0000  0.0905  0.0697  0.0452  0.0000  0.0452  0.0697 </r>
        <r>  0.0000  0.0882  0.0000  0.0882  0.0679  0.0464  0.0000  0.0464  0.0679 </r>
       </set>
       <set comment="band 14">
        <r>  0.0000  0.0882  0.0000  0.0882  0.0679  0.0464  0.0000  0.0464  0.0679 </r>
        <r>  0.0000  0.0905  0.0000  0.0905  0.0697  0.0452  0.0000  0.0452  0.0697 </r>
       </set>
       <set comment="band 15">
        <r>  0.0060  0.0000  0.0000  0.0000  0.0000  0.1288  0.0005  0.1288  0.0000 </r>
        <r>  0.5393  0.0000  0.0000  0.0000  0.0000  0.0014  0.0457  0.0014  0.0000 </r>
       </set>
       <set comment="band 16">
        <r>  0.5393  0.0000  0.0000  0.0000  0.0000  0.0014  0.0457  0.0014  0.0000 </r>
        <r>  0.0060  0.0000  0.0000  0.0000  0.0000  0.1288  0.0005  0.1288  0.0000 </r>
       </set>
       <set comment="band 17">
        <r>  0.0000  0.0544  0.0046  0.0544  0.0420  0.0000  0.0000  0.0000  0.0420 </r>
        <r>  0.0000  0.0006  0.4409  0.0006  0.0004  0.0000  0.0000  0.0000  0.0004 </r>
       </set>
       <set comment="band 18">
        <r>  0.0000  0.0006  0.4409  0.0006  0.0004  0.0000  0.0000  0.0000  0.0004 </r>
        <r>  0.0000  0.0544  0.0046  0.0544  0.0420  0.0000  0.0000  0.0000  0.0420 </r>
       </set>
       <set comment="band 19">
        <r>  0.0000  0.0005  0.0000  0.0005  0.0002  0.1960  0.0000  0.1960  0.0002 </r>
        <r>  0.0000  0.0567  0.0000  0.0567  0.0237  0.0018  0.0000  0.0018  0.0237 </r>
       </set>
       <set comment="band 20">
        <r>  0.0000  0.0567  0.0000  0.0567  0.0237  0.0018  0.0000  0.0018  0.0237 </r>
        <r>  0.0000  0.0005  0.0000  0.0005  0.0002  0.1960  0.0000  0.1960  0.0002 </r>
       </set>
       <set comment="band 21">
        <r>  0.0031  0.0000  0.0000  0.0000  0.0000  0.0997  0.0132  0.0997  0.0000 </r>
        <r>  0.1005  0.0000  0.0000  0.0000  0.0000  0.0031  0.4215  0.0031  0.0000 </r>
       </set>
       <set comment="band 22">
        <r>  0.1005  0.0000  0.0000  0.0000  0.0000  0.0031  0.4215  0.0031  0.0000 </r>
        <r>  0.0031  0.0000  0.0000  0.0000  0.0000  0.0997  0.0132  0.0997  0.0000 </r>
       </set>
       <set comment="band 23">
        <r>  0.0000  0.0007  0.0000  0.0007  0.0018  0.0704  0.0000  0.0704  0.0018 </r>
        <r>  0.0000  0.0807  0.0000  0.0807  0.1996  0.0006  0.0000  0.0006  0.1996 </r>
       </set>
       <set comment="band 24">
        <r>  0.0000  0.0807  0.0000  0.0807  0.1996  0.0006  0.0000  0.0006  0.1996 </r>
        <r>  0.0000  0.0007  0.0000  0.0007  0.0018  0.0704  0.0000  0.0704  0.0018 </r>
       </set>
       <set comment="band 25">
        <r>  0.0000  0.1087  0.0017  0.1087  0.1628  0.0000  0.0000  0.0000  0.1628 </r>
        <r>  0.0000  0.0027  0.0708  0.0027  0.0040  0.0000  0.0000  0.0000  0.0040 </r>
       </set>
       <set comment="band 26">
        <r>  0.0000  0.0027  0.0708  0.0027  0.0040  0.0000  0.0000  0.0000  0.0040 </r>
        <r>  0.0000  0.1087  0.0017  0.1087  0.1628  0.0000  0.0000  0.0000  0.1628 </r>
       </set>
       <set comment="band 27">
        <r>  2.3467  0.0000  0.0000  0.0000  0.0000  0.0295  0.0073  0.0295  0.0000 </r>
        <r>  1.8319  0.0000  0.0000  0.0000  0.0000  0.0379  0.0057  0.0379  0.0000 </r>
       </set>
       <set comment="band 28">
        <r>  1.8319  0.0000  0.0000  0.0000  0.0000  0.0379  0.0057  0.0379  0.0000 </r>
        <r>  2.3467  0.0000  0.0000  0.0000  0.0000  0.0295  0.0073  0.0295  0.0000 </r>
       </set>
      </set>
     </set>
    </set>
   </array>
  </projected>
 </calculation>
 <structure name="finalpos" >
  <crystal>
   <varray name="basis" >
    <v>       1.24613780      -2.15837399       0.00000000 </v>
    <v>       1.24613780       2.15837399       0.00000000 </v>
    <v>       0.00000000       0.00000000       4.02015843 </v>
   </varray>
   <i name="volume">     21.62548890 </i>
   <varray name="rec_basis" >
    <v>       0.40123973      -0.23165587       0.00000000 </v>
    <v>       0.40123973       0.23165587       0.00000000 </v>
    <v>       0.00000000       0.00000000       0.24874642 </v>
   </varray>
  </crystal>
  <varray name="positions" >
   <v>       0.33333333       0.66666667       0.25000000 </v>
   <v>       0.66666667       0.33333333       0.75000000 </v>
  </varray>
 </structure>
</modeling>
