<?xml version="1.0" encoding="ISO-8859-1"?>
<modeling>
 <generator>
  <i name="program" type="string">vasp </i>
  <i name="version" type="string">6.3.2  </i>
  <i name="subversion" type="string">27Jun22 (build Aug 12 2022 00:53:59) complex                          parallel </i>
  <i name="platform" type="string">tv2STD </i>
  <i name="date" type="string">2024 11 30 </i>
  <i name="time" type="string">17:13:20 </i>
 </generator>
 <incar>
  <i type="string" name="SYSTEM">Co-hcc</i>
  <i type="int" name="ISTART">     0</i>
  <i type="string" name="PREC">Accurate      normal | accurate</i>
  <i type="string" name="ALGO">Normal     Normal, Fast, Very_Fast</i>
  <i type="logical" name="ADDGRID"> F  </i>
  <i type="int" name="ISPIN">     2</i>
  <i type="int" name="ICHARG">     2</i>
  <i type="int" name="INIWAV">     1</i>
  <i type="int" name="NELM">   100</i>
  <i type="int" name="IBRION">     2</i>
  <i name="EDIFF">      0.00000100</i>
  <i name="EDIFFG">     -0.02000000</i>
  <i type="int" name="NSW">   100</i>
  <i type="int" name="ISIF">     2</i>
  <i type="int" name="ISYM">     1</i>
  <i name="ENCUT">    400.00000000</i>
  <v name="MAGMOM">      3.00000000      3.00000000</v>
  <i type="logical" name="LREAL"> F  </i>
  <i type="int" name="ISMEAR">     0</i>
  <i name="SIGMA">      0.05000000</i>
  <i type="int" name="NWRITE">     2</i>
  <i type="logical" name="LWAVE"> T  </i>
  <i type="logical" name="LCHARG"> T  </i>
  <i type="int" name="LORBIT">    11</i>
 </incar>
 <primitive_cell>
  <structure name="primitive_cell" >
   <crystal>
    <varray name="basis" >
     <v>       2.49246475       0.00000000       0.00000000 </v>
     <v>      -1.24623237       2.15853779       0.00000000 </v>
     <v>       0.00000000       0.00000000       4.03270652 </v>
    </varray>
    <i name="volume">     21.69628106 </i>
    <varray name="rec_basis" >
     <v>       0.40120929       0.23163829       0.00000000 </v>
     <v>       0.00000000       0.46327658       0.00000000 </v>
     <v>       0.00000000       0.00000000       0.24797242 </v>
    </varray>
   </crystal>
   <varray name="positions" >
    <v>       0.00000000       0.00000000       0.00000000 </v>
    <v>       0.33333333       0.66666667       0.50000000 </v>
   </varray>
  </structure>
  <varray name="primitive_index" >
   <v type="int" >        1 </v>
   <v type="int" >        2 </v>
  </varray>
 </primitive_cell>
 <kpoints>
  <generation param="Gamma">
   <v type="int" name="divisions">      10       10        8 </v>
   <v name="usershift">      0.00000000       0.00000000       0.00000000 </v>
   <v name="genvec1">      0.10000000      -0.00000000       0.00000000 </v>
   <v name="genvec2">      0.00000000       0.10000000       0.00000000 </v>
   <v name="genvec3">      0.00000000       0.00000000       0.12500000 </v>
   <v name="shift">      0.00000000       0.00000000       0.00000000 </v>
  </generation>
  <varray name="kpointlist" >
   <v>       0.00000000       0.00000000       0.00000000 </v>
   <v>       0.10000000      -0.00000000       0.00000000 </v>
   <v>       0.20000000      -0.00000000       0.00000000 </v>
   <v>       0.30000000       0.00000000       0.00000000 </v>
   <v>       0.40000000      -0.00000000       0.00000000 </v>
   <v>       0.50000000      -0.00000000       0.00000000 </v>
   <v>       0.10000000       0.10000000       0.00000000 </v>
   <v>       0.20000000       0.10000000       0.00000000 </v>
   <v>       0.30000000       0.10000000       0.00000000 </v>
   <v>       0.40000000       0.10000000       0.00000000 </v>
   <v>       0.20000000       0.20000000       0.00000000 </v>
   <v>       0.30000000       0.20000000       0.00000000 </v>
   <v>       0.40000000       0.20000000       0.00000000 </v>
   <v>       0.30000000       0.30000000       0.00000000 </v>
   <v>       0.00000000       0.00000000       0.12500000 </v>
   <v>       0.10000000      -0.00000000       0.12500000 </v>
   <v>       0.20000000      -0.00000000       0.12500000 </v>
   <v>       0.30000000       0.00000000       0.12500000 </v>
   <v>       0.40000000      -0.00000000       0.12500000 </v>
   <v>       0.50000000      -0.00000000       0.12500000 </v>
   <v>       0.10000000       0.10000000       0.12500000 </v>
   <v>       0.20000000       0.10000000       0.12500000 </v>
   <v>       0.30000000       0.10000000       0.12500000 </v>
   <v>       0.40000000       0.10000000       0.12500000 </v>
   <v>       0.20000000       0.20000000       0.12500000 </v>
   <v>       0.30000000       0.20000000       0.12500000 </v>
   <v>       0.40000000       0.20000000       0.12500000 </v>
   <v>       0.30000000       0.30000000       0.12500000 </v>
   <v>       0.00000000       0.00000000       0.25000000 </v>
   <v>       0.10000000      -0.00000000       0.25000000 </v>
   <v>       0.20000000      -0.00000000       0.25000000 </v>
   <v>       0.30000000       0.00000000       0.25000000 </v>
   <v>       0.40000000      -0.00000000       0.25000000 </v>
   <v>       0.50000000      -0.00000000       0.25000000 </v>
   <v>       0.10000000       0.10000000       0.25000000 </v>
   <v>       0.20000000       0.10000000       0.25000000 </v>
   <v>       0.30000000       0.10000000       0.25000000 </v>
   <v>       0.40000000       0.10000000       0.25000000 </v>
   <v>       0.20000000       0.20000000       0.25000000 </v>
   <v>       0.30000000       0.20000000       0.25000000 </v>
   <v>       0.40000000       0.20000000       0.25000000 </v>
   <v>       0.30000000       0.30000000       0.25000000 </v>
   <v>       0.00000000       0.00000000       0.37500000 </v>
   <v>       0.10000000      -0.00000000       0.37500000 </v>
   <v>       0.20000000      -0.00000000       0.37500000 </v>
   <v>       0.30000000       0.00000000       0.37500000 </v>
   <v>       0.40000000      -0.00000000       0.37500000 </v>
   <v>       0.50000000      -0.00000000       0.37500000 </v>
   <v>       0.10000000       0.10000000       0.37500000 </v>
   <v>       0.20000000       0.10000000       0.37500000 </v>
   <v>       0.30000000       0.10000000       0.37500000 </v>
   <v>       0.40000000       0.10000000       0.37500000 </v>
   <v>       0.20000000       0.20000000       0.37500000 </v>
   <v>       0.30000000       0.20000000       0.37500000 </v>
   <v>       0.40000000       0.20000000       0.37500000 </v>
   <v>       0.30000000       0.30000000       0.37500000 </v>
   <v>       0.00000000       0.00000000       0.50000000 </v>
   <v>       0.10000000      -0.00000000       0.50000000 </v>
   <v>       0.20000000      -0.00000000       0.50000000 </v>
   <v>       0.30000000       0.00000000       0.50000000 </v>
   <v>       0.40000000      -0.00000000       0.50000000 </v>
   <v>       0.50000000      -0.00000000       0.50000000 </v>
   <v>       0.10000000       0.10000000       0.50000000 </v>
   <v>       0.20000000       0.10000000       0.50000000 </v>
   <v>       0.30000000       0.10000000       0.50000000 </v>
   <v>       0.40000000       0.10000000       0.50000000 </v>
   <v>       0.20000000       0.20000000       0.50000000 </v>
   <v>       0.30000000       0.20000000       0.50000000 </v>
   <v>       0.40000000       0.20000000       0.50000000 </v>
   <v>       0.30000000       0.30000000       0.50000000 </v>
  </varray>
  <varray name="weights" >
   <v>       0.00125000 </v>
   <v>       0.00750000 </v>
   <v>       0.00750000 </v>
   <v>       0.00750000 </v>
   <v>       0.00750000 </v>
   <v>       0.00375000 </v>
   <v>       0.00750000 </v>
   <v>       0.01500000 </v>
   <v>       0.01500000 </v>
   <v>       0.01500000 </v>
   <v>       0.00750000 </v>
   <v>       0.01500000 </v>
   <v>       0.00750000 </v>
   <v>       0.00750000 </v>
   <v>       0.00250000 </v>
   <v>       0.01500000 </v>
   <v>       0.01500000 </v>
   <v>       0.01500000 </v>
   <v>       0.01500000 </v>
   <v>       0.00750000 </v>
   <v>       0.01500000 </v>
   <v>       0.03000000 </v>
   <v>       0.03000000 </v>
   <v>       0.03000000 </v>
   <v>       0.01500000 </v>
   <v>       0.03000000 </v>
   <v>       0.01500000 </v>
   <v>       0.01500000 </v>
   <v>       0.00250000 </v>
   <v>       0.01500000 </v>
   <v>       0.01500000 </v>
   <v>       0.01500000 </v>
   <v>       0.01500000 </v>
   <v>       0.00750000 </v>
   <v>       0.01500000 </v>
   <v>       0.03000000 </v>
   <v>       0.03000000 </v>
   <v>       0.03000000 </v>
   <v>       0.01500000 </v>
   <v>       0.03000000 </v>
   <v>       0.01500000 </v>
   <v>       0.01500000 </v>
   <v>       0.00250000 </v>
   <v>       0.01500000 </v>
   <v>       0.01500000 </v>
   <v>       0.01500000 </v>
   <v>       0.01500000 </v>
   <v>       0.00750000 </v>
   <v>       0.01500000 </v>
   <v>       0.03000000 </v>
   <v>       0.03000000 </v>
   <v>       0.03000000 </v>
   <v>       0.01500000 </v>
   <v>       0.03000000 </v>
   <v>       0.01500000 </v>
   <v>       0.01500000 </v>
   <v>       0.00125000 </v>
   <v>       0.00750000 </v>
   <v>       0.00750000 </v>
   <v>       0.00750000 </v>
   <v>       0.00750000 </v>
   <v>       0.00375000 </v>
   <v>       0.00750000 </v>
   <v>       0.01500000 </v>
   <v>       0.01500000 </v>
   <v>       0.01500000 </v>
   <v>       0.00750000 </v>
   <v>       0.01500000 </v>
   <v>       0.00750000 </v>
   <v>       0.00750000 </v>
  </varray>
 </kpoints>
 <parameters>
  <separator name="general" >
   <i type="string" name="SYSTEM">Co-hcc</i>
   <i type="logical" name="LCOMPAT"> F  </i>
  </separator>
  <separator name="electronic" >
   <i type="string" name="PREC">accura</i>
   <i name="ENMAX">    400.00000000</i>
   <i name="ENAUG">    477.81800000</i>
   <i name="EDIFF">      0.00000100</i>
   <i type="int" name="IALGO">    38</i>
   <i type="int" name="IWAVPR">    11</i>
   <i type="int" name="NBANDS">    16</i>
   <i type="int" name="NBANDSLOW">    -1</i>
   <i type="int" name="NBANDSHIGH">    -1</i>
   <i name="NELECT">     18.00000000</i>
   <i type="int" name="TURBO">     0</i>
   <i type="int" name="IRESTART">     0</i>
   <i type="int" name="NREBOOT">     0</i>
   <i type="int" name="NMIN">     0</i>
   <i name="EREF">      0.00000000</i>
   <separator name="electronic smearing" >
    <i type="int" name="ISMEAR">     0</i>
    <i name="SIGMA">      0.05000000</i>
    <i name="KSPACING">      0.50000000</i>
    <i type="logical" name="KGAMMA"> T  </i>
    <i type="logical" name="KBLOWUP"> T  </i>
   </separator>
   <separator name="electronic projectors" >
    <i type="logical" name="LREAL"> F  </i>
    <v name="ROPT">      0.00000000</v>
    <i type="int" name="LMAXPAW">  -100</i>
    <i type="int" name="LMAXMIX">     2</i>
    <i type="logical" name="NLSPLINE"> F  </i>
   </separator>
   <separator name="electronic startup" >
    <i type="int" name="ISTART">     0</i>
    <i type="int" name="ICHARG">     2</i>
    <i type="int" name="INIWAV">     1</i>
   </separator>
   <separator name="electronic spin" >
    <i type="int" name="ISPIN">     2</i>
    <i type="logical" name="LNONCOLLINEAR"> F  </i>
    <v name="MAGMOM">      3.00000000      3.00000000</v>
    <i name="NUPDOWN">     -1.00000000</i>
    <i type="logical" name="LSORBIT"> F  </i>
    <v name="SAXIS">      0.00000000      0.00000000      1.00000000</v>
    <i type="logical" name="LSPIRAL"> F  </i>
    <v name="QSPIRAL">      0.00000000      0.00000000      0.00000000</v>
    <i type="logical" name="LZEROZ"> F  </i>
   </separator>
   <separator name="electronic exchange-correlation" >
    <i type="logical" name="LASPH"> F  </i>
    <i type="logical" name="LMETAGGA"> F  </i>
   </separator>
   <separator name="electronic convergence" >
    <i type="int" name="NELM">   100</i>
    <i type="int" name="NELMDL">    -5</i>
    <i type="int" name="NELMIN">     2</i>
    <i name="ENINI">    400.00000000</i>
    <separator name="electronic convergence detail" >
     <i type="logical" name="LDIAG"> T  </i>
     <i type="logical" name="LSUBROT"> F  </i>
     <i name="WEIMIN">      0.00100000</i>
     <i name="EBREAK">      0.00000002</i>
     <i name="DEPER">      0.30000000</i>
     <i type="int" name="NRMM">     4</i>
     <i name="TIME">      0.40000000</i>
    </separator>
   </separator>
   <separator name="electronic mixer" >
    <i name="AMIX">      0.40000000</i>
    <i name="BMIX">      1.00000000</i>
    <i name="AMIN">      0.10000000</i>
    <i name="AMIX_MAG">      1.60000000</i>
    <i name="BMIX_MAG">      1.00000000</i>
    <separator name="electronic mixer details" >
     <i type="int" name="IMIX">     4</i>
     <i type="logical" name="MIXFIRST"> F  </i>
     <i type="int" name="MAXMIX">   -45</i>
     <i name="WC">    100.00000000</i>
     <i type="int" name="INIMIX">     1</i>
     <i type="int" name="MIXPRE">     1</i>
     <i type="int" name="MREMOVE">     5</i>
    </separator>
   </separator>
   <separator name="electronic dipolcorrection" >
    <i type="logical" name="LDIPOL"> F  </i>
    <i type="logical" name="LMONO"> F  </i>
    <i type="int" name="IDIPOL">     0</i>
    <i name="EPSILON">      1.00000000</i>
    <v name="DIPOL">   -100.00000000   -100.00000000   -100.00000000</v>
    <i name="EFIELD">      0.00000000</i>
   </separator>
  </separator>
  <separator name="grids" >
   <i type="int" name="NGX">    16</i>
   <i type="int" name="NGY">    16</i>
   <i type="int" name="NGZ">    28</i>
   <i type="int" name="NGXF">    32</i>
   <i type="int" name="NGYF">    32</i>
   <i type="int" name="NGZF">    56</i>
   <i type="logical" name="ADDGRID"> F  </i>
  </separator>
  <separator name="ionic" >
   <i type="int" name="NSW">   100</i>
   <i type="int" name="IBRION">     2</i>
   <i type="int" name="MDALGO">     0</i>
   <i type="int" name="ISIF">     2</i>
   <i name="PSTRESS">      0.00000000</i>
   <i name="EDIFFG">     -0.02000000</i>
   <i type="int" name="NFREE">     1</i>
   <i name="POTIM">      0.50000000</i>
   <i name="SMASS">     -3.00000000</i>
   <i name="SCALEE">      1.00000000</i>
  </separator>
  <separator name="ionic md" >
   <i name="TEBEG">      0.00010000</i>
   <i name="TEEND">      0.00010000</i>
   <i type="int" name="NBLOCK">     1</i>
   <i type="int" name="KBLOCK">   100</i>
   <i type="int" name="NPACO">   256</i>
   <i name="APACO">     10.00000000</i>
  </separator>
  <separator name="symmetry" >
   <i type="int" name="ISYM">     1</i>
   <i name="SYMPREC">      0.00001000</i>
  </separator>
  <separator name="dos" >
   <i type="int" name="LORBIT">    11</i>
   <v name="RWIGS">     -1.00000000</v>
   <i type="int" name="NEDOS">   301</i>
   <i name="EMIN">     10.00000000</i>
   <i name="EMAX">    -10.00000000</i>
   <i name="EFERMI">      0.00000000</i>
  </separator>
  <separator name="writing" >
   <i type="int" name="NWRITE">     2</i>
   <i type="logical" name="LWAVE"> T  </i>
   <i type="logical" name="LDOWNSAMPLE"> F  </i>
   <i type="logical" name="LCHARG"> T  </i>
   <i type="logical" name="LPARD"> F  </i>
   <i type="logical" name="LVTOT"> F  </i>
   <i type="logical" name="LVHAR"> F  </i>
   <i type="logical" name="LELF"> F  </i>
   <i type="logical" name="LOPTICS"> F  </i>
   <v name="STM">      0.00000000      0.00000000      0.00000000      0.00000000      0.00000000      0.00000000      0.00000000</v>
  </separator>
  <separator name="performance" >
   <i type="int" name="NPAR">     4</i>
   <i type="int" name="NSIM">     4</i>
   <i type="int" name="NBLK">    -1</i>
   <i type="logical" name="LPLANE"> T  </i>
   <i type="logical" name="LSCALAPACK"> T  </i>
   <i type="logical" name="LSCAAWARE"> F  </i>
   <i type="logical" name="LSCALU"> F  </i>
   <i type="logical" name="LASYNC"> F  </i>
   <i type="logical" name="LORBITALREAL"> F  </i>
  </separator>
  <separator name="miscellaneous" >
   <i type="int" name="IDIOT">     3</i>
   <i type="int" name="PHON_NSTRUCT">    -1</i>
   <i type="logical" name="LMUSIC"> F  </i>
   <v name="POMASS">     58.93300000</v>
   <v name="DARWINR">      0.00000000</v>
   <v name="DARWINV">      1.00000000</v>
   <i type="logical" name="LCORR"> T  </i>
  </separator>
  <i type="logical" name="GGA_COMPAT"> T  </i>
  <i type="logical" name="LBERRY"> F  </i>
  <i type="int" name="ICORELEVEL">     0</i>
  <i type="logical" name="LDAU"> F  </i>
  <i type="int" name="I_CONSTRAINED_M">     0</i>
  <separator name="electronic exchange-correlation" >
   <i type="string" name="GGA">--</i>
   <i type="int" name="VOSKOWN">     0</i>
   <i type="logical" name="LHFCALC"> F  </i>
   <i type="string" name="PRECFOCK"></i>
   <i type="logical" name="LSYMGRAD"> F  </i>
   <i type="logical" name="LHFONE"> F  </i>
   <i type="logical" name="LRHFCALC"> F  </i>
   <i type="logical" name="LTHOMAS"> F  </i>
   <i type="logical" name="LMODELHF"> F  </i>
   <i type="logical" name="LFOCKACE"> F  </i>
   <i name="ENCUT4O">     -1.00000000</i>
   <i type="int" name="EXXOEP">     0</i>
   <i type="int" name="FOURORBIT">     0</i>
   <i name="AEXX">      0.00000000</i>
   <i name="HFALPHA">      0.00000000</i>
   <i name="MCALPHA">      0.00000000</i>
   <i name="ALDAX">      1.00000000</i>
   <i name="AGGAX">      1.00000000</i>
   <i name="ALDAC">      1.00000000</i>
   <i name="AGGAC">      1.00000000</i>
   <i type="int" name="NKREDX">     1</i>
   <i type="int" name="NKREDY">     1</i>
   <i type="int" name="NKREDZ">     1</i>
   <i type="logical" name="SHIFTRED"> F  </i>
   <i type="logical" name="ODDONLY"> F  </i>
   <i type="logical" name="EVENONLY"> F  </i>
   <i type="int" name="LMAXFOCK">     0</i>
   <i type="int" name="NMAXFOCKAE">     0</i>
   <i type="logical" name="LFOCKAEDFT"> F  </i>
   <i name="HFSCREEN">      0.00000000</i>
   <i name="HFSCREENC">      0.00000000</i>
   <i type="int" name="NBANDSGWLOW">     0</i>
  </separator>
  <separator name="vdW DFT" >
   <i type="logical" name="LUSE_VDW"> F  </i>
   <i name="Zab_VDW">     -0.84910000</i>
   <i name="PARAM1">      0.12340000</i>
   <i name="PARAM2">      1.00000000</i>
   <i name="PARAM3">      0.00000000</i>
  </separator>
  <separator name="model GW" >
   <i type="int" name="MODEL_GW">     0</i>
   <i name="MODEL_EPS0">      6.50888432</i>
   <i name="MODEL_ALPHA">      1.00000000</i>
  </separator>
  <separator name="linear response parameters" >
   <i type="logical" name="LEPSILON"> F  </i>
   <i type="logical" name="LRPA"> F  </i>
   <i type="logical" name="LNABLA"> F  </i>
   <i type="logical" name="LVEL"> F  </i>
   <i name="CSHIFT">      0.10000000</i>
   <i name="OMEGAMAX">     -1.00000000</i>
   <i name="DEG_THRESHOLD">      0.00200000</i>
   <i name="RTIME">     -0.10000000</i>
   <i name="WPLASMAI">      0.00000000</i>
   <v name="DFIELD">      0.00000000      0.00000000      0.00000000</v>
   <v name="WPLASMA">      0.00000000      0.00000000      0.00000000      0.00000000      0.00000000      0.00000000      0.00000000      0.00000000      0.00000000</v>
  </separator>
  <separator name="orbital magnetization" >
   <i type="logical" name="NUCIND"> F  </i>
   <v name="MAGPOS">      0.00000000      0.00000000      0.00000000</v>
   <i type="logical" name="LNICSALL"> T  </i>
   <i type="logical" name="ORBITALMAG"> F  </i>
   <i type="logical" name="LMAGBLOCH"> F  </i>
   <i type="logical" name="LCHIMAG"> F  </i>
   <i type="logical" name="LGAUGE"> T  </i>
   <i type="int" name="MAGATOM">     0</i>
   <v name="MAGDIPOL">      0.00000000      0.00000000      0.00000000</v>
   <v name="AVECCONST">      0.00000000      0.00000000      0.00000000</v>
  </separator>
  <separator name="response functions" >
   <i type="logical" name="LFINITE_TEMPERATURE"> F  </i>
   <i type="logical" name="LADDER"> F  </i>
   <i type="logical" name="LRPAFORCE"> F  </i>
   <i type="logical" name="LFXC"> F  </i>
   <i type="logical" name="LHARTREE"> T  </i>
   <i type="int" name="IBSE">     0</i>
   <v type="int" name="KPOINT">    -1     0     0     0</v>
   <i type="logical" name="LTCTC"> F  </i>
   <i type="logical" name="LTCTE"> F  </i>
   <i type="logical" name="LTETE"> F  </i>
   <i type="logical" name="LTRIPLET"> F  </i>
   <i type="logical" name="LFXCEPS"> F  </i>
   <i type="logical" name="LFXHEG"> F  </i>
   <i type="int" name="NATURALO">     2</i>
   <i type="logical" name="LHOLEGF"> F  </i>
   <i type="logical" name="L2ORDER"> F  </i>
   <i type="logical" name="LDMP1"> F  </i>
   <i type="logical" name="LMP2LT"> F  </i>
   <i type="logical" name="LSMP2LT"> F  </i>
   <i type="logical" name="LGWLF"> F  </i>
   <i name="ENCUTGW">     -2.00000000</i>
   <i name="ENCUTGWSOFT">     -2.00000000</i>
   <i name="ENCUTLF">     -1.00000000</i>
   <i type="logical" name="LESF_SPLINES"> F  </i>
   <i type="int" name="LMAXMP2">    -1</i>
   <i name="SCISSOR">      0.00000000</i>
   <i type="int" name="NOMEGA">     0</i>
   <i type="int" name="NOMEGAR">     0</i>
   <i type="int" name="NBANDSGW">    -1</i>
   <i type="int" name="NBANDSO">    -1</i>
   <i type="int" name="NBANDSV">    -1</i>
   <i type="int" name="NELMGW">     1</i>
   <i type="int" name="NELMHF">     1</i>
   <i type="int" name="DIM">     3</i>
   <i type="int" name="IESPILON">     4</i>
   <i type="int" name="ANTIRES">     0</i>
   <i name="OMEGAMAX">    -30.00000000</i>
   <i name="OMEGAMIN">    -30.00000000</i>
   <i name="OMEGATL">   -200.00000000</i>
   <i type="int" name="OMEGAGRID">     0</i>
   <i name="CSHIFT">     -0.10000000</i>
   <i type="logical" name="LSELFENERGY"> F  </i>
   <i type="logical" name="LSPECTRAL"> F  </i>
   <i type="logical" name="LSPECTRALGW"> F  </i>
   <i type="logical" name="LSINGLES"> F  </i>
   <i type="logical" name="LFERMIGW"> F  </i>
   <i type="logical" name="ODDONLYGW"> F  </i>
   <i type="logical" name="EVENONLYGW"> F  </i>
   <i type="int" name="NKREDLFX">     1</i>
   <i type="int" name="NKREDLFY">     1</i>
   <i type="int" name="NKREDLFZ">     1</i>
   <i type="int" name="MAXMEM">  2800</i>
   <i type="int" name="TELESCOPE">     0</i>
   <i type="int" name="NTAUPAR">    -1</i>
   <i type="int" name="NOMEGAPAR">    -1</i>
   <i name="DAMP_NEWTON">      0.80000001</i>
   <i name="LAMBDA">      1.00000000</i>
  </separator>
  <separator name="External order field" >
   <i name="OFIELD_KAPPA">      0.00000000</i>
   <v name="OFIELD_K">      0.00000000      0.00000000      0.00000000</v>
   <i name="OFIELD_Q6_NEAR">      0.00000000</i>
   <i name="OFIELD_Q6_FAR">      0.00000000</i>
   <i name="OFIELD_A">      0.00000000</i>
  </separator>
  <separator name="optional k-points parameters" >
   <i type="int" name="KPOINTS_OPT_MODE">     1</i>
   <i type="logical" name="LKPOINTS_OPT"> F  </i>
  </separator>
 </parameters>
 <atominfo>
  <atoms>       2 </atoms>
  <types>       1 </types>
  <array name="atoms" >
   <dimension dim="1">ion</dimension>
   <field type="string">element</field>
   <field type="int">atomtype</field>
   <set>
    <rc><c>Co</c><c>   1</c></rc>
    <rc><c>Co</c><c>   1</c></rc>
   </set>
  </array>
  <array name="atomtypes" >
   <dimension dim="1">type</dimension>
   <field type="int">atomspertype</field>
   <field type="string">element</field>
   <field>mass</field>
   <field>valence</field>
   <field type="string">pseudopotential</field>
   <set>
    <rc><c>   2</c><c>Co</c><c>     58.93300000</c><c>      9.00000000</c><c>  PAW_PBE Co 02Aug2007                  </c></rc>
   </set>
  </array>
 </atominfo>
 <structure name="initialpos" >
  <crystal>
   <varray name="basis" >
    <v>       2.49246475       0.00000000       0.00000000 </v>
    <v>      -1.24623237       2.15853779       0.00000000 </v>
    <v>       0.00000000       0.00000000       4.03270652 </v>
   </varray>
   <i name="volume">     21.69628106 </i>
   <varray name="rec_basis" >
    <v>       0.40120929       0.23163829       0.00000000 </v>
    <v>       0.00000000       0.46327658       0.00000000 </v>
    <v>       0.00000000       0.00000000       0.24797242 </v>
   </varray>
  </crystal>
  <varray name="positions" >
   <v>       0.00000000       0.00000000       0.00000000 </v>
   <v>       0.33333333       0.66666667       0.50000000 </v>
  </varray>
 </structure>
 <calculation>
  <scstep>
   <time name="dav">    0.42    0.42</time>
   <time name="total">    0.43    0.43</time>
   <energy>
    <i name="alphaZ">     78.09207632 </i>
    <i name="ewald">  -1521.73170024 </i>
    <i name="hartreedc">   -299.98943667 </i>
    <i name="XCdc">     35.63008544 </i>
    <i name="pawpsdc">   1439.98163886 </i>
    <i name="pawaedc">  -1545.88690193 </i>
    <i name="eentropy">     -0.00282988 </i>
    <i name="bandstr">    257.02521014 </i>
    <i name="atom">   1626.71546820 </i>
    <i name="e_fr_energy">     69.83361025 </i>
    <i name="e_wo_entrp">     69.83644013 </i>
    <i name="e_0_energy">     69.83502519 </i>
   </energy>
  </scstep>
  <scstep>
   <time name="dav">    0.39    0.40</time>
   <time name="total">    0.39    0.40</time>
   <energy>
    <i name="e_fr_energy">    -13.59717008 </i>
    <i name="e_wo_entrp">    -13.59448684 </i>
    <i name="e_0_energy">    -13.59582846 </i>
   </energy>
  </scstep>
  <scstep>
   <time name="dav">    0.47    0.48</time>
   <time name="total">    0.47    0.48</time>
   <energy>
    <i name="e_fr_energy">    -15.61170908 </i>
    <i name="e_wo_entrp">    -15.60926305 </i>
    <i name="e_0_energy">    -15.61048607 </i>
   </energy>
  </scstep>
  <scstep>
   <time name="dav">    0.54    0.54</time>
   <time name="total">    0.54    0.54</time>
   <energy>
    <i name="e_fr_energy">    -15.64804080 </i>
    <i name="e_wo_entrp">    -15.64561209 </i>
    <i name="e_0_energy">    -15.64682644 </i>
   </energy>
  </scstep>
  <scstep>
   <time name="dav">    0.49    0.49</time>
   <time name="total">    0.51    0.51</time>
   <energy>
    <i name="e_fr_energy">    -15.64826498 </i>
    <i name="e_wo_entrp">    -15.64583618 </i>
    <i name="e_0_energy">    -15.64705058 </i>
   </energy>
  </scstep>
  <scstep>
   <time name="dav">    0.41    0.41</time>
   <time name="total">    0.44    0.44</time>
   <energy>
    <i name="e_fr_energy">    -14.45397861 </i>
    <i name="e_wo_entrp">    -14.45160364 </i>
    <i name="e_0_energy">    -14.45279113 </i>
   </energy>
  </scstep>
  <scstep>
   <time name="dav">    0.43    0.43</time>
   <time name="total">    0.46    0.46</time>
   <energy>
    <i name="e_fr_energy">    -14.11069805 </i>
    <i name="e_wo_entrp">    -14.10824524 </i>
    <i name="e_0_energy">    -14.10947164 </i>
   </energy>
  </scstep>
  <scstep>
   <time name="dav">    0.52    0.52</time>
   <time name="total">    0.55    0.55</time>
   <energy>
    <i name="e_fr_energy">    -14.08952839 </i>
    <i name="e_wo_entrp">    -14.08703611 </i>
    <i name="e_0_energy">    -14.08828225 </i>
   </energy>
  </scstep>
  <scstep>
   <time name="dav">    0.54    0.54</time>
   <time name="total">    0.57    0.57</time>
   <energy>
    <i name="e_fr_energy">    -14.07476322 </i>
    <i name="e_wo_entrp">    -14.07212644 </i>
    <i name="e_0_energy">    -14.07344483 </i>
   </energy>
  </scstep>
  <scstep>
   <time name="dav">    0.51    0.51</time>
   <time name="total">    0.54    0.54</time>
   <energy>
    <i name="e_fr_energy">    -14.07407582 </i>
    <i name="e_wo_entrp">    -14.07146499 </i>
    <i name="e_0_energy">    -14.07277041 </i>
   </energy>
  </scstep>
  <scstep>
   <time name="dav">    0.54    0.55</time>
   <time name="total">    0.57    0.58</time>
   <energy>
    <i name="e_fr_energy">    -14.07405945 </i>
    <i name="e_wo_entrp">    -14.07148287 </i>
    <i name="e_0_energy">    -14.07277116 </i>
   </energy>
  </scstep>
  <scstep>
   <time name="dav">    0.41    0.42</time>
   <time name="total">    0.44    0.45</time>
   <energy>
    <i name="e_fr_energy">    -14.07405591 </i>
    <i name="e_wo_entrp">    -14.07147472 </i>
    <i name="e_0_energy">    -14.07276531 </i>
   </energy>
  </scstep>
  <scstep>
   <time name="dav">    0.33    0.33</time>
   <time name="total">    0.34    0.34</time>
   <energy>
    <i name="alphaZ">     78.09207632 </i>
    <i name="ewald">  -1521.73170024 </i>
    <i name="hartreedc">   -264.50305953 </i>
    <i name="XCdc">     32.89515721 </i>
    <i name="pawpsdc">   1807.46291746 </i>
    <i name="pawaedc">  -1913.55289621 </i>
    <i name="eentropy">     -0.00258266 </i>
    <i name="bandstr">    140.55056414 </i>
    <i name="atom">   1626.71546820 </i>
    <i name="e_fr_energy">    -14.07405530 </i>
    <i name="e_wo_entrp">    -14.07147263 </i>
    <i name="e_0_energy">    -14.07276397 </i>
   </energy>
  </scstep>
  <structure>
   <crystal>
    <varray name="basis" >
     <v>       2.49246475       0.00000000       0.00000000 </v>
     <v>      -1.24623237       2.15853779       0.00000000 </v>
     <v>       0.00000000       0.00000000       4.03270652 </v>
    </varray>
    <i name="volume">     21.69628106 </i>
    <varray name="rec_basis" >
     <v>       0.40120929       0.23163829       0.00000000 </v>
     <v>       0.00000000       0.46327658       0.00000000 </v>
     <v>       0.00000000       0.00000000       0.24797242 </v>
    </varray>
   </crystal>
   <varray name="positions" >
    <v>       0.00000000       0.00000000       0.00000000 </v>
    <v>       0.33333333       0.66666667       0.50000000 </v>
   </varray>
  </structure>
  <varray name="forces" >
   <v>       0.00000000      -0.00000000       0.00000000 </v>
   <v>      -0.00000000       0.00000000       0.00000000 </v>
  </varray>
  <varray name="stress" >
   <v>       0.37776758      -0.00000000       0.00000000 </v>
   <v>      -0.00000000       0.37776758      -0.00000000 </v>
   <v>       0.00000000      -0.00000000      -3.49304023 </v>
  </varray>
  <energy>
   <i name="e_fr_energy">    -14.07405530 </i>
   <i name="e_wo_entrp">    -14.07147263 </i>
   <i name="e_0_energy">    -14.07276397 </i>
  </energy>
  <time name="totalsc">    6.50    6.63</time>
  <eigenvalues>
   <array>
    <dimension dim="1">band</dimension>
    <dimension dim="2">kpoint</dimension>
    <dimension dim="3">spin</dimension>
    <field>eigene</field>
    <field>occ</field>
    <set>
     <set comment="spin 1">
      <set comment="kpoint 1">
       <r>    1.3403    1.0000 </r>
       <r>    5.1033    1.0000 </r>
       <r>    7.6092    1.0000 </r>
       <r>    7.6299    1.0000 </r>
       <r>    7.6299    1.0000 </r>
       <r>    7.9401    1.0000 </r>
       <r>    7.9401    1.0000 </r>
       <r>    8.2927    1.0000 </r>
       <r>    8.2927    1.0000 </r>
       <r>    9.3879    1.0000 </r>
       <r>    9.3879    1.0000 </r>
       <r>   10.1718    0.8273 </r>
       <r>   16.5788    0.0000 </r>
       <r>   32.2386    0.0000 </r>
       <r>   34.7942    0.0000 </r>
       <r>   34.7942    0.0000 </r>
      </set>
      <set comment="kpoint 2">
       <r>    1.6893    1.0000 </r>
       <r>    5.3081    1.0000 </r>
       <r>    7.3440    1.0000 </r>
       <r>    7.7916    1.0000 </r>
       <r>    7.8201    1.0000 </r>
       <r>    7.9020    1.0000 </r>
       <r>    8.0454    1.0000 </r>
       <r>    8.0831    1.0000 </r>
       <r>    8.1937    1.0000 </r>
       <r>    8.5098    1.0000 </r>
       <r>    9.4291    1.0000 </r>
       <r>   11.5363    0.0000 </r>
       <r>   16.6421    0.0000 </r>
       <r>   29.6348    0.0000 </r>
       <r>   32.1754    0.0000 </r>
       <r>   32.4957    0.0000 </r>
      </set>
      <set comment="kpoint 3">
       <r>    2.6786    1.0000 </r>
       <r>    5.7516    1.0000 </r>
       <r>    7.0357    1.0000 </r>
       <r>    7.1335    1.0000 </r>
       <r>    7.6695    1.0000 </r>
       <r>    7.9659    1.0000 </r>
       <r>    8.1752    1.0000 </r>
       <r>    8.2342    1.0000 </r>
       <r>    8.2567    1.0000 </r>
       <r>    8.4702    1.0000 </r>
       <r>    9.5070    1.0000 </r>
       <r>   13.5204    0.0000 </r>
       <r>   16.8730    0.0000 </r>
       <r>   25.0187    0.0000 </r>
       <r>   29.4057    0.0000 </r>
       <r>   31.3632    0.0000 </r>
      </set>
      <set comment="kpoint 4">
       <r>    4.0603    1.0000 </r>
       <r>    5.8762    1.0000 </r>
       <r>    6.3806    1.0000 </r>
       <r>    7.0110    1.0000 </r>
       <r>    7.6828    1.0000 </r>
       <r>    7.7217    1.0000 </r>
       <r>    7.9474    1.0000 </r>
       <r>    8.8240    1.0000 </r>
       <r>    8.9080    1.0000 </r>
       <r>    8.9855    1.0000 </r>
       <r>    9.5683    1.0000 </r>
       <r>   15.7774    0.0000 </r>
       <r>   17.2321    0.0000 </r>
       <r>   20.8998    0.0000 </r>
       <r>   27.1579    0.0000 </r>
       <r>   28.3979    0.0000 </r>
      </set>
      <set comment="kpoint 5">
       <r>    5.1460    1.0000 </r>
       <r>    5.6625    1.0000 </r>
       <r>    5.9263    1.0000 </r>
       <r>    7.3828    1.0000 </r>
       <r>    7.5427    1.0000 </r>
       <r>    7.7757    1.0000 </r>
       <r>    7.9294    1.0000 </r>
       <r>    9.3243    1.0000 </r>
       <r>    9.4576    1.0000 </r>
       <r>    9.6010    1.0000 </r>
       <r>   10.0825    0.9997 </r>
       <r>   15.7832    0.0000 </r>
       <r>   18.2056    0.0000 </r>
       <r>   19.6890    0.0000 </r>
       <r>   25.0142    0.0000 </r>
       <r>   25.6421    0.0000 </r>
      </set>
      <set comment="kpoint 6">
       <r>    5.4778    1.0000 </r>
       <r>    5.5035    1.0000 </r>
       <r>    5.7756    1.0000 </r>
       <r>    7.4777    1.0000 </r>
       <r>    7.7115    1.0000 </r>
       <r>    7.7224    1.0000 </r>
       <r>    8.0388    1.0000 </r>
       <r>    9.5137    1.0000 </r>
       <r>    9.6106    1.0000 </r>
       <r>    9.6623    1.0000 </r>
       <r>   11.5340    0.0000 </r>
       <r>   13.5487    0.0000 </r>
       <r>   19.9306    0.0000 </r>
       <r>   20.5780    0.0000 </r>
       <r>   22.9760    0.0000 </r>
       <r>   24.1959    0.0000 </r>
      </set>
      <set comment="kpoint 7">
       <r>    2.3613    1.0000 </r>
       <r>    5.6507    1.0000 </r>
       <r>    7.0722    1.0000 </r>
       <r>    7.4128    1.0000 </r>
       <r>    7.7441    1.0000 </r>
       <r>    7.9247    1.0000 </r>
       <r>    8.0362    1.0000 </r>
       <r>    8.1211    1.0000 </r>
       <r>    8.3272    1.0000 </r>
       <r>    8.4066    1.0000 </r>
       <r>    9.4710    1.0000 </r>
       <r>   12.9634    0.0000 </r>
       <r>   16.7954    0.0000 </r>
       <r>   27.1863    0.0000 </r>
       <r>   27.8199    0.0000 </r>
       <r>   34.0930    0.0000 </r>
      </set>
      <set comment="kpoint 8">
       <r>    3.5771    1.0000 </r>
       <r>    6.0179    1.0000 </r>
       <r>    6.6572    1.0000 </r>
       <r>    6.7972    1.0000 </r>
       <r>    7.6568    1.0000 </r>
       <r>    7.6613    1.0000 </r>
       <r>    8.1386    1.0000 </r>
       <r>    8.3740    1.0000 </r>
       <r>    8.6860    1.0000 </r>
       <r>    8.9991    1.0000 </r>
       <r>    9.5142    1.0000 </r>
       <r>   14.9698    0.0000 </r>
       <r>   17.1816    0.0000 </r>
       <r>   22.9625    0.0000 </r>
       <r>   25.5677    0.0000 </r>
       <r>   30.4111    0.0000 </r>
      </set>
      <set comment="kpoint 9">
       <r>    4.9052    1.0000 </r>
       <r>    5.9046    1.0000 </r>
       <r>    6.1178    1.0000 </r>
       <r>    6.9399    1.0000 </r>
       <r>    7.4895    1.0000 </r>
       <r>    7.8217    1.0000 </r>
       <r>    7.8958    1.0000 </r>
       <r>    8.9118    1.0000 </r>
       <r>    9.2403    1.0000 </r>
       <r>    9.5439    1.0000 </r>
       <r>    9.8579    1.0000 </r>
       <r>   17.2252    0.0000 </r>
       <r>   17.2909    0.0000 </r>
       <r>   19.7562    0.0000 </r>
       <r>   24.0001    0.0000 </r>
       <r>   26.8140    0.0000 </r>
      </set>
      <set comment="kpoint 10">
       <r>    5.5484    1.0000 </r>
       <r>    5.6997    1.0000 </r>
       <r>    5.8453    1.0000 </r>
       <r>    7.3828    1.0000 </r>
       <r>    7.4312    1.0000 </r>
       <r>    7.7071    1.0000 </r>
       <r>    8.0329    1.0000 </r>
       <r>    9.4144    1.0000 </r>
       <r>    9.5326    1.0000 </r>
       <r>    9.5567    1.0000 </r>
       <r>   11.3205    0.0000 </r>
       <r>   14.6106    0.0000 </r>
       <r>   19.6625    0.0000 </r>
       <r>   20.4355    0.0000 </r>
       <r>   22.9934    0.0000 </r>
       <r>   23.8078    0.0000 </r>
      </set>
      <set comment="kpoint 11">
       <r>    4.8326    1.0000 </r>
       <r>    6.2408    1.0000 </r>
       <r>    6.2877    1.0000 </r>
       <r>    6.4592    1.0000 </r>
       <r>    7.3968    1.0000 </r>
       <r>    7.7837    1.0000 </r>
       <r>    7.9846    1.0000 </r>
       <r>    8.5724    1.0000 </r>
       <r>    9.2455    1.0000 </r>
       <r>    9.4889    1.0000 </r>
       <r>    9.8897    1.0000 </r>
       <r>   16.9860    0.0000 </r>
       <r>   17.8201    0.0000 </r>
       <r>   21.0923    0.0000 </r>
       <r>   21.6729    0.0000 </r>
       <r>   28.8449    0.0000 </r>
      </set>
      <set comment="kpoint 12">
       <r>    5.7970    1.0000 </r>
       <r>    5.9758    1.0000 </r>
       <r>    6.0947    1.0000 </r>
       <r>    6.7005    1.0000 </r>
       <r>    7.3077    1.0000 </r>
       <r>    7.7335    1.0000 </r>
       <r>    8.0300    1.0000 </r>
       <r>    8.9531    1.0000 </r>
       <r>    9.4665    1.0000 </r>
       <r>    9.5363    1.0000 </r>
       <r>   11.2679    0.0000 </r>
       <r>   16.7921    0.0000 </r>
       <r>   19.3557    0.0000 </r>
       <r>   19.4964    0.0000 </r>
       <r>   20.8214    0.0000 </r>
       <r>   25.7312    0.0000 </r>
      </set>
      <set comment="kpoint 13">
       <r>    5.8866    1.0000 </r>
       <r>    5.9809    1.0000 </r>
       <r>    5.9960    1.0000 </r>
       <r>    6.9979    1.0000 </r>
       <r>    7.3390    1.0000 </r>
       <r>    7.5720    1.0000 </r>
       <r>    8.1528    1.0000 </r>
       <r>    9.2908    1.0000 </r>
       <r>    9.4581    1.0000 </r>
       <r>    9.4848    1.0000 </r>
       <r>   12.9588    0.0000 </r>
       <r>   14.3458    0.0000 </r>
       <r>   19.4853    0.0000 </r>
       <r>   21.2600    0.0000 </r>
       <r>   21.5600    0.0000 </r>
       <r>   23.4967    0.0000 </r>
      </set>
      <set comment="kpoint 14">
       <r>    5.9333    1.0000 </r>
       <r>    6.1954    1.0000 </r>
       <r>    6.3519    1.0000 </r>
       <r>    6.5861    1.0000 </r>
       <r>    7.3015    1.0000 </r>
       <r>    7.4955    1.0000 </r>
       <r>    8.2433    1.0000 </r>
       <r>    9.1317    1.0000 </r>
       <r>    9.4090    1.0000 </r>
       <r>    9.4428    1.0000 </r>
       <r>   13.3649    0.0000 </r>
       <r>   16.3457    0.0000 </r>
       <r>   16.3743    0.0000 </r>
       <r>   21.8003    0.0000 </r>
       <r>   22.0365    0.0000 </r>
       <r>   24.6395    0.0000 </r>
      </set>
      <set comment="kpoint 15">
       <r>    1.4978    1.0000 </r>
       <r>    5.0728    1.0000 </r>
       <r>    7.5691    1.0000 </r>
       <r>    7.5887    1.0000 </r>
       <r>    7.5887    1.0000 </r>
       <r>    7.8977    1.0000 </r>
       <r>    7.8977    1.0000 </r>
       <r>    8.3893    1.0000 </r>
       <r>    8.3893    1.0000 </r>
       <r>    9.3795    1.0000 </r>
       <r>    9.3795    1.0000 </r>
       <r>    9.5532    1.0000 </r>
       <r>   17.5081    0.0000 </r>
       <r>   32.1793    0.0000 </r>
       <r>   34.3984    0.0000 </r>
       <r>   34.9748    0.0000 </r>
      </set>
      <set comment="kpoint 16">
       <r>    1.8433    1.0000 </r>
       <r>    5.2897    1.0000 </r>
       <r>    7.3470    1.0000 </r>
       <r>    7.7116    1.0000 </r>
       <r>    7.7316    1.0000 </r>
       <r>    7.7339    1.0000 </r>
       <r>    8.0329    1.0000 </r>
       <r>    8.1853    1.0000 </r>
       <r>    8.3203    1.0000 </r>
       <r>    8.4804    1.0000 </r>
       <r>    9.4148    1.0000 </r>
       <r>   10.9619    0.0000 </r>
       <r>   17.6437    0.0000 </r>
       <r>   29.7346    0.0000 </r>
       <r>   32.3330    0.0000 </r>
       <r>   32.4521    0.0000 </r>
      </set>
      <set comment="kpoint 17">
       <r>    2.8175    1.0000 </r>
       <r>    5.7681    1.0000 </r>
       <r>    6.9967    1.0000 </r>
       <r>    7.0707    1.0000 </r>
       <r>    7.6032    1.0000 </r>
       <r>    7.9268    1.0000 </r>
       <r>    8.0483    1.0000 </r>
       <r>    8.3126    1.0000 </r>
       <r>    8.4435    1.0000 </r>
       <r>    8.4522    1.0000 </r>
       <r>    9.4808    1.0000 </r>
       <r>   12.6210    0.0000 </r>
       <r>   18.1129    0.0000 </r>
       <r>   25.1547    0.0000 </r>
       <r>   29.5960    0.0000 </r>
       <r>   30.6695    0.0000 </r>
      </set>
      <set comment="kpoint 18">
       <r>    4.1492    1.0000 </r>
       <r>    5.9103    1.0000 </r>
       <r>    6.3522    1.0000 </r>
       <r>    6.9913    1.0000 </r>
       <r>    7.5914    1.0000 </r>
       <r>    7.7649    1.0000 </r>
       <r>    8.0824    1.0000 </r>
       <r>    8.8438    1.0000 </r>
       <r>    8.9020    1.0000 </r>
       <r>    8.9408    1.0000 </r>
       <r>    9.5342    1.0000 </r>
       <r>   14.3146    0.0000 </r>
       <r>   18.8987    0.0000 </r>
       <r>   21.0774    0.0000 </r>
       <r>   27.1426    0.0000 </r>
       <r>   27.3756    0.0000 </r>
      </set>
      <set comment="kpoint 19">
       <r>    5.0969    1.0000 </r>
       <r>    5.6600    1.0000 </r>
       <r>    6.1001    1.0000 </r>
       <r>    6.9935    1.0000 </r>
       <r>    7.6047    1.0000 </r>
       <r>    7.9211    1.0000 </r>
       <r>    8.2834    1.0000 </r>
       <r>    9.3260    1.0000 </r>
       <r>    9.3837    1.0000 </r>
       <r>    9.5850    1.0000 </r>
       <r>   10.0003    1.0000 </r>
       <r>   15.1061    0.0000 </r>
       <r>   17.9276    0.0000 </r>
       <r>   20.6754    0.0000 </r>
       <r>   24.0692    0.0000 </r>
       <r>   25.8801    0.0000 </r>
      </set>
      <set comment="kpoint 20">
       <r>    5.2946    1.0000 </r>
       <r>    5.5097    1.0000 </r>
       <r>    6.0871    1.0000 </r>
       <r>    7.0221    1.0000 </r>
       <r>    7.5445    1.0000 </r>
       <r>    8.0409    1.0000 </r>
       <r>    8.5158    1.0000 </r>
       <r>    9.4605    1.0000 </r>
       <r>    9.5703    1.0000 </r>
       <r>    9.6580    1.0000 </r>
       <r>   11.4245    0.0000 </r>
       <r>   13.4573    0.0000 </r>
       <r>   19.3467    0.0000 </r>
       <r>   19.7048    0.0000 </r>
       <r>   24.1393    0.0000 </r>
       <r>   25.1008    0.0000 </r>
      </set>
      <set comment="kpoint 21">
       <r>    2.5063    1.0000 </r>
       <r>    5.6573    1.0000 </r>
       <r>    7.0910    1.0000 </r>
       <r>    7.2344    1.0000 </r>
       <r>    7.7313    1.0000 </r>
       <r>    7.8120    1.0000 </r>
       <r>    8.0224    1.0000 </r>
       <r>    8.1827    1.0000 </r>
       <r>    8.4266    1.0000 </r>
       <r>    8.4356    1.0000 </r>
       <r>    9.4516    1.0000 </r>
       <r>   12.1728    0.0000 </r>
       <r>   17.9520    0.0000 </r>
       <r>   27.3063    0.0000 </r>
       <r>   27.9687    0.0000 </r>
       <r>   32.9607    0.0000 </r>
      </set>
      <set comment="kpoint 22">
       <r>    3.6938    1.0000 </r>
       <r>    6.0624    1.0000 </r>
       <r>    6.5619    1.0000 </r>
       <r>    6.8358    1.0000 </r>
       <r>    7.5361    1.0000 </r>
       <r>    7.7685    1.0000 </r>
       <r>    8.0570    1.0000 </r>
       <r>    8.4224    1.0000 </r>
       <r>    8.7642    1.0000 </r>
       <r>    8.9507    1.0000 </r>
       <r>    9.5038    1.0000 </r>
       <r>   13.7576    0.0000 </r>
       <r>   18.6769    0.0000 </r>
       <r>   23.1089    0.0000 </r>
       <r>   25.7251    0.0000 </r>
       <r>   29.2979    0.0000 </r>
      </set>
      <set comment="kpoint 23">
       <r>    4.9327    1.0000 </r>
       <r>    5.9385    1.0000 </r>
       <r>    6.1513    1.0000 </r>
       <r>    6.8723    1.0000 </r>
       <r>    7.5262    1.0000 </r>
       <r>    7.8394    1.0000 </r>
       <r>    7.9890    1.0000 </r>
       <r>    8.8970    1.0000 </r>
       <r>    9.2842    1.0000 </r>
       <r>    9.4121    1.0000 </r>
       <r>    9.8951    1.0000 </r>
       <r>   15.3285    0.0000 </r>
       <r>   18.7749    0.0000 </r>
       <r>   20.4718    0.0000 </r>
       <r>   24.1442    0.0000 </r>
       <r>   25.7145    0.0000 </r>
      </set>
      <set comment="kpoint 24">
       <r>    5.3996    1.0000 </r>
       <r>    5.6956    1.0000 </r>
       <r>    6.1375    1.0000 </r>
       <r>    6.9469    1.0000 </r>
       <r>    7.4647    1.0000 </r>
       <r>    8.0594    1.0000 </r>
       <r>    8.1617    1.0000 </r>
       <r>    9.3747    1.0000 </r>
       <r>    9.4743    1.0000 </r>
       <r>    9.5610    1.0000 </r>
       <r>   11.3066    0.0000 </r>
       <r>   14.4606    0.0000 </r>
       <r>   18.6628    0.0000 </r>
       <r>   20.7798    0.0000 </r>
       <r>   23.1242    0.0000 </r>
       <r>   24.0377    0.0000 </r>
      </set>
      <set comment="kpoint 25">
       <r>    4.8964    1.0000 </r>
       <r>    6.1551    1.0000 </r>
       <r>    6.4052    1.0000 </r>
       <r>    6.4870    1.0000 </r>
       <r>    7.4392    1.0000 </r>
       <r>    7.7681    1.0000 </r>
       <r>    7.9168    1.0000 </r>
       <r>    8.6018    1.0000 </r>
       <r>    9.3032    1.0000 </r>
       <r>    9.3461    1.0000 </r>
       <r>    9.9613    1.0000 </r>
       <r>   15.2932    0.0000 </r>
       <r>   19.6948    0.0000 </r>
       <r>   21.2446    0.0000 </r>
       <r>   21.8724    0.0000 </r>
       <r>   27.7142    0.0000 </r>
      </set>
      <set comment="kpoint 26">
       <r>    5.7106    1.0000 </r>
       <r>    6.0794    1.0000 </r>
       <r>    6.1519    1.0000 </r>
       <r>    6.6652    1.0000 </r>
       <r>    7.3861    1.0000 </r>
       <r>    7.7077    1.0000 </r>
       <r>    8.0464    1.0000 </r>
       <r>    8.9608    1.0000 </r>
       <r>    9.3449    1.0000 </r>
       <r>    9.5756    1.0000 </r>
       <r>   11.3332    0.0000 </r>
       <r>   16.3214    0.0000 </r>
       <r>   18.4421    0.0000 </r>
       <r>   20.2757    0.0000 </r>
       <r>   21.6843    0.0000 </r>
       <r>   24.7558    0.0000 </r>
      </set>
      <set comment="kpoint 27">
       <r>    5.7280    1.0000 </r>
       <r>    6.0291    1.0000 </r>
       <r>    6.2581    1.0000 </r>
       <r>    6.7967    1.0000 </r>
       <r>    7.3134    1.0000 </r>
       <r>    7.7245    1.0000 </r>
       <r>    8.1835    1.0000 </r>
       <r>    9.2943    1.0000 </r>
       <r>    9.3243    1.0000 </r>
       <r>    9.5179    1.0000 </r>
       <r>   13.0545    0.0000 </r>
       <r>   14.3450    0.0000 </r>
       <r>   19.4228    0.0000 </r>
       <r>   20.5194    0.0000 </r>
       <r>   20.7842    0.0000 </r>
       <r>   24.6976    0.0000 </r>
      </set>
      <set comment="kpoint 28">
       <r>    5.9596    1.0000 </r>
       <r>    6.2151    1.0000 </r>
       <r>    6.4041    1.0000 </r>
       <r>    6.5562    1.0000 </r>
       <r>    7.3502    1.0000 </r>
       <r>    7.4433    1.0000 </r>
       <r>    8.2325    1.0000 </r>
       <r>    9.1518    1.0000 </r>
       <r>    9.2777    1.0000 </r>
       <r>    9.4689    1.0000 </r>
       <r>   13.4887    0.0000 </r>
       <r>   16.3518    0.0000 </r>
       <r>   16.4961    0.0000 </r>
       <r>   20.4644    0.0000 </r>
       <r>   22.4893    0.0000 </r>
       <r>   23.6019    0.0000 </r>
      </set>
      <set comment="kpoint 29">
       <r>    1.9595    1.0000 </r>
       <r>    4.9090    1.0000 </r>
       <r>    7.4637    1.0000 </r>
       <r>    7.5285    1.0000 </r>
       <r>    7.5285    1.0000 </r>
       <r>    7.7913    1.0000 </r>
       <r>    7.7913    1.0000 </r>
       <r>    8.4141    1.0000 </r>
       <r>    8.6072    1.0000 </r>
       <r>    8.6072    1.0000 </r>
       <r>    9.3398    1.0000 </r>
       <r>    9.3398    1.0000 </r>
       <r>   19.6427    0.0000 </r>
       <r>   31.2196    0.0000 </r>
       <r>   32.6379    0.0000 </r>
       <r>   34.3112    0.0000 </r>
      </set>
      <set comment="kpoint 30">
       <r>    2.2943    1.0000 </r>
       <r>    5.1573    1.0000 </r>
       <r>    7.3704    1.0000 </r>
       <r>    7.4278    1.0000 </r>
       <r>    7.4991    1.0000 </r>
       <r>    7.6574    1.0000 </r>
       <r>    7.9247    1.0000 </r>
       <r>    8.0712    1.0000 </r>
       <r>    8.5626    1.0000 </r>
       <r>    8.6217    1.0000 </r>
       <r>    9.3602    1.0000 </r>
       <r>   10.1015    0.9983 </r>
       <r>   19.8463    0.0000 </r>
       <r>   30.0214    0.0000 </r>
       <r>   31.5226    0.0000 </r>
       <r>   32.6186    0.0000 </r>
      </set>
      <set comment="kpoint 31">
       <r>    3.2221    1.0000 </r>
       <r>    5.7286    1.0000 </r>
       <r>    6.7370    1.0000 </r>
       <r>    7.1310    1.0000 </r>
       <r>    7.4193    1.0000 </r>
       <r>    7.8972    1.0000 </r>
       <r>    7.9245    1.0000 </r>
       <r>    8.2825    1.0000 </r>
       <r>    8.5829    1.0000 </r>
       <r>    8.7163    1.0000 </r>
       <r>    9.3976    1.0000 </r>
       <r>   11.2895    0.0000 </r>
       <r>   20.4762    0.0000 </r>
       <r>   25.5577    0.0000 </r>
       <r>   29.3880    0.0000 </r>
       <r>   30.1582    0.0000 </r>
      </set>
      <set comment="kpoint 32">
       <r>    4.4008    1.0000 </r>
       <r>    5.9041    1.0000 </r>
       <r>    6.3092    1.0000 </r>
       <r>    6.9794    1.0000 </r>
       <r>    7.5280    1.0000 </r>
       <r>    7.8902    1.0000 </r>
       <r>    8.2221    1.0000 </r>
       <r>    8.7765    1.0000 </r>
       <r>    8.9368    1.0000 </r>
       <r>    8.9742    1.0000 </r>
       <r>    9.4425    1.0000 </r>
       <r>   12.5795    0.0000 </r>
       <r>   20.9054    0.0000 </r>
       <r>   21.9044    0.0000 </r>
       <r>   25.7027    0.0000 </r>
       <r>   28.0124    0.0000 </r>
      </set>
      <set comment="kpoint 33">
       <r>    5.0538    1.0000 </r>
       <r>    5.6624    1.0000 </r>
       <r>    6.3063    1.0000 </r>
       <r>    6.7132    1.0000 </r>
       <r>    7.7849    1.0000 </r>
       <r>    7.9822    1.0000 </r>
       <r>    9.0256    1.0000 </r>
       <r>    9.1309    1.0000 </r>
       <r>    9.3691    1.0000 </r>
       <r>    9.5518    1.0000 </r>
       <r>    9.7584    1.0000 </r>
       <r>   13.6826    0.0000 </r>
       <r>   18.0438    0.0000 </r>
       <r>   21.0583    0.0000 </r>
       <r>   24.4512    0.0000 </r>
       <r>   26.5704    0.0000 </r>
      </set>
      <set comment="kpoint 34">
       <r>    5.1343    1.0000 </r>
       <r>    5.5568    1.0000 </r>
       <r>    6.4626    1.0000 </r>
       <r>    6.5196    1.0000 </r>
       <r>    7.7391    1.0000 </r>
       <r>    8.1384    1.0000 </r>
       <r>    9.2085    1.0000 </r>
       <r>    9.3026    1.0000 </r>
       <r>    9.5663    1.0000 </r>
       <r>    9.6455    1.0000 </r>
       <r>   11.1590    0.0000 </r>
       <r>   13.1557    0.0000 </r>
       <r>   18.3952    0.0000 </r>
       <r>   18.5343    0.0000 </r>
       <r>   26.0542    0.0000 </r>
       <r>   26.1970    0.0000 </r>
      </set>
      <set comment="kpoint 35">
       <r>    2.9300    1.0000 </r>
       <r>    5.5902    1.0000 </r>
       <r>    6.9105    1.0000 </r>
       <r>    7.1516    1.0000 </r>
       <r>    7.4748    1.0000 </r>
       <r>    7.8530    1.0000 </r>
       <r>    7.8813    1.0000 </r>
       <r>    8.1654    1.0000 </r>
       <r>    8.6240    1.0000 </r>
       <r>    8.6409    1.0000 </r>
       <r>    9.3859    1.0000 </r>
       <r>   10.9670    0.0000 </r>
       <r>   20.2702    0.0000 </r>
       <r>   27.6601    0.0000 </r>
       <r>   28.3991    0.0000 </r>
       <r>   31.5681    0.0000 </r>
      </set>
      <set comment="kpoint 36">
       <r>    4.0290    1.0000 </r>
       <r>    6.0939    1.0000 </r>
       <r>    6.3852    1.0000 </r>
       <r>    6.9258    1.0000 </r>
       <r>    7.3897    1.0000 </r>
       <r>    7.8105    1.0000 </r>
       <r>    7.9539    1.0000 </r>
       <r>    8.5225    1.0000 </r>
       <r>    8.8880    1.0000 </r>
       <r>    8.9313    1.0000 </r>
       <r>    9.4638    1.0000 </r>
       <r>   12.1580    0.0000 </r>
       <r>   21.1172    0.0000 </r>
       <r>   23.5452    0.0000 </r>
       <r>   26.1543    0.0000 </r>
       <r>   27.8643    0.0000 </r>
      </set>
      <set comment="kpoint 37">
       <r>    5.0240    1.0000 </r>
       <r>    5.9225    1.0000 </r>
       <r>    6.2349    1.0000 </r>
       <r>    6.8697    1.0000 </r>
       <r>    7.5260    1.0000 </r>
       <r>    7.9130    1.0000 </r>
       <r>    8.2066    1.0000 </r>
       <r>    8.8725    1.0000 </r>
       <r>    9.1734    1.0000 </r>
       <r>    9.4019    1.0000 </r>
       <r>    9.9387    1.0000 </r>
       <r>   13.5318    0.0000 </r>
       <r>   19.4954    0.0000 </r>
       <r>   22.1513    0.0000 </r>
       <r>   24.2224    0.0000 </r>
       <r>   25.1304    0.0000 </r>
      </set>
      <set comment="kpoint 38">
       <r>    5.2704    1.0000 </r>
       <r>    5.7459    1.0000 </r>
       <r>    6.4136    1.0000 </r>
       <r>    6.6519    1.0000 </r>
       <r>    7.4901    1.0000 </r>
       <r>    8.2127    1.0000 </r>
       <r>    8.6406    1.0000 </r>
       <r>    9.1235    1.0000 </r>
       <r>    9.4146    1.0000 </r>
       <r>    9.6306    1.0000 </r>
       <r>   11.3228    0.0000 </r>
       <r>   13.9394    0.0000 </r>
       <r>   17.8460    0.0000 </r>
       <r>   19.9059    0.0000 </r>
       <r>   23.8722    0.0000 </r>
       <r>   25.6174    0.0000 </r>
      </set>
      <set comment="kpoint 39">
       <r>    5.0732    1.0000 </r>
       <r>    6.0344    1.0000 </r>
       <r>    6.5816    1.0000 </r>
       <r>    6.5893    1.0000 </r>
       <r>    7.4765    1.0000 </r>
       <r>    7.6409    1.0000 </r>
       <r>    7.8767    1.0000 </r>
       <r>    8.7176    1.0000 </r>
       <r>    9.1071    1.0000 </r>
       <r>    9.4255    1.0000 </r>
       <r>   10.0713    0.9999 </r>
       <r>   13.4947    0.0000 </r>
       <r>   21.6844    0.0000 </r>
       <r>   21.7364    0.0000 </r>
       <r>   22.6965    0.0000 </r>
       <r>   26.3536    0.0000 </r>
      </set>
      <set comment="kpoint 40">
       <r>    5.6472    1.0000 </r>
       <r>    6.0921    1.0000 </r>
       <r>    6.2920    1.0000 </r>
       <r>    6.7917    1.0000 </r>
       <r>    7.3479    1.0000 </r>
       <r>    7.7300    1.0000 </r>
       <r>    8.1145    1.0000 </r>
       <r>    8.9283    1.0000 </r>
       <r>    9.1502    1.0000 </r>
       <r>    9.6516    1.0000 </r>
       <r>   11.5270    0.0000 </r>
       <r>   15.0355    0.0000 </r>
       <r>   18.4638    0.0000 </r>
       <r>   20.7850    0.0000 </r>
       <r>   22.0527    0.0000 </r>
       <r>   24.7849    0.0000 </r>
      </set>
      <set comment="kpoint 41">
       <r>    5.6395    1.0000 </r>
       <r>    6.1384    1.0000 </r>
       <r>    6.4914    1.0000 </r>
       <r>    6.6501    1.0000 </r>
       <r>    7.2084    1.0000 </r>
       <r>    7.9020    1.0000 </r>
       <r>    8.2871    1.0000 </r>
       <r>    9.0100    1.0000 </r>
       <r>    9.3149    1.0000 </r>
       <r>    9.5697    1.0000 </r>
       <r>   13.3144    0.0000 </r>
       <r>   14.3306    0.0000 </r>
       <r>   18.7972    0.0000 </r>
       <r>   19.1661    0.0000 </r>
       <r>   20.7536    0.0000 </r>
       <r>   24.8834    0.0000 </r>
      </set>
      <set comment="kpoint 42">
       <r>    6.0264    1.0000 </r>
       <r>    6.2428    1.0000 </r>
       <r>    6.5366    1.0000 </r>
       <r>    6.5469    1.0000 </r>
       <r>    7.3219    1.0000 </r>
       <r>    7.4234    1.0000 </r>
       <r>    8.2132    1.0000 </r>
       <r>    8.9401    1.0000 </r>
       <r>    9.2388    1.0000 </r>
       <r>    9.5170    1.0000 </r>
       <r>   13.8200    0.0000 </r>
       <r>   16.1755    0.0000 </r>
       <r>   16.9350    0.0000 </r>
       <r>   19.3571    0.0000 </r>
       <r>   21.4762    0.0000 </r>
       <r>   22.1445    0.0000 </r>
      </set>
      <set comment="kpoint 43">
       <r>    2.6857    1.0000 </r>
       <r>    4.4171    1.0000 </r>
       <r>    7.3428    1.0000 </r>
       <r>    7.5146    1.0000 </r>
       <r>    7.5146    1.0000 </r>
       <r>    7.5919    1.0000 </r>
       <r>    7.6657    1.0000 </r>
       <r>    7.6657    1.0000 </r>
       <r>    8.8548    1.0000 </r>
       <r>    8.8548    1.0000 </r>
       <r>    9.2433    1.0000 </r>
       <r>    9.2433    1.0000 </r>
       <r>   22.3118    0.0000 </r>
       <r>   28.3204    0.0000 </r>
       <r>   32.6147    0.0000 </r>
       <r>   33.5590    0.0000 </r>
      </set>
      <set comment="kpoint 44">
       <r>    3.0031    1.0000 </r>
       <r>    4.6931    1.0000 </r>
       <r>    7.1385    1.0000 </r>
       <r>    7.2712    1.0000 </r>
       <r>    7.4421    1.0000 </r>
       <r>    7.6419    1.0000 </r>
       <r>    7.7957    1.0000 </r>
       <r>    7.7981    1.0000 </r>
       <r>    8.8250    1.0000 </r>
       <r>    8.9052    1.0000 </r>
       <r>    9.2452    1.0000 </r>
       <r>    9.5636    1.0000 </r>
       <r>   22.5438    0.0000 </r>
       <r>   28.5627    0.0000 </r>
       <r>   30.5485    0.0000 </r>
       <r>   31.9555    0.0000 </r>
      </set>
      <set comment="kpoint 45">
       <r>    3.8505    1.0000 </r>
       <r>    5.3372    1.0000 </r>
       <r>    6.6651    1.0000 </r>
       <r>    7.0967    1.0000 </r>
       <r>    7.3353    1.0000 </r>
       <r>    7.7435    1.0000 </r>
       <r>    7.9280    1.0000 </r>
       <r>    8.1490    1.0000 </r>
       <r>    8.8181    1.0000 </r>
       <r>    9.0729    1.0000 </r>
       <r>    9.2527    1.0000 </r>
       <r>   10.2570    0.0715 </r>
       <r>   23.2058    0.0000 </r>
       <r>   26.2106    0.0000 </r>
       <r>   28.0756    0.0000 </r>
       <r>   29.5128    0.0000 </r>
      </set>
      <set comment="kpoint 46">
       <r>    4.7719    1.0000 </r>
       <r>    5.6214    1.0000 </r>
       <r>    6.4599    1.0000 </r>
       <r>    6.9011    1.0000 </r>
       <r>    7.6444    1.0000 </r>
       <r>    8.0834    1.0000 </r>
       <r>    8.1450    1.0000 </r>
       <r>    8.5664    1.0000 </r>
       <r>    9.0430    1.0000 </r>
       <r>    9.3157    1.0000 </r>
       <r>    9.3375    1.0000 </r>
       <r>   11.1373    0.0000 </r>
       <r>   21.8794    0.0000 </r>
       <r>   23.4220    0.0000 </r>
       <r>   25.2543    0.0000 </r>
       <r>   29.0262    0.0000 </r>
      </set>
      <set comment="kpoint 47">
       <r>    5.1129    1.0000 </r>
       <r>    5.5183    1.0000 </r>
       <r>    6.3757    1.0000 </r>
       <r>    6.6840    1.0000 </r>
       <r>    8.0658    1.0000 </r>
       <r>    8.2941    1.0000 </r>
       <r>    8.7917    1.0000 </r>
       <r>    9.3329    1.0000 </r>
       <r>    9.4095    1.0000 </r>
       <r>    9.5083    1.0000 </r>
       <r>    9.9191    1.0000 </r>
       <r>   12.2255    0.0000 </r>
       <r>   18.5165    0.0000 </r>
       <r>   20.1709    0.0000 </r>
       <r>   26.5883    0.0000 </r>
       <r>   27.6540    0.0000 </r>
      </set>
      <set comment="kpoint 48">
       <r>    5.1260    1.0000 </r>
       <r>    5.4638    1.0000 </r>
       <r>    6.3599    1.0000 </r>
       <r>    6.5868    1.0000 </r>
       <r>    8.0431    1.0000 </r>
       <r>    8.5315    1.0000 </r>
       <r>    8.8347    1.0000 </r>
       <r>    9.5829    1.0000 </r>
       <r>    9.6269    1.0000 </r>
       <r>    9.6289    1.0000 </r>
       <r>   11.1751    0.0000 </r>
       <r>   12.6003    0.0000 </r>
       <r>   17.7239    0.0000 </r>
       <r>   17.7589    0.0000 </r>
       <r>   27.1637    0.0000 </r>
       <r>   28.4079    0.0000 </r>
      </set>
      <set comment="kpoint 49">
       <r>    3.5925    1.0000 </r>
       <r>    5.1734    1.0000 </r>
       <r>    6.7674    1.0000 </r>
       <r>    7.1488    1.0000 </r>
       <r>    7.3215    1.0000 </r>
       <r>    7.6950    1.0000 </r>
       <r>    7.8782    1.0000 </r>
       <r>    8.0507    1.0000 </r>
       <r>    8.8452    1.0000 </r>
       <r>    8.9835    1.0000 </r>
       <r>    9.2675    1.0000 </r>
       <r>   10.0575    1.0000 </r>
       <r>   23.0039    0.0000 </r>
       <r>   28.2240    0.0000 </r>
       <r>   28.9501    0.0000 </r>
       <r>   28.9981    0.0000 </r>
      </set>
      <set comment="kpoint 50">
       <r>    4.5357    1.0000 </r>
       <r>    5.7070    1.0000 </r>
       <r>    6.5317    1.0000 </r>
       <r>    6.9862    1.0000 </r>
       <r>    7.2726    1.0000 </r>
       <r>    7.6334    1.0000 </r>
       <r>    8.0598    1.0000 </r>
       <r>    8.4399    1.0000 </r>
       <r>    9.0483    1.0000 </r>
       <r>    9.1815    1.0000 </r>
       <r>    9.4190    1.0000 </r>
       <r>   10.8482    0.0000 </r>
       <r>   23.6578    0.0000 </r>
       <r>   24.3472    0.0000 </r>
       <r>   26.2189    0.0000 </r>
       <r>   27.2991    0.0000 </r>
      </set>
      <set comment="kpoint 51">
       <r>    5.1911    1.0000 </r>
       <r>    5.7030    1.0000 </r>
       <r>    6.4397    1.0000 </r>
       <r>    6.8733    1.0000 </r>
       <r>    7.6331    1.0000 </r>
       <r>    8.0037    1.0000 </r>
       <r>    8.2955    1.0000 </r>
       <r>    8.6621    1.0000 </r>
       <r>    9.2656    1.0000 </r>
       <r>    9.5244    1.0000 </r>
       <r>   10.1046    0.9978 </r>
       <r>   11.9933    0.0000 </r>
       <r>   20.2004    0.0000 </r>
       <r>   22.0432    0.0000 </r>
       <r>   25.3352    0.0000 </r>
       <r>   26.2348    0.0000 </r>
      </set>
      <set comment="kpoint 52">
       <r>    5.2793    1.0000 </r>
       <r>    5.6374    1.0000 </r>
       <r>    6.4009    1.0000 </r>
       <r>    6.7284    1.0000 </r>
       <r>    7.6986    1.0000 </r>
       <r>    8.4844    1.0000 </r>
       <r>    8.6365    1.0000 </r>
       <r>    8.9648    1.0000 </r>
       <r>    9.4192    1.0000 </r>
       <r>    9.6509    1.0000 </r>
       <r>   11.5755    0.0000 </r>
       <r>   13.0923    0.0000 </r>
       <r>   17.7115    0.0000 </r>
       <r>   18.8774    0.0000 </r>
       <r>   24.8110    0.0000 </r>
       <r>   27.1885    0.0000 </r>
      </set>
      <set comment="kpoint 53">
       <r>    5.3246    1.0000 </r>
       <r>    5.8504    1.0000 </r>
       <r>    6.7461    1.0000 </r>
       <r>    6.7973    1.0000 </r>
       <r>    7.3917    1.0000 </r>
       <r>    7.4089    1.0000 </r>
       <r>    8.0041    1.0000 </r>
       <r>    8.5739    1.0000 </r>
       <r>    9.2791    1.0000 </r>
       <r>    9.5305    1.0000 </r>
       <r>   10.2561    0.0748 </r>
       <r>   11.9831    0.0000 </r>
       <r>   22.3643    0.0000 </r>
       <r>   22.8174    0.0000 </r>
       <r>   23.9454    0.0000 </r>
       <r>   25.2170    0.0000 </r>
      </set>
      <set comment="kpoint 54">
       <r>    5.6716    1.0000 </r>
       <r>    5.9381    1.0000 </r>
       <r>    6.5296    1.0000 </r>
       <r>    7.0348    1.0000 </r>
       <r>    7.2115    1.0000 </r>
       <r>    7.7074    1.0000 </r>
       <r>    8.2057    1.0000 </r>
       <r>    8.6104    1.0000 </r>
       <r>    9.3287    1.0000 </r>
       <r>    9.6756    1.0000 </r>
       <r>   11.9096    0.0000 </r>
       <r>   13.6870    0.0000 </r>
       <r>   19.0081    0.0000 </r>
       <r>   20.7544    0.0000 </r>
       <r>   21.8500    0.0000 </r>
       <r>   23.9062    0.0000 </r>
      </set>
      <set comment="kpoint 55">
       <r>    5.6693    1.0000 </r>
       <r>    6.0356    1.0000 </r>
       <r>    6.5000    1.0000 </r>
       <r>    7.0047    1.0000 </r>
       <r>    7.1015    1.0000 </r>
       <r>    7.8765    1.0000 </r>
       <r>    8.4315    1.0000 </r>
       <r>    8.7007    1.0000 </r>
       <r>    9.3779    1.0000 </r>
       <r>    9.5701    1.0000 </r>
       <r>   13.6767    0.0000 </r>
       <r>   14.2537    0.0000 </r>
       <r>   18.0510    0.0000 </r>
       <r>   18.1811    0.0000 </r>
       <r>   21.4203    0.0000 </r>
       <r>   23.5889    0.0000 </r>
      </set>
      <set comment="kpoint 56">
       <r>    6.1048    1.0000 </r>
       <r>    6.2231    1.0000 </r>
       <r>    6.6101    1.0000 </r>
       <r>    6.7073    1.0000 </r>
       <r>    7.2265    1.0000 </r>
       <r>    7.4118    1.0000 </r>
       <r>    8.2262    1.0000 </r>
       <r>    8.5834    1.0000 </r>
       <r>    9.3560    1.0000 </r>
       <r>    9.5293    1.0000 </r>
       <r>   14.3122    0.0000 </r>
       <r>   15.6587    0.0000 </r>
       <r>   17.6125    0.0000 </r>
       <r>   18.8660    0.0000 </r>
       <r>   20.4314    0.0000 </r>
       <r>   20.9450    0.0000 </r>
      </set>
      <set comment="kpoint 57">
       <r>    3.5790    1.0000 </r>
       <r>    3.5790    1.0000 </r>
       <r>    7.3134    1.0000 </r>
       <r>    7.3134    1.0000 </r>
       <r>    7.5639    1.0000 </r>
       <r>    7.5639    1.0000 </r>
       <r>    7.5639    1.0000 </r>
       <r>    7.5639    1.0000 </r>
       <r>    9.0778    1.0000 </r>
       <r>    9.0778    1.0000 </r>
       <r>    9.0778    1.0000 </r>
       <r>    9.0778    1.0000 </r>
       <r>   25.2538    0.0000 </r>
       <r>   25.2538    0.0000 </r>
       <r>   32.9658    0.0000 </r>
       <r>   32.9658    0.0000 </r>
      </set>
      <set comment="kpoint 58">
       <r>    3.8749    1.0000 </r>
       <r>    3.8749    1.0000 </r>
       <r>    7.1093    1.0000 </r>
       <r>    7.1093    1.0000 </r>
       <r>    7.5808    1.0000 </r>
       <r>    7.5808    1.0000 </r>
       <r>    7.6937    1.0000 </r>
       <r>    7.6937    1.0000 </r>
       <r>    9.0624    1.0000 </r>
       <r>    9.0624    1.0000 </r>
       <r>    9.2122    1.0000 </r>
       <r>    9.2122    1.0000 </r>
       <r>   25.4974    0.0000 </r>
       <r>   25.4974    0.0000 </r>
       <r>   31.1983    0.0000 </r>
       <r>   31.1983    0.0000 </r>
      </set>
      <set comment="kpoint 59">
       <r>    4.6138    1.0000 </r>
       <r>    4.6138    1.0000 </r>
       <r>    6.8492    1.0000 </r>
       <r>    6.8492    1.0000 </r>
       <r>    7.5191    1.0000 </r>
       <r>    7.5191    1.0000 </r>
       <r>    8.0186    1.0000 </r>
       <r>    8.0186    1.0000 </r>
       <r>    9.0527    1.0000 </r>
       <r>    9.0527    1.0000 </r>
       <r>    9.5570    1.0000 </r>
       <r>    9.5570    1.0000 </r>
       <r>   26.0120    0.0000 </r>
       <r>   26.0120    0.0000 </r>
       <r>   27.3317    0.0000 </r>
       <r>   27.3317    0.0000 </r>
      </set>
      <set comment="kpoint 60">
       <r>    5.2025    1.0000 </r>
       <r>    5.2025    1.0000 </r>
       <r>    6.6990    1.0000 </r>
       <r>    6.6990    1.0000 </r>
       <r>    7.9048    1.0000 </r>
       <r>    7.9048    1.0000 </r>
       <r>    8.3205    1.0000 </r>
       <r>    8.3205    1.0000 </r>
       <r>    9.1762    1.0000 </r>
       <r>    9.1762    1.0000 </r>
       <r>   10.0536    1.0000 </r>
       <r>   10.0536    1.0000 </r>
       <r>   22.7748    0.0000 </r>
       <r>   22.7748    0.0000 </r>
       <r>   27.5911    0.0000 </r>
       <r>   27.5911    0.0000 </r>
      </set>
      <set comment="kpoint 61">
       <r>    5.2846    1.0000 </r>
       <r>    5.2846    1.0000 </r>
       <r>    6.5436    1.0000 </r>
       <r>    6.5436    1.0000 </r>
       <r>    8.4165    1.0000 </r>
       <r>    8.4165    1.0000 </r>
       <r>    8.8185    1.0000 </r>
       <r>    8.8185    1.0000 </r>
       <r>    9.4586    1.0000 </r>
       <r>    9.4586    1.0000 </r>
       <r>   10.9573    0.0000 </r>
       <r>   10.9573    0.0000 </r>
       <r>   19.2443    0.0000 </r>
       <r>   19.2443    0.0000 </r>
       <r>   28.9807    0.0000 </r>
       <r>   29.0138    0.0000 </r>
      </set>
      <set comment="kpoint 62">
       <r>    5.2588    1.0000 </r>
       <r>    5.2588    1.0000 </r>
       <r>    6.4757    1.0000 </r>
       <r>    6.4757    1.0000 </r>
       <r>    8.4245    1.0000 </r>
       <r>    8.4245    1.0000 </r>
       <r>    9.1595    1.0000 </r>
       <r>    9.1595    1.0000 </r>
       <r>    9.6048    1.0000 </r>
       <r>    9.6048    1.0000 </r>
       <r>   11.8452    0.0000 </r>
       <r>   11.8452    0.0000 </r>
       <r>   17.4949    0.0000 </r>
       <r>   17.4949    0.0000 </r>
       <r>   28.5915    0.0000 </r>
       <r>   28.5915    0.0000 </r>
      </set>
      <set comment="kpoint 63">
       <r>    4.4042    1.0000 </r>
       <r>    4.4042    1.0000 </r>
       <r>    6.9083    1.0000 </r>
       <r>    6.9083    1.0000 </r>
       <r>    7.4847    1.0000 </r>
       <r>    7.4847    1.0000 </r>
       <r>    7.9430    1.0000 </r>
       <r>    7.9430    1.0000 </r>
       <r>    9.0599    1.0000 </r>
       <r>    9.0599    1.0000 </r>
       <r>    9.4524    1.0000 </r>
       <r>    9.4524    1.0000 </r>
       <r>   25.9535    0.0000 </r>
       <r>   25.9535    0.0000 </r>
       <r>   28.9163    0.0000 </r>
       <r>   28.9163    0.0000 </r>
      </set>
      <set comment="kpoint 64">
       <r>    5.1317    1.0000 </r>
       <r>    5.1317    1.0000 </r>
       <r>    6.7933    1.0000 </r>
       <r>    6.7933    1.0000 </r>
       <r>    7.4100    1.0000 </r>
       <r>    7.4100    1.0000 </r>
       <r>    8.2427    1.0000 </r>
       <r>    8.2427    1.0000 </r>
       <r>    9.2062    1.0000 </r>
       <r>    9.2062    1.0000 </r>
       <r>    9.8949    1.0000 </r>
       <r>    9.8949    1.0000 </r>
       <r>   24.9330    0.0000 </r>
       <r>   24.9330    0.0000 </r>
       <r>   26.9434    0.0000 </r>
       <r>   26.9434    0.0000 </r>
      </set>
      <set comment="kpoint 65">
       <r>    5.4286    1.0000 </r>
       <r>    5.4286    1.0000 </r>
       <r>    6.6898    1.0000 </r>
       <r>    6.6898    1.0000 </r>
       <r>    7.9022    1.0000 </r>
       <r>    7.9022    1.0000 </r>
       <r>    8.3891    1.0000 </r>
       <r>    8.3891    1.0000 </r>
       <r>    9.4785    1.0000 </r>
       <r>    9.4785    1.0000 </r>
       <r>   10.7976    0.0000 </r>
       <r>   10.7976    0.0000 </r>
       <r>   21.0734    0.0000 </r>
       <r>   21.0734    0.0000 </r>
       <r>   26.5943    0.0000 </r>
       <r>   26.5943    0.0000 </r>
      </set>
      <set comment="kpoint 66">
       <r>    5.4202    1.0000 </r>
       <r>    5.4202    1.0000 </r>
       <r>    6.5768    1.0000 </r>
       <r>    6.5768    1.0000 </r>
       <r>    8.1369    1.0000 </r>
       <r>    8.1369    1.0000 </r>
       <r>    8.8358    1.0000 </r>
       <r>    8.8358    1.0000 </r>
       <r>    9.5316    1.0000 </r>
       <r>    9.5316    1.0000 </r>
       <r>   12.2139    0.0000 </r>
       <r>   12.2139    0.0000 </r>
       <r>   18.1061    0.0000 </r>
       <r>   18.1061    0.0000 </r>
       <r>   25.9421    0.0000 </r>
       <r>   25.9421    0.0000 </r>
      </set>
      <set comment="kpoint 67">
       <r>    5.6007    1.0000 </r>
       <r>    5.6007    1.0000 </r>
       <r>    6.8976    1.0000 </r>
       <r>    6.8976    1.0000 </r>
       <r>    7.2776    1.0000 </r>
       <r>    7.2776    1.0000 </r>
       <r>    8.2573    1.0000 </r>
       <r>    8.2573    1.0000 </r>
       <r>    9.5296    1.0000 </r>
       <r>    9.5296    1.0000 </r>
       <r>   10.8482    0.0000 </r>
       <r>   10.8482    0.0000 </r>
       <r>   23.1622    0.0000 </r>
       <r>   23.1622    0.0000 </r>
       <r>   24.0236    0.0000 </r>
       <r>   24.0236    0.0000 </r>
      </set>
      <set comment="kpoint 68">
       <r>    5.7779    1.0000 </r>
       <r>    5.7779    1.0000 </r>
       <r>    6.8104    1.0000 </r>
       <r>    6.8104    1.0000 </r>
       <r>    7.5016    1.0000 </r>
       <r>    7.5016    1.0000 </r>
       <r>    8.3423    1.0000 </r>
       <r>    8.3423    1.0000 </r>
       <r>    9.5675    1.0000 </r>
       <r>    9.5675    1.0000 </r>
       <r>   12.6116    0.0000 </r>
       <r>   12.6116    0.0000 </r>
       <r>   19.8237    0.0000 </r>
       <r>   19.8237    0.0000 </r>
       <r>   22.7491    0.0000 </r>
       <r>   22.7491    0.0000 </r>
      </set>
      <set comment="kpoint 69">
       <r>    5.8113    1.0000 </r>
       <r>    5.8113    1.0000 </r>
       <r>    6.7466    1.0000 </r>
       <r>    6.7466    1.0000 </r>
       <r>    7.5541    1.0000 </r>
       <r>    7.5541    1.0000 </r>
       <r>    8.5488    1.0000 </r>
       <r>    8.5488    1.0000 </r>
       <r>    9.4861    1.0000 </r>
       <r>    9.4861    1.0000 </r>
       <r>   14.0334    0.0000 </r>
       <r>   14.0334    0.0000 </r>
       <r>   17.7851    0.0000 </r>
       <r>   17.7851    0.0000 </r>
       <r>   22.3999    0.0000 </r>
       <r>   22.3999    0.0000 </r>
      </set>
      <set comment="kpoint 70">
       <r>    6.1722    1.0000 </r>
       <r>    6.1722    1.0000 </r>
       <r>    6.7169    1.0000 </r>
       <r>    6.7169    1.0000 </r>
       <r>    7.2932    1.0000 </r>
       <r>    7.2932    1.0000 </r>
       <r>    8.3324    1.0000 </r>
       <r>    8.3324    1.0000 </r>
       <r>    9.4710    1.0000 </r>
       <r>    9.4710    1.0000 </r>
       <r>   14.9519    0.0000 </r>
       <r>   14.9519    0.0000 </r>
       <r>   18.3846    0.0000 </r>
       <r>   18.3846    0.0000 </r>
       <r>   20.2169    0.0000 </r>
       <r>   20.2169    0.0000 </r>
      </set>
     </set>
     <set comment="spin 2">
      <set comment="kpoint 1">
       <r>    1.3512    1.0000 </r>
       <r>    6.0854    1.0000 </r>
       <r>    9.2938    1.0000 </r>
       <r>    9.3249    1.0000 </r>
       <r>    9.3249    1.0000 </r>
       <r>    9.6904    1.0000 </r>
       <r>    9.6904    1.0000 </r>
       <r>   10.1092    0.9967 </r>
       <r>   10.1092    0.9967 </r>
       <r>   10.1189    0.9926 </r>
       <r>   11.3237    0.0000 </r>
       <r>   11.3237    0.0000 </r>
       <r>   17.6312    0.0000 </r>
       <r>   31.9677    0.0000 </r>
       <r>   35.1681    0.0000 </r>
       <r>   35.1852    0.0000 </r>
      </set>
      <set comment="kpoint 2">
       <r>    1.7018    1.0000 </r>
       <r>    6.3205    1.0000 </r>
       <r>    8.9767    1.0000 </r>
       <r>    9.2570    1.0000 </r>
       <r>    9.5035    1.0000 </r>
       <r>    9.5366    1.0000 </r>
       <r>    9.6303    1.0000 </r>
       <r>    9.8481    1.0000 </r>
       <r>    9.9932    1.0000 </r>
       <r>   10.0245    1.0000 </r>
       <r>   11.3729    0.0000 </r>
       <r>   12.4869    0.0000 </r>
       <r>   17.6603    0.0000 </r>
       <r>   29.8190    0.0000 </r>
       <r>   32.5215    0.0000 </r>
       <r>   32.5476    0.0000 </r>
      </set>
      <set comment="kpoint 3">
       <r>    2.7065    1.0000 </r>
       <r>    6.8671    1.0000 </r>
       <r>    8.2811    1.0000 </r>
       <r>    8.5531    1.0000 </r>
       <r>    9.3249    1.0000 </r>
       <r>    9.7284    1.0000 </r>
       <r>    9.8045    1.0000 </r>
       <r>    9.9961    1.0000 </r>
       <r>   10.0057    1.0000 </r>
       <r>   10.2767    0.0215 </r>
       <r>   11.4644    0.0000 </r>
       <r>   14.3565    0.0000 </r>
       <r>   17.7827    0.0000 </r>
       <r>   25.4269    0.0000 </r>
       <r>   29.7195    0.0000 </r>
       <r>   31.5077    0.0000 </r>
      </set>
      <set comment="kpoint 4">
       <r>    4.1885    1.0000 </r>
       <r>    7.1562    1.0000 </r>
       <r>    7.5812    1.0000 </r>
       <r>    8.3033    1.0000 </r>
       <r>    9.2750    1.0000 </r>
       <r>    9.4467    1.0000 </r>
       <r>    9.5379    1.0000 </r>
       <r>   10.6538    0.0000 </r>
       <r>   10.6640    0.0000 </r>
       <r>   10.8507    0.0000 </r>
       <r>   11.5352    0.0000 </r>
       <r>   16.5004    0.0000 </r>
       <r>   17.9539    0.0000 </r>
       <r>   21.4810    0.0000 </r>
       <r>   27.4150    0.0000 </r>
       <r>   28.6267    0.0000 </r>
      </set>
      <set comment="kpoint 5">
       <r>    5.6865    1.0000 </r>
       <r>    6.9529    1.0000 </r>
       <r>    7.1699    1.0000 </r>
       <r>    8.3078    1.0000 </r>
       <r>    9.2413    1.0000 </r>
       <r>    9.3256    1.0000 </r>
       <r>    9.5342    1.0000 </r>
       <r>   11.2412    0.0000 </r>
       <r>   11.3847    0.0000 </r>
       <r>   11.5724    0.0000 </r>
       <r>   11.6784    0.0000 </r>
       <r>   16.5260    0.0000 </r>
       <r>   18.7917    0.0000 </r>
       <r>   20.2554    0.0000 </r>
       <r>   25.4162    0.0000 </r>
       <r>   25.8320    0.0000 </r>
      </set>
      <set comment="kpoint 6">
       <r>    6.4052    1.0000 </r>
       <r>    6.7247    1.0000 </r>
       <r>    7.0354    1.0000 </r>
       <r>    8.4220    1.0000 </r>
       <r>    9.1668    1.0000 </r>
       <r>    9.2452    1.0000 </r>
       <r>    9.6612    1.0000 </r>
       <r>   11.4588    0.0000 </r>
       <r>   11.5832    0.0000 </r>
       <r>   11.6238    0.0000 </r>
       <r>   12.8114    0.0000 </r>
       <r>   14.5651    0.0000 </r>
       <r>   20.3658    0.0000 </r>
       <r>   20.9828    0.0000 </r>
       <r>   23.5427    0.0000 </r>
       <r>   24.7839    0.0000 </r>
      </set>
      <set comment="kpoint 7">
       <r>    2.3810    1.0000 </r>
       <r>    6.7252    1.0000 </r>
       <r>    8.5338    1.0000 </r>
       <r>    8.6375    1.0000 </r>
       <r>    9.4230    1.0000 </r>
       <r>    9.6683    1.0000 </r>
       <r>    9.7781    1.0000 </r>
       <r>    9.8650    1.0000 </r>
       <r>   10.0044    1.0000 </r>
       <r>   10.1960    0.6028 </r>
       <r>   11.4218    0.0000 </r>
       <r>   13.8316    0.0000 </r>
       <r>   17.7425    0.0000 </r>
       <r>   27.4761    0.0000 </r>
       <r>   28.1994    0.0000 </r>
       <r>   34.0108    0.0000 </r>
      </set>
      <set comment="kpoint 8">
       <r>    3.6399    1.0000 </r>
       <r>    7.2245    1.0000 </r>
       <r>    7.8336    1.0000 </r>
       <r>    8.2284    1.0000 </r>
       <r>    9.2703    1.0000 </r>
       <r>    9.3447    1.0000 </r>
       <r>    9.8025    1.0000 </r>
       <r>   10.1485    0.9455 </r>
       <r>   10.4912    0.0000 </r>
       <r>   10.8111    0.0000 </r>
       <r>   11.4720    0.0000 </r>
       <r>   15.7420    0.0000 </r>
       <r>   17.9817    0.0000 </r>
       <r>   23.4357    0.0000 </r>
       <r>   25.9345    0.0000 </r>
       <r>   30.5222    0.0000 </r>
      </set>
      <set comment="kpoint 9">
       <r>    5.1919    1.0000 </r>
       <r>    7.2146    1.0000 </r>
       <r>    7.3527    1.0000 </r>
       <r>    8.1163    1.0000 </r>
       <r>    9.1340    1.0000 </r>
       <r>    9.4170    1.0000 </r>
       <r>    9.5102    1.0000 </r>
       <r>   10.7310    0.0000 </r>
       <r>   11.1225    0.0000 </r>
       <r>   11.5061    0.0000 </r>
       <r>   11.6000    0.0000 </r>
       <r>   17.8618    0.0000 </r>
       <r>   17.9497    0.0000 </r>
       <r>   20.3751    0.0000 </r>
       <r>   24.3382    0.0000 </r>
       <r>   27.1141    0.0000 </r>
      </set>
      <set comment="kpoint 10">
       <r>    6.3708    1.0000 </r>
       <r>    6.9505    1.0000 </r>
       <r>    7.1153    1.0000 </r>
       <r>    8.2155    1.0000 </r>
       <r>    9.0820    1.0000 </r>
       <r>    9.2597    1.0000 </r>
       <r>    9.6608    1.0000 </r>
       <r>   11.3213    0.0000 </r>
       <r>   11.4641    0.0000 </r>
       <r>   11.5204    0.0000 </r>
       <r>   12.6870    0.0000 </r>
       <r>   15.4987    0.0000 </r>
       <r>   20.1715    0.0000 </r>
       <r>   20.8941    0.0000 </r>
       <r>   23.3195    0.0000 </r>
       <r>   24.2942    0.0000 </r>
      </set>
      <set comment="kpoint 11">
       <r>    5.0150    1.0000 </r>
       <r>    7.4725    1.0000 </r>
[...]
       </set>
       <set comment="band 12">
        <r>  0.0654  0.0451  0.0000  0.0480  0.1586  0.0000  0.1197  0.0000  0.1066 </r>
        <r>  0.0000  0.0000  0.0441  0.0000  0.0000  0.1620  0.0000  0.1770  0.0000 </r>
       </set>
       <set comment="band 13">
        <r>  0.1781  0.0191  0.0000  0.1933  0.1206  0.0000  0.0362  0.0000  0.0919 </r>
        <r>  0.0000  0.0000  0.0466  0.0000  0.0000  0.0237  0.0000  0.1220  0.0000 </r>
       </set>
       <set comment="band 14">
        <r>  0.0000  0.0000  0.0466  0.0000  0.0000  0.0237  0.0000  0.1220  0.0000 </r>
        <r>  0.1781  0.0191  0.0000  0.1933  0.1206  0.0000  0.0362  0.0000  0.0919 </r>
       </set>
       <set comment="band 15">
        <r>  0.0555  0.3104  0.0000  0.0242  0.0325  0.0001  0.0754  0.0000  0.1070 </r>
        <r>  0.0001  0.0003  0.0112  0.0000  0.0000  0.1368  0.0001  0.0150  0.0001 </r>
       </set>
       <set comment="band 16">
        <r>  0.0001  0.0003  0.0112  0.0000  0.0000  0.1368  0.0001  0.0150  0.0001 </r>
        <r>  0.0555  0.3104  0.0000  0.0242  0.0325  0.0001  0.0754  0.0000  0.1070 </r>
       </set>
      </set>
      <set comment="kpoint 66">
       <set comment="band 1">
        <r>  0.0136  0.0021  0.0091  0.0011  0.0250  0.1051  0.0026  0.2403  0.0074 </r>
        <r>  0.1058  0.0164  0.0012  0.0083  0.1955  0.0135  0.0202  0.0308  0.0579 </r>
       </set>
       <set comment="band 2">
        <r>  0.1058  0.0164  0.0012  0.0083  0.1955  0.0135  0.0202  0.0308  0.0579 </r>
        <r>  0.0136  0.0021  0.0091  0.0011  0.0250  0.1051  0.0026  0.2403  0.0074 </r>
       </set>
       <set comment="band 3">
        <r>  0.0000  0.0000  0.0133  0.0000  0.0000  0.0708  0.0000  0.1272  0.0000 </r>
        <r>  0.0016  0.0124  0.0000  0.0242  0.3094  0.0000  0.2371  0.0000  0.1315 </r>
       </set>
       <set comment="band 4">
        <r>  0.0016  0.0124  0.0000  0.0242  0.3094  0.0000  0.2371  0.0000  0.1315 </r>
        <r>  0.0000  0.0000  0.0133  0.0000  0.0000  0.0708  0.0000  0.1272  0.0000 </r>
       </set>
       <set comment="band 5">
        <r>  0.0000  0.0000  0.0380  0.0000  0.0000  0.3011  0.0000  0.1677  0.0000 </r>
        <r>  0.0146  0.0345  0.0000  0.0977  0.0103  0.0000  0.1440  0.0000  0.0805 </r>
       </set>
       <set comment="band 6">
        <r>  0.0146  0.0345  0.0000  0.0977  0.0103  0.0000  0.1440  0.0000  0.0805 </r>
        <r>  0.0000  0.0000  0.0380  0.0000  0.0000  0.3011  0.0000  0.1677  0.0000 </r>
       </set>
       <set comment="band 7">
        <r>  0.0000  0.0000  0.0173  0.0000  0.0000  0.2735  0.0000  0.1441  0.0001 </r>
        <r>  0.0031  0.0192  0.0000  0.0514  0.0409  0.0001  0.1149  0.0000  0.2809 </r>
       </set>
       <set comment="band 8">
        <r>  0.0031  0.0192  0.0000  0.0514  0.0409  0.0001  0.1149  0.0000  0.2809 </r>
        <r>  0.0000  0.0000  0.0173  0.0000  0.0000  0.2735  0.0000  0.1441  0.0001 </r>
       </set>
       <set comment="band 9">
        <r>  0.0000  0.0000  0.0025  0.0000  0.0023  0.1069  0.0053  0.1111  0.0029 </r>
        <r>  0.0004  0.0016  0.0000  0.0005  0.1645  0.0015  0.3807  0.0015  0.2056 </r>
       </set>
       <set comment="band 10">
        <r>  0.0004  0.0016  0.0000  0.0005  0.1645  0.0015  0.3807  0.0015  0.2056 </r>
        <r>  0.0000  0.0000  0.0025  0.0000  0.0023  0.1069  0.0053  0.1111  0.0029 </r>
       </set>
       <set comment="band 11">
        <r>  0.0000  0.0000  0.0695  0.0001  0.0001  0.0681  0.0000  0.0682  0.0001 </r>
        <r>  0.0302  0.0815  0.0000  0.1676  0.1583  0.0000  0.0538  0.0000  0.1743 </r>
       </set>
       <set comment="band 12">
        <r>  0.0302  0.0815  0.0000  0.1676  0.1583  0.0000  0.0538  0.0000  0.1743 </r>
        <r>  0.0000  0.0000  0.0695  0.0001  0.0001  0.0681  0.0000  0.0682  0.0001 </r>
       </set>
       <set comment="band 13">
        <r>  0.3205  0.0044  0.0000  0.0736  0.1422  0.0000  0.0222  0.0000  0.0790 </r>
        <r>  0.0000  0.0000  0.0349  0.0000  0.0000  0.0416  0.0000  0.1585  0.0000 </r>
       </set>
       <set comment="band 14">
        <r>  0.0000  0.0000  0.0349  0.0000  0.0000  0.0416  0.0000  0.1585  0.0000 </r>
        <r>  0.3205  0.0044  0.0000  0.0736  0.1422  0.0000  0.0222  0.0000  0.0791 </r>
       </set>
       <set comment="band 15">
        <r>  0.0784  0.2900  0.0000  0.0688  0.0590  0.0000  0.0428  0.0000  0.0505 </r>
        <r>  0.0000  0.0001  0.0111  0.0000  0.0000  0.1209  0.0000  0.0322  0.0000 </r>
       </set>
       <set comment="band 16">
        <r>  0.0000  0.0001  0.0111  0.0000  0.0000  0.1209  0.0000  0.0322  0.0000 </r>
        <r>  0.0784  0.2900  0.0000  0.0688  0.0590  0.0000  0.0428  0.0000  0.0505 </r>
       </set>
      </set>
      <set comment="kpoint 67">
       <set comment="band 1">
        <r>  0.0207  0.0067  0.0658  0.0023  0.0041  0.2082  0.0006  0.0695  0.0020 </r>
        <r>  0.2143  0.0691  0.0063  0.0243  0.0429  0.0201  0.0062  0.0067  0.0203 </r>
       </set>
       <set comment="band 2">
        <r>  0.2143  0.0691  0.0063  0.0243  0.0429  0.0201  0.0062  0.0067  0.0203 </r>
        <r>  0.0207  0.0067  0.0658  0.0023  0.0041  0.2082  0.0006  0.0695  0.0020 </r>
       </set>
       <set comment="band 3">
        <r>  0.0000  0.0000  0.0221  0.0000  0.0002  0.0506  0.0001  0.0190  0.0006 </r>
        <r>  0.0225  0.0314  0.0000  0.0316  0.1868  0.0001  0.0851  0.0000  0.4620 </r>
       </set>
       <set comment="band 4">
        <r>  0.0225  0.0314  0.0000  0.0316  0.1868  0.0001  0.0851  0.0000  0.4620 </r>
        <r>  0.0000  0.0000  0.0221  0.0000  0.0002  0.0506  0.0001  0.0190  0.0006 </r>
       </set>
       <set comment="band 5">
        <r>  0.0012  0.0305  0.0000  0.0147  0.0758  0.0000  0.4778  0.0000  0.1382 </r>
        <r>  0.0000  0.0000  0.0009  0.0000  0.0000  0.0822  0.0000  0.1110  0.0000 </r>
       </set>
       <set comment="band 6">
        <r>  0.0000  0.0000  0.0009  0.0000  0.0000  0.0822  0.0000  0.1110  0.0000 </r>
        <r>  0.0012  0.0305  0.0000  0.0147  0.0758  0.0000  0.4778  0.0000  0.1382 </r>
       </set>
       <set comment="band 7">
        <r>  0.0000  0.0000  0.0010  0.0000  0.0000  0.2026  0.0000  0.5173  0.0000 </r>
        <r>  0.0035  0.0027  0.0000  0.0011  0.1351  0.0000  0.0066  0.0000  0.0944 </r>
       </set>
       <set comment="band 8">
        <r>  0.0035  0.0027  0.0000  0.0011  0.1351  0.0000  0.0066  0.0000  0.0944 </r>
        <r>  0.0000  0.0000  0.0010  0.0000  0.0000  0.2026  0.0000  0.5173  0.0000 </r>
       </set>
       <set comment="band 9">
        <r>  0.0000  0.0000  0.0019  0.0000  0.0003  0.1497  0.0003  0.1378  0.0001 </r>
        <r>  0.0000  0.0000  0.0000  0.0000  0.2837  0.0002  0.3188  0.0001  0.0983 </r>
       </set>
       <set comment="band 10">
        <r>  0.0000  0.0000  0.0000  0.0000  0.2837  0.0002  0.3188  0.0001  0.0983 </r>
        <r>  0.0000  0.0000  0.0019  0.0000  0.0003  0.1497  0.0003  0.1378  0.0001 </r>
       </set>
       <set comment="band 11">
        <r>  0.0000  0.0000  0.0483  0.0000  0.0001  0.2407  0.0000  0.0866  0.0000 </r>
        <r>  0.0751  0.0666  0.0000  0.0232  0.2365  0.0001  0.0494  0.0000  0.0997 </r>
       </set>
       <set comment="band 12">
        <r>  0.0751  0.0666  0.0000  0.0232  0.2365  0.0001  0.0494  0.0000  0.0997 </r>
        <r>  0.0000  0.0000  0.0483  0.0000  0.0001  0.2407  0.0000  0.0866  0.0000 </r>
       </set>
       <set comment="band 13">
        <r>  0.0017  0.0795  0.0000  0.2024  0.0834  0.0000  0.0108  0.0000  0.2503 </r>
        <r>  0.0000  0.0000  0.0660  0.0001  0.0000  0.0481  0.0000  0.0484  0.0001 </r>
       </set>
       <set comment="band 14">
        <r>  0.0000  0.0000  0.0660  0.0001  0.0000  0.0481  0.0000  0.0484  0.0001 </r>
        <r>  0.0017  0.0795  0.0000  0.2024  0.0834  0.0000  0.0108  0.0000  0.2503 </r>
       </set>
       <set comment="band 15">
        <r>  0.2320  0.2024  0.0000  0.0752  0.0104  0.0000  0.0904  0.0000  0.0125 </r>
        <r>  0.0000  0.0000  0.0038  0.0000  0.0000  0.1014  0.0000  0.0885  0.0000 </r>
       </set>
       <set comment="band 16">
        <r>  0.0000  0.0000  0.0038  0.0000  0.0000  0.1014  0.0000  0.0885  0.0000 </r>
        <r>  0.2320  0.2024  0.0000  0.0752  0.0104  0.0000  0.0904  0.0000  0.0125 </r>
       </set>
      </set>
      <set comment="kpoint 68">
       <set comment="band 1">
        <r>  0.0006  0.0002  0.0209  0.0001  0.0006  0.2393  0.0002  0.2030  0.0001 </r>
        <r>  0.1142  0.0495  0.0001  0.0166  0.1255  0.0012  0.0431  0.0010  0.0271 </r>
       </set>
       <set comment="band 2">
        <r>  0.1142  0.0495  0.0001  0.0166  0.1255  0.0012  0.0431  0.0010  0.0271 </r>
        <r>  0.0006  0.0002  0.0209  0.0001  0.0006  0.2393  0.0002  0.2030  0.0001 </r>
       </set>
       <set comment="band 3">
        <r>  0.0002  0.0004  0.0251  0.0006  0.0048  0.0891  0.0017  0.0127  0.0052 </r>
        <r>  0.0138  0.0245  0.0004  0.0352  0.2860  0.0015  0.1015  0.0002  0.3120 </r>
       </set>
       <set comment="band 4">
        <r>  0.0138  0.0245  0.0004  0.0352  0.2860  0.0015  0.1015  0.0002  0.3120 </r>
        <r>  0.0002  0.0004  0.0251  0.0006  0.0048  0.0891  0.0017  0.0127  0.0052 </r>
       </set>
       <set comment="band 5">
        <r>  0.0000  0.0000  0.0198  0.0000  0.0000  0.0811  0.0001  0.2167  0.0001 </r>
        <r>  0.0109  0.0457  0.0000  0.0692  0.0429  0.0000  0.2565  0.0001  0.1518 </r>
       </set>
       <set comment="band 6">
        <r>  0.0109  0.0457  0.0000  0.0692  0.0429  0.0000  0.2565  0.0001  0.1518 </r>
        <r>  0.0000  0.0000  0.0198  0.0000  0.0000  0.0811  0.0001  0.2167  0.0001 </r>
       </set>
       <set comment="band 7">
        <r>  0.0000  0.0000  0.0011  0.0000  0.0000  0.2549  0.0000  0.3075  0.0000 </r>
        <r>  0.0081  0.0028  0.0000  0.0060  0.1153  0.0000  0.0463  0.0000  0.2203 </r>
       </set>
       <set comment="band 8">
        <r>  0.0081  0.0028  0.0000  0.0060  0.1153  0.0000  0.0463  0.0000  0.2203 </r>
        <r>  0.0000  0.0000  0.0011  0.0000  0.0000  0.2549  0.0000  0.3075  0.0000 </r>
       </set>
       <set comment="band 9">
        <r>  0.0000  0.0000  0.0034  0.0000  0.0000  0.1718  0.0000  0.1265  0.0000 </r>
        <r>  0.0001  0.0025  0.0000  0.0007  0.1281  0.0000  0.5013  0.0000  0.0541 </r>
       </set>
       <set comment="band 10">
        <r>  0.0001  0.0025  0.0000  0.0007  0.1281  0.0000  0.5013  0.0000  0.0541 </r>
        <r>  0.0000  0.0000  0.0034  0.0000  0.0000  0.1718  0.0000  0.1265  0.0000 </r>
       </set>
       <set comment="band 11">
        <r>  0.0002  0.0003  0.0738  0.0002  0.0006  0.1046  0.0000  0.0439  0.0003 </r>
        <r>  0.0716  0.1122  0.0002  0.0835  0.2515  0.0002  0.0049  0.0001  0.1397 </r>
       </set>
       <set comment="band 12">
        <r>  0.0716  0.1122  0.0002  0.0835  0.2515  0.0002  0.0049  0.0001  0.1397 </r>
        <r>  0.0002  0.0003  0.0738  0.0002  0.0006  0.1046  0.0000  0.0439  0.0003 </r>
       </set>
       <set comment="band 13">
        <r>  0.1639  0.0056  0.0000  0.2144  0.0903  0.0000  0.0185  0.0000  0.1447 </r>
        <r>  0.0000  0.0000  0.0471  0.0000  0.0000  0.0191  0.0000  0.1336  0.0000 </r>
       </set>
       <set comment="band 14">
        <r>  0.0000  0.0000  0.0471  0.0000  0.0000  0.0191  0.0000  0.1336  0.0000 </r>
        <r>  0.1639  0.0056  0.0000  0.2144  0.0903  0.0000  0.0185  0.0000  0.1447 </r>
       </set>
       <set comment="band 15">
        <r>  0.2143  0.2379  0.0000  0.0184  0.0306  0.0000  0.0463  0.0000  0.0603 </r>
        <r>  0.0000  0.0000  0.0201  0.0000  0.0000  0.1331  0.0000  0.0386  0.0000 </r>
       </set>
       <set comment="band 16">
        <r>  0.0000  0.0000  0.0201  0.0000  0.0000  0.1331  0.0000  0.0386  0.0000 </r>
        <r>  0.2143  0.2379  0.0000  0.0184  0.0306  0.0000  0.0463  0.0000  0.0603 </r>
       </set>
      </set>
      <set comment="kpoint 69">
       <set comment="band 1">
        <r>  0.0002  0.0001  0.0030  0.0001  0.0005  0.1122  0.0001  0.3365  0.0002 </r>
        <r>  0.0770  0.0272  0.0000  0.0204  0.1727  0.0003  0.0507  0.0009  0.0630 </r>
       </set>
       <set comment="band 2">
        <r>  0.0770  0.0272  0.0000  0.0204  0.1727  0.0003  0.0507  0.0009  0.0630 </r>
        <r>  0.0002  0.0001  0.0030  0.0001  0.0005  0.1122  0.0001  0.3365  0.0002 </r>
       </set>
       <set comment="band 3">
        <r>  0.0000  0.0000  0.0097  0.0000  0.0002  0.1021  0.0001  0.1059  0.0001 </r>
        <r>  0.0012  0.0289  0.0000  0.0156  0.3225  0.0001  0.2247  0.0001  0.1160 </r>
       </set>
       <set comment="band 4">
        <r>  0.0012  0.0289  0.0000  0.0156  0.3225  0.0001  0.2247  0.0001  0.1160 </r>
        <r>  0.0000  0.0000  0.0097  0.0000  0.0002  0.1021  0.0001  0.1059  0.0001 </r>
       </set>
       <set comment="band 5">
        <r>  0.0000  0.0000  0.0388  0.0000  0.0000  0.2699  0.0000  0.0998  0.0000 </r>
        <r>  0.0172  0.0352  0.0000  0.1056  0.0885  0.0000  0.0459  0.0000  0.1738 </r>
       </set>
       <set comment="band 6">
        <r>  0.0172  0.0352  0.0000  0.1056  0.0885  0.0000  0.0459  0.0000  0.1738 </r>
        <r>  0.0000  0.0000  0.0388  0.0000  0.0000  0.2699  0.0000  0.0998  0.0000 </r>
       </set>
       <set comment="band 7">
        <r>  0.0000  0.0000  0.0052  0.0000  0.0001  0.2796  0.0000  0.1386  0.0001 </r>
        <r>  0.0007  0.0089  0.0000  0.0241  0.1484  0.0001  0.0176  0.0001  0.3359 </r>
       </set>
       <set comment="band 8">
        <r>  0.0007  0.0089  0.0000  0.0241  0.1484  0.0001  0.0176  0.0001  0.3359 </r>
        <r>  0.0000  0.0000  0.0052  0.0000  0.0001  0.2796  0.0000  0.1386  0.0001 </r>
       </set>
       <set comment="band 9">
        <r>  0.0000  0.0000  0.0012  0.0000  0.0000  0.1180  0.0000  0.1665  0.0000 </r>
        <r>  0.0007  0.0010  0.0000  0.0003  0.0435  0.0000  0.6161  0.0000  0.0394 </r>
       </set>
       <set comment="band 10">
        <r>  0.0007  0.0010  0.0000  0.0003  0.0435  0.0000  0.6161  0.0000  0.0394 </r>
        <r>  0.0000  0.0000  0.0012  0.0000  0.0000  0.1180  0.0000  0.1665  0.0000 </r>
       </set>
       <set comment="band 11">
        <r>  0.0000  0.0000  0.1024  0.0001  0.0000  0.0338  0.0000  0.0319  0.0001 </r>
        <r>  0.0088  0.0826  0.0000  0.2352  0.1034  0.0000  0.0075  0.0000  0.2448 </r>
       </set>
       <set comment="band 12">
        <r>  0.0088  0.0826  0.0000  0.2352  0.1034  0.0000  0.0075  0.0000  0.2448 </r>
        <r>  0.0000  0.0000  0.1024  0.0001  0.0000  0.0338  0.0000  0.0319  0.0001 </r>
       </set>
       <set comment="band 13">
        <r>  0.2819  0.0698  0.0000  0.0386  0.1700  0.0000  0.0132  0.0000  0.0612 </r>
        <r>  0.0000  0.0000  0.0286  0.0000  0.0000  0.0520  0.0000  0.1554  0.0000 </r>
       </set>
       <set comment="band 14">
        <r>  0.0000  0.0000  0.0286  0.0000  0.0000  0.0520  0.0000  0.1554  0.0000 </r>
        <r>  0.2819  0.0698  0.0000  0.0386  0.1700  0.0000  0.0132  0.0000  0.0612 </r>
       </set>
       <set comment="band 15">
        <r>  0.2155  0.1926  0.0000  0.0645  0.0675  0.0000  0.0387  0.0000  0.0226 </r>
        <r>  0.0000  0.0000  0.0209  0.0000  0.0000  0.1218  0.0000  0.0511  0.0000 </r>
       </set>
       <set comment="band 16">
        <r>  0.0000  0.0000  0.0209  0.0000  0.0000  0.1218  0.0000  0.0511  0.0000 </r>
        <r>  0.2155  0.1926  0.0000  0.0645  0.0675  0.0000  0.0387  0.0000  0.0226 </r>
       </set>
      </set>
      <set comment="kpoint 70">
       <set comment="band 1">
        <r>  0.0001  0.0001  0.0021  0.0000  0.0001  0.3788  0.0001  0.1264  0.0001 </r>
        <r>  0.0512  0.0373  0.0000  0.0308  0.0693  0.0005  0.0903  0.0002  0.0807 </r>
       </set>
       <set comment="band 2">
        <r>  0.0512  0.0373  0.0000  0.0308  0.0693  0.0005  0.0903  0.0002  0.0807 </r>
        <r>  0.0001  0.0001  0.0021  0.0000  0.0001  0.3788  0.0001  0.1264  0.0001 </r>
       </set>
       <set comment="band 3">
        <r>  0.0000  0.0000  0.0050  0.0000  0.0001  0.1113  0.0002  0.3043  0.0002 </r>
        <r>  0.0263  0.0184  0.0000  0.0381  0.0643  0.0001  0.1525  0.0003  0.1784 </r>
       </set>
       <set comment="band 4">
        <r>  0.0263  0.0184  0.0000  0.0381  0.0643  0.0001  0.1525  0.0003  0.1784 </r>
        <r>  0.0000  0.0000  0.0050  0.0000  0.0001  0.1113  0.0002  0.3043  0.0002 </r>
       </set>
       <set comment="band 5">
        <r>  0.0000  0.0000  0.0425  0.0000  0.0000  0.0160  0.0000  0.0478  0.0000 </r>
        <r>  0.0009  0.0860  0.0000  0.0497  0.3116  0.0000  0.0444  0.0000  0.2973 </r>
       </set>
       <set comment="band 6">
        <r>  0.0009  0.0860  0.0000  0.0497  0.3116  0.0000  0.0444  0.0000  0.2973 </r>
        <r>  0.0000  0.0000  0.0425  0.0000  0.0000  0.0160  0.0000  0.0478  0.0000 </r>
       </set>
       <set comment="band 7">
        <r>  0.0000  0.0000  0.0003  0.0000  0.0007  0.1881  0.0000  0.2672  0.0006 </r>
        <r>  0.0027  0.0060  0.0000  0.0025  0.2696  0.0005  0.0151  0.0007  0.2091 </r>
       </set>
       <set comment="band 8">
        <r>  0.0027  0.0060  0.0000  0.0025  0.2696  0.0005  0.0151  0.0007  0.2091 </r>
        <r>  0.0000  0.0000  0.0003  0.0000  0.0007  0.1881  0.0000  0.2672  0.0006 </r>
       </set>
       <set comment="band 9">
        <r>  0.0000  0.0000  0.0007  0.0000  0.0000  0.1605  0.0000  0.1279  0.0000 </r>
        <r>  0.0021  0.0010  0.0000  0.0003  0.0245  0.0000  0.6589  0.0000  0.0103 </r>
       </set>
       <set comment="band 10">
        <r>  0.0021  0.0010  0.0000  0.0003  0.0245  0.0000  0.6589  0.0000  0.0103 </r>
        <r>  0.0000  0.0000  0.0007  0.0000  0.0000  0.1605  0.0000  0.1279  0.0000 </r>
       </set>
       <set comment="band 11">
        <r>  0.0000  0.0001  0.1169  0.0000  0.0001  0.0451  0.0000  0.0189  0.0000 </r>
        <r>  0.0346  0.2091  0.0000  0.0831  0.2446  0.0000  0.0005  0.0000  0.1065 </r>
       </set>
       <set comment="band 12">
        <r>  0.0346  0.2091  0.0000  0.0831  0.2446  0.0000  0.0005  0.0000  0.1065 </r>
        <r>  0.0000  0.0001  0.1169  0.0000  0.0001  0.0451  0.0000  0.0189  0.0000 </r>
       </set>
       <set comment="band 13">
        <r>  0.0052  0.0965  0.0000  0.2426  0.0812  0.0000  0.0000  0.0000  0.2179 </r>
        <r>  0.0000  0.0000  0.0444  0.0000  0.0000  0.0790  0.0000  0.0575  0.0000 </r>
       </set>
       <set comment="band 14">
        <r>  0.0000  0.0000  0.0444  0.0000  0.0000  0.0790  0.0000  0.0575  0.0000 </r>
        <r>  0.0052  0.0965  0.0000  0.2426  0.0812  0.0000  0.0000  0.0000  0.2179 </r>
       </set>
       <set comment="band 15">
        <r>  0.4910  0.0383  0.0000  0.0128  0.0020  0.0000  0.0488  0.0000  0.0007 </r>
        <r>  0.0000  0.0000  0.0019  0.0000  0.0000  0.1076  0.0000  0.1354  0.0000 </r>
       </set>
       <set comment="band 16">
        <r>  0.0000  0.0000  0.0019  0.0000  0.0000  0.1076  0.0000  0.1354  0.0000 </r>
        <r>  0.4910  0.0383  0.0000  0.0128  0.0020  0.0000  0.0488  0.0000  0.0007 </r>
       </set>
      </set>
     </set>
    </set>
   </array>
  </projected>
 </calculation>
 <structure name="finalpos" >
  <crystal>
   <varray name="basis" >
    <v>       2.49246475       0.00000000       0.00000000 </v>
    <v>      -1.24623237       2.15853779       0.00000000 </v>
    <v>       0.00000000       0.00000000       4.03270652 </v>
   </varray>
   <i name="volume">     21.69628106 </i>
   <varray name="rec_basis" >
    <v>       0.40120929       0.23163829       0.00000000 </v>
    <v>       0.00000000       0.46327658       0.00000000 </v>
    <v>       0.00000000       0.00000000       0.24797242 </v>
   </varray>
  </crystal>
  <varray name="positions" >
   <v>       0.00000000       0.00000000       0.00000000 </v>
   <v>       0.33333333       0.66666667       0.50000000 </v>
  </varray>
 </structure>
</modeling>
