   1   1   0   0
  0.1081089E+02  0.2481945E-09  0.2481945E-09  0.2481945E-09  0.5000000E-15
  1.000000000000000E-004
  CAR 
 Co fcc                                  
     53.71074511     -0.83535098  301     10.40381543      1.00000000
     -0.835  0.0000E+00  0.0000E+00  0.0000E+00  0.0000E+00
     -0.654  0.0000E+00  0.0000E+00  0.0000E+00  0.0000E+00
     -0.472  0.0000E+00  0.0000E+00  0.0000E+00  0.0000E+00
     -0.290  0.0000E+00  0.0000E+00  0.0000E+00  0.0000E+00
     -0.108 -0.5886E-34 -0.1470E-34 -0.1070E-34 -0.2673E-35
      0.074 -0.1909E-27 -0.5514E-28 -0.3472E-28 -0.1003E-28
      0.256 -0.1170E-21 -0.3909E-22 -0.2127E-22 -0.7107E-23
      0.437 -0.1349E-16 -0.5216E-17 -0.2453E-17 -0.9484E-18
      0.619 -0.2803E-12 -0.1256E-12 -0.5097E-13 -0.2284E-13
      0.801 -0.1102E-08 -0.5726E-09 -0.2003E-09 -0.1041E-09
      0.983 -0.7761E-06 -0.4695E-06 -0.1413E-06 -0.8547E-07
      1.165 -0.9161E-04 -0.6511E-04 -0.1680E-04 -0.1192E-04
      1.346 -0.1344E-02 -0.1187E-02 -0.2611E-03 -0.2277E-03
      1.528  0.6012E-02  0.4090E-02  0.8320E-03  0.5158E-03
      1.710  0.3430E-01  0.3308E-01  0.7069E-02  0.6531E-02
      1.892  0.1345E-01  0.1653E-01  0.9515E-02  0.9536E-02
      2.074 -0.6014E-02 -0.5319E-02  0.8422E-02  0.8569E-02
      2.256  0.2519E-01  0.1558E-01  0.1300E-01  0.1140E-01
      2.437  0.1049E+00  0.1018E+00  0.3208E-01  0.2991E-01
      2.619  0.3121E-01  0.4395E-01  0.3775E-01  0.3790E-01
      2.801 -0.8210E-02 -0.9320E-02  0.3626E-01  0.3621E-01
      2.983  0.5912E-01  0.3680E-01  0.4701E-01  0.4290E-01
      3.165  0.9314E-01  0.1039E+00  0.6394E-01  0.6179E-01
      3.347  0.1334E-02  0.1765E-01  0.6419E-01  0.6500E-01
      3.528  0.3718E-01  0.4968E-03  0.7095E-01  0.6509E-01
      3.710  0.1381E+00  0.1152E+00  0.9605E-01  0.8604E-01
      3.892  0.2970E-01  0.8969E-01  0.1014E+00  0.1023E+00
      4.074  0.3180E-01 -0.1089E-01  0.1072E+00  0.1004E+00
      4.256  0.2017E+00  0.1051E+00  0.1439E+00  0.1195E+00
      4.437  0.1034E+00  0.1922E+00  0.1627E+00  0.1544E+00
      4.619  0.8990E-01  0.2518E-01  0.1791E+00  0.1590E+00
      4.801  0.4310E-01  0.8196E-01  0.1869E+00  0.1739E+00
      4.983  0.1496E+00  0.5958E-01  0.2141E+00  0.1847E+00
      5.165  0.3379E+00  0.1996E-01  0.2755E+00  0.1884E+00
      5.347  0.5171E+00  0.1701E+00  0.3696E+00  0.2193E+00
      5.528  0.6100E+00  0.1650E+00  0.4805E+00  0.2493E+00
      5.710  0.6490E+00  0.1882E+00  0.5985E+00  0.2835E+00
      5.892  0.6699E+00  0.2359E+00  0.7202E+00  0.3264E+00
      6.074  0.9477E+00  0.1344E+00  0.8926E+00  0.3508E+00
      6.256  0.9756E+00  0.2428E+00  0.1070E+01  0.3950E+00
      6.437  0.8435E+00  0.4629E+00  0.1223E+01  0.4791E+00
      6.619  0.8972E+00  0.4841E+00  0.1386E+01  0.5672E+00
      6.801  0.7992E+00  0.5184E+00  0.1532E+01  0.6614E+00
      6.983  0.6993E+00  0.3240E+00  0.1659E+01  0.7203E+00
      7.165  0.9905E+00  0.5012E+00  0.1839E+01  0.8115E+00
      7.347  0.1140E+01  0.8573E+00  0.2046E+01  0.9673E+00
      7.528  0.1205E+01  0.7414E+00  0.2265E+01  0.1102E+01
      7.710  0.1331E+01  0.7166E+00  0.2507E+01  0.1232E+01
      7.892  0.1646E+01  0.7300E+00  0.2807E+01  0.1365E+01
      8.074  0.1567E+01  0.7864E+00  0.3092E+01  0.1508E+01
      8.256  0.9485E+00  0.5440E+00  0.3264E+01  0.1607E+01
      8.437  0.9231E+00  0.6952E+00  0.3432E+01  0.1733E+01
      8.619  0.1385E+01  0.1104E+01  0.3684E+01  0.1934E+01
      8.801  0.1350E+01  0.1136E+01  0.3929E+01  0.2141E+01
      8.983  0.8862E+00  0.7337E+00  0.4090E+01  0.2274E+01
      9.165  0.1170E+01  0.1053E+01  0.4303E+01  0.2466E+01
      9.347  0.1131E+01  0.1044E+01  0.4509E+01  0.2655E+01
      9.528  0.1663E+01  0.1161E+01  0.4811E+01  0.2866E+01
      9.710  0.1554E+01  0.1272E+01  0.5093E+01  0.3098E+01
      9.892  0.7033E+00  0.8572E+00  0.5221E+01  0.3254E+01
     10.074  0.1681E+00  0.7202E+00  0.5252E+01  0.3385E+01
     10.256  0.2017E+00  0.7044E+00  0.5289E+01  0.3513E+01
     10.438  0.2786E+00  0.1097E+01  0.5339E+01  0.3712E+01
     10.619  0.1091E+00  0.1070E+01  0.5359E+01  0.3907E+01
     10.801  0.6700E-01  0.7395E+00  0.5371E+01  0.4041E+01
     10.983  0.9679E-01  0.1305E+01  0.5389E+01  0.4278E+01
     11.165  0.9455E-01  0.1037E+01  0.5406E+01  0.4467E+01
     11.347  0.2106E+00  0.1086E+01  0.5444E+01  0.4664E+01
     11.528  0.3621E+00  0.1697E+01  0.5510E+01  0.4973E+01
     11.710  0.1094E+00  0.1205E+01  0.5530E+01  0.5192E+01
     11.892 -0.1846E-01  0.5423E+00  0.5527E+01  0.5290E+01
     12.074  0.1297E+00  0.4761E+00  0.5550E+01  0.5377E+01
     12.256  0.1775E+00  0.1735E+00  0.5583E+01  0.5409E+01
     12.438  0.1977E-02  0.3887E-01  0.5583E+01  0.5416E+01
     12.619  0.4459E-01  0.9191E-01  0.5591E+01  0.5432E+01
     12.801  0.1800E+00  0.2213E+00  0.5624E+01  0.5473E+01
     12.983  0.1545E+00  0.2141E+00  0.5652E+01  0.5512E+01
     13.165  0.1823E+00  0.1721E+00  0.5685E+01  0.5543E+01
     13.347  0.4591E-01  0.2038E+00  0.5693E+01  0.5580E+01
     13.528  0.3774E-01  0.1422E+00  0.5700E+01  0.5606E+01
     13.710  0.3868E+00  0.1649E+00  0.5771E+01  0.5636E+01
     13.892  0.2127E+00  0.1425E+00  0.5809E+01  0.5662E+01
     14.074 -0.1705E-01  0.3569E-01  0.5806E+01  0.5668E+01
     14.256 -0.1364E-01  0.7454E-01  0.5804E+01  0.5682E+01
     14.438  0.8078E-01  0.8575E-01  0.5818E+01  0.5697E+01
     14.619  0.2065E+00  0.3268E+00  0.5856E+01  0.5757E+01
     14.801  0.3769E-01  0.2700E+00  0.5863E+01  0.5806E+01
     14.983 -0.9486E-02  0.7692E-02  0.5861E+01  0.5807E+01
     15.165 -0.1127E-01  0.1660E+00  0.5859E+01  0.5837E+01
     15.347  0.7264E-01  0.1383E+00  0.5872E+01  0.5862E+01
     15.528  0.2680E+00 -0.4162E-02  0.5921E+01  0.5862E+01
     15.710  0.1348E+00 -0.3787E-02  0.5945E+01  0.5861E+01
     15.892 -0.1409E-02 -0.1008E-01  0.5945E+01  0.5859E+01
     16.074 -0.7064E-02  0.3319E-01  0.5944E+01  0.5865E+01
     16.256 -0.3475E-02  0.2862E+00  0.5943E+01  0.5917E+01
     16.438  0.1407E+00  0.1633E+00  0.5969E+01  0.5947E+01
     16.619  0.1686E+00 -0.1078E-01  0.5999E+01  0.5945E+01
     16.801  0.8139E-01 -0.1124E-01  0.6014E+01  0.5943E+01
     16.983  0.1313E+00  0.3273E-01  0.6038E+01  0.5949E+01
     17.165  0.1628E+00  0.2042E+00  0.6068E+01  0.5986E+01
     17.347  0.2048E+00  0.8696E-01  0.6105E+01  0.6002E+01
     17.529  0.4064E-01 -0.1587E-01  0.6112E+01  0.5999E+01
     17.710  0.1534E+00  0.3189E-01  0.6140E+01  0.6005E+01
     17.892  0.1461E+00  0.1840E+00  0.6167E+01  0.6038E+01
     18.074  0.3504E-01  0.2754E+00  0.6173E+01  0.6088E+01
     18.256  0.1281E+00  0.1594E+00  0.6196E+01  0.6117E+01
     18.438  0.2107E+00  0.1919E+00  0.6235E+01  0.6152E+01
     18.619  0.1558E+00  0.9123E-01  0.6263E+01  0.6169E+01
     18.801  0.1870E+00  0.8476E-01  0.6297E+01  0.6184E+01
     18.983  0.9919E-01  0.8862E-01  0.6315E+01  0.6200E+01
     19.165  0.1209E+00  0.1574E+00  0.6337E+01  0.6229E+01
     19.347  0.1725E+00  0.3496E+00  0.6368E+01  0.6292E+01
     19.529  0.2288E-01  0.1279E+00  0.6373E+01  0.6316E+01
     19.710  0.1795E+00  0.3645E-01  0.6405E+01  0.6322E+01
     19.892  0.1210E+00  0.1976E+00  0.6427E+01  0.6358E+01
     20.074 -0.7377E-02  0.7164E-01  0.6426E+01  0.6371E+01
     20.256  0.6963E-01  0.1423E+00  0.6439E+01  0.6397E+01
     20.438  0.6273E-01  0.1607E+00  0.6450E+01  0.6426E+01
     20.619  0.1753E+00 -0.2119E-02  0.6482E+01  0.6426E+01
     20.801  0.4036E+00  0.1421E-01  0.6555E+01  0.6429E+01
     20.983  0.6072E-01  0.9212E-01  0.6566E+01  0.6445E+01
     21.165  0.1093E+00  0.7808E-01  0.6586E+01  0.6459E+01
     21.347  0.1702E+00  0.3026E+00  0.6617E+01  0.6514E+01
     21.529  0.2516E+00  0.2321E+00  0.6663E+01  0.6557E+01
     21.710  0.4296E+00  0.1420E+00  0.6741E+01  0.6583E+01
     21.892  0.1171E+00  0.1813E+00  0.6762E+01  0.6615E+01
     22.074  0.1481E+00  0.2040E+00  0.6789E+01  0.6653E+01
     22.256  0.2297E+00  0.3904E+00  0.6831E+01  0.6724E+01
     22.438  0.1937E+00  0.2688E+00  0.6866E+01  0.6772E+01
     22.619  0.7722E-01  0.1949E+00  0.6880E+01  0.6808E+01
     22.801  0.8919E-01  0.1253E+00  0.6896E+01  0.6831E+01
     22.983  0.2550E-02  0.1914E+00  0.6897E+01  0.6865E+01
     23.165  0.7063E-01  0.9159E-01  0.6910E+01  0.6882E+01
     23.347  0.3130E+00  0.8052E-01  0.6967E+01  0.6897E+01
     23.529  0.3013E+00 -0.1813E-02  0.7021E+01  0.6896E+01
     23.710  0.3913E+00  0.1840E+00  0.7093E+01  0.6930E+01
     23.892  0.2455E+00  0.3548E+00  0.7137E+01  0.6994E+01
     24.074  0.1465E+00  0.3726E+00  0.7164E+01  0.7062E+01
     24.256  0.6755E-01  0.4363E+00  0.7176E+01  0.7141E+01
     24.438 -0.4686E-02  0.6680E-01  0.7175E+01  0.7154E+01
     24.619  0.1382E+00  0.8687E-01  0.7200E+01  0.7169E+01
     24.801  0.1867E+00  0.3022E-01  0.7234E+01  0.7175E+01
     24.983  0.4163E+00  0.3154E-01  0.7310E+01  0.7181E+01
     25.165  0.4191E+00  0.2834E+00  0.7386E+01  0.7232E+01
     25.347  0.1067E+00  0.4406E+00  0.7406E+01  0.7312E+01
     25.529  0.4858E-01  0.3415E+00  0.7414E+01  0.7374E+01
     25.710  0.2408E+00  0.1400E+00  0.7458E+01  0.7400E+01
     25.892  0.3805E+00  0.9340E-01  0.7527E+01  0.7417E+01
     26.074  0.4568E+00  0.2688E+00  0.7611E+01  0.7466E+01
     26.256  0.2433E+00  0.3023E+00  0.7655E+01  0.7521E+01
     26.438  0.1186E+00  0.4602E+00  0.7676E+01  0.7604E+01
     26.620  0.4321E-01  0.2883E+00  0.7684E+01  0.7657E+01
     26.801  0.9269E-01  0.1118E+00  0.7701E+01  0.7677E+01
     26.983  0.2196E+00  0.5866E-01  0.7741E+01  0.7688E+01
     27.165  0.2468E+00  0.1569E+00  0.7786E+01  0.7716E+01
     27.347  0.3565E+00  0.1896E+00  0.7851E+01  0.7751E+01
     27.529  0.1712E+00  0.2587E+00  0.7882E+01  0.7798E+01
     27.710 -0.1045E-01  0.3304E+00  0.7880E+01  0.7858E+01
     27.892  0.9888E-01  0.1286E+00  0.7898E+01  0.7881E+01
     28.074  0.2923E+00  0.2075E-01  0.7951E+01  0.7885E+01
     28.256  0.2154E+00  0.1247E+00  0.7990E+01  0.7908E+01
     28.438  0.3644E-01  0.2576E+00  0.7997E+01  0.7954E+01
     28.620  0.1501E+00  0.1924E+00  0.8024E+01  0.7989E+01
     28.801  0.3692E+00  0.6770E-01  0.8091E+01  0.8002E+01
     28.983  0.3604E+00  0.3034E+00  0.8157E+01  0.8057E+01
     29.165  0.1884E+00  0.4267E+00  0.8191E+01  0.8135E+01
     29.347  0.1260E+00  0.2096E+00  0.8214E+01  0.8173E+01
     29.529  0.1976E+00  0.2037E+00  0.8250E+01  0.8210E+01
     29.710  0.2459E+00  0.1358E+00  0.8295E+01  0.8234E+01
     29.892  0.1777E-01  0.1963E+00  0.8298E+01  0.8270E+01
     30.074 -0.8379E-02  0.1496E+00  0.8296E+01  0.8297E+01
     30.256 -0.1161E-01 -0.1807E-02  0.8294E+01  0.8297E+01
     30.438  0.1754E-01 -0.1046E-01  0.8297E+01  0.8295E+01
     30.620  0.3711E+00  0.1557E-01  0.8365E+01  0.8298E+01
     30.801  0.3587E+00  0.2179E+00  0.8430E+01  0.8337E+01
     30.983  0.9501E-01  0.5419E+00  0.8447E+01  0.8436E+01
     31.165  0.2539E+00  0.1656E+00  0.8493E+01  0.8466E+01
     31.347  0.3141E+00 -0.1937E-02  0.8551E+01  0.8466E+01
     31.529  0.4045E+00  0.2555E+00  0.8624E+01  0.8512E+01
     31.710  0.1978E+00  0.3405E+00  0.8660E+01  0.8574E+01
     31.892 -0.1037E-01  0.3666E+00  0.8658E+01  0.8641E+01
     32.074  0.1888E+00  0.2748E+00  0.8693E+01  0.8691E+01
     32.256  0.4461E+00  0.1508E+00  0.8774E+01  0.8718E+01
     32.438  0.2962E+00  0.2399E+00  0.8827E+01  0.8762E+01
     32.620  0.4945E-01  0.3417E+00  0.8836E+01  0.8824E+01
     32.801  0.1185E-01  0.1113E+00  0.8839E+01  0.8844E+01
     32.983  0.7898E-01 -0.1477E-01  0.8853E+01  0.8841E+01
     33.165  0.3415E+00  0.1201E+00  0.8915E+01  0.8863E+01
     33.347  0.1953E+00  0.2256E+00  0.8951E+01  0.8904E+01
     33.529  0.1423E+00  0.2290E+00  0.8976E+01  0.8946E+01
     33.711  0.3494E+00  0.1925E+00  0.9040E+01  0.8981E+01
     33.892  0.2645E+00  0.3214E+00  0.9088E+01  0.9039E+01
     34.074  0.3848E+00  0.2145E+00  0.9158E+01  0.9078E+01
     34.256  0.3991E+00  0.4479E+00  0.9231E+01  0.9160E+01
     34.438  0.2200E+00  0.5249E+00  0.9271E+01  0.9255E+01
     34.620  0.1152E+00  0.8324E-01  0.9292E+01  0.9270E+01
     34.801  0.7910E-01  0.2233E-01  0.9306E+01  0.9274E+01
     34.983  0.5200E+00  0.1836E+00  0.9400E+01  0.9308E+01
     35.165  0.4774E+00  0.6761E+00  0.9487E+01  0.9431E+01
     35.347  0.3247E+00  0.4355E+00  0.9546E+01  0.9510E+01
     35.529  0.2669E+00  0.2074E+00  0.9595E+01  0.9548E+01
     35.711  0.7121E-01  0.8059E-01  0.9608E+01  0.9562E+01
     35.892  0.9375E-01  0.1466E+00  0.9625E+01  0.9589E+01
     36.074  0.1488E+00  0.7417E-01  0.9652E+01  0.9602E+01
     36.256  0.1631E+00  0.8009E-01  0.9682E+01  0.9617E+01
     36.438  0.2065E+00  0.1985E+00  0.9719E+01  0.9653E+01
     36.620  0.3599E+00  0.3073E+00  0.9785E+01  0.9709E+01
     36.801  0.3138E+00  0.4538E+00  0.9842E+01  0.9791E+01
     36.983  0.2814E+00  0.2814E+00  0.9893E+01  0.9843E+01
     37.165  0.9900E-01  0.1856E+00  0.9911E+01  0.9876E+01
     37.347  0.9803E-01  0.1860E+00  0.9929E+01  0.9910E+01
     37.529  0.9919E-01  0.9041E-01  0.9947E+01  0.9927E+01
     37.711  0.3588E+00  0.1481E+00  0.1001E+02  0.9954E+01
     37.892  0.2535E+00  0.4308E+00  0.1006E+02  0.1003E+02
     38.074 -0.8242E-02  0.1511E+00  0.1006E+02  0.1006E+02
     38.256 -0.4850E-02 -0.1883E-01  0.1006E+02  0.1006E+02
     38.438  0.5112E-01 -0.5801E-02  0.1006E+02  0.1005E+02
     38.620  0.4712E-01  0.2084E-01  0.1007E+02  0.1006E+02
     38.801  0.1600E+00  0.6505E-01  0.1010E+02  0.1007E+02
     38.983  0.3471E+00  0.5099E-02  0.1017E+02  0.1007E+02
     39.165  0.4564E+00  0.2151E+00  0.1025E+02  0.1011E+02
     39.347  0.1275E+00  0.3991E+00  0.1027E+02  0.1018E+02
     39.529  0.4697E-01  0.3226E+00  0.1028E+02  0.1024E+02
     39.711  0.6114E-01  0.2187E+00  0.1029E+02  0.1028E+02
     39.892  0.4020E+00  0.8437E-01  0.1036E+02  0.1030E+02
     40.074  0.8598E+00  0.2376E+00  0.1052E+02  0.1034E+02
     40.256  0.4632E+00  0.8654E+00  0.1061E+02  0.1050E+02
     40.438  0.2044E+00  0.7345E+00  0.1064E+02  0.1063E+02
     40.620  0.8262E-01  0.1009E+00  0.1066E+02  0.1065E+02
     40.802  0.1266E-01  0.4505E-01  0.1066E+02  0.1066E+02
     40.983  0.2152E+00 -0.6505E-02  0.1070E+02  0.1066E+02
     41.165  0.2054E+00  0.1399E+00  0.1074E+02  0.1068E+02
     41.347  0.2014E+00  0.2177E+00  0.1077E+02  0.1072E+02
     41.529  0.3082E+00  0.2358E+00  0.1083E+02  0.1076E+02
     41.711  0.1720E+00  0.3537E+00  0.1086E+02  0.1083E+02
     41.892  0.3532E+00  0.9982E-01  0.1092E+02  0.1085E+02
     42.074  0.2430E+00  0.2301E+00  0.1097E+02  0.1089E+02
     42.256  0.2271E+00  0.4495E+00  0.1101E+02  0.1097E+02
     42.438  0.1563E+00  0.2037E+00  0.1104E+02  0.1101E+02
     42.620  0.2966E+00  0.1545E+00  0.1109E+02  0.1104E+02
     42.802  0.1745E+00  0.2490E+00  0.1112E+02  0.1108E+02
     42.983  0.7326E-01  0.1511E+00  0.1114E+02  0.1111E+02
     43.165  0.2241E-02  0.7959E-01  0.1114E+02  0.1112E+02
     43.347  0.2940E+00  0.1611E+00  0.1119E+02  0.1115E+02
     43.529  0.4355E+00  0.4191E+00  0.1127E+02  0.1123E+02
     43.711  0.1529E+00  0.2720E+00  0.1130E+02  0.1128E+02
     43.892  0.1800E+00 -0.3352E-02  0.1133E+02  0.1128E+02
     44.074  0.3563E+00  0.3711E-02  0.1140E+02  0.1128E+02
     44.256  0.3503E+00  0.4235E+00  0.1146E+02  0.1135E+02
     44.438  0.7453E-01  0.5569E+00  0.1147E+02  0.1146E+02
     44.620  0.7559E-01  0.1086E+00  0.1149E+02  0.1148E+02
     44.802  0.2715E+00  0.5438E-01  0.1154E+02  0.1149E+02
     44.983  0.1077E+00  0.7387E-01  0.1156E+02  0.1150E+02
     45.165  0.1626E+00  0.5871E-01  0.1158E+02  0.1151E+02
     45.347  0.2801E+00  0.2003E+00  0.1164E+02  0.1155E+02
     45.529  0.2682E-01  0.2715E+00  0.1164E+02  0.1160E+02
     45.711 -0.1116E-01  0.2168E+00  0.1164E+02  0.1163E+02
     45.892 -0.9710E-02  0.3123E-01  0.1164E+02  0.1164E+02
     46.074  0.8843E-01 -0.1060E-01  0.1165E+02  0.1164E+02
     46.256  0.2009E+00 -0.1259E-01  0.1169E+02  0.1164E+02
     46.438  0.1440E+00  0.1161E+00  0.1172E+02  0.1166E+02
     46.620  0.2464E+00  0.2958E+00  0.1176E+02  0.1171E+02
     46.802  0.1985E+00  0.6963E-01  0.1180E+02  0.1172E+02
     46.983  0.1849E+00 -0.1661E-01  0.1183E+02  0.1172E+02
     47.165 -0.1567E-02  0.1367E+00  0.1183E+02  0.1175E+02
     47.347  0.1490E+00  0.2880E+00  0.1186E+02  0.1180E+02
     47.529  0.5833E+00  0.1911E+00  0.1196E+02  0.1183E+02
     47.711  0.2279E+00  0.9433E-02  0.1200E+02  0.1183E+02
     47.892 -0.1998E-01 -0.8352E-02  0.1200E+02  0.1183E+02
     48.074 -0.4733E-02 -0.1206E-01  0.1200E+02  0.1183E+02
     48.256 -0.9993E-04  0.1132E+00  0.1200E+02  0.1185E+02
     48.438 -0.3590E-06  0.2910E+00  0.1200E+02  0.1190E+02
     48.620 -0.2352E-09  0.8256E-01  0.1200E+02  0.1192E+02
     48.802 -0.2863E-13  0.7876E-01  0.1200E+02  0.1193E+02
     48.983  0.0000E+00  0.6393E-01  0.1200E+02  0.1195E+02
     49.165  0.0000E+00 -0.2779E-02  0.1200E+02  0.1194E+02
     49.347  0.0000E+00 -0.1456E-02  0.1200E+02  0.1194E+02
     49.529  0.0000E+00 -0.3275E-04  0.1200E+02  0.1194E+02
     49.711  0.0000E+00 -0.1131E-06  0.1200E+02  0.1194E+02
     49.893  0.0000E+00 -0.6834E-10  0.1200E+02  0.1194E+02
     50.074  0.0000E+00 -0.1663E-12  0.1200E+02  0.1194E+02
     50.256  0.0000E+00 -0.8534E-09  0.1200E+02  0.1194E+02
     50.438  0.0000E+00 -0.8363E-06  0.1200E+02  0.1194E+02
     50.620  0.0000E+00 -0.1439E-03  0.1200E+02  0.1194E+02
     50.802  0.0000E+00 -0.3753E-02  0.1200E+02  0.1194E+02
     50.983  0.0000E+00  0.2492E-02  0.1200E+02  0.1194E+02
     51.165  0.0000E+00  0.1352E+00  0.1200E+02  0.1197E+02
     51.347  0.0000E+00  0.1629E+00  0.1200E+02  0.1200E+02
     51.529  0.0000E+00  0.1453E-01  0.1200E+02  0.1200E+02
     51.711  0.0000E+00 -0.5287E-02  0.1200E+02  0.1200E+02
     51.893  0.0000E+00 -0.3002E-03  0.1200E+02  0.1200E+02
     52.074  0.0000E+00 -0.2408E-05  0.1200E+02  0.1200E+02
     52.256  0.0000E+00 -0.3349E-08  0.1200E+02  0.1200E+02
     52.438  0.0000E+00 -0.8455E-12  0.1200E+02  0.1200E+02
     52.620  0.0000E+00 -0.3392E-16  0.1200E+02  0.1200E+02
     52.802  0.0000E+00  0.0000E+00  0.1200E+02  0.1200E+02
     52.983  0.0000E+00  0.0000E+00  0.1200E+02  0.1200E+02
     53.165  0.0000E+00  0.0000E+00  0.1200E+02  0.1200E+02
     53.347  0.0000E+00  0.0000E+00  0.1200E+02  0.1200E+02
     53.529  0.0000E+00  0.0000E+00  0.1200E+02  0.1200E+02
     53.711  0.0000E+00  0.0000E+00  0.1200E+02  0.1200E+02
