<?xml version="1.0" encoding="ISO-8859-1"?>
<modeling>
 <generator>
  <i name="program" type="string">vasp </i>
  <i name="version" type="string">6.3.2  </i>
  <i name="subversion" type="string">27Jun22 (build Aug 12 2022 00:53:59) complex                          parallel </i>
  <i name="platform" type="string">tv2STD </i>
  <i name="date" type="string">2024 11 30 </i>
  <i name="time" type="string">15:06:34 </i>
 </generator>
 <incar>
  <i type="string" name="SYSTEM">Co fcc</i>
  <i type="int" name="ISTART">     0</i>
  <i type="string" name="PREC">Accurate      normal | accurate</i>
  <i type="string" name="ALGO">Normal     Normal, Fast, Very_Fast</i>
  <i type="logical" name="ADDGRID"> F  </i>
  <i type="int" name="ISPIN">     2</i>
  <i type="int" name="ICHARG">     2</i>
  <i type="int" name="INIWAV">     1</i>
  <i type="int" name="NELM">   100</i>
  <i type="int" name="IBRION">    -1</i>
  <i name="EDIFF">      0.00000100</i>
  <i name="EDIFFG">     -0.02000000</i>
  <i type="int" name="NSW">     0</i>
  <i type="int" name="ISIF">     2</i>
  <i type="int" name="ISYM">     1</i>
  <i name="ENCUT">    375.00000000</i>
  <v name="MAGMOM">      3.00000000</v>
  <i type="logical" name="LREAL"> F  </i>
  <i type="int" name="ISMEAR">     1</i>
  <i name="SIGMA">      0.20000000</i>
  <i type="int" name="NWRITE">     2</i>
  <i type="logical" name="LWAVE"> F  </i>
  <i type="logical" name="LCHARG"> F  </i>
 </incar>
 <primitive_cell>
  <structure name="primitive_cell" >
   <crystal>
    <varray name="basis" >
     <v>       0.00000000       1.75500000       1.75500000 </v>
     <v>       1.75500000       0.00000000       1.75500000 </v>
     <v>       1.75500000       1.75500000       0.00000000 </v>
    </varray>
    <i name="volume">     10.81088775 </i>
    <varray name="rec_basis" >
     <v>      -0.28490028       0.28490028       0.28490028 </v>
     <v>       0.28490028      -0.28490028       0.28490028 </v>
     <v>       0.28490028       0.28490028      -0.28490028 </v>
    </varray>
   </crystal>
   <varray name="positions" >
    <v>       0.00000000       0.00000000       0.00000000 </v>
   </varray>
  </structure>
  <varray name="primitive_index" >
   <v type="int" >        1 </v>
  </varray>
 </primitive_cell>
 <kpoints>
  <generation param="Monkhorst-Pack">
   <v type="int" name="divisions">       6        6        6 </v>
   <v name="usershift">      0.00000000       0.00000000       0.00000000 </v>
   <v name="genvec1">      0.16666667       0.00000000       0.00000000 </v>
   <v name="genvec2">      0.00000000       0.16666667       0.00000000 </v>
   <v name="genvec3">      0.00000000       0.00000000       0.16666667 </v>
   <v name="shift">      0.50000000       0.50000000       0.50000000 </v>
  </generation>
  <varray name="kpointlist" >
   <v>       0.08333333       0.08333333       0.08333333 </v>
   <v>       0.25000000       0.08333333       0.08333333 </v>
   <v>       0.41666667       0.08333333       0.08333333 </v>
   <v>      -0.41666667       0.08333333       0.08333333 </v>
   <v>      -0.25000000       0.08333333       0.08333333 </v>
   <v>      -0.08333333       0.08333333       0.08333333 </v>
   <v>       0.25000000       0.25000000       0.08333333 </v>
   <v>       0.41666667       0.25000000       0.08333333 </v>
   <v>      -0.41666667       0.25000000       0.08333333 </v>
   <v>      -0.25000000       0.25000000       0.08333333 </v>
   <v>      -0.08333333       0.25000000       0.08333333 </v>
   <v>       0.41666667       0.41666667       0.08333333 </v>
   <v>      -0.41666667       0.41666667       0.08333333 </v>
   <v>      -0.25000000       0.41666667       0.08333333 </v>
   <v>      -0.08333333       0.41666667       0.08333333 </v>
   <v>      -0.41666667      -0.41666667       0.08333333 </v>
   <v>      -0.25000000      -0.41666667       0.08333333 </v>
   <v>      -0.25000000      -0.25000000       0.08333333 </v>
   <v>       0.25000000       0.25000000       0.25000000 </v>
   <v>       0.41666667       0.25000000       0.25000000 </v>
   <v>      -0.41666667       0.25000000       0.25000000 </v>
   <v>      -0.25000000       0.25000000       0.25000000 </v>
   <v>       0.41666667       0.41666667       0.25000000 </v>
   <v>      -0.41666667       0.41666667       0.25000000 </v>
   <v>      -0.25000000       0.41666667       0.25000000 </v>
   <v>      -0.41666667      -0.41666667       0.25000000 </v>
   <v>       0.41666667       0.41666667       0.41666667 </v>
   <v>      -0.41666667       0.41666667       0.41666667 </v>
  </varray>
  <varray name="weights" >
   <v>       0.00925926 </v>
   <v>       0.02777778 </v>
   <v>       0.02777778 </v>
   <v>       0.02777778 </v>
   <v>       0.02777778 </v>
   <v>       0.02777778 </v>
   <v>       0.02777778 </v>
   <v>       0.05555556 </v>
   <v>       0.05555556 </v>
   <v>       0.05555556 </v>
   <v>       0.05555556 </v>
   <v>       0.02777778 </v>
   <v>       0.05555556 </v>
   <v>       0.05555556 </v>
   <v>       0.05555556 </v>
   <v>       0.02777778 </v>
   <v>       0.05555556 </v>
   <v>       0.02777778 </v>
   <v>       0.00925926 </v>
   <v>       0.02777778 </v>
   <v>       0.02777778 </v>
   <v>       0.02777778 </v>
   <v>       0.02777778 </v>
   <v>       0.05555556 </v>
   <v>       0.05555556 </v>
   <v>       0.02777778 </v>
   <v>       0.00925926 </v>
   <v>       0.02777778 </v>
  </varray>
 </kpoints>
 <parameters>
  <separator name="general" >
   <i type="string" name="SYSTEM">Co fcc</i>
   <i type="logical" name="LCOMPAT"> F  </i>
  </separator>
  <separator name="electronic" >
   <i type="string" name="PREC">accura</i>
   <i name="ENMAX">    375.00000000</i>
   <i name="ENAUG">    477.81800000</i>
   <i name="EDIFF">      0.00000100</i>
   <i type="int" name="IALGO">    38</i>
   <i type="int" name="IWAVPR">    10</i>
   <i type="int" name="NBANDS">    12</i>
   <i type="int" name="NBANDSLOW">    -1</i>
   <i type="int" name="NBANDSHIGH">    -1</i>
   <i name="NELECT">      9.00000000</i>
   <i type="int" name="TURBO">     0</i>
   <i type="int" name="IRESTART">     0</i>
   <i type="int" name="NREBOOT">     0</i>
   <i type="int" name="NMIN">     0</i>
   <i name="EREF">      0.00000000</i>
   <separator name="electronic smearing" >
    <i type="int" name="ISMEAR">     1</i>
    <i name="SIGMA">      0.20000000</i>
    <i name="KSPACING">      0.50000000</i>
    <i type="logical" name="KGAMMA"> T  </i>
    <i type="logical" name="KBLOWUP"> T  </i>
   </separator>
   <separator name="electronic projectors" >
    <i type="logical" name="LREAL"> F  </i>
    <v name="ROPT">      0.00000000</v>
    <i type="int" name="LMAXPAW">  -100</i>
    <i type="int" name="LMAXMIX">     2</i>
    <i type="logical" name="NLSPLINE"> F  </i>
   </separator>
   <separator name="electronic startup" >
    <i type="int" name="ISTART">     0</i>
    <i type="int" name="ICHARG">     2</i>
    <i type="int" name="INIWAV">     1</i>
   </separator>
   <separator name="electronic spin" >
    <i type="int" name="ISPIN">     2</i>
    <i type="logical" name="LNONCOLLINEAR"> F  </i>
    <v name="MAGMOM">      3.00000000</v>
    <i name="NUPDOWN">     -1.00000000</i>
    <i type="logical" name="LSORBIT"> F  </i>
    <v name="SAXIS">      0.00000000      0.00000000      1.00000000</v>
    <i type="logical" name="LSPIRAL"> F  </i>
    <v name="QSPIRAL">      0.00000000      0.00000000      0.00000000</v>
    <i type="logical" name="LZEROZ"> F  </i>
   </separator>
   <separator name="electronic exchange-correlation" >
    <i type="logical" name="LASPH"> F  </i>
    <i type="logical" name="LMETAGGA"> F  </i>
   </separator>
   <separator name="electronic convergence" >
    <i type="int" name="NELM">   100</i>
    <i type="int" name="NELMDL">    -5</i>
    <i type="int" name="NELMIN">     2</i>
    <i name="ENINI">    375.00000000</i>
    <separator name="electronic convergence detail" >
     <i type="logical" name="LDIAG"> T  </i>
     <i type="logical" name="LSUBROT"> F  </i>
     <i name="WEIMIN">      0.00000000</i>
     <i name="EBREAK">      0.00000002</i>
     <i name="DEPER">      0.30000000</i>
     <i type="int" name="NRMM">     4</i>
     <i name="TIME">      0.40000000</i>
    </separator>
   </separator>
   <separator name="electronic mixer" >
    <i name="AMIX">      0.40000000</i>
    <i name="BMIX">      1.00000000</i>
    <i name="AMIN">      0.10000000</i>
    <i name="AMIX_MAG">      1.60000000</i>
    <i name="BMIX_MAG">      1.00000000</i>
    <separator name="electronic mixer details" >
     <i type="int" name="IMIX">     4</i>
     <i type="logical" name="MIXFIRST"> F  </i>
     <i type="int" name="MAXMIX">   -45</i>
     <i name="WC">    100.00000000</i>
     <i type="int" name="INIMIX">     1</i>
     <i type="int" name="MIXPRE">     1</i>
     <i type="int" name="MREMOVE">     5</i>
    </separator>
   </separator>
   <separator name="electronic dipolcorrection" >
    <i type="logical" name="LDIPOL"> F  </i>
    <i type="logical" name="LMONO"> F  </i>
    <i type="int" name="IDIPOL">     0</i>
    <i name="EPSILON">      1.00000000</i>
    <v name="DIPOL">   -100.00000000   -100.00000000   -100.00000000</v>
    <i name="EFIELD">      0.00000000</i>
   </separator>
  </separator>
  <separator name="grids" >
   <i type="int" name="NGX">    16</i>
   <i type="int" name="NGY">    16</i>
   <i type="int" name="NGZ">    16</i>
   <i type="int" name="NGXF">    32</i>
   <i type="int" name="NGYF">    32</i>
   <i type="int" name="NGZF">    32</i>
   <i type="logical" name="ADDGRID"> F  </i>
  </separator>
  <separator name="ionic" >
   <i type="int" name="NSW">     0</i>
   <i type="int" name="IBRION">    -1</i>
   <i type="int" name="MDALGO">     0</i>
   <i type="int" name="ISIF">     2</i>
   <i name="PSTRESS">      0.00000000</i>
   <i name="EDIFFG">     -0.02000000</i>
   <i type="int" name="NFREE">     0</i>
   <i name="POTIM">      0.50000000</i>
   <i name="SMASS">     -3.00000000</i>
   <i name="SCALEE">      1.00000000</i>
  </separator>
  <separator name="ionic md" >
   <i name="TEBEG">      0.00010000</i>
   <i name="TEEND">      0.00010000</i>
   <i type="int" name="NBLOCK">     1</i>
   <i type="int" name="KBLOCK">     1</i>
   <i type="int" name="NPACO">   256</i>
   <i name="APACO">     10.00000000</i>
  </separator>
  <separator name="symmetry" >
   <i type="int" name="ISYM">     1</i>
   <i name="SYMPREC">      0.00001000</i>
  </separator>
  <separator name="dos" >
   <i type="int" name="LORBIT">     0</i>
   <v name="RWIGS">     -1.00000000</v>
   <i type="int" name="NEDOS">   301</i>
   <i name="EMIN">     10.00000000</i>
   <i name="EMAX">    -10.00000000</i>
   <i name="EFERMI">      0.00000000</i>
  </separator>
  <separator name="writing" >
   <i type="int" name="NWRITE">     2</i>
   <i type="logical" name="LWAVE"> F  </i>
   <i type="logical" name="LDOWNSAMPLE"> F  </i>
   <i type="logical" name="LCHARG"> F  </i>
   <i type="logical" name="LPARD"> F  </i>
   <i type="logical" name="LVTOT"> F  </i>
   <i type="logical" name="LVHAR"> F  </i>
   <i type="logical" name="LELF"> F  </i>
   <i type="logical" name="LOPTICS"> F  </i>
   <v name="STM">      0.00000000      0.00000000      0.00000000      0.00000000      0.00000000      0.00000000      0.00000000</v>
  </separator>
  <separator name="performance" >
   <i type="int" name="NPAR">     4</i>
   <i type="int" name="NSIM">     4</i>
   <i type="int" name="NBLK">    -1</i>
   <i type="logical" name="LPLANE"> T  </i>
   <i type="logical" name="LSCALAPACK"> T  </i>
   <i type="logical" name="LSCAAWARE"> T  </i>
   <i type="logical" name="LSCALU"> F  </i>
   <i type="logical" name="LASYNC"> F  </i>
   <i type="logical" name="LORBITALREAL"> F  </i>
  </separator>
  <separator name="miscellaneous" >
   <i type="int" name="IDIOT">     3</i>
   <i type="int" name="PHON_NSTRUCT">    -1</i>
   <i type="logical" name="LMUSIC"> F  </i>
   <v name="POMASS">     58.93300000</v>
   <v name="DARWINR">      0.00000000</v>
   <v name="DARWINV">      1.00000000</v>
   <i type="logical" name="LCORR"> T  </i>
  </separator>
  <i type="logical" name="GGA_COMPAT"> T  </i>
  <i type="logical" name="LBERRY"> F  </i>
  <i type="int" name="ICORELEVEL">     0</i>
  <i type="logical" name="LDAU"> F  </i>
  <i type="int" name="I_CONSTRAINED_M">     0</i>
  <separator name="electronic exchange-correlation" >
   <i type="string" name="GGA">--</i>
   <i type="int" name="VOSKOWN">     0</i>
   <i type="logical" name="LHFCALC"> F  </i>
   <i type="string" name="PRECFOCK"></i>
   <i type="logical" name="LSYMGRAD"> F  </i>
   <i type="logical" name="LHFONE"> F  </i>
   <i type="logical" name="LRHFCALC"> F  </i>
   <i type="logical" name="LTHOMAS"> F  </i>
   <i type="logical" name="LMODELHF"> F  </i>
   <i type="logical" name="LFOCKACE"> F  </i>
   <i name="ENCUT4O">     -1.00000000</i>
   <i type="int" name="EXXOEP">     0</i>
   <i type="int" name="FOURORBIT">     0</i>
   <i name="AEXX">      0.00000000</i>
   <i name="HFALPHA">      0.00000000</i>
   <i name="MCALPHA">      0.00000000</i>
   <i name="ALDAX">      1.00000000</i>
   <i name="AGGAX">      1.00000000</i>
   <i name="ALDAC">      1.00000000</i>
   <i name="AGGAC">      1.00000000</i>
   <i type="int" name="NKREDX">     1</i>
   <i type="int" name="NKREDY">     1</i>
   <i type="int" name="NKREDZ">     1</i>
   <i type="logical" name="SHIFTRED"> F  </i>
   <i type="logical" name="ODDONLY"> F  </i>
   <i type="logical" name="EVENONLY"> F  </i>
   <i type="int" name="LMAXFOCK">     0</i>
   <i type="int" name="NMAXFOCKAE">     0</i>
   <i type="logical" name="LFOCKAEDFT"> F  </i>
   <i name="HFSCREEN">      0.00000000</i>
   <i name="HFSCREENC">      0.00000000</i>
   <i type="int" name="NBANDSGWLOW">     0</i>
  </separator>
  <separator name="vdW DFT" >
   <i type="logical" name="LUSE_VDW"> F  </i>
   <i name="Zab_VDW">     -0.84910000</i>
   <i name="PARAM1">      0.12340000</i>
   <i name="PARAM2">      1.00000000</i>
   <i name="PARAM3">      0.00000000</i>
  </separator>
  <separator name="model GW" >
   <i type="int" name="MODEL_GW">     0</i>
   <i name="MODEL_EPS0">      6.48653265</i>
   <i name="MODEL_ALPHA">      1.00000000</i>
  </separator>
  <separator name="linear response parameters" >
   <i type="logical" name="LEPSILON"> F  </i>
   <i type="logical" name="LRPA"> F  </i>
   <i type="logical" name="LNABLA"> F  </i>
   <i type="logical" name="LVEL"> F  </i>
   <i name="CSHIFT">      0.10000000</i>
   <i name="OMEGAMAX">     -1.00000000</i>
   <i name="DEG_THRESHOLD">      0.00200000</i>
   <i name="RTIME">     -0.10000000</i>
   <i name="WPLASMAI">      0.00000000</i>
   <v name="DFIELD">      0.00000000      0.00000000      0.00000000</v>
   <v name="WPLASMA">      0.00000000      0.00000000      0.00000000      0.00000000      0.00000000      0.00000000      0.00000000      0.00000000      0.00000000</v>
  </separator>
  <separator name="orbital magnetization" >
   <i type="logical" name="NUCIND"> F  </i>
   <v name="MAGPOS">      0.00000000      0.00000000      0.00000000</v>
   <i type="logical" name="LNICSALL"> T  </i>
   <i type="logical" name="ORBITALMAG"> F  </i>
   <i type="logical" name="LMAGBLOCH"> F  </i>
   <i type="logical" name="LCHIMAG"> F  </i>
   <i type="logical" name="LGAUGE"> T  </i>
   <i type="int" name="MAGATOM">     0</i>
   <v name="MAGDIPOL">      0.00000000      0.00000000      0.00000000</v>
   <v name="AVECCONST">      0.00000000      0.00000000      0.00000000</v>
  </separator>
  <separator name="response functions" >
   <i type="logical" name="LFINITE_TEMPERATURE"> F  </i>
   <i type="logical" name="LADDER"> F  </i>
   <i type="logical" name="LRPAFORCE"> F  </i>
   <i type="logical" name="LFXC"> F  </i>
   <i type="logical" name="LHARTREE"> T  </i>
   <i type="int" name="IBSE">     0</i>
   <v type="int" name="KPOINT">    -1     0     0     0</v>
   <i type="logical" name="LTCTC"> F  </i>
   <i type="logical" name="LTCTE"> F  </i>
   <i type="logical" name="LTETE"> F  </i>
   <i type="logical" name="LTRIPLET"> F  </i>
   <i type="logical" name="LFXCEPS"> F  </i>
   <i type="logical" name="LFXHEG"> F  </i>
   <i type="int" name="NATURALO">     2</i>
   <i type="logical" name="LHOLEGF"> F  </i>
   <i type="logical" name="L2ORDER"> F  </i>
   <i type="logical" name="LDMP1"> F  </i>
   <i type="logical" name="LMP2LT"> F  </i>
   <i type="logical" name="LSMP2LT"> F  </i>
   <i type="logical" name="LGWLF"> F  </i>
   <i name="ENCUTGW">     -2.00000000</i>
   <i name="ENCUTGWSOFT">     -2.00000000</i>
   <i name="ENCUTLF">     -1.00000000</i>
   <i type="logical" name="LESF_SPLINES"> F  </i>
   <i type="int" name="LMAXMP2">    -1</i>
   <i name="SCISSOR">      0.00000000</i>
   <i type="int" name="NOMEGA">     0</i>
   <i type="int" name="NOMEGAR">     0</i>
   <i type="int" name="NBANDSGW">    -1</i>
   <i type="int" name="NBANDSO">    -1</i>
   <i type="int" name="NBANDSV">    -1</i>
   <i type="int" name="NELMGW">     1</i>
   <i type="int" name="NELMHF">     1</i>
   <i type="int" name="DIM">     3</i>
   <i type="int" name="IESPILON">     4</i>
   <i type="int" name="ANTIRES">     0</i>
   <i name="OMEGAMAX">    -30.00000000</i>
   <i name="OMEGAMIN">    -30.00000000</i>
   <i name="OMEGATL">   -200.00000000</i>
   <i type="int" name="OMEGAGRID">     0</i>
   <i name="CSHIFT">     -0.10000000</i>
   <i type="logical" name="LSELFENERGY"> F  </i>
   <i type="logical" name="LSPECTRAL"> F  </i>
   <i type="logical" name="LSPECTRALGW"> F  </i>
   <i type="logical" name="LSINGLES"> F  </i>
   <i type="logical" name="LFERMIGW"> F  </i>
   <i type="logical" name="ODDONLYGW"> F  </i>
   <i type="logical" name="EVENONLYGW"> F  </i>
   <i type="int" name="NKREDLFX">     1</i>
   <i type="int" name="NKREDLFY">     1</i>
   <i type="int" name="NKREDLFZ">     1</i>
   <i type="int" name="MAXMEM">  2800</i>
   <i type="int" name="TELESCOPE">     0</i>
   <i type="int" name="NTAUPAR">    -1</i>
   <i type="int" name="NOMEGAPAR">    -1</i>
   <i name="DAMP_NEWTON">      0.80000001</i>
   <i name="LAMBDA">      1.00000000</i>
  </separator>
  <separator name="External order field" >
   <i name="OFIELD_KAPPA">      0.00000000</i>
   <v name="OFIELD_K">      0.00000000      0.00000000      0.00000000</v>
   <i name="OFIELD_Q6_NEAR">      0.00000000</i>
   <i name="OFIELD_Q6_FAR">      0.00000000</i>
   <i name="OFIELD_A">      0.00000000</i>
  </separator>
  <separator name="optional k-points parameters" >
   <i type="int" name="KPOINTS_OPT_MODE">     1</i>
   <i type="logical" name="LKPOINTS_OPT"> F  </i>
  </separator>
 </parameters>
 <atominfo>
  <atoms>       1 </atoms>
  <types>       1 </types>
  <array name="atoms" >
   <dimension dim="1">ion</dimension>
   <field type="string">element</field>
   <field type="int">atomtype</field>
   <set>
    <rc><c>Co</c><c>   1</c></rc>
   </set>
  </array>
  <array name="atomtypes" >
   <dimension dim="1">type</dimension>
   <field type="int">atomspertype</field>
   <field type="string">element</field>
   <field>mass</field>
   <field>valence</field>
   <field type="string">pseudopotential</field>
   <set>
    <rc><c>   1</c><c>Co</c><c>     58.93300000</c><c>      9.00000000</c><c>  PAW_PBE Co 02Aug2007                  </c></rc>
   </set>
  </array>
 </atominfo>
 <structure name="initialpos" >
  <crystal>
   <varray name="basis" >
    <v>       0.00000000       1.75500000       1.75500000 </v>
    <v>       1.75500000       0.00000000       1.75500000 </v>
    <v>       1.75500000       1.75500000       0.00000000 </v>
   </varray>
   <i name="volume">     10.81088775 </i>
   <varray name="rec_basis" >
    <v>      -0.28490028       0.28490028       0.28490028 </v>
    <v>       0.28490028      -0.28490028       0.28490028 </v>
    <v>       0.28490028       0.28490028      -0.28490028 </v>
   </varray>
  </crystal>
  <varray name="positions" >
   <v>       0.00000000       0.00000000       0.00000000 </v>
  </varray>
 </structure>
 <calculation>
  <scstep>
   <time name="dav">    0.13    0.13</time>
   <time name="total">    0.14    0.14</time>
   <energy>
    <i name="alphaZ">     39.18058524 </i>
    <i name="ewald">   -761.78120824 </i>
    <i name="hartreedc">   -149.59159932 </i>
    <i name="XCdc">     17.82600435 </i>
    <i name="pawpsdc">    719.99081943 </i>
    <i name="pawaedc">   -772.94345096 </i>
    <i name="eentropy">     -0.00729337 </i>
    <i name="bandstr">    117.87103366 </i>
    <i name="atom">    813.35207370 </i>
    <i name="e_fr_energy">     23.89696449 </i>
    <i name="e_wo_entrp">     23.90425786 </i>
    <i name="e_0_energy">     23.89939561 </i>
   </energy>
  </scstep>
  <scstep>
   <time name="dav">    0.13    0.13</time>
   <time name="total">    0.13    0.13</time>
   <energy>
    <i name="e_fr_energy">     -7.02084604 </i>
    <i name="e_wo_entrp">     -7.02113208 </i>
    <i name="e_0_energy">     -7.02094138 </i>
   </energy>
  </scstep>
  <scstep>
   <time name="dav">    0.13    0.13</time>
   <time name="total">    0.13    0.13</time>
   <energy>
    <i name="e_fr_energy">     -7.79736226 </i>
    <i name="e_wo_entrp">     -7.79875660 </i>
    <i name="e_0_energy">     -7.79782704 </i>
   </energy>
  </scstep>
  <scstep>
   <time name="dav">    0.13    0.13</time>
   <time name="total">    0.13    0.13</time>
   <energy>
    <i name="e_fr_energy">     -7.80519819 </i>
    <i name="e_wo_entrp">     -7.80657770 </i>
    <i name="e_0_energy">     -7.80565803 </i>
   </energy>
  </scstep>
  <scstep>
   <time name="dav">    0.14    0.14</time>
   <time name="total">    0.15    0.15</time>
   <energy>
    <i name="e_fr_energy">     -7.80539733 </i>
    <i name="e_wo_entrp">     -7.80677600 </i>
    <i name="e_0_energy">     -7.80585689 </i>
   </energy>
  </scstep>
  <scstep>
   <time name="dav">    0.14    0.14</time>
   <time name="total">    0.16    0.16</time>
   <energy>
    <i name="e_fr_energy">     -7.19433156 </i>
    <i name="e_wo_entrp">     -7.18868198 </i>
    <i name="e_0_energy">     -7.19244837 </i>
   </energy>
  </scstep>
  <scstep>
   <time name="dav">    0.14    0.14</time>
   <time name="total">    0.15    0.15</time>
   <energy>
    <i name="e_fr_energy">     -7.03493797 </i>
    <i name="e_wo_entrp">     -7.02930473 </i>
    <i name="e_0_energy">     -7.03306022 </i>
   </energy>
  </scstep>
  <scstep>
   <time name="dav">    0.14    0.14</time>
   <time name="total">    0.16    0.16</time>
   <energy>
    <i name="e_fr_energy">     -7.02456679 </i>
    <i name="e_wo_entrp">     -7.02003647 </i>
    <i name="e_0_energy">     -7.02305669 </i>
   </energy>
  </scstep>
  <scstep>
   <time name="dav">    0.15    0.15</time>
   <time name="total">    0.17    0.17</time>
   <energy>
    <i name="e_fr_energy">     -7.01832866 </i>
    <i name="e_wo_entrp">     -7.01435215 </i>
    <i name="e_0_energy">     -7.01700316 </i>
   </energy>
  </scstep>
  <scstep>
   <time name="dav">    0.17    0.17</time>
   <time name="total">    0.19    0.19</time>
   <energy>
    <i name="e_fr_energy">     -7.01800699 </i>
    <i name="e_wo_entrp">     -7.01382204 </i>
    <i name="e_0_energy">     -7.01661201 </i>
   </energy>
  </scstep>
  <scstep>
   <time name="dav">    0.15    0.15</time>
   <time name="total">    0.17    0.17</time>
   <energy>
    <i name="e_fr_energy">     -7.01801194 </i>
    <i name="e_wo_entrp">     -7.01362677 </i>
    <i name="e_0_energy">     -7.01655022 </i>
   </energy>
  </scstep>
  <scstep>
   <time name="dav">    0.12    0.12</time>
   <time name="total">    0.13    0.13</time>
   <energy>
    <i name="alphaZ">     39.18058524 </i>
    <i name="ewald">   -761.78120824 </i>
    <i name="hartreedc">   -131.85321652 </i>
    <i name="XCdc">     16.45562375 </i>
    <i name="pawpsdc">    906.01323946 </i>
    <i name="pawaedc">   -959.13557303 </i>
    <i name="eentropy">     -0.00437407 </i>
    <i name="bandstr">     70.75483789 </i>
    <i name="atom">    813.35207370 </i>
    <i name="e_fr_energy">     -7.01801182 </i>
    <i name="e_wo_entrp">     -7.01363774 </i>
    <i name="e_0_energy">     -7.01655379 </i>
   </energy>
  </scstep>
  <structure>
   <crystal>
    <varray name="basis" >
     <v>       0.00000000       1.75500000       1.75500000 </v>
     <v>       1.75500000       0.00000000       1.75500000 </v>
     <v>       1.75500000       1.75500000       0.00000000 </v>
    </varray>
    <i name="volume">     10.81088775 </i>
    <varray name="rec_basis" >
     <v>      -0.28490028       0.28490028       0.28490028 </v>
     <v>       0.28490028      -0.28490028       0.28490028 </v>
     <v>       0.28490028       0.28490028      -0.28490028 </v>
    </varray>
   </crystal>
   <varray name="positions" >
    <v>       0.00000000       0.00000000       0.00000000 </v>
   </varray>
  </structure>
  <varray name="forces" >
   <v>       0.00000000       0.00000000       0.00000000 </v>
  </varray>
  <varray name="stress" >
   <v>       8.44860599      -0.00000000       0.00000000 </v>
   <v>      -0.00000000       8.44860599      -0.00000000 </v>
   <v>      -0.00000000      -0.00000000       8.44860599 </v>
  </varray>
  <energy>
   <i name="e_fr_energy">     -7.01801182 </i>
   <i name="e_wo_entrp">     -7.01363774 </i>
   <i name="e_0_energy">     -7.01655379 </i>
  </energy>
  <time name="totalsc">    1.85    1.88</time>
  <eigenvalues>
   <array>
    <dimension dim="1">band</dimension>
    <dimension dim="2">kpoint</dimension>
    <dimension dim="3">spin</dimension>
    <field>eigene</field>
    <field>occ</field>
    <set>
     <set comment="spin 1">
      <set comment="kpoint 1">
       <r>    1.6440    1.0000 </r>
       <r>    7.5872    1.0000 </r>
       <r>    7.7273    1.0000 </r>
       <r>    7.7273    1.0000 </r>
       <r>    8.7060    1.0000 </r>
       <r>    8.7060    1.0000 </r>
       <r>   32.7114    0.0000 </r>
       <r>   35.4425    0.0000 </r>
       <r>   37.4041    0.0000 </r>
       <r>   37.4041    0.0000 </r>
       <r>   41.7585    0.0000 </r>
       <r>   41.7586    0.0000 </r>
      </set>
      <set comment="kpoint 2">
       <r>    3.0167    1.0000 </r>
       <r>    7.2687    1.0000 </r>
       <r>    7.8787    1.0000 </r>
       <r>    7.9694    1.0000 </r>
       <r>    8.5043    1.0000 </r>
       <r>    8.9818    1.0000 </r>
       <r>   28.0192    0.0000 </r>
       <r>   31.4771    0.0000 </r>
       <r>   36.6049    0.0000 </r>
       <r>   39.0302    0.0000 </r>
       <r>   39.5346    0.0000 </r>
       <r>   41.0794    0.0000 </r>
      </set>
      <set comment="kpoint 3">
       <r>    5.0502    1.0000 </r>
       <r>    7.5874    1.0000 </r>
       <r>    7.7541    1.0000 </r>
       <r>    7.8222    1.0000 </r>
       <r>    9.1486    1.0000 </r>
       <r>    9.9505    1.0031 </r>
       <r>   20.2615    0.0000 </r>
       <r>   30.5869    0.0000 </r>
       <r>   34.3799    0.0000 </r>
       <r>   36.4339    0.0000 </r>
       <r>   38.9431    0.0000 </r>
       <r>   40.4429    0.0000 </r>
      </set>
      <set comment="kpoint 4">
       <r>    5.3177    1.0000 </r>
       <r>    7.4115    1.0000 </r>
       <r>    7.6625    1.0000 </r>
       <r>    8.6769    1.0000 </r>
       <r>    9.6268    1.0000 </r>
       <r>   11.1188   -0.0000 </r>
       <r>   16.7980    0.0000 </r>
       <r>   30.9958    0.0000 </r>
       <r>   33.5326    0.0000 </r>
       <r>   33.9204    0.0000 </r>
       <r>   40.0257    0.0000 </r>
       <r>   40.0504    0.0000 </r>
      </set>
      <set comment="kpoint 5">
       <r>    4.5401    1.0000 </r>
       <r>    7.3142    1.0000 </r>
       <r>    7.6834    1.0000 </r>
       <r>    7.8856    1.0000 </r>
       <r>    9.1947    1.0000 </r>
       <r>    9.2839    1.0000 </r>
       <r>   22.6678    0.0000 </r>
       <r>   32.2925    0.0000 </r>
       <r>   33.0573    0.0000 </r>
       <r>   36.3167    0.0000 </r>
       <r>   40.0241    0.0000 </r>
       <r>   42.5523    0.0000 </r>
      </set>
      <set comment="kpoint 6">
       <r>    2.3539    1.0000 </r>
       <r>    7.3478    1.0000 </r>
       <r>    7.9023    1.0000 </r>
       <r>    7.9120    1.0000 </r>
       <r>    8.5014    1.0000 </r>
       <r>    8.8361    1.0000 </r>
       <r>   30.7342    0.0000 </r>
       <r>   33.7586    0.0000 </r>
       <r>   34.5016    0.0000 </r>
       <r>   37.1878    0.0000 </r>
       <r>   41.3448    0.0000 </r>
       <r>   43.6646    0.0000 </r>
      </set>
      <set comment="kpoint 7">
       <r>    3.6272    1.0000 </r>
       <r>    6.9169    1.0000 </r>
       <r>    7.9610    1.0000 </r>
       <r>    8.2637    1.0000 </r>
       <r>    8.5790    1.0000 </r>
       <r>    9.0635    1.0000 </r>
       <r>   28.5006    0.0000 </r>
       <r>   31.4920    0.0000 </r>
       <r>   31.9975    0.0000 </r>
       <r>   34.1226    0.0000 </r>
       <r>   39.0793    0.0000 </r>
       <r>   45.1757    0.0000 </r>
      </set>
      <set comment="kpoint 8">
       <r>    5.3502    1.0000 </r>
       <r>    6.6210    1.0000 </r>
       <r>    7.5368    1.0000 </r>
       <r>    8.5469    1.0000 </r>
       <r>    9.1691    1.0000 </r>
       <r>   10.2883    0.9097 </r>
       <r>   23.6146    0.0000 </r>
       <r>   27.1019    0.0000 </r>
       <r>   29.5750    0.0000 </r>
       <r>   34.8979    0.0000 </r>
       <r>   39.8820    0.0000 </r>
       <r>   44.1189    0.0000 </r>
      </set>
      <set comment="kpoint 9">
       <r>    6.0334    1.0000 </r>
       <r>    6.7322    1.0000 </r>
       <r>    7.6151    1.0000 </r>
       <r>    8.2535    1.0000 </r>
       <r>    9.5798    1.0000 </r>
       <r>   13.6810   -0.0000 </r>
       <r>   17.2371    0.0000 </r>
       <r>   26.1458    0.0000 </r>
       <r>   28.0955    0.0000 </r>
       <r>   35.0197    0.0000 </r>
       <r>   41.4555    0.0000 </r>
       <r>   46.8506    0.0000 </r>
      </set>
      <set comment="kpoint 10">
       <r>    5.9363    1.0000 </r>
       <r>    6.9583    1.0000 </r>
       <r>    7.1602    1.0000 </r>
       <r>    8.3250    1.0000 </r>
       <r>    9.0579    1.0000 </r>
       <r>   11.4844   -0.0000 </r>
       <r>   21.1885    0.0000 </r>
       <r>   25.0069    0.0000 </r>
       <r>   30.6152    0.0000 </r>
       <r>   36.8647    0.0000 </r>
       <r>   39.8982    0.0000 </r>
       <r>   45.2161    0.0000 </r>
      </set>
      <set comment="kpoint 11">
       <r>    4.1869    1.0000 </r>
       <r>    6.9955    1.0000 </r>
       <r>    7.7214    1.0000 </r>
       <r>    8.1767    1.0000 </r>
       <r>    8.6524    1.0000 </r>
       <r>    9.4395    1.0000 </r>
       <r>   25.6230    0.0000 </r>
       <r>   29.1445    0.0000 </r>
       <r>   34.1851    0.0000 </r>
       <r>   36.5701    0.0000 </r>
       <r>   40.9377    0.0000 </r>
       <r>   41.8023    0.0000 </r>
      </set>
      <set comment="kpoint 12">
       <r>    5.2923    1.0000 </r>
       <r>    6.0385    1.0000 </r>
       <r>    8.8767    1.0000 </r>
       <r>    9.1620    1.0000 </r>
       <r>    9.6058    1.0000 </r>
       <r>   10.8352   -0.0047 </r>
       <r>   24.0660    0.0000 </r>
       <r>   24.9799    0.0000 </r>
       <r>   26.8550    0.0000 </r>
       <r>   31.4790    0.0000 </r>
       <r>   35.7991    0.0000 </r>
       <r>   47.5215    0.0000 </r>
      </set>
      <set comment="kpoint 13">
       <r>    5.5661    1.0000 </r>
       <r>    6.0848    1.0000 </r>
       <r>    8.4229    1.0000 </r>
       <r>    9.1263    1.0000 </r>
       <r>    9.7835    1.0001 </r>
       <r>   14.5057   -0.0000 </r>
       <r>   20.6788    0.0000 </r>
       <r>   21.5493    0.0000 </r>
       <r>   24.9205    0.0000 </r>
       <r>   33.6141    0.0000 </r>
       <r>   38.7901    0.0000 </r>
       <r>   47.4194    0.0000 </r>
      </set>
      <set comment="kpoint 14">
       <r>    6.3015    1.0000 </r>
       <r>    6.5135    1.0000 </r>
       <r>    7.4128    1.0000 </r>
       <r>    8.5636    1.0000 </r>
       <r>    9.4976    1.0000 </r>
       <r>   15.4193   -0.0000 </r>
       <r>   17.7043    0.0000 </r>
       <r>   22.3127    0.0000 </r>
       <r>   27.3222    0.0000 </r>
       <r>   34.9299    0.0000 </r>
       <r>   43.3435    0.0000 </r>
       <r>   46.5689    0.0000 </r>
      </set>
      <set comment="kpoint 15">
       <r>    5.5584    1.0000 </r>
       <r>    7.2200    1.0000 </r>
       <r>    7.7950    1.0000 </r>
       <r>    7.9555    1.0000 </r>
       <r>    9.4640    1.0000 </r>
       <r>   11.3617   -0.0000 </r>
       <r>   18.4228    0.0000 </r>
       <r>   28.8254    0.0000 </r>
       <r>   31.1800    0.0000 </r>
       <r>   35.2724    0.0000 </r>
       <r>   39.9764    0.0000 </r>
       <r>   43.4453    0.0000 </r>
      </set>
      <set comment="kpoint 16">
       <r>    5.2123    1.0000 </r>
       <r>    5.8152    1.0000 </r>
       <r>    9.4076    1.0000 </r>
       <r>    9.4184    1.0000 </r>
       <r>    9.8083    1.0001 </r>
       <r>   13.0126   -0.0000 </r>
       <r>   20.6826    0.0000 </r>
       <r>   23.8959    0.0000 </r>
       <r>   25.7593    0.0000 </r>
       <r>   31.2106    0.0000 </r>
       <r>   35.4313    0.0000 </r>
       <r>   47.5102    0.0000 </r>
      </set>
      <set comment="kpoint 17">
       <r>    5.6814    1.0000 </r>
       <r>    6.2748    1.0000 </r>
       <r>    7.9332    1.0000 </r>
       <r>    8.9546    1.0000 </r>
       <r>    9.5606    1.0000 </r>
       <r>   12.0965   -0.0000 </r>
       <r>   22.0583    0.0000 </r>
       <r>   24.6230    0.0000 </r>
       <r>   25.9234    0.0000 </r>
       <r>   34.0070    0.0000 </r>
       <r>   39.1085    0.0000 </r>
       <r>   46.1326    0.0000 </r>
      </set>
      <set comment="kpoint 18">
       <r>    4.9087    1.0000 </r>
       <r>    6.4376    1.0000 </r>
       <r>    8.0687    1.0000 </r>
       <r>    8.7242    1.0000 </r>
       <r>    9.3139    1.0000 </r>
       <r>    9.3364    1.0000 </r>
       <r>   26.4062    0.0000 </r>
       <r>   28.6499    0.0000 </r>
       <r>   28.8526    0.0000 </r>
       <r>   32.1532    0.0000 </r>
       <r>   36.8319    0.0000 </r>
       <r>   47.4385    0.0000 </r>
      </set>
      <set comment="kpoint 19">
       <r>    3.5878    1.0000 </r>
       <r>    7.3455    1.0000 </r>
       <r>    7.8449    1.0000 </r>
       <r>    7.8449    1.0000 </r>
       <r>    8.8795    1.0000 </r>
       <r>    8.8795    1.0000 </r>
       <r>   25.1150    0.0000 </r>
       <r>   33.7097    0.0000 </r>
       <r>   36.0703    0.0000 </r>
       <r>   36.0703    0.0000 </r>
       <r>   41.3271    0.0000 </r>
       <r>   41.3271    0.0000 </r>
      </set>
      <set comment="kpoint 20">
       <r>    5.1003    1.0000 </r>
       <r>    7.0637    1.0000 </r>
       <r>    7.5182    1.0000 </r>
       <r>    8.0981    1.0000 </r>
       <r>    8.6825    1.0000 </r>
       <r>   10.2177    1.0163 </r>
       <r>   23.1800    0.0000 </r>
       <r>   26.8406    0.0000 </r>
       <r>   35.1301    0.0000 </r>
       <r>   36.0795    0.0000 </r>
       <r>   40.3326    0.0000 </r>
       <r>   41.8480    0.0000 </r>
      </set>
      <set comment="kpoint 21">
       <r>    6.2692    1.0000 </r>
       <r>    6.8078    1.0000 </r>
       <r>    7.3155    1.0000 </r>
       <r>    8.3028    1.0000 </r>
       <r>    9.1886    1.0000 </r>
       <r>   13.1231   -0.0000 </r>
       <r>   19.1888    0.0000 </r>
       <r>   23.3680    0.0000 </r>
       <r>   31.4847    0.0000 </r>
       <r>   33.0900    0.0000 </r>
       <r>   44.2383    0.0000 </r>
       <r>   44.6362    0.0000 </r>
      </set>
      <set comment="kpoint 22">
       <r>    5.8554    1.0000 </r>
       <r>    6.4942    1.0000 </r>
       <r>    7.7649    1.0000 </r>
       <r>    8.4921    1.0000 </r>
       <r>    9.6844    1.0000 </r>
       <r>   12.7846   -0.0000 </r>
       <r>   19.1909    0.0000 </r>
       <r>   25.2191    0.0000 </r>
       <r>   28.7876    0.0000 </r>
       <r>   32.3798    0.0000 </r>
       <r>   42.8360    0.0000 </r>
       <r>   46.4114    0.0000 </r>
      </set>
      <set comment="kpoint 23">
       <r>    5.4420    1.0000 </r>
       <r>    6.9570    1.0000 </r>
       <r>    7.5610    1.0000 </r>
       <r>    8.1204    1.0000 </r>
       <r>    9.5802    1.0000 </r>
       <r>   10.5039    0.1297 </r>
       <r>   20.6870    0.0000 </r>
       <r>   29.4827    0.0000 </r>
       <r>   30.5672    0.0000 </r>
       <r>   33.2421    0.0000 </r>
       <r>   43.3238    0.0000 </r>
       <r>   44.0559    0.0000 </r>
      </set>
      <set comment="kpoint 24">
       <r>    6.2339    1.0000 </r>
       <r>    6.6372    1.0000 </r>
       <r>    7.1820    1.0000 </r>
       <r>    8.6371    1.0000 </r>
       <r>    9.4850    1.0000 </r>
       <r>   13.6488   -0.0000 </r>
       <r>   19.6798    0.0000 </r>
       <r>   23.6775    0.0000 </r>
       <r>   25.9360    0.0000 </r>
       <r>   37.7176    0.0000 </r>
       <r>   40.1600    0.0000 </r>
       <r>   44.7636    0.0000 </r>
      </set>
      <set comment="kpoint 25">
       <r>    6.0288    1.0000 </r>
       <r>    6.5998    1.0000 </r>
       <r>    7.4077    1.0000 </r>
       <r>    8.7329    1.0000 </r>
       <r>    9.7746    1.0000 </r>
       <r>   16.4505    0.0000 </r>
       <r>   18.7577    0.0000 </r>
       <r>   21.6660    0.0000 </r>
       <r>   23.3270    0.0000 </r>
       <r>   37.6528    0.0000 </r>
       <r>   42.1014    0.0000 </r>
       <r>   43.8995    0.0000 </r>
      </set>
      <set comment="kpoint 26">
       <r>    5.8534    1.0000 </r>
       <r>    6.2800    1.0000 </r>
       <r>    8.0303    1.0000 </r>
       <r>    8.8458    1.0000 </r>
       <r>    9.6123    1.0000 </r>
       <r>   15.5615   -0.0000 </r>
       <r>   18.1983    0.0000 </r>
       <r>   21.5099    0.0000 </r>
       <r>   27.8576    0.0000 </r>
       <r>   32.1510    0.0000 </r>
       <r>   42.5131    0.0000 </r>
       <r>   47.4048    0.0000 </r>
      </set>
      <set comment="kpoint 27">
       <r>    5.0906    1.0000 </r>
       <r>    7.5914    1.0000 </r>
       <r>    7.5914    1.0000 </r>
       <r>    9.1494    1.0000 </r>
       <r>    9.5049    1.0000 </r>
       <r>    9.5049    1.0000 </r>
       <r>   18.0707    0.0000 </r>
       <r>   32.2725    0.0000 </r>
       <r>   35.4383    0.0000 </r>
       <r>   35.4383    0.0000 </r>
       <r>   38.4260    0.0000 </r>
       <r>   38.4260    0.0000 </r>
      </set>
      <set comment="kpoint 28">
       <r>    5.7444    1.0000 </r>
       <r>    7.0771    1.0000 </r>
       <r>    7.9424    1.0000 </r>
       <r>    7.9533    1.0000 </r>
       <r>    9.4838    1.0000 </r>
       <r>   12.6732   -0.0000 </r>
       <r>   17.0006    0.0000 </r>
       <r>   27.3036    0.0000 </r>
       <r>   32.1707    0.0000 </r>
       <r>   33.1041    0.0000 </r>
       <r>   42.2670    0.0000 </r>
       <r>   42.5784    0.0000 </r>
      </set>
     </set>
     <set comment="spin 2">
      <set comment="kpoint 1">
       <r>    1.6599    1.0000 </r>
       <r>    9.1878    1.0000 </r>
       <r>    9.3582    1.0000 </r>
       <r>    9.3582    1.0000 </r>
       <r>   10.6811   -0.0323 </r>
       <r>   10.6811   -0.0323 </r>
       <r>   32.5860    0.0000 </r>
       <r>   35.4810    0.0000 </r>
       <r>   37.6271    0.0000 </r>
       <r>   37.6271    0.0000 </r>
       <r>   41.9270    0.0000 </r>
       <r>   41.9904    0.0000 </r>
      </set>
      <set comment="kpoint 2">
       <r>    3.0564    1.0000 </r>
       <r>    8.7622    1.0000 </r>
       <r>    9.5467    1.0000 </r>
       <r>    9.6470    1.0000 </r>
       <r>   10.4171    0.4440 </r>
       <r>   10.9198   -0.0008 </r>
       <r>   28.3465    0.0000 </r>
       <r>   31.6384    0.0000 </r>
       <r>   36.6029    0.0000 </r>
       <r>   39.2283    0.0000 </r>
       <r>   39.5153    0.0000 </r>
       <r>   41.3741    0.0000 </r>
      </set>
      <set comment="kpoint 3">
       <r>    5.5649    1.0000 </r>
       <r>    8.7506    1.0000 </r>
       <r>    9.2824    1.0000 </r>
       <r>    9.4950    1.0000 </r>
       <r>   11.0315   -0.0000 </r>
       <r>   11.7143   -0.0000 </r>
       <r>   20.9139    0.0000 </r>
       <r>   30.6939    0.0000 </r>
       <r>   34.4279    0.0000 </r>
       <r>   36.7784    0.0000 </r>
       <r>   39.2365    0.0000 </r>
       <r>   40.6029    0.0000 </r>
      </set>
      <set comment="kpoint 4">
       <r>    6.2572    1.0000 </r>
       <r>    9.0262    1.0000 </r>
       <r>    9.3901    1.0000 </r>
       <r>    9.5743    1.0000 </r>
       <r>   11.5713   -0.0000 </r>
       <r>   12.2367   -0.0000 </r>
       <r>   17.7783    0.0000 </r>
       <r>   30.9130    0.0000 </r>
       <r>   33.8657    0.0000 </r>
       <r>   34.1669    0.0000 </r>
       <r>   40.2487    0.0000 </r>
       <r>   40.2906    0.0000 </r>
      </set>
      <set comment="kpoint 5">
       <r>    4.7786    1.0000 </r>
       <r>    8.5396    1.0000 </r>
       <r>    9.3956    1.0000 </r>
       <r>    9.6069    1.0000 </r>
       <r>   10.9701   -0.0002 </r>
       <r>   11.2257   -0.0000 </r>
       <r>   23.1963    0.0000 </r>
       <r>   32.1704    0.0000 </r>
       <r>   33.4163    0.0000 </r>
       <r>   36.6539    0.0000 </r>
       <r>   40.1780    0.0000 </r>
       <r>   42.7252    0.0000 </r>
      </set>
      <set comment="kpoint 6">
       <r>    2.3769    1.0000 </r>
       <r>    8.8974    1.0000 </r>
       <r>    9.5519    1.0000 </r>
       <r>    9.5619    1.0000 </r>
       <r>   10.4207    0.4287 </r>
       <r>   10.8195   -0.0062 </r>
       <r>   30.9192    0.0000 </r>
       <r>   33.7006    0.0000 </r>
       <r>   34.8325    0.0000 </r>
       <r>   37.2447    0.0000 </r>
       <r>   41.6040    0.0000 </r>
       <r>   44.2283    0.0000 </r>
      </set>
      <set comment="kpoint 7">
       <r>    3.6989    1.0000 </r>
       <r>    8.3881    1.0000 </r>
       <r>    9.6915    1.0000 </r>
       <r>    9.9565    1.0035 </r>
       <r>   10.3112    0.8491 </r>
       <r>   11.0580   -0.0000 </r>
       <r>   28.8212    0.0000 </r>
       <r>   31.8379    0.0000 </r>
       <r>   32.0248    0.0000 </r>
       <r>   34.2816    0.0000 </r>
       <r>   39.7264    0.0000 </r>
       <r>   45.1884    0.0000 </r>
      </set>
      <set comment="kpoint 8">
       <r>    5.7630    1.0000 </r>
       <r>    7.9744    1.0000 </r>
       <r>    9.0974    1.0000 </r>
       <r>   10.3256    0.8045 </r>
       <r>   10.9855   -0.0002 </r>
       <r>   11.9436   -0.0000 </r>
       <r>   24.0729    0.0000 </r>
       <r>   27.4233    0.0000 </r>
       <r>   29.8904    0.0000 </r>
       <r>   35.0885    0.0000 </r>
       <r>   40.2415    0.0000 </r>
       <r>   44.3627    0.0000 </r>
      </set>
      <set comment="kpoint 9">
       <r>    7.1148    1.0000 </r>
       <r>    8.0264    1.0000 </r>
       <r>    8.9155    1.0000 </r>
       <r>   10.0542    1.0165 </r>
       <r>   11.4870   -0.0000 </r>
       <r>   14.5646   -0.0000 </r>
       <r>   18.0500    0.0000 </r>
       <r>   26.5025    0.0000 </r>
       <r>   28.4576    0.0000 </r>
       <r>   35.1531    0.0000 </r>
       <r>   41.6311    0.0000 </r>
       <r>   47.1762    0.0000 </r>
      </set>
      <set comment="kpoint 10">
       <r>    6.5334    1.0000 </r>
       <r>    8.2332    1.0000 </r>
       <r>    8.7155    1.0000 </r>
       <r>   10.1370    1.0339 </r>
       <r>   10.8661   -0.0026 </r>
       <r>   12.9289   -0.0000 </r>
       <r>   21.7571    0.0000 </r>
       <r>   25.4043    0.0000 </r>
       <r>   30.8989    0.0000 </r>
       <r>   36.9922    0.0000 </r>
       <r>   40.0131    0.0000 </r>
       <r>   45.5965    0.0000 </r>
      </set>
      <set comment="kpoint 11">
       <r>    4.3000    1.0000 </r>
       <r>    8.4152    1.0000 </r>
       <r>    9.4165    1.0000 </r>
       <r>    9.9087    1.0013 </r>
       <r>   10.4594    0.2746 </r>
       <r>   11.3282   -0.0000 </r>
       <r>   26.0383    0.0000 </r>
       <r>   29.4136    0.0000 </r>
       <r>   34.2986    0.0000 </r>
       <r>   36.7260    0.0000 </r>
       <r>   41.1737    0.0000 </r>
       <r>   42.1002    0.0000 </r>
      </set>
      <set comment="kpoint 12">
       <r>    6.2233    1.0000 </r>
       <r>    7.3698    1.0000 </r>
       <r>   10.1475    1.0350 </r>
       <r>   11.0541   -0.0000 </r>
       <r>   11.5692   -0.0000 </r>
       <r>   11.9866   -0.0000 </r>
       <r>   24.5534    0.0000 </r>
       <r>   25.3424    0.0000 </r>
       <r>   27.1008    0.0000 </r>
       <r>   31.8100    0.0000 </r>
       <r>   36.2406    0.0000 </r>
       <r>   51.1319    0.0000 </r>
      </set>
      <set comment="kpoint 13">
       <r>    6.7879    1.0000 </r>
       <r>    7.3697    1.0000 </r>
       <r>    9.7607    1.0000 </r>
       <r>   11.0969   -0.0000 </r>
       <r>   11.6596   -0.0000 </r>
       <r>   15.1480   -0.0000 </r>
       <r>   21.3005    0.0000 </r>
       <r>   22.0759    0.0000 </r>
       <r>   25.2308    0.0000 </r>
       <r>   33.8687    0.0000 </r>
       <r>   39.1753    0.0000 </r>
       <r>   48.3038    0.0000 </r>
      </set>
      <set comment="kpoint 14">
       <r>    7.6054    1.0000 </r>
       <r>    7.6722    1.0000 </r>
       <r>    8.7092    1.0000 </r>
       <r>   10.4460    0.3257 </r>
       <r>   11.3462   -0.0000 </r>
       <r>   16.1954    0.0000 </r>
       <r>   18.3786    0.0000 </r>
       <r>   22.8611    0.0000 </r>
       <r>   27.6789    0.0000 </r>
       <r>   35.0997    0.0000 </r>
       <r>   43.4316    0.0000 </r>
       <r>   47.3801    0.0000 </r>
      </set>
      <set comment="kpoint 15">
       <r>    6.3967    1.0000 </r>
       <r>    8.5748    1.0000 </r>
       <r>    9.0809    1.0000 </r>
       <r>    9.6720    1.0000 </r>
       <r>   11.3627   -0.0000 </r>
       <r>   12.6674   -0.0000 </r>
       <r>   19.1818    0.0000 </r>
       <r>   29.0329    0.0000 </r>
       <r>   31.4688    0.0000 </r>
       <r>   35.4149    0.0000 </r>
       <r>   40.2135    0.0000 </r>
       <r>   43.5760    0.0000 </r>
      </set>
      <set comment="kpoint 16">
       <r>    6.3865    1.0000 </r>
       <r>    7.1143    1.0000 </r>
       <r>   10.9334   -0.0006 </r>
       <r>   11.4356   -0.0000 </r>
       <r>   11.7019   -0.0000 </r>
       <r>   13.4772   -0.0000 </r>
       <r>   21.4866    0.0000 </r>
       <r>   24.1700    0.0000 </r>
       <r>   25.9525    0.0000 </r>
       <r>   31.5853    0.0000 </r>
       <r>   35.8670    0.0000 </r>
       <r>   51.2314    0.0000 </r>
      </set>
      <set comment="kpoint 17">
       <r>    6.6685    1.0000 </r>
       <r>    7.5854    1.0000 </r>
       <r>    9.2464    1.0000 </r>
       <r>   10.8198   -0.0061 </r>
       <r>   11.4485   -0.0000 </r>
       <r>   13.2278   -0.0000 </r>
       <r>   22.5109    0.0000 </r>
       <r>   25.0830    0.0000 </r>
       <r>   26.2808    0.0000 </r>
       <r>   34.2343    0.0000 </r>
       <r>   39.4773    0.0000 </r>
       <r>   46.4853    0.0000 </r>
      </set>
      <set comment="kpoint 18">
       <r>    5.2633    1.0000 </r>
       <r>    7.8295    1.0000 </r>
       <r>    9.5511    1.0000 </r>
       <r>   10.4937    0.1589 </r>
       <r>   10.9357   -0.0006 </r>
       <r>   11.3329   -0.0000 </r>
       <r>   26.7575    0.0000 </r>
       <r>   28.9328    0.0000 </r>
       <r>   29.1616    0.0000 </r>
       <r>   32.4135    0.0000 </r>
       <r>   37.3331    0.0000 </r>
       <r>   48.7778    0.0000 </r>
      </set>
      <set comment="kpoint 19">
       <r>    3.6740    1.0000 </r>
       <r>    8.7158    1.0000 </r>
       <r>    9.5467    1.0000 </r>
       <r>    9.5467    1.0000 </r>
       <r>   10.7941   -0.0093 </r>
       <r>   10.7941   -0.0093 </r>
       <r>   25.5491    0.0000 </r>
       <r>   33.4640    0.0000 </r>
       <r>   36.4266    0.0000 </r>
       <r>   36.4266    0.0000 </r>
       <r>   41.5105    0.0000 </r>
       <r>   41.5105    0.0000 </r>
      </set>
      <set comment="kpoint 20">
       <r>    5.3580    1.0000 </r>
       <r>    8.3918    1.0000 </r>
       <r>    9.1530    1.0000 </r>
       <r>    9.9039    1.0012 </r>
       <r>   10.4813    0.1980 </r>
       <r>   11.9758   -0.0000 </r>
       <r>   23.6861    0.0000 </r>
       <r>   27.1818    0.0000 </r>
       <r>   35.1219    0.0000 </r>
       <r>   36.4227    0.0000 </r>
       <r>   40.2998    0.0000 </r>
       <r>   42.1269    0.0000 </r>
      </set>
      <set comment="kpoint 21">
       <r>    7.1857    1.0000 </r>
       <r>    8.1857    1.0000 </r>
       <r>    8.6130    1.0000 </r>
       <r>   10.1543    1.0354 </r>
       <r>   11.0135   -0.0001 </r>
       <r>   14.2305   -0.0000 </r>
       <r>   19.8401    0.0000 </r>
       <r>   23.8427    0.0000 </r>
       <r>   31.8407    0.0000 </r>
       <r>   33.1941    0.0000 </r>
       <r>   44.2191    0.0000 </r>
       <r>   44.8076    0.0000 </r>
      </set>
      <set comment="kpoint 22">
       <r>    6.9170    1.0000 </r>
       <r>    7.7385    1.0000 </r>
       <r>    9.0829    1.0000 </r>
       <r>   10.3215    0.8177 </r>
       <r>   11.6256   -0.0000 </r>
       <r>   13.8167   -0.0000 </r>
       <r>   19.7901    0.0000 </r>
       <r>   25.6514    0.0000 </r>
       <r>   29.0909    0.0000 </r>
       <r>   32.6178    0.0000 </r>
       <r>   43.1670    0.0000 </r>
       <r>   46.5699    0.0000 </r>
      </set>
      <set comment="kpoint 23">
       <r>    6.0415    1.0000 </r>
       <r>    8.1840    1.0000 </r>
       <r>    9.0933    1.0000 </r>
       <r>    9.8815    1.0007 </r>
       <r>   11.5387   -0.0000 </r>
       <r>   11.9490   -0.0000 </r>
       <r>   21.2766    0.0000 </r>
       <r>   29.6521    0.0000 </r>
       <r>   30.8998    0.0000 </r>
       <r>   33.5076    0.0000 </r>
       <r>   43.4319    0.0000 </r>
       <r>   44.3844    0.0000 </r>
      </set>
      <set comment="kpoint 24">
       <r>    7.3017    1.0000 </r>
       <r>    7.9362    1.0000 </r>
       <r>    8.5097    1.0000 </r>
       <r>   10.4989    0.1437 </r>
       <r>   11.3293   -0.0000 </r>
       <r>   14.6448   -0.0000 </r>
       <r>   20.2612    0.0000 </r>
       <r>   24.1156    0.0000 </r>
       <r>   26.3549    0.0000 </r>
       <r>   37.8376    0.0000 </r>
       <r>   40.2918    0.0000 </r>
       <r>   45.3781    0.0000 </r>
      </set>
      <set comment="kpoint 25">
       <r>    7.3124    1.0000 </r>
       <r>    7.8654    1.0000 </r>
       <r>    8.6950    1.0000 </r>
       <r>   10.6359   -0.0348 </r>
       <r>   11.6430   -0.0000 </r>
       <r>   17.1030    0.0000 </r>
       <r>   19.3223    0.0000 </r>
       <r>   22.2685    0.0000 </r>
       <r>   23.7686    0.0000 </r>
       <r>   37.8024    0.0000 </r>
       <r>   42.2506    0.0000 </r>
       <r>   44.2310    0.0000 </r>
      </set>
      <set comment="kpoint 26">
       <r>    7.1413    1.0000 </r>
       <r>    7.4926    1.0000 </r>
       <r>    9.3256    1.0000 </r>
       <r>   10.7715   -0.0130 </r>
       <r>   11.4870   -0.0000 </r>
       <r>   16.2473    0.0000 </r>
       <r>   18.7770    0.0000 </r>
       <r>   22.1571    0.0000 </r>
       <r>   28.1429    0.0000 </r>
       <r>   32.4175    0.0000 </r>
       <r>   42.8886    0.0000 </r>
       <r>   48.3960    0.0000 </r>
      </set>
      <set comment="kpoint 27">
       <r>    5.8711    1.0000 </r>
       <r>    9.3093    1.0000 </r>
       <r>    9.3093    1.0000 </r>
       <r>    9.4620    1.0000 </r>
       <r>   11.4385   -0.0000 </r>
       <r>   11.4385   -0.0000 </r>
       <r>   18.9062    0.0000 </r>
       <r>   31.9755    0.0000 </r>
       <r>   35.7760    0.0000 </r>
       <r>   35.7760    0.0000 </r>
       <r>   38.7052    0.0000 </r>
       <r>   38.7052    0.0000 </r>
      </set>
      <set comment="kpoint 28">
       <r>    6.7429    1.0000 </r>
       <r>    8.4842    1.0000 </r>
       <r>    9.1344    1.0000 </r>
       <r>    9.7133    1.0000 </r>
       <r>   11.3911   -0.0000 </r>
       <r>   13.6520   -0.0000 </r>
       <r>   17.9047    0.0000 </r>
       <r>   27.6012    0.0000 </r>
       <r>   32.5150    0.0000 </r>
       <r>   33.1819    0.0000 </r>
       <r>   42.5047    0.0000 </r>
       <r>   42.6799    0.0000 </r>
      </set>
     </set>
    </set>
   </array>
  </eigenvalues>
  <separator name="orbital magnetization" >
   <v name="MAGDIPOLOUT">      0.00000000      0.00000000      0.00000000</v>
  </separator>
  <dos>
   <i name="efermi">     10.40381543 </i>
   <total>
    <array>
     <dimension dim="1">gridpoints</dimension>
     <dimension dim="2">spin</dimension>
     <field>energy</field>
     <field>total</field>
     <field>integrated</field>
     <set>
      <set comment="spin 1">
       <r>    -0.8354     0.0000     0.0000 </r>
       <r>    -0.6535     0.0000     0.0000 </r>
       <r>    -0.4717     0.0000     0.0000 </r>
       <r>    -0.2899     0.0000     0.0000 </r>
       <r>    -0.1081    -0.0000    -0.0000 </r>
       <r>     0.0738    -0.0000    -0.0000 </r>
       <r>     0.2556    -0.0000    -0.0000 </r>
       <r>     0.4374    -0.0000    -0.0000 </r>
       <r>     0.6192    -0.0000    -0.0000 </r>
       <r>     0.8010    -0.0000    -0.0000 </r>
       <r>     0.9829    -0.0000    -0.0000 </r>
       <r>     1.1647    -0.0001    -0.0000 </r>
       <r>     1.3465    -0.0013    -0.0003 </r>
       <r>     1.5283     0.0060     0.0008 </r>
       <r>     1.7101     0.0343     0.0071 </r>
       <r>     1.8920     0.0135     0.0095 </r>
       <r>     2.0738    -0.0060     0.0084 </r>
       <r>     2.2556     0.0252     0.0130 </r>
       <r>     2.4374     0.1049     0.0321 </r>
       <r>     2.6192     0.0312     0.0378 </r>
       <r>     2.8011    -0.0082     0.0363 </r>
       <r>     2.9829     0.0591     0.0470 </r>
       <r>     3.1647     0.0931     0.0639 </r>
       <r>     3.3465     0.0013     0.0642 </r>
       <r>     3.5283     0.0372     0.0709 </r>
       <r>     3.7102     0.1381     0.0960 </r>
       <r>     3.8920     0.0297     0.1014 </r>
       <r>     4.0738     0.0318     0.1072 </r>
       <r>     4.2556     0.2017     0.1439 </r>
       <r>     4.4374     0.1034     0.1627 </r>
       <r>     4.6193     0.0899     0.1791 </r>
       <r>     4.8011     0.0431     0.1869 </r>
       <r>     4.9829     0.1496     0.2141 </r>
       <r>     5.1647     0.3379     0.2755 </r>
       <r>     5.3465     0.5171     0.3696 </r>
       <r>     5.5284     0.6100     0.4805 </r>
       <r>     5.7102     0.6490     0.5985 </r>
       <r>     5.8920     0.6699     0.7202 </r>
       <r>     6.0738     0.9477     0.8926 </r>
       <r>     6.2556     0.9756     1.0699 </r>
       <r>     6.4375     0.8435     1.2233 </r>
       <r>     6.6193     0.8972     1.3864 </r>
       <r>     6.8011     0.7992     1.5317 </r>
       <r>     6.9829     0.6993     1.6589 </r>
       <r>     7.1647     0.9905     1.8390 </r>
       <r>     7.3466     1.1402     2.0463 </r>
       <r>     7.5284     1.2052     2.2654 </r>
       <r>     7.7102     1.3308     2.5074 </r>
       <r>     7.8920     1.6464     2.8067 </r>
       <r>     8.0738     1.5665     3.0916 </r>
       <r>     8.2557     0.9485     3.2640 </r>
       <r>     8.4375     0.9231     3.4319 </r>
       <r>     8.6193     1.3846     3.6836 </r>
       <r>     8.8011     1.3501     3.9291 </r>
       <r>     8.9829     0.8862     4.0902 </r>
       <r>     9.1648     1.1705     4.3030 </r>
       <r>     9.3466     1.1307     4.5086 </r>
       <r>     9.5284     1.6628     4.8109 </r>
       <r>     9.7102     1.5537     5.0934 </r>
       <r>     9.8920     0.7033     5.2213 </r>
       <r>    10.0739     0.1681     5.2519 </r>
       <r>    10.2557     0.2017     5.2886 </r>
       <r>    10.4375     0.2786     5.3392 </r>
       <r>    10.6193     0.1091     5.3590 </r>
       <r>    10.8011     0.0670     5.3712 </r>
       <r>    10.9830     0.0968     5.3888 </r>
       <r>    11.1648     0.0946     5.4060 </r>
       <r>    11.3466     0.2106     5.4443 </r>
       <r>    11.5284     0.3621     5.5102 </r>
       <r>    11.7103     0.1094     5.5300 </r>
       <r>    11.8921    -0.0185     5.5267 </r>
       <r>    12.0739     0.1297     5.5503 </r>
       <r>    12.2557     0.1775     5.5825 </r>
       <r>    12.4375     0.0020     5.5829 </r>
       <r>    12.6194     0.0446     5.5910 </r>
       <r>    12.8012     0.1800     5.6237 </r>
       <r>    12.9830     0.1545     5.6518 </r>
       <r>    13.1648     0.1823     5.6850 </r>
       <r>    13.3466     0.0459     5.6933 </r>
       <r>    13.5285     0.0377     5.7002 </r>
       <r>    13.7103     0.3868     5.7705 </r>
       <r>    13.8921     0.2127     5.8092 </r>
       <r>    14.0739    -0.0170     5.8061 </r>
       <r>    14.2557    -0.0136     5.8036 </r>
       <r>    14.4376     0.0808     5.8183 </r>
       <r>    14.6194     0.2065     5.8558 </r>
       <r>    14.8012     0.0377     5.8627 </r>
       <r>    14.9830    -0.0095     5.8610 </r>
       <r>    15.1648    -0.0113     5.8589 </r>
       <r>    15.3467     0.0726     5.8721 </r>
       <r>    15.5285     0.2680     5.9209 </r>
       <r>    15.7103     0.1348     5.9454 </r>
       <r>    15.8921    -0.0014     5.9451 </r>
       <r>    16.0739    -0.0071     5.9438 </r>
       <r>    16.2558    -0.0035     5.9432 </r>
       <r>    16.4376     0.1407     5.9688 </r>
       <r>    16.6194     0.1686     5.9995 </r>
       <r>    16.8012     0.0814     6.0142 </r>
       <r>    16.9830     0.1313     6.0381 </r>
       <r>    17.1649     0.1628     6.0677 </r>
       <r>    17.3467     0.2048     6.1050 </r>
       <r>    17.5285     0.0406     6.1123 </r>
       <r>    17.7103     0.1534     6.1402 </r>
       <r>    17.8921     0.1461     6.1668 </r>
       <r>    18.0740     0.0350     6.1732 </r>
       <r>    18.2558     0.1281     6.1965 </r>
       <r>    18.4376     0.2107     6.2348 </r>
       <r>    18.6194     0.1558     6.2631 </r>
       <r>    18.8012     0.1870     6.2971 </r>
       <r>    18.9831     0.0992     6.3151 </r>
       <r>    19.1649     0.1209     6.3371 </r>
       <r>    19.3467     0.1725     6.3685 </r>
       <r>    19.5285     0.0229     6.3726 </r>
       <r>    19.7103     0.1795     6.4053 </r>
       <r>    19.8922     0.1210     6.4273 </r>
       <r>    20.0740    -0.0074     6.4259 </r>
       <r>    20.2558     0.0696     6.4386 </r>
       <r>    20.4376     0.0627     6.4500 </r>
       <r>    20.6194     0.1753     6.4819 </r>
       <r>    20.8013     0.4036     6.5552 </r>
       <r>    20.9831     0.0607     6.5663 </r>
       <r>    21.1649     0.1093     6.5862 </r>
       <r>    21.3467     0.1702     6.6171 </r>
       <r>    21.5285     0.2516     6.6628 </r>
       <r>    21.7104     0.4296     6.7410 </r>
       <r>    21.8922     0.1171     6.7623 </r>
       <r>    22.0740     0.1481     6.7892 </r>
       <r>    22.2558     0.2297     6.8310 </r>
       <r>    22.4377     0.1937     6.8662 </r>
       <r>    22.6195     0.0772     6.8802 </r>
       <r>    22.8013     0.0892     6.8964 </r>
       <r>    22.9831     0.0026     6.8969 </r>
       <r>    23.1649     0.0706     6.9097 </r>
       <r>    23.3468     0.3130     6.9666 </r>
       <r>    23.5286     0.3013     7.0214 </r>
       <r>    23.7104     0.3913     7.0926 </r>
       <r>    23.8922     0.2455     7.1372 </r>
       <r>    24.0740     0.1465     7.1639 </r>
       <r>    24.2559     0.0676     7.1761 </r>
       <r>    24.4377    -0.0047     7.1753 </r>
       <r>    24.6195     0.1382     7.2004 </r>
       <r>    24.8013     0.1867     7.2344 </r>
       <r>    24.9831     0.4163     7.3100 </r>
       <r>    25.1650     0.4191     7.3862 </r>
       <r>    25.3468     0.1067     7.4056 </r>
       <r>    25.5286     0.0486     7.4145 </r>
       <r>    25.7104     0.2408     7.4583 </r>
       <r>    25.8922     0.3805     7.5275 </r>
       <r>    26.0741     0.4568     7.6105 </r>
       <r>    26.2559     0.2433     7.6547 </r>
       <r>    26.4377     0.1186     7.6763 </r>
       <r>    26.6195     0.0432     7.6842 </r>
       <r>    26.8013     0.0927     7.7010 </r>
       <r>    26.9832     0.2196     7.7409 </r>
       <r>    27.1650     0.2468     7.7858 </r>
       <r>    27.3468     0.3565     7.8506 </r>
       <r>    27.5286     0.1712     7.8818 </r>
       <r>    27.7104    -0.0104     7.8799 </r>
       <r>    27.8923     0.0989     7.8979 </r>
       <r>    28.0741     0.2923     7.9510 </r>
       <r>    28.2559     0.2154     7.9902 </r>
       <r>    28.4377     0.0364     7.9968 </r>
       <r>    28.6195     0.1501     8.0241 </r>
       <r>    28.8014     0.3692     8.0912 </r>
       <r>    28.9832     0.3604     8.1567 </r>
       <r>    29.1650     0.1884     8.1910 </r>
       <r>    29.3468     0.1260     8.2139 </r>
       <r>    29.5286     0.1976     8.2499 </r>
       <r>    29.7105     0.2459     8.2946 </r>
       <r>    29.8923     0.0178     8.2978 </r>
       <r>    30.0741    -0.0084     8.2963 </r>
       <r>    30.2559    -0.0116     8.2942 </r>
       <r>    30.4377     0.0175     8.2974 </r>
       <r>    30.6196     0.3711     8.3648 </r>
       <r>    30.8014     0.3587     8.4300 </r>
       <r>    30.9832     0.0950     8.4473 </r>
       <r>    31.1650     0.2539     8.4935 </r>
       <r>    31.3468     0.3141     8.5506 </r>
       <r>    31.5287     0.4045     8.6241 </r>
       <r>    31.7105     0.1978     8.6601 </r>
       <r>    31.8923    -0.0104     8.6582 </r>
       <r>    32.0741     0.1888     8.6925 </r>
       <r>    32.2559     0.4461     8.7736 </r>
       <r>    32.4378     0.2962     8.8275 </r>
       <r>    32.6196     0.0495     8.8365 </r>
       <r>    32.8014     0.0119     8.8386 </r>
       <r>    32.9832     0.0790     8.8530 </r>
       <r>    33.1650     0.3415     8.9151 </r>
       <r>    33.3469     0.1953     8.9506 </r>
       <r>    33.5287     0.1423     8.9765 </r>
       <r>    33.7105     0.3494     9.0400 </r>
       <r>    33.8923     0.2645     9.0881 </r>
       <r>    34.0742     0.3848     9.1581 </r>
       <r>    34.2560     0.3991     9.2306 </r>
       <r>    34.4378     0.2200     9.2706 </r>
       <r>    34.6196     0.1152     9.2916 </r>
       <r>    34.8014     0.0791     9.3059 </r>
       <r>    34.9833     0.5200     9.4005 </r>
       <r>    35.1651     0.4774     9.4873 </r>
       <r>    35.3469     0.3247     9.5463 </r>
       <r>    35.5287     0.2669     9.5948 </r>
       <r>    35.7105     0.0712     9.6078 </r>
       <r>    35.8924     0.0937     9.6248 </r>
       <r>    36.0742     0.1488     9.6519 </r>
       <r>    36.2560     0.1631     9.6815 </r>
       <r>    36.4378     0.2065     9.7191 </r>
       <r>    36.6196     0.3599     9.7845 </r>
       <r>    36.8015     0.3138     9.8416 </r>
       <r>    36.9833     0.2814     9.8927 </r>
       <r>    37.1651     0.0990     9.9107 </r>
       <r>    37.3469     0.0980     9.9286 </r>
       <r>    37.5287     0.0992     9.9466 </r>
       <r>    37.7106     0.3588    10.0118 </r>
       <r>    37.8924     0.2535    10.0579 </r>
       <r>    38.0742    -0.0082    10.0564 </r>
       <r>    38.2560    -0.0048    10.0555 </r>
       <r>    38.4378     0.0511    10.0648 </r>
       <r>    38.6197     0.0471    10.0734 </r>
       <r>    38.8015     0.1600    10.1025 </r>
       <r>    38.9833     0.3471    10.1656 </r>
       <r>    39.1651     0.4564    10.2486 </r>
       <r>    39.3469     0.1275    10.2718 </r>
       <r>    39.5288     0.0470    10.2803 </r>
       <r>    39.7106     0.0611    10.2914 </r>
       <r>    39.8924     0.4020    10.3645 </r>
       <r>    40.0742     0.8598    10.5209 </r>
       <r>    40.2560     0.4632    10.6051 </r>
       <r>    40.4379     0.2044    10.6422 </r>
       <r>    40.6197     0.0826    10.6573 </r>
       <r>    40.8015     0.0127    10.6596 </r>
       <r>    40.9833     0.2152    10.6987 </r>
       <r>    41.1651     0.2054    10.7360 </r>
       <r>    41.3470     0.2014    10.7727 </r>
       <r>    41.5288     0.3082    10.8287 </r>
       <r>    41.7106     0.1720    10.8600 </r>
       <r>    41.8924     0.3532    10.9242 </r>
       <r>    42.0742     0.2430    10.9684 </r>
       <r>    42.2561     0.2271    11.0097 </r>
       <r>    42.4379     0.1563    11.0381 </r>
       <r>    42.6197     0.2966    11.0920 </r>
       <r>    42.8015     0.1745    11.1237 </r>
       <r>    42.9833     0.0733    11.1371 </r>
       <r>    43.1652     0.0022    11.1375 </r>
       <r>    43.3470     0.2940    11.1909 </r>
       <r>    43.5288     0.4355    11.2701 </r>
       <r>    43.7106     0.1529    11.2979 </r>
       <r>    43.8924     0.1800    11.3306 </r>
       <r>    44.0743     0.3563    11.3954 </r>
       <r>    44.2561     0.3503    11.4591 </r>
       <r>    44.4379     0.0745    11.4726 </r>
       <r>    44.6197     0.0756    11.4864 </r>
       <r>    44.8015     0.2715    11.5357 </r>
       <r>    44.9834     0.1077    11.5553 </r>
       <r>    45.1652     0.1626    11.5849 </r>
       <r>    45.3470     0.2801    11.6358 </r>
       <r>    45.5288     0.0268    11.6407 </r>
       <r>    45.7107    -0.0112    11.6387 </r>
       <r>    45.8925    -0.0097    11.6369 </r>
       <r>    46.0743     0.0884    11.6530 </r>
       <r>    46.2561     0.2009    11.6895 </r>
       <r>    46.4379     0.1440    11.7157 </r>
       <r>    46.6198     0.2464    11.7605 </r>
       <r>    46.8016     0.1985    11.7966 </r>
       <r>    46.9834     0.1849    11.8302 </r>
       <r>    47.1652    -0.0016    11.8299 </r>
       <r>    47.3470     0.1490    11.8570 </r>
       <r>    47.5289     0.5833    11.9631 </r>
       <r>    47.7107     0.2279    12.0045 </r>
       <r>    47.8925    -0.0200    12.0009 </r>
       <r>    48.0743    -0.0047    12.0000 </r>
       <r>    48.2561    -0.0001    12.0000 </r>
       <r>    48.4380    -0.0000    12.0000 </r>
       <r>    48.6198    -0.0000    12.0000 </r>
       <r>    48.8016    -0.0000    12.0000 </r>
       <r>    48.9834     0.0000    12.0000 </r>
       <r>    49.1652     0.0000    12.0000 </r>
       <r>    49.3471     0.0000    12.0000 </r>
       <r>    49.5289     0.0000    12.0000 </r>
       <r>    49.7107     0.0000    12.0000 </r>
       <r>    49.8925     0.0000    12.0000 </r>
       <r>    50.0743     0.0000    12.0000 </r>
       <r>    50.2562     0.0000    12.0000 </r>
       <r>    50.4380     0.0000    12.0000 </r>
       <r>    50.6198     0.0000    12.0000 </r>
       <r>    50.8016     0.0000    12.0000 </r>
       <r>    50.9834     0.0000    12.0000 </r>
       <r>    51.1653     0.0000    12.0000 </r>
       <r>    51.3471     0.0000    12.0000 </r>
       <r>    51.5289     0.0000    12.0000 </r>
       <r>    51.7107     0.0000    12.0000 </r>
       <r>    51.8925     0.0000    12.0000 </r>
       <r>    52.0744     0.0000    12.0000 </r>
       <r>    52.2562     0.0000    12.0000 </r>
       <r>    52.4380     0.0000    12.0000 </r>
       <r>    52.6198     0.0000    12.0000 </r>
       <r>    52.8016     0.0000    12.0000 </r>
       <r>    52.9835     0.0000    12.0000 </r>
       <r>    53.1653     0.0000    12.0000 </r>
       <r>    53.3471     0.0000    12.0000 </r>
       <r>    53.5289     0.0000    12.0000 </r>
       <r>    53.7107     0.0000    12.0000 </r>
      </set>
      <set comment="spin 2">
       <r>    -0.8354     0.0000     0.0000 </r>
       <r>    -0.6535     0.0000     0.0000 </r>
       <r>    -0.4717     0.0000     0.0000 </r>
       <r>    -0.2899     0.0000     0.0000 </r>
       <r>    -0.1081    -0.0000    -0.0000 </r>
       <r>     0.0738    -0.0000    -0.0000 </r>
       <r>     0.2556    -0.0000    -0.0000 </r>
       <r>     0.4374    -0.0000    -0.0000 </r>
       <r>     0.6192    -0.0000    -0.0000 </r>
       <r>     0.8010    -0.0000    -0.0000 </r>
       <r>     0.9829    -0.0000    -0.0000 </r>
       <r>     1.1647    -0.0001    -0.0000 </r>
       <r>     1.3465    -0.0012    -0.0002 </r>
       <r>     1.5283     0.0041     0.0005 </r>
       <r>     1.7101     0.0331     0.0065 </r>
       <r>     1.8920     0.0165     0.0095 </r>
       <r>     2.0738    -0.0053     0.0086 </r>
       <r>     2.2556     0.0156     0.0114 </r>
       <r>     2.4374     0.1018     0.0299 </r>
       <r>     2.6192     0.0440     0.0379 </r>
       <r>     2.8011    -0.0093     0.0362 </r>
       <r>     2.9829     0.0368     0.0429 </r>
       <r>     3.1647     0.1039     0.0618 </r>
       <r>     3.3465     0.0176     0.0650 </r>
       <r>     3.5283     0.0005     0.0651 </r>
       <r>     3.7102     0.1152     0.0860 </r>
       <r>     3.8920     0.0897     0.1023 </r>
       <r>     4.0738    -0.0109     0.1004 </r>
       <r>     4.2556     0.1051     0.1195 </r>
       <r>     4.4374     0.1922     0.1544 </r>
       <r>     4.6193     0.0252     0.1590 </r>
       <r>     4.8011     0.0820     0.1739 </r>
       <r>     4.9829     0.0596     0.1847 </r>
       <r>     5.1647     0.0200     0.1884 </r>
       <r>     5.3465     0.1701     0.2193 </r>
       <r>     5.5284     0.1650     0.2493 </r>
       <r>     5.7102     0.1882     0.2835 </r>
       <r>     5.8920     0.2359     0.3264 </r>
       <r>     6.0738     0.1344     0.3508 </r>
       <r>     6.2556     0.2428     0.3950 </r>
       <r>     6.4375     0.4629     0.4791 </r>
       <r>     6.6193     0.4841     0.5672 </r>
       <r>     6.8011     0.5184     0.6614 </r>
       <r>     6.9829     0.3240     0.7203 </r>
       <r>     7.1647     0.5012     0.8115 </r>
       <r>     7.3466     0.8573     0.9673 </r>
       <r>     7.5284     0.7414     1.1021 </r>
       <r>     7.7102     0.7166     1.2324 </r>
       <r>     7.8920     0.7300     1.3652 </r>
       <r>     8.0738     0.7864     1.5081 </r>
       <r>     8.2557     0.5440     1.6071 </r>
       <r>     8.4375     0.6952     1.7335 </r>
       <r>     8.6193     1.1038     1.9341 </r>
       <r>     8.8011     1.1359     2.1407 </r>
       <r>     8.9829     0.7337     2.2741 </r>
       <r>     9.1648     1.0529     2.4655 </r>
       <r>     9.3466     1.0440     2.6553 </r>
       <r>     9.5284     1.1613     2.8665 </r>
       <r>     9.7102     1.2720     3.0978 </r>
       <r>     9.8920     0.8572     3.2536 </r>
       <r>    10.0739     0.7202     3.3846 </r>
       <r>    10.2557     0.7044     3.5127 </r>
       <r>    10.4375     1.0971     3.7121 </r>
       <r>    10.6193     1.0704     3.9068 </r>
       <r>    10.8011     0.7395     4.0412 </r>
       <r>    10.9830     1.3045     4.2784 </r>
       <r>    11.1648     1.0367     4.4669 </r>
       <r>    11.3466     1.0857     4.6643 </r>
       <r>    11.5284     1.6969     4.9728 </r>
       <r>    11.7103     1.2048     5.1919 </r>
       <r>    11.8921     0.5423     5.2905 </r>
       <r>    12.0739     0.4761     5.3770 </r>
       <r>    12.2557     0.1735     5.4086 </r>
       <r>    12.4375     0.0389     5.4157 </r>
       <r>    12.6194     0.0919     5.4324 </r>
       <r>    12.8012     0.2213     5.4726 </r>
       <r>    12.9830     0.2141     5.5115 </r>
       <r>    13.1648     0.1721     5.5428 </r>
       <r>    13.3466     0.2038     5.5799 </r>
       <r>    13.5285     0.1422     5.6057 </r>
       <r>    13.7103     0.1649     5.6357 </r>
       <r>    13.8921     0.1425     5.6616 </r>
       <r>    14.0739     0.0357     5.6681 </r>
       <r>    14.2557     0.0745     5.6817 </r>
       <r>    14.4376     0.0858     5.6972 </r>
       <r>    14.6194     0.3268     5.7567 </r>
       <r>    14.8012     0.2700     5.8057 </r>
       <r>    14.9830     0.0077     5.8071 </r>
       <r>    15.1648     0.1660     5.8373 </r>
       <r>    15.3467     0.1383     5.8625 </r>
       <r>    15.5285    -0.0042     5.8617 </r>
       <r>    15.7103    -0.0038     5.8610 </r>
       <r>    15.8921    -0.0101     5.8592 </r>
       <r>    16.0739     0.0332     5.8652 </r>
       <r>    16.2558     0.2862     5.9173 </r>
       <r>    16.4376     0.1633     5.9469 </r>
       <r>    16.6194    -0.0108     5.9450 </r>
       <r>    16.8012    -0.0112     5.9429 </r>
       <r>    16.9830     0.0327     5.9489 </r>
       <r>    17.1649     0.2042     5.9860 </r>
       <r>    17.3467     0.0870     6.0018 </r>
       <r>    17.5285    -0.0159     5.9989 </r>
       <r>    17.7103     0.0319     6.0047 </r>
       <r>    17.8921     0.1840     6.0382 </r>
       <r>    18.0740     0.2754     6.0883 </r>
       <r>    18.2558     0.1594     6.1172 </r>
       <r>    18.4376     0.1919     6.1521 </r>
       <r>    18.6194     0.0912     6.1687 </r>
       <r>    18.8012     0.0848     6.1841 </r>
       <r>    18.9831     0.0886     6.2002 </r>
       <r>    19.1649     0.1574     6.2289 </r>
       <r>    19.3467     0.3496     6.2924 </r>
       <r>    19.5285     0.1279     6.3157 </r>
       <r>    19.7103     0.0364     6.3223 </r>
       <r>    19.8922     0.1976     6.3582 </r>
       <r>    20.0740     0.0716     6.3712 </r>
       <r>    20.2558     0.1423     6.3971 </r>
       <r>    20.4376     0.1607     6.4263 </r>
       <r>    20.6194    -0.0021     6.4259 </r>
       <r>    20.8013     0.0142     6.4285 </r>
       <r>    20.9831     0.0921     6.4453 </r>
       <r>    21.1649     0.0781     6.4595 </r>
       <r>    21.3467     0.3026     6.5145 </r>
       <r>    21.5285     0.2321     6.5567 </r>
       <r>    21.7104     0.1420     6.5825 </r>
       <r>    21.8922     0.1813     6.6155 </r>
       <r>    22.0740     0.2040     6.6526 </r>
       <r>    22.2558     0.3904     6.7236 </r>
       <r>    22.4377     0.2688     6.7724 </r>
       <r>    22.6195     0.1949     6.8079 </r>
       <r>    22.8013     0.1253     6.8306 </r>
       <r>    22.9831     0.1914     6.8654 </r>
       <r>    23.1649     0.0916     6.8821 </r>
       <r>    23.3468     0.0805     6.8967 </r>
       <r>    23.5286    -0.0018     6.8964 </r>
       <r>    23.7104     0.1840     6.9299 </r>
       <r>    23.8922     0.3548     6.9944 </r>
       <r>    24.0740     0.3726     7.0621 </r>
       <r>    24.2559     0.4363     7.1414 </r>
       <r>    24.4377     0.0668     7.1536 </r>
       <r>    24.6195     0.0869     7.1694 </r>
       <r>    24.8013     0.0302     7.1749 </r>
       <r>    24.9831     0.0315     7.1806 </r>
       <r>    25.1650     0.2834     7.2321 </r>
       <r>    25.3468     0.4406     7.3123 </r>
       <r>    25.5286     0.3415     7.3743 </r>
       <r>    25.7104     0.1400     7.3998 </r>
       <r>    25.8922     0.0934     7.4168 </r>
       <r>    26.0741     0.2688     7.4657 </r>
       <r>    26.2559     0.3023     7.5206 </r>
       <r>    26.4377     0.4602     7.6043 </r>
       <r>    26.6195     0.2883     7.6567 </r>
       <r>    26.8013     0.1118     7.6770 </r>
       <r>    26.9832     0.0587     7.6877 </r>
       <r>    27.1650     0.1569     7.7162 </r>
       <r>    27.3468     0.1896     7.7507 </r>
       <r>    27.5286     0.2587     7.7977 </r>
       <r>    27.7104     0.3304     7.8578 </r>
       <r>    27.8923     0.1286     7.8812 </r>
       <r>    28.0741     0.0208     7.8850 </r>
       <r>    28.2559     0.1247     7.9076 </r>
       <r>    28.4377     0.2576     7.9545 </r>
       <r>    28.6195     0.1924     7.9895 </r>
       <r>    28.8014     0.0677     8.0018 </r>
       <r>    28.9832     0.3034     8.0569 </r>
       <r>    29.1650     0.4267     8.1345 </r>
       <r>    29.3468     0.2096     8.1726 </r>
       <r>    29.5286     0.2037     8.2097 </r>
       <r>    29.7105     0.1358     8.2344 </r>
       <r>    29.8923     0.1963     8.2700 </r>
       <r>    30.0741     0.1496     8.2973 </r>
       <r>    30.2559    -0.0018     8.2969 </r>
       <r>    30.4377    -0.0105     8.2950 </r>
       <r>    30.6196     0.0156     8.2979 </r>
       <r>    30.8014     0.2179     8.3375 </r>
       <r>    30.9832     0.5419     8.4360 </r>
       <r>    31.1650     0.1656     8.4661 </r>
       <r>    31.3468    -0.0019     8.4658 </r>
       <r>    31.5287     0.2555     8.5122 </r>
       <r>    31.7105     0.3405     8.5741 </r>
       <r>    31.8923     0.3666     8.6408 </r>
       <r>    32.0741     0.2748     8.6907 </r>
       <r>    32.2559     0.1508     8.7182 </r>
       <r>    32.4378     0.2399     8.7618 </r>
       <r>    32.6196     0.3417     8.8239 </r>
       <r>    32.8014     0.1113     8.8441 </r>
       <r>    32.9832    -0.0148     8.8414 </r>
       <r>    33.1650     0.1201     8.8633 </r>
       <r>    33.3469     0.2256     8.9043 </r>
       <r>    33.5287     0.2290     8.9459 </r>
       <r>    33.7105     0.1925     8.9809 </r>
       <r>    33.8923     0.3214     9.0394 </r>
       <r>    34.0742     0.2145     9.0784 </r>
       <r>    34.2560     0.4479     9.1598 </r>
       <r>    34.4378     0.5249     9.2553 </r>
       <r>    34.6196     0.0832     9.2704 </r>
       <r>    34.8014     0.0223     9.2744 </r>
       <r>    34.9833     0.1836     9.3078 </r>
       <r>    35.1651     0.6761     9.4307 </r>
       <r>    35.3469     0.4355     9.5099 </r>
       <r>    35.5287     0.2074     9.5477 </r>
       <r>    35.7105     0.0806     9.5623 </r>
       <r>    35.8924     0.1466     9.5890 </r>
       <r>    36.0742     0.0742     9.6024 </r>
       <r>    36.2560     0.0801     9.6170 </r>
       <r>    36.4378     0.1985     9.6531 </r>
       <r>    36.6196     0.3073     9.7090 </r>
       <r>    36.8015     0.4538     9.7915 </r>
       <r>    36.9833     0.2814     9.8427 </r>
       <r>    37.1651     0.1856     9.8764 </r>
       <r>    37.3469     0.1860     9.9102 </r>
       <r>    37.5287     0.0904     9.9267 </r>
       <r>    37.7106     0.1481     9.9536 </r>
       <r>    37.8924     0.4308    10.0319 </r>
       <r>    38.0742     0.1511    10.0594 </r>
       <r>    38.2560    -0.0188    10.0560 </r>
       <r>    38.4378    -0.0058    10.0549 </r>
       <r>    38.6197     0.0208    10.0587 </r>
       <r>    38.8015     0.0651    10.0706 </r>
       <r>    38.9833     0.0051    10.0715 </r>
       <r>    39.1651     0.2151    10.1106 </r>
       <r>    39.3469     0.3991    10.1831 </r>
       <r>    39.5288     0.3226    10.2418 </r>
       <r>    39.7106     0.2187    10.2816 </r>
       <r>    39.8924     0.0844    10.2969 </r>
       <r>    40.0742     0.2376    10.3401 </r>
       <r>    40.2560     0.8654    10.4975 </r>
       <r>    40.4379     0.7345    10.6310 </r>
       <r>    40.6197     0.1009    10.6494 </r>
       <r>    40.8015     0.0450    10.6575 </r>
       <r>    40.9833    -0.0065    10.6564 </r>
       <r>    41.1651     0.1399    10.6818 </r>
       <r>    41.3470     0.2177    10.7214 </r>
       <r>    41.5288     0.2358    10.7643 </r>
       <r>    41.7106     0.3537    10.8286 </r>
       <r>    41.8924     0.0998    10.8467 </r>
       <r>    42.0742     0.2301    10.8886 </r>
       <r>    42.2561     0.4495    10.9703 </r>
       <r>    42.4379     0.2037    11.0073 </r>
       <r>    42.6197     0.1545    11.0354 </r>
       <r>    42.8015     0.2490    11.0807 </r>
       <r>    42.9833     0.1511    11.1082 </r>
       <r>    43.1652     0.0796    11.1226 </r>
       <r>    43.3470     0.1611    11.1519 </r>
       <r>    43.5288     0.4191    11.2281 </r>
       <r>    43.7106     0.2720    11.2776 </r>
       <r>    43.8924    -0.0034    11.2770 </r>
       <r>    44.0743     0.0037    11.2777 </r>
       <r>    44.2561     0.4235    11.3546 </r>
       <r>    44.4379     0.5569    11.4559 </r>
       <r>    44.6197     0.1086    11.4756 </r>
       <r>    44.8015     0.0544    11.4855 </r>
       <r>    44.9834     0.0739    11.4990 </r>
       <r>    45.1652     0.0587    11.5096 </r>
       <r>    45.3470     0.2003    11.5461 </r>
       <r>    45.5288     0.2715    11.5954 </r>
       <r>    45.7107     0.2168    11.6348 </r>
       <r>    45.8925     0.0312    11.6405 </r>
       <r>    46.0743    -0.0106    11.6386 </r>
       <r>    46.2561    -0.0126    11.6363 </r>
       <r>    46.4379     0.1161    11.6574 </r>
       <r>    46.6198     0.2958    11.7112 </r>
       <r>    46.8016     0.0696    11.7239 </r>
       <r>    46.9834    -0.0166    11.7208 </r>
       <r>    47.1652     0.1367    11.7457 </r>
       <r>    47.3470     0.2880    11.7980 </r>
       <r>    47.5289     0.1911    11.8328 </r>
       <r>    47.7107     0.0094    11.8345 </r>
       <r>    47.8925    -0.0084    11.8330 </r>
       <r>    48.0743    -0.0121    11.8308 </r>
       <r>    48.2561     0.1132    11.8514 </r>
       <r>    48.4380     0.2910    11.9043 </r>
       <r>    48.6198     0.0826    11.9193 </r>
       <r>    48.8016     0.0788    11.9336 </r>
       <r>    48.9834     0.0639    11.9452 </r>
       <r>    49.1652    -0.0028    11.9447 </r>
       <r>    49.3471    -0.0015    11.9445 </r>
       <r>    49.5289    -0.0000    11.9444 </r>
       <r>    49.7107    -0.0000    11.9444 </r>
       <r>    49.8925    -0.0000    11.9444 </r>
       <r>    50.0743    -0.0000    11.9444 </r>
       <r>    50.2562    -0.0000    11.9444 </r>
       <r>    50.4380    -0.0000    11.9444 </r>
       <r>    50.6198    -0.0001    11.9444 </r>
       <r>    50.8016    -0.0038    11.9437 </r>
       <r>    50.9834     0.0025    11.9442 </r>
       <r>    51.1653     0.1352    11.9688 </r>
       <r>    51.3471     0.1629    11.9984 </r>
       <r>    51.5289     0.0145    12.0010 </r>
       <r>    51.7107    -0.0053    12.0001 </r>
       <r>    51.8925    -0.0003    12.0000 </r>
       <r>    52.0744    -0.0000    12.0000 </r>
       <r>    52.2562    -0.0000    12.0000 </r>
       <r>    52.4380    -0.0000    12.0000 </r>
       <r>    52.6198    -0.0000    12.0000 </r>
       <r>    52.8016     0.0000    12.0000 </r>
       <r>    52.9835     0.0000    12.0000 </r>
       <r>    53.1653     0.0000    12.0000 </r>
       <r>    53.3471     0.0000    12.0000 </r>
       <r>    53.5289     0.0000    12.0000 </r>
       <r>    53.7107     0.0000    12.0000 </r>
      </set>
     </set>
    </array>
   </total>
  </dos>
 </calculation>
 <structure name="finalpos" >
  <crystal>
   <varray name="basis" >
    <v>       0.00000000       1.75500000       1.75500000 </v>
    <v>       1.75500000       0.00000000       1.75500000 </v>
    <v>       1.75500000       1.75500000       0.00000000 </v>
   </varray>
   <i name="volume">     10.81088775 </i>
   <varray name="rec_basis" >
    <v>      -0.28490028       0.28490028       0.28490028 </v>
    <v>       0.28490028      -0.28490028       0.28490028 </v>
    <v>       0.28490028       0.28490028      -0.28490028 </v>
   </varray>
  </crystal>
  <varray name="positions" >
   <v>       0.00000000       0.00000000       0.00000000 </v>
  </varray>
 </structure>
</modeling>
