   1   1   0   0
  0.1081089E+02  0.2481945E-09  0.2481945E-09  0.2481945E-09  0.5000000E-15
  1.000000000000000E-004
  CAR 
 Co-fcc                                  
     53.60757954     -1.04612780  301     10.39783072      1.00000000
     -1.046  0.0000E+00  0.0000E+00  0.0000E+00  0.0000E+00
     -0.864  0.0000E+00  0.0000E+00  0.0000E+00  0.0000E+00
     -0.682  0.0000E+00  0.0000E+00  0.0000E+00  0.0000E+00
     -0.500  0.0000E+00  0.0000E+00  0.0000E+00  0.0000E+00
     -0.317  0.0000E+00  0.0000E+00  0.0000E+00  0.0000E+00
     -0.135  0.0000E+00  0.0000E+00  0.0000E+00  0.0000E+00
      0.047  0.0000E+00  0.0000E+00  0.0000E+00  0.0000E+00
      0.229  0.0000E+00  0.0000E+00  0.0000E+00  0.0000E+00
      0.411  0.0000E+00  0.0000E+00  0.0000E+00  0.0000E+00
      0.593  0.0000E+00  0.0000E+00  0.0000E+00  0.0000E+00
      0.776  0.0000E+00  0.0000E+00  0.0000E+00  0.0000E+00
      0.958  0.0000E+00  0.0000E+00  0.0000E+00  0.0000E+00
      1.140  0.0000E+00  0.0000E+00  0.0000E+00  0.0000E+00
      1.322  0.3309E-05  0.7588E-06  0.6028E-06  0.1382E-06
      1.504  0.6165E-02  0.5912E-02  0.1124E-02  0.1077E-02
      1.687  0.1861E-01  0.1800E-01  0.4514E-02  0.4356E-02
      1.869  0.1910E-01  0.1904E-01  0.7994E-02  0.7824E-02
      2.051  0.2538E-01  0.2506E-01  0.1262E-01  0.1239E-01
      2.233  0.3812E-01  0.3772E-01  0.1956E-01  0.1926E-01
      2.415  0.1975E-01  0.2061E-01  0.2316E-01  0.2302E-01
      2.597  0.3898E-01  0.3796E-01  0.3026E-01  0.2993E-01
      2.780  0.5730E-01  0.5750E-01  0.4070E-01  0.4041E-01
      2.962  0.2462E-01  0.2035E-01  0.4518E-01  0.4411E-01
      3.144  0.6075E-01  0.4730E-01  0.5625E-01  0.5273E-01
      3.326  0.5816E-01  0.5890E-01  0.6685E-01  0.6346E-01
      3.508  0.6625E-01  0.5536E-01  0.7892E-01  0.7354E-01
      3.691  0.6325E-01  0.7036E-01  0.9044E-01  0.8636E-01
      3.873  0.6062E-01  0.5589E-01  0.1015E+00  0.9654E-01
      4.055  0.8409E-01  0.4366E-01  0.1168E+00  0.1045E+00
      4.237  0.9034E-01  0.1035E+00  0.1333E+00  0.1234E+00
      4.419  0.1009E+00  0.6998E-01  0.1516E+00  0.1361E+00
      4.601  0.7958E-01  0.9448E-01  0.1661E+00  0.1533E+00
      4.784  0.1708E+00  0.4500E-01  0.1973E+00  0.1615E+00
      4.966  0.1215E+00  0.1564E+00  0.2194E+00  0.1900E+00
      5.148  0.2829E+00  0.7822E-01  0.2709E+00  0.2043E+00
      5.330  0.5247E+00  0.1043E+00  0.3665E+00  0.2233E+00
      5.512  0.5247E+00  0.1359E+00  0.4621E+00  0.2480E+00
      5.694  0.6507E+00  0.1846E+00  0.5806E+00  0.2816E+00
      5.877  0.7487E+00  0.1075E+00  0.7170E+00  0.3012E+00
      6.059  0.8704E+00  0.2803E+00  0.8756E+00  0.3523E+00
      6.241  0.9385E+00  0.2805E+00  0.1047E+01  0.4034E+00
      6.423  0.8502E+00  0.4264E+00  0.1201E+01  0.4811E+00
      6.605  0.9311E+00  0.4464E+00  0.1371E+01  0.5624E+00
      6.788  0.8037E+00  0.4110E+00  0.1518E+01  0.6373E+00
      6.970  0.7223E+00  0.5070E+00  0.1649E+01  0.7296E+00
      7.152  0.9046E+00  0.5108E+00  0.1814E+01  0.8227E+00
      7.334  0.1195E+01  0.7198E+00  0.2032E+01  0.9538E+00
      7.516  0.1046E+01  0.8609E+00  0.2222E+01  0.1111E+01
      7.698  0.1536E+01  0.6962E+00  0.2502E+01  0.1237E+01
      7.881  0.1613E+01  0.6683E+00  0.2796E+01  0.1359E+01
      8.063  0.1395E+01  0.7311E+00  0.3050E+01  0.1492E+01
      8.245  0.1071E+01  0.6344E+00  0.3245E+01  0.1608E+01
      8.427  0.1003E+01  0.8035E+00  0.3428E+01  0.1754E+01
      8.609  0.1223E+01  0.1019E+01  0.3651E+01  0.1940E+01
      8.792  0.1331E+01  0.8672E+00  0.3893E+01  0.2098E+01
      8.974  0.1191E+01  0.1078E+01  0.4110E+01  0.2294E+01
      9.156  0.9814E+00  0.9934E+00  0.4289E+01  0.2475E+01
      9.338  0.1100E+01  0.1019E+01  0.4489E+01  0.2661E+01
      9.520  0.1379E+01  0.1226E+01  0.4741E+01  0.2884E+01
      9.702  0.1737E+01  0.1244E+01  0.5057E+01  0.3111E+01
      9.885  0.1024E+01  0.7904E+00  0.5244E+01  0.3255E+01
     10.067  0.1227E+00  0.6944E+00  0.5266E+01  0.3381E+01
     10.249  0.1512E+00  0.7903E+00  0.5293E+01  0.3525E+01
     10.431  0.1732E+00  0.1031E+01  0.5325E+01  0.3713E+01
     10.613  0.1134E+00  0.1058E+01  0.5346E+01  0.3906E+01
     10.796  0.1752E+00  0.1063E+01  0.5378E+01  0.4100E+01
     10.978  0.1529E+00  0.1012E+01  0.5405E+01  0.4284E+01
     11.160  0.1243E+00  0.9311E+00  0.5428E+01  0.4454E+01
     11.342  0.1081E+00  0.1194E+01  0.5448E+01  0.4671E+01
     11.524  0.1275E+00  0.1795E+01  0.5471E+01  0.4998E+01
     11.706  0.2073E+00  0.1338E+01  0.5509E+01  0.5242E+01
     11.889  0.9085E-01  0.3303E+00  0.5525E+01  0.5302E+01
     12.071  0.9648E-01  0.3107E+00  0.5543E+01  0.5359E+01
     12.253  0.1622E+00  0.8555E-01  0.5572E+01  0.5374E+01
     12.435  0.1070E+00  0.2495E+00  0.5592E+01  0.5420E+01
     12.617  0.1244E+00  0.1900E+00  0.5615E+01  0.5454E+01
     12.799  0.1213E+00  0.1258E+00  0.5637E+01  0.5477E+01
     12.982  0.1208E+00  0.2352E+00  0.5659E+01  0.5520E+01
     13.164  0.1514E+00  0.1335E+00  0.5686E+01  0.5544E+01
     13.346  0.7253E-01  0.1524E+00  0.5700E+01  0.5572E+01
     13.528  0.1953E+00  0.1751E+00  0.5735E+01  0.5604E+01
     13.710  0.5588E-01  0.1016E+00  0.5745E+01  0.5623E+01
     13.893  0.8531E-01  0.2021E+00  0.5761E+01  0.5659E+01
     14.075  0.1121E+00  0.1399E+00  0.5781E+01  0.5685E+01
     14.257  0.1261E+00  0.1207E+00  0.5804E+01  0.5707E+01
     14.439  0.1409E+00  0.1255E+00  0.5830E+01  0.5730E+01
     14.621  0.6780E-01  0.1305E+00  0.5842E+01  0.5753E+01
     14.803  0.1143E+00  0.9250E-01  0.5863E+01  0.5770E+01
     14.986  0.4231E-01  0.1503E+00  0.5871E+01  0.5798E+01
     15.168  0.4498E-01  0.1267E+00  0.5879E+01  0.5821E+01
     15.350  0.1105E+00  0.1298E+00  0.5899E+01  0.5844E+01
     15.532  0.1293E+00  0.3643E-01  0.5923E+01  0.5851E+01
     15.714  0.8871E-01  0.9971E-01  0.5939E+01  0.5869E+01
     15.897  0.1200E-01  0.8719E-01  0.5941E+01  0.5885E+01
     16.079  0.2268E-03  0.7870E-01  0.5941E+01  0.5899E+01
     16.261  0.1121E+00  0.1631E+00  0.5961E+01  0.5929E+01
     16.443  0.5095E-01  0.3865E-01  0.5971E+01  0.5936E+01
     16.625  0.5805E-01  0.2607E-01  0.5981E+01  0.5941E+01
     16.807  0.1505E+00  0.3074E-01  0.6009E+01  0.5947E+01
     16.990  0.8421E-01  0.1151E+00  0.6024E+01  0.5968E+01
     17.172  0.1807E+00  0.2740E-01  0.6057E+01  0.5973E+01
     17.354  0.1452E+00  0.7352E-01  0.6083E+01  0.5986E+01
     17.536  0.2193E+00  0.1132E-02  0.6123E+01  0.5986E+01
     17.718  0.7751E-01  0.1167E+00  0.6137E+01  0.6007E+01
     17.900  0.1921E+00  0.1986E+00  0.6172E+01  0.6044E+01
     18.083  0.1642E+00  0.2506E+00  0.6202E+01  0.6089E+01
     18.265  0.9596E-01  0.1934E+00  0.6220E+01  0.6124E+01
     18.447  0.1302E+00  0.6924E-01  0.6244E+01  0.6137E+01
     18.629  0.1009E+00  0.2484E+00  0.6262E+01  0.6182E+01
     18.811  0.1629E+00  0.1140E+00  0.6292E+01  0.6203E+01
     18.994  0.1125E+00  0.1695E+00  0.6312E+01  0.6234E+01
     19.176  0.1196E+00  0.9148E-01  0.6334E+01  0.6251E+01
     19.358  0.6375E-01  0.1282E+00  0.6346E+01  0.6274E+01
     19.540  0.1392E+00  0.1589E+00  0.6371E+01  0.6303E+01
     19.722  0.8639E-01  0.1259E+00  0.6387E+01  0.6326E+01
     19.904  0.1687E+00  0.1041E+00  0.6417E+01  0.6345E+01
     20.087  0.7073E-01  0.9469E-01  0.6430E+01  0.6362E+01
     20.269  0.2053E+00  0.1004E+00  0.6468E+01  0.6380E+01
     20.451  0.1891E+00  0.1726E+00  0.6502E+01  0.6412E+01
     20.633  0.4237E-01  0.8015E-01  0.6510E+01  0.6426E+01
     20.815  0.9422E-01  0.1171E+00  0.6527E+01  0.6448E+01
     20.998  0.2853E+00  0.1420E+00  0.6579E+01  0.6474E+01
     21.180  0.1172E+00  0.2055E+00  0.6600E+01  0.6511E+01
     21.362  0.2291E+00  0.6007E-01  0.6642E+01  0.6522E+01
     21.544  0.2030E+00  0.2270E+00  0.6679E+01  0.6563E+01
     21.726  0.1288E+00  0.1791E+00  0.6703E+01  0.6596E+01
     21.908  0.1485E+00  0.2338E+00  0.6730E+01  0.6639E+01
     22.091  0.2515E+00  0.1797E+00  0.6775E+01  0.6671E+01
     22.273  0.1355E+00  0.1739E+00  0.6800E+01  0.6703E+01
     22.455  0.1841E+00  0.1592E+00  0.6834E+01  0.6732E+01
     22.637  0.1687E+00  0.2243E+00  0.6864E+01  0.6773E+01
     22.819  0.1761E+00  0.2041E+00  0.6896E+01  0.6810E+01
     23.002  0.1976E+00  0.2019E+00  0.6932E+01  0.6847E+01
     23.184  0.1911E+00  0.1548E+00  0.6967E+01  0.6875E+01
     23.366  0.2146E+00  0.2204E+00  0.7006E+01  0.6915E+01
     23.548  0.1013E+00  0.1630E+00  0.7025E+01  0.6945E+01
     23.730  0.2724E+00  0.1898E+00  0.7074E+01  0.6979E+01
     23.912  0.2187E+00  0.1802E+00  0.7114E+01  0.7012E+01
     24.095  0.1880E+00  0.2105E+00  0.7149E+01  0.7051E+01
     24.277  0.1898E+00  0.2915E+00  0.7183E+01  0.7104E+01
     24.459  0.9608E-01  0.1892E+00  0.7201E+01  0.7138E+01
     24.641  0.3140E+00  0.1432E+00  0.7258E+01  0.7164E+01
     24.823  0.1664E+00  0.1932E+00  0.7288E+01  0.7200E+01
     25.005  0.1111E+00  0.2638E+00  0.7308E+01  0.7248E+01
     25.188  0.2896E+00  0.2204E+00  0.7361E+01  0.7288E+01
     25.370  0.3161E+00  0.8734E-01  0.7419E+01  0.7304E+01
     25.552  0.1505E+00  0.3186E+00  0.7446E+01  0.7362E+01
     25.734  0.1777E+00  0.3405E+00  0.7479E+01  0.7424E+01
     25.916  0.1647E+00  0.1120E+00  0.7509E+01  0.7444E+01
     26.099  0.3399E+00  0.1780E+00  0.7570E+01  0.7477E+01
     26.281  0.1962E+00  0.2574E+00  0.7606E+01  0.7523E+01
     26.463  0.2421E+00  0.2680E+00  0.7650E+01  0.7572E+01
     26.645  0.1477E+00  0.2030E+00  0.7677E+01  0.7609E+01
     26.827  0.2073E+00  0.2244E+00  0.7715E+01  0.7650E+01
     27.009  0.1996E+00  0.1813E+00  0.7751E+01  0.7683E+01
     27.192  0.2641E+00  0.1994E+00  0.7799E+01  0.7719E+01
     27.374  0.2036E+00  0.2555E+00  0.7837E+01  0.7766E+01
     27.556  0.1349E+00  0.2256E+00  0.7861E+01  0.7807E+01
     27.738  0.1909E+00  0.1971E+00  0.7896E+01  0.7843E+01
     27.920  0.2480E+00  0.1560E+00  0.7941E+01  0.7871E+01
     28.103  0.1643E+00  0.2061E+00  0.7971E+01  0.7909E+01
     28.285  0.1678E+00  0.1971E+00  0.8002E+01  0.7945E+01
     28.467  0.1368E+00  0.1802E+00  0.8026E+01  0.7978E+01
     28.649  0.2517E+00  0.2155E+00  0.8072E+01  0.8017E+01
     28.831  0.2159E+00  0.1164E+00  0.8112E+01  0.8038E+01
     29.013  0.1877E+00  0.2662E+00  0.8146E+01  0.8087E+01
     29.196  0.1673E+00  0.2637E+00  0.8176E+01  0.8135E+01
     29.378  0.1111E+00  0.1528E+00  0.8197E+01  0.8163E+01
     29.560  0.1390E+00  0.1192E+00  0.8222E+01  0.8184E+01
     29.742  0.2322E+00  0.1114E+00  0.8264E+01  0.8205E+01
     29.924  0.1630E+00  0.2638E+00  0.8294E+01  0.8253E+01
     30.106  0.1494E+00  0.1491E+00  0.8321E+01  0.8280E+01
     30.289  0.1311E+00  0.1977E+00  0.8345E+01  0.8316E+01
     30.471  0.9213E-01  0.1624E+00  0.8362E+01  0.8345E+01
     30.653  0.2282E+00  0.5838E-01  0.8403E+01  0.8356E+01
     30.835  0.2994E+00  0.2242E+00  0.8458E+01  0.8397E+01
     31.017  0.1217E+00  0.1640E+00  0.8480E+01  0.8427E+01
     31.200  0.1069E+00  0.2713E+00  0.8500E+01  0.8476E+01
     31.382  0.2382E+00  0.2062E+00  0.8543E+01  0.8514E+01
     31.564  0.1406E+00  0.1741E+00  0.8569E+01  0.8545E+01
     31.746  0.2041E+00  0.1281E+00  0.8606E+01  0.8569E+01
     31.928  0.1922E+00  0.1998E+00  0.8641E+01  0.8605E+01
     32.110  0.1951E+00  0.1876E+00  0.8676E+01  0.8639E+01
     32.293  0.2657E+00  0.1767E+00  0.8725E+01  0.8672E+01
     32.475  0.3488E+00  0.2811E+00  0.8788E+01  0.8723E+01
     32.657  0.1702E+00  0.3249E+00  0.8819E+01  0.8782E+01
     32.839  0.2428E+00  0.2139E+00  0.8863E+01  0.8821E+01
     33.021  0.2511E+00  0.1951E+00  0.8909E+01  0.8856E+01
     33.204  0.1430E+00  0.2323E+00  0.8935E+01  0.8899E+01
     33.386  0.3375E+00  0.2211E+00  0.8997E+01  0.8939E+01
     33.568  0.3063E+00  0.3870E+00  0.9053E+01  0.9010E+01
     33.750  0.1879E+00  0.1672E+00  0.9087E+01  0.9040E+01
     33.932  0.2122E+00  0.2866E+00  0.9125E+01  0.9092E+01
     34.114  0.2804E+00  0.1972E+00  0.9177E+01  0.9128E+01
     34.297  0.3001E+00  0.2924E+00  0.9231E+01  0.9181E+01
     34.479  0.1932E+00  0.2683E+00  0.9266E+01  0.9230E+01
     34.661  0.2148E+00  0.2055E+00  0.9306E+01  0.9268E+01
     34.843  0.2436E+00  0.1730E+00  0.9350E+01  0.9299E+01
     35.025  0.3395E+00  0.1740E+00  0.9412E+01  0.9331E+01
     35.207  0.2784E+00  0.4158E+00  0.9462E+01  0.9407E+01
     35.390  0.3002E+00  0.3414E+00  0.9517E+01  0.9469E+01
     35.572  0.2510E+00  0.3018E+00  0.9563E+01  0.9524E+01
     35.754  0.2866E+00  0.1386E+00  0.9615E+01  0.9549E+01
     35.936  0.1701E+00  0.2335E+00  0.9646E+01  0.9592E+01
     36.118  0.2084E+00  0.2636E+00  0.9684E+01  0.9640E+01
     36.301  0.1642E+00  0.3010E+00  0.9714E+01  0.9694E+01
     36.483  0.2531E+00  0.1291E+00  0.9760E+01  0.9718E+01
     36.665  0.2515E+00  0.2796E+00  0.9806E+01  0.9769E+01
     36.847  0.2111E+00  0.2120E+00  0.9844E+01  0.9808E+01
     37.029  0.1035E+00  0.1166E+00  0.9863E+01  0.9829E+01
     37.211  0.1440E+00  0.1614E+00  0.9889E+01  0.9858E+01
     37.394  0.2259E+00  0.1517E+00  0.9931E+01  0.9886E+01
     37.576  0.1834E+00  0.1363E+00  0.9964E+01  0.9911E+01
     37.758  0.2267E+00  0.1948E+00  0.1001E+02  0.9946E+01
     37.940  0.2164E+00  0.2994E+00  0.1004E+02  0.1000E+02
     38.122  0.1389E+00  0.2013E+00  0.1007E+02  0.1004E+02
     38.305  0.8495E-01  0.1540E+00  0.1009E+02  0.1007E+02
     38.487  0.4054E-01  0.7869E-01  0.1009E+02  0.1008E+02
     38.669  0.1723E+00  0.4431E-01  0.1012E+02  0.1009E+02
     38.851  0.1388E+00  0.1200E+00  0.1015E+02  0.1011E+02
     39.033  0.1579E+00  0.1176E+00  0.1018E+02  0.1013E+02
     39.215  0.2210E+00  0.1634E+00  0.1022E+02  0.1016E+02
     39.398  0.2521E+00  0.3143E+00  0.1026E+02  0.1022E+02
     39.580  0.2390E+00  0.1545E+00  0.1031E+02  0.1025E+02
     39.762  0.2751E+00  0.2630E+00  0.1036E+02  0.1029E+02
     39.944  0.2834E+00  0.3088E+00  0.1041E+02  0.1035E+02
     40.126  0.2317E+00  0.2649E+00  0.1045E+02  0.1040E+02
     40.309  0.3478E+00  0.1916E+00  0.1052E+02  0.1043E+02
     40.491  0.3044E+00  0.3762E+00  0.1057E+02  0.1050E+02
     40.673  0.2408E+00  0.2994E+00  0.1061E+02  0.1056E+02
     40.855  0.4336E+00  0.2867E+00  0.1069E+02  0.1061E+02
     41.037  0.3198E+00  0.3746E+00  0.1075E+02  0.1068E+02
     41.219  0.2134E+00  0.3490E+00  0.1079E+02  0.1074E+02
     41.402  0.2550E+00  0.2555E+00  0.1084E+02  0.1079E+02
     41.584  0.2155E+00  0.1884E+00  0.1088E+02  0.1082E+02
     41.766  0.2291E+00  0.2723E+00  0.1092E+02  0.1087E+02
     41.948  0.1754E+00  0.2427E+00  0.1095E+02  0.1092E+02
     42.130  0.2684E+00  0.1789E+00  0.1100E+02  0.1095E+02
     42.312  0.3138E+00  0.2908E+00  0.1106E+02  0.1100E+02
     42.495  0.8627E-01  0.2711E+00  0.1107E+02  0.1105E+02
     42.677  0.2848E+00  0.1321E+00  0.1112E+02  0.1107E+02
     42.859  0.1800E+00  0.1709E+00  0.1116E+02  0.1111E+02
     43.041  0.6224E-01  0.2326E+00  0.1117E+02  0.1115E+02
     43.223  0.2195E+00  0.1622E+00  0.1121E+02  0.1118E+02
     43.406  0.2608E+00  0.1451E+00  0.1126E+02  0.1120E+02
     43.588  0.1379E+00  0.2839E+00  0.1128E+02  0.1126E+02
     43.770  0.1652E+00  0.1341E+00  0.1131E+02  0.1128E+02
     43.952  0.1527E+00  0.1579E+00  0.1134E+02  0.1131E+02
     44.134  0.1557E+00  0.1100E+00  0.1137E+02  0.1133E+02
     44.316  0.1543E+00  0.1011E+00  0.1140E+02  0.1135E+02
     44.499  0.2993E+00  0.1714E+00  0.1145E+02  0.1138E+02
     44.681  0.2770E+00  0.2186E+00  0.1150E+02  0.1142E+02
     44.863  0.1590E+00  0.3121E+00  0.1153E+02  0.1148E+02
     45.045  0.1639E+00  0.1918E+00  0.1156E+02  0.1151E+02
     45.227  0.1165E+00  0.1880E+00  0.1158E+02  0.1154E+02
     45.410  0.1230E+00  0.1657E+00  0.1160E+02  0.1157E+02
     45.592  0.2046E+00  0.6416E-01  0.1164E+02  0.1159E+02
     45.774  0.2240E+00  0.1903E+00  0.1168E+02  0.1162E+02
     45.956  0.1325E+00  0.1454E+00  0.1170E+02  0.1165E+02
     46.138  0.2653E-01  0.1574E+00  0.1171E+02  0.1168E+02
     46.320  0.1058E+00  0.7589E-01  0.1173E+02  0.1169E+02
     46.503  0.2054E+00  0.1173E+00  0.1177E+02  0.1171E+02
     46.685  0.2223E+00  0.1236E+00  0.1181E+02  0.1173E+02
     46.867  0.1875E+00  0.8727E-01  0.1184E+02  0.1175E+02
     47.049  0.1097E+00  0.9544E-01  0.1186E+02  0.1177E+02
     47.231  0.3084E+00  0.2063E+00  0.1192E+02  0.1180E+02
     47.413  0.4309E+00  0.1762E+00  0.1200E+02  0.1184E+02
     47.596  0.2393E-01  0.7566E-01  0.1200E+02  0.1185E+02
     47.778  0.1272E-07  0.1953E-01  0.1200E+02  0.1185E+02
     47.960  0.0000E+00  0.4483E-05  0.1200E+02  0.1185E+02
     48.142  0.0000E+00  0.1238E-01  0.1200E+02  0.1186E+02
     48.324  0.0000E+00  0.1461E+00  0.1200E+02  0.1188E+02
     48.507  0.0000E+00  0.7839E-01  0.1200E+02  0.1190E+02
     48.689  0.0000E+00  0.2998E-01  0.1200E+02  0.1190E+02
     48.871  0.0000E+00  0.2495E-06  0.1200E+02  0.1190E+02
     49.053  0.0000E+00  0.2192E-02  0.1200E+02  0.1190E+02
     49.235  0.0000E+00  0.6510E-01  0.1200E+02  0.1192E+02
     49.417  0.0000E+00  0.4705E-01  0.1200E+02  0.1192E+02
     49.600  0.0000E+00  0.3505E-03  0.1200E+02  0.1192E+02
     49.782  0.0000E+00  0.5376E-01  0.1200E+02  0.1193E+02
     49.964  0.0000E+00  0.9366E-01  0.1200E+02  0.1195E+02
     50.146  0.0000E+00  0.4712E-02  0.1200E+02  0.1195E+02
     50.328  0.0000E+00  0.0000E+00  0.1200E+02  0.1195E+02
     50.511  0.0000E+00  0.1015E-08  0.1200E+02  0.1195E+02
     50.693  0.0000E+00  0.1853E-01  0.1200E+02  0.1195E+02
     50.875  0.0000E+00  0.5850E-01  0.1200E+02  0.1197E+02
     51.057  0.0000E+00  0.1300E+00  0.1200E+02  0.1199E+02
     51.239  0.0000E+00  0.5975E-01  0.1200E+02  0.1200E+02
     51.421  0.0000E+00  0.9998E-05  0.1200E+02  0.1200E+02
     51.604  0.0000E+00  0.0000E+00  0.1200E+02  0.1200E+02
     51.786  0.0000E+00  0.0000E+00  0.1200E+02  0.1200E+02
     51.968  0.0000E+00  0.0000E+00  0.1200E+02  0.1200E+02
     52.150  0.0000E+00  0.0000E+00  0.1200E+02  0.1200E+02
     52.332  0.0000E+00  0.0000E+00  0.1200E+02  0.1200E+02
     52.515  0.0000E+00  0.0000E+00  0.1200E+02  0.1200E+02
     52.697  0.0000E+00  0.0000E+00  0.1200E+02  0.1200E+02
     52.879  0.0000E+00  0.0000E+00  0.1200E+02  0.1200E+02
     53.061  0.0000E+00  0.0000E+00  0.1200E+02  0.1200E+02
     53.243  0.0000E+00  0.0000E+00  0.1200E+02  0.1200E+02
     53.425  0.0000E+00  0.0000E+00  0.1200E+02  0.1200E+02
     53.608  0.0000E+00  0.0000E+00  0.1200E+02  0.1200E+02
