    1    1    1    2
  0.1081089E+02  0.2481945E-09  0.2481945E-09  0.2481945E-09  0.5000000E-15
  1.000000000000000E-004
  CAR 
 Co-fcc                                  
      9    182     12
 
  0.4166667E-01  0.4166667E-01  0.4166667E-01  0.1157407E-02
      1          1.438132        1.452091   1.000000   1.000000
      2          7.646451        9.247607   1.000000   1.000000
      3          7.683391        9.292008   1.000000   1.000000
      4          7.683391        9.292008   1.000000   1.000000
      5          8.734104       10.685774   1.000000   0.000000
      6          8.734104       10.685774   1.000000   0.000000
      7         33.350693       33.059178   0.000000   0.000000
      8         36.849535       36.999054   0.000000   0.000000
      9         37.719956       37.892094   0.000000   0.000000
     10         37.719956       37.892094   0.000000   0.000000
     11         41.267936       41.557106   0.000000   0.000000
     12         41.267941       41.557128   0.000000   0.000000
 
  0.1250000E+00  0.4166667E-01  0.4166667E-01  0.3472222E-02
      1          1.803240        1.819075   1.000000   1.000000
      2          7.540429        9.112505   1.000000   1.000000
      3          7.762604        9.380558   1.000000   1.000000
      4          7.778292        9.394840   1.000000   1.000000
      5          8.653657       10.589421   1.000000   0.000000
      6          8.753797       10.702090   1.000000   0.000000
      7         32.272819       32.239480   0.000000   0.000000
      8         34.565572       34.647905   0.000000   0.000000
      9         36.584254       36.744715   0.000000   0.000000
     10         38.210769       38.386544   0.000000   0.000000
     11         41.183228       41.210151   0.000000   0.000000
     12         41.385841       41.659880   0.000000   0.000000
 
  0.2083333E+00  0.4166667E-01  0.4166667E-01  0.3472222E-02
      1          2.667195        2.696895   1.000000   1.000000
      2          7.364757        8.859957   1.000000   1.000000
      3          7.875949        9.520076   1.000000   1.000000
      4          7.889713        9.537220   1.000000   1.000000
      5          8.615389       10.519623   1.000000   0.000286
      6          8.826904       10.750249   1.000000   0.000000
      7         28.580495       28.875884   0.000000   0.000000
      8         33.436588       33.410500   0.000000   0.000000
      9         36.102225       36.246458   0.000000   0.000000
     10         37.877050       38.148510   0.000000   0.000000
     11         40.790245       40.764115   0.000000   0.000000
     12         41.748146       41.919757   0.000000   0.000000
 
  0.2916667E+00  0.4166667E-01  0.4166667E-01  0.3472222E-02
      1          3.843226        3.952701   1.000000   1.000000
      2          7.330470        8.654948   1.000000   1.000000
      3          7.827559        9.506358   1.000000   1.000000
      4          7.857891        9.552234   1.000000   1.000000
      5          8.820497       10.686235   1.000000   0.000000
      6          9.089592       10.979603   1.000000   0.000000
      7         24.492281       24.944091   0.000000   0.000000
      8         32.765718       32.717396   0.000000   0.000000
      9         35.365362       35.539279   0.000000   0.000000
     10         37.449514       37.793766   0.000000   0.000000
     11         40.007697       40.240408   0.000000   0.000000
     12         40.758933       40.843096   0.000000   0.000000
 
  0.3750000E+00  0.4166667E-01  0.4166667E-01  0.3472222E-02
      1          4.815280        5.240037   1.000000   1.000000
      2          7.683312        8.790301   1.000000   1.000000
      3          7.715543        9.373070   1.000000   1.000000
      4          7.891661        9.420756   1.000000   1.000000
      5          9.183781       11.057979   1.000000   0.000000
      6          9.483327       11.339894   1.000000   0.000000
      7         20.722964       21.345369   0.000000   0.000000
      8         32.208250       32.078869   0.000000   0.000000
      9         34.666244       34.895782   0.000000   0.000000
     10         36.835635       37.204869   0.000000   0.000000
     11         38.451537       38.699724   0.000000   0.000000
     12         40.178997       40.381743   0.000000   0.000000
 
  0.4583333E+00  0.4166667E-01  0.4166667E-01  0.3472222E-02
      1          5.161602        5.987513   1.000000   1.000000
      2          7.558648        9.224793   1.000000   1.000000
      3          7.604199        9.303336   1.000000   1.000000
      4          8.960218        9.521845   1.000000   1.000000
      5          9.496196       11.399280   1.000000   0.000000
      6         10.072724       11.667327   1.000000   0.000000
      7         17.677362       18.542222   0.000000   0.000000
      8         31.844353       31.634777   0.000000   0.000000
      9         34.417448       34.694323   0.000000   0.000000
     10         35.668536       35.993578   0.000000   0.000000
     11         38.207658       38.498511   0.000000   0.000000
     12         39.314533       39.559233   0.000000   0.000000
 
 -0.4583333E+00  0.4166667E-01  0.4166667E-01  0.3472222E-02
      1          5.206584        6.133691   1.000000   1.000000
      2          7.516529        9.188223   1.000000   1.000000
      3          7.579847        9.275317   1.000000   1.000000
      4          9.217839        9.891868   1.000000   1.000000
      5          9.626801       11.547231   1.000000   0.000000
      6         10.535758       11.762231   0.000048   0.000000
      7         16.613689       17.626789   0.000000   0.000000
      8         31.791552       31.543924   0.000000   0.000000
      9         34.722128       35.042003   0.000000   0.000000
     10         34.775684       35.082898   0.000000   0.000000
     11         38.689728       38.973733   0.000000   0.000000
     12         38.714975       38.973932   0.000000   0.000000
 
 -0.3750000E+00  0.4166667E-01  0.4166667E-01  0.3472222E-02
      1          5.099060        5.818678   1.000000   1.000000
      2          7.576198        9.167791   1.000000   1.000000
      3          7.649662        9.319142   1.000000   1.000000
      4          8.612601        9.346981   1.000000   1.000000
      5          9.529358       11.433920   1.000000   0.000000
      6          9.736054       11.445367   1.000000   0.000000
      7         18.564893       19.339227   0.000000   0.000000
      8         32.109411       31.866009   0.000000   0.000000
      9         34.292123       34.631467   0.000000   0.000000
     10         35.710574       36.048271   0.000000   0.000000
     11         38.527663       38.770420   0.000000   0.000000
     12         39.652651       39.904231   0.000000   0.000000
 
 -0.2916667E+00  0.4166667E-01  0.4166667E-01  0.3472222E-02
      1          4.557366        4.842656   1.000000   1.000000
      2          7.597679        8.676526   1.000000   1.000000
      3          7.718220        9.415661   1.000000   1.000000
      4          7.780774        9.477189   1.000000   1.000000
      5          9.157837       10.990674   1.000000   0.000000
      6          9.256172       11.158974   1.000000   0.000000
      7         21.924521       22.484265   0.000000   0.000000
      8         32.738382       32.527889   0.000000   0.000000
      9         34.339948       34.697389   0.000000   0.000000
     10         36.961249       37.318659   0.000000   0.000000
     11         38.850298       39.044271   0.000000   0.000000
     12         41.049873       41.254514   0.000000   0.000000
 
 -0.2083333E+00  0.4166667E-01  0.4166667E-01  0.3472222E-02
      1          3.438829        3.506622   1.000000   1.000000
      2          7.297956        8.697791   1.000000   1.000000
      3          7.861952        9.540816   1.000000   1.000000
      4          7.890739        9.564591   1.000000   1.000000
      5          8.759858       10.621420   1.000000   0.000000
      6          8.949053       10.859256   1.000000   0.000000
      7         25.834086       26.235630   0.000000   0.000000
      8         33.484073       33.310956   0.000000   0.000000
      9         34.775850       35.127820   0.000000   0.000000
     10         37.931500       38.215100   0.000000   0.000000
     11         39.667062       39.798717   0.000000   0.000000
     12         42.639463       42.767977   0.000000   0.000000
 
 -0.1250000E+00  0.4166667E-01  0.4166667E-01  0.3472222E-02
      1          2.330881        2.353055   1.000000   1.000000
      2          7.415170        8.942643   1.000000   1.000000
      3          7.856831        9.489786   1.000000   1.000000
      4          7.862868        9.496651   1.000000   1.000000
      5          8.608131       10.519249   1.000000   0.000297
      6          8.784536       10.724404   1.000000   0.000000
      7         29.944771       30.171591   0.000000   0.000000
      8         34.160379       34.019593   0.000000   0.000000
      9         35.537288       35.852881   0.000000   0.000000
     10         38.080869       38.234657   0.000000   0.000000
     11         40.553708       40.666436   0.000000   0.000000
     12         43.306162       43.382976   0.000000   0.000000
 
 -0.4166667E-01  0.4166667E-01  0.4166667E-01  0.3472222E-02
      1          1.621936        1.636640   1.000000   1.000000
      2          7.579735        9.166886   1.000000   1.000000
      3          7.734611        9.347070   1.000000   1.000000
      4          7.737756        9.350415   1.000000   1.000000
      5          8.669124       10.608504   1.000000   0.000000
      6          8.761914       10.716227   1.000000   0.000000
      7         32.977006       32.785084   0.000000   0.000000
      8         35.688788       35.807831   0.000000   0.000000
      9         36.579956       36.831910   0.000000   0.000000
     10         37.610229       37.738591   0.000000   0.000000
     11         41.346351       41.585103   0.000000   0.000000
     12         42.310930       42.493679   0.000000   0.000000
 
  0.1250000E+00  0.1250000E+00  0.4166667E-01  0.3472222E-02
      1          1.982810        2.000000   1.000000   1.000000
      2          7.443841        9.004987   1.000000   1.000000
      3          7.842943        9.463330   1.000000   1.000000
      4          7.845148        9.466147   1.000000   1.000000
      5          8.549514       10.462947   1.000000   0.032754
      6          8.815783       10.775151   1.000000   0.000000
      7         32.349843       32.308898   0.000000   0.000000
      8         34.463565       34.549273   0.000000   0.000000
      9         35.109397       35.414411   0.000000   0.000000
     10         36.585771       36.673224   0.000000   0.000000
     11         42.230630       42.420912   0.000000   0.000000
     12         43.571346       43.713991   0.000000   0.000000
 
  0.2083333E+00  0.1250000E+00  0.4166667E-01  0.6944444E-02
      1          2.673106        2.700907   1.000000   1.000000
      2          7.252579        8.766033   1.000000   1.000000
      3          7.946570        9.593058   1.000000   1.000000
      4          8.004296        9.643980   1.000000   1.000000
      5          8.456960       10.321694   1.000000   0.984359
      6          8.909174       10.860719   1.000000   0.000000
      7         30.177459       30.406894   0.000000   0.000000
      8         32.062223       32.222544   0.000000   0.000000
      9         34.958503       35.082718   0.000000   0.000000
     10         36.562882       36.619477   0.000000   0.000000
     11         41.466745       41.924029   0.000000   0.000000
     12         43.086271       43.431784   0.000000   0.000000
 
  0.2916667E+00  0.1250000E+00  0.4166667E-01  0.6944444E-02
      1          3.749029        3.828260   1.000000   1.000000
      2          7.100559        8.520494   1.000000   1.000000
      3          7.825474        9.511629   1.000000   1.000000
      4          8.055141        9.742580   1.000000   1.000000
      5          8.700185       10.491637   1.000000   0.003986
      6          9.162660       11.072751   1.000000   0.000000
      7         26.089766       26.482680   0.000000   0.000000
      8         31.218267       31.390340   0.000000   0.000000
      9         34.090272       34.203469   0.000000   0.000000
     10         36.780946       36.965810   0.000000   0.000000
     11         40.807622       41.091294   0.000000   0.000000
     12         42.205645       42.410536   0.000000   0.000000
 
  0.3750000E+00  0.1250000E+00  0.4166667E-01  0.6944444E-02
      1          4.830314        5.133589   1.000000   1.000000
      2          7.250934        8.450064   1.000000   1.000000
      3          7.612975        9.281472   1.000000   1.000000
      4          7.949833        9.660904   1.000000   1.000000
      5          9.183474       10.981885   1.000000   0.000000
      6          9.648670       11.451588   1.000000   0.000000
      7         22.163886       22.703081   0.000000   0.000000
      8         30.727755       30.863639   0.000000   0.000000
      9         33.077315       33.235132   0.000000   0.000000
     10         35.672117       35.983361   0.000000   0.000000
     11         40.741969       40.886576   0.000000   0.000000
     12         42.281701       42.455690   0.000000   0.000000
 
  0.4583333E+00  0.1250000E+00  0.4166667E-01  0.6944444E-02
      1          5.339914        6.088542   1.000000   1.000000
      2          7.381815        8.726749   1.000000   1.000000
      3          7.806543        9.179961   1.000000   1.000000
      4          7.990263        9.532639   1.000000   1.000000
      5          9.527313       11.415753   1.000000   0.000000
      6         10.610094       12.042587   0.000000   0.000000
      7         18.749851       19.486890   0.000000   0.000000
      8         30.456902       30.505786   0.000000   0.000000
      9         32.260255       32.550578   0.000000   0.000000
     10         34.693949       34.936219   0.000000   0.000000
     11         40.219386       40.425738   0.000000   0.000000
     12         42.016809       42.188610   0.000000   0.000000
 
 -0.4583333E+00  0.1250000E+00  0.4166667E-01  0.6944444E-02
      1          5.437618        6.395196   1.000000   1.000000
      2          7.319605        8.846603   1.000000   1.000000
      3          7.741490        9.436428   1.000000   1.000000
      4          8.439027        9.458459   1.000000   1.000000
      5          9.608267       11.520632   1.000000   0.000000
      6         11.699767       12.702697   0.000000   0.000000
      7         16.682536       17.657596   0.000000   0.000000
      8         30.122625       30.163491   0.000000   0.000000
      9         32.131005       32.466258   0.000000   0.000000
     10         34.401546       34.567039   0.000000   0.000000
     11         39.828877       40.085370   0.000000   0.000000
     12         41.665204       41.834850   0.000000   0.000000
 
 -0.3750000E+00  0.1250000E+00  0.4166667E-01  0.6944444E-02
      1          5.403905        6.257302   1.000000   1.000000
      2          7.376707        8.864946   1.000000   1.000000
      3          7.759220        9.238918   1.000000   1.000000
      4          8.237775        9.481980   1.000000   1.000000
      5          9.457970       11.341192   1.000000   0.000000
      6         11.098468       12.402209   0.000000   0.000000
      7         17.832516       18.658162   0.000000   0.000000
      8         29.763356       29.889218   0.000000   0.000000
      9         32.755095       32.967206   0.000000   0.000000
     10         34.972472       35.171040   0.000000   0.000000
     11         39.570557       39.838416   0.000000   0.000000
     12         41.561855       41.730625   0.000000   0.000000
 
 -0.2916667E+00  0.1250000E+00  0.4166667E-01  0.6944444E-02
      1          5.089723        5.529718   1.000000   1.000000
      2          7.486208        8.565080   1.000000   1.000000
      3          7.564520        9.210872   1.000000   1.000000
      4          7.876763        9.596679   1.000000   1.000000
      5          9.105529       10.937803   1.000000   0.000000
      6         10.060796       11.783215   1.000000   0.000000
      7         20.959271       21.558830   0.000000   0.000000
      8         29.686772       29.879132   0.000000   0.000000
      9         33.842514       33.933339   0.000000   0.000000
     10         36.319236       36.591074   0.000000   0.000000
     11         39.534044       39.767499   0.000000   0.000000
     12         41.350662       41.502522   0.000000   0.000000
 
 -0.2083333E+00  0.1250000E+00  0.4166667E-01  0.6944444E-02
      1          4.148728        4.267814   1.000000   1.000000
      2          7.141707        8.509188   1.000000   1.000000
      3          7.753777        9.420682   1.000000   1.000000
      4          8.017782        9.731675   1.000000   1.000000
      5          8.678575       10.495161   1.000000   0.002953
      6          9.422492       11.284508   1.000000   0.000000
      7         24.751117       25.192368   0.000000   0.000000
      8         29.984012       30.203638   0.000000   0.000000
      9         35.237232       35.274817   0.000000   0.000000
     10         37.786398       37.994428   0.000000   0.000000
     11         39.904064       40.054105   0.000000   0.000000
     12         40.856496       41.088578   0.000000   0.000000
 
 -0.1250000E+00  0.1250000E+00  0.4166667E-01  0.6944444E-02
      1          3.001474        3.037703   1.000000   1.000000
      2          7.230985        8.720341   1.000000   1.000000
      3          7.896264        9.546733   1.000000   1.000000
      4          8.031458        9.682721   1.000000   1.000000
      5          8.456371       10.332421   1.000000   0.967848
      6          9.009387       10.928119   1.000000   0.000000
      7         28.812082       29.108525   0.000000   0.000000
      8         30.688373       30.894724   0.000000   0.000000
      9         36.440319       36.462935   0.000000   0.000000
     10         37.781369       37.811762   0.000000   0.000000
     11         40.630822       40.762305   0.000000   0.000000
     12         41.921943       42.194055   0.000000   0.000000
 
 -0.4166667E-01  0.1250000E+00  0.4166667E-01  0.6944444E-02
      1          2.158901        2.178067   1.000000   1.000000
      2          7.426728        8.973495   1.000000   1.000000
      3          7.853845        9.479361   1.000000   1.000000
      4          7.857523        9.483660   1.000000   1.000000
      5          8.561425       10.474922   1.000000   0.014611
      6          8.810424       10.758974   1.000000   0.000000
      7         31.269966       31.391023   0.000000   0.000000
      8         33.303891       33.410358   0.000000   0.000000
      9         35.961475       36.087019   0.000000   0.000000
     10         37.918053       38.009231   0.000000   0.000000
     11         41.026011       41.177717   0.000000   0.000000
     12         42.245002       42.398100   0.000000   0.000000
 
  0.2083333E+00  0.2083333E+00  0.4166667E-01  0.3472222E-02
      1          3.157514        3.201785   1.000000   1.000000
      2          7.026362        8.511842   1.000000   1.000000
      3          8.101293        9.798254   1.000000   1.000000
      4          8.205087        9.857887   1.000000   1.000000
      5          8.351045       10.109649   1.000000   1.000000
      6          8.987170       10.961840   1.000000   0.000000
      7         30.559182       30.802862   0.000000   0.000000
      8         32.065811       32.405499   0.000000   0.000000
      9         32.410749       32.450268   0.000000   0.000000
     10         33.722079       33.824628   0.000000   0.000000
     11         39.442730       40.137139   0.000000   0.000000
     12         45.552195       45.573650   0.000000   0.000000
 
  0.2916667E+00  0.2083333E+00  0.4166667E-01  0.6944444E-02
      1          4.023760        4.128998   1.000000   1.000000
      2          6.803785        8.238285   1.000000   1.000000
      3          7.899767        9.581691   1.000000   1.000000
      4          8.415237       10.103026   1.000000   1.000000
      5          8.673613       10.380489   1.000000   0.688111
      6          9.190277       11.136209   1.000000   0.000000
      7         27.982160       28.316047   0.000000   0.000000
      8         29.659412       29.927148   0.000000   0.000000
      9         32.162964       32.322095   0.000000   0.000000
     10         33.724995       33.898739   0.000000   0.000000
     11         38.523461       39.124390   0.000000   0.000000
     12         45.646732       45.663691   0.000000   0.000000
 
  0.3750000E+00  0.2083333E+00  0.4166667E-01  0.6944444E-02
      1          5.010020        5.304145   1.000000   1.000000
      2          6.709588        8.057260   1.000000   1.000000
      3          7.634012        9.227966   1.000000   1.000000
      4          8.370771       10.107347   1.000000   1.000000
      5          9.255166       11.028345   1.000000   0.000000
      6          9.765782       11.516428   1.000000   0.000000
      7         23.975538       24.421792   0.000000   0.000000
      8         28.974418       29.233155   0.000000   0.000000
      9         30.529554       30.791792   0.000000   0.000000
     10         33.920596       34.165393   0.000000   0.000000
     11         40.224954       40.628899   0.000000   0.000000
     12         44.518058       44.636205   0.000000   0.000000
 
  0.4583333E+00  0.2083333E+00  0.4166667E-01  0.6944444E-02
      1          5.636082        6.347136   1.000000   1.000000
      2          6.839120        8.066272   1.000000   1.000000
      3          7.544803        8.999381   1.000000   1.000000
      4          8.239703        9.989859   1.000000   1.000000
      5          9.576491       11.480452   1.000000   0.000000
      6         11.079140       12.424924   0.000000   0.000000
      7         20.301199       20.889240   0.000000   0.000000
      8         28.295553       28.535549   0.000000   0.000000
      9         29.506621       29.856404   0.000000   0.000000
     10         33.668844       33.884642   0.000000   0.000000
     11         42.631029       42.780467   0.000000   0.000000
     12         44.297933       44.721656   0.000000   0.000000
 
 -0.4583333E+00  0.2083333E+00  0.4166667E-01  0.6944444E-02
      1          5.837681        6.852344   1.000000   1.000000
      2          6.896515        8.183496   1.000000   1.000000
      3          7.759003        9.037116   1.000000   1.000000
      4          8.118856        9.872673   1.000000   1.000000
      5          9.626136       11.532249   1.000000   0.000000
      6         12.850664       13.805683   0.000000   0.000000
      7         17.389249       18.197696   0.000000   0.000000
      8         27.172888       27.475962   0.000000   0.000000
      9         29.803285       30.132053   0.000000   0.000000
     10         33.665287       33.820501   0.000000   0.000000
     11         42.270222       42.434497   0.000000   0.000000
     12         45.065742       45.175997   0.000000   0.000000
 
 -0.3750000E+00  0.2083333E+00  0.4166667E-01  0.6944444E-02
      1          5.901300        6.890237   1.000000   1.000000
      2          6.970969        8.320981   1.000000   1.000000
      3          7.748626        8.968559   1.000000   1.000000
      4          8.067763        9.830583   1.000000   1.000000
      5          9.436931       11.305105   1.000000   0.000000
      6         12.939864       13.929841   0.000000   0.000000
      7         17.412857       18.236911   0.000000   0.000000
      8         26.295348       26.637591   0.000000   0.000000
      9         30.808467       31.103052   0.000000   0.000000
     10         34.180063       34.307117   0.000000   0.000000
     11         41.591249       41.771603   0.000000   0.000000
     12         44.444236       44.568988   0.000000   0.000000
 
 -0.2916667E+00  0.2083333E+00  0.4166667E-01  0.6944444E-02
      1          5.799446        6.437440   1.000000   1.000000
      2          7.170768        8.385237   1.000000   1.000000
      3          7.306455        8.804621   1.000000   1.000000
      4          8.121419        9.895199   1.000000   1.000000
      5          9.068164       10.876153   1.000000   0.000000
      6         11.398848       12.836986   0.000000   0.000000
      7         20.351873       20.964810   0.000000   0.000000
      8         25.879093       26.241753   0.000000   0.000000
      9         32.250585       32.480456   0.000000   0.000000
     10         35.371057       35.524757   0.000000   0.000000
     11         40.837774       40.959820   0.000000   0.000000
     12         43.761239       43.893971   0.000000   0.000000
 
 -0.2083333E+00  0.2083333E+00  0.4166667E-01  0.6944444E-02
      1          5.133219        5.362970   1.000000   1.000000
      2          6.959953        8.319832   1.000000   1.000000
      3          7.487829        9.100805   1.000000   1.000000
      4          8.244887       10.046467   1.000000   1.000000
      5          8.622406       10.366411   1.000000   0.812916
      6         10.250488       11.982779   0.999985   0.000000
      7         23.997138       24.471046   0.000000   0.000000
      8         25.985660       26.345540   0.000000   0.000000
      9         33.995507       34.147307   0.000000   0.000000
     10         37.231297       37.423435   0.000000   0.000000
     11         39.564082       39.576138   0.000000   0.000000
     12         43.258559       43.467176   0.000000   0.000000
 
 -0.1250000E+00  0.2083333E+00  0.4166667E-01  0.6944444E-02
      1          4.052776        4.142227   1.000000   1.000000
      2          7.054256        8.479214   1.000000   1.000000
      3          7.755186        9.409905   1.000000   1.000000
      4          8.204768        9.915320   1.000000   1.000000
      5          8.434057       10.251440   1.000000   0.999983
      6          9.476789       11.335245   1.000000   0.000000
      7         26.329372       26.723217   0.000000   0.000000
      8         28.212183       28.504170   0.000000   0.000000
      9         35.790901       35.858040   0.000000   0.000000
     10         37.949970       37.978570   0.000000   0.000000
     11         39.531967       39.680326   0.000000   0.000000
     12         41.936438       42.288686   0.000000   0.000000
 
 -0.4166667E-01  0.2083333E+00  0.4166667E-01  0.6944444E-02
      1          3.150711        3.196428   1.000000   1.000000
      2          7.256819        8.715331   1.000000   1.000000
      3          7.885426        9.546771   1.000000   1.000000
      4          7.955578        9.622180   1.000000   1.000000
      5          8.595629       10.458615   1.000000   0.042786
      6          8.972722       10.889603   1.000000   0.000000
      7         27.289953       27.639191   0.000000   0.000000
      8         32.341201       32.427549   0.000000   0.000000
      9         35.337103       35.458416   0.000000   0.000000
     10         38.738542       38.781957   0.000000   0.000000
     11         39.383490       39.669244   0.000000   0.000000
     12         42.129988       42.267074   0.000000   0.000000
 
  0.2916667E+00  0.2916667E+00  0.4166667E-01  0.3472222E-02
      1          4.551577        4.780688   1.000000   1.000000
      2          6.527908        7.930205   1.000000   1.000000
      3          8.149299        9.676180   1.000000   1.000000
      4          8.709172       10.420656   1.000000   0.259267
      5          8.861634       10.535408   1.000000   0.000050
      6          9.210236       11.200096   1.000000   0.000000
      7         28.311873       28.611773   0.000000   0.000000
      8         29.297097       29.610747   0.000000   0.000000
      9         29.579090       29.799703   0.000000   0.000000
     10         31.681706       31.917723   0.000000   0.000000
     11         36.421044       36.988169   0.000000   0.000000
     12         47.216227       49.101558   0.000000   0.000000
 
  0.3750000E+00  0.2916667E+00  0.4166667E-01  0.6944444E-02
      1          5.135448        5.627238   1.000000   1.000000
      2          6.339526        7.699546   1.000000   1.000000
      3          8.149179        9.532418   1.000000   1.000000
      4          8.916906       10.679166   1.000000   0.000000
      5          9.262025       11.028200   1.000000   0.000000
      6          9.769688       11.496702   1.000000   0.000000
      7         25.960141       26.306242   0.000000   0.000000
      8         27.242392       27.556994   0.000000   0.000000
      9         28.061400       28.404151   0.000000   0.000000
     10         32.441229       32.688247   0.000000   0.000000
     11         36.645496       37.116835   0.000000   0.000000
     12         47.171421       48.534645   0.000000   0.000000
 
  0.4583333E+00  0.2916667E+00  0.4166667E-01  0.6944444E-02
      1          5.594365        6.438562   1.000000   1.000000
      2          6.314484        7.616350   1.000000   1.000000
      3          7.968657        9.282337   1.000000   1.000000
      4          8.785999       10.596666   1.000000   0.000000
      5          9.606651       11.515851   1.000000   0.000000
      6         11.336887       12.578300   0.000000   0.000000
      7         22.286753       22.734197   0.000000   0.000000
      8         25.699393       26.115748   0.000000   0.000000
      9         27.444115       27.753931   0.000000   0.000000
     10         32.846254       33.106010   0.000000   0.000000