   1   1   0   0
  0.1529075E+02  0.2786001E-09  0.2786001E-09  0.2786001E-09  0.5000000E-15
  1.000000000000000E-004
  CAR 
 Pt-fcc                                  
     69.42707946    -46.40595309  301     11.81334023      1.00000000
    -46.406  0.0000E+00  0.0000E+00
    -46.020  0.0000E+00  0.0000E+00
    -45.634  0.0000E+00  0.0000E+00
    -45.248  0.0000E+00  0.0000E+00
    -44.862  0.0000E+00  0.0000E+00
    -44.475  0.0000E+00  0.0000E+00
    -44.089  0.0000E+00  0.0000E+00
    -43.703  0.0000E+00  0.0000E+00
    -43.317  0.0000E+00  0.0000E+00
    -42.931  0.0000E+00  0.0000E+00
    -42.545  0.0000E+00  0.0000E+00
    -42.159  0.0000E+00  0.0000E+00
    -41.773  0.0000E+00  0.0000E+00
    -41.387  0.7815E-13  0.3018E-13
    -41.000  0.3863E+01  0.1492E+01
    -40.614  0.1137E+02  0.5999E+01
    -40.228  0.0000E+00  0.6000E+01
    -39.842  0.0000E+00  0.6000E+01
    -39.456  0.0000E+00  0.6000E+01
    -39.070  0.0000E+00  0.6000E+01
    -38.684  0.0000E+00  0.6000E+01
    -38.298  0.0000E+00  0.6000E+01
    -37.912  0.0000E+00  0.6000E+01
    -37.525  0.0000E+00  0.6000E+01
    -37.139  0.0000E+00  0.6000E+01
    -36.753  0.0000E+00  0.6000E+01
    -36.367  0.0000E+00  0.6000E+01
    -35.981  0.0000E+00  0.6000E+01
    -35.595  0.0000E+00  0.6000E+01
    -35.209  0.0000E+00  0.6000E+01
    -34.823  0.0000E+00  0.6000E+01
    -34.437  0.0000E+00  0.6000E+01
    -34.050  0.0000E+00  0.6000E+01
    -33.664  0.0000E+00  0.6000E+01
    -33.278  0.0000E+00  0.6000E+01
    -32.892  0.0000E+00  0.6000E+01
    -32.506  0.0000E+00  0.6000E+01
    -32.120  0.0000E+00  0.6000E+01
    -31.734  0.0000E+00  0.6000E+01
    -31.348  0.0000E+00  0.6000E+01
    -30.962  0.0000E+00  0.6000E+01
    -30.575  0.0000E+00  0.6000E+01
    -30.189  0.0000E+00  0.6000E+01
    -29.803  0.0000E+00  0.6000E+01
    -29.417  0.0000E+00  0.6000E+01
    -29.031  0.0000E+00  0.6000E+01
    -28.645  0.0000E+00  0.6000E+01
    -28.259  0.0000E+00  0.6000E+01
    -27.873  0.0000E+00  0.6000E+01
    -27.487  0.0000E+00  0.6000E+01
    -27.100  0.0000E+00  0.6000E+01
    -26.714  0.0000E+00  0.6000E+01
    -26.328  0.0000E+00  0.6000E+01
    -25.942  0.0000E+00  0.6000E+01
    -25.556  0.0000E+00  0.6000E+01
    -25.170  0.0000E+00  0.6000E+01
    -24.784  0.0000E+00  0.6000E+01
    -24.398  0.0000E+00  0.6000E+01
    -24.012  0.0000E+00  0.6000E+01
    -23.625  0.0000E+00  0.6000E+01
    -23.239  0.0000E+00  0.6000E+01
    -22.853  0.0000E+00  0.6000E+01
    -22.467  0.0000E+00  0.6000E+01
    -22.081  0.0000E+00  0.6000E+01
    -21.695  0.0000E+00  0.6000E+01
    -21.309  0.0000E+00  0.6000E+01
    -20.923  0.0000E+00  0.6000E+01
    -20.537  0.0000E+00  0.6000E+01
    -20.150  0.0000E+00  0.6000E+01
    -19.764  0.0000E+00  0.6000E+01
    -19.378  0.0000E+00  0.6000E+01
    -18.992  0.0000E+00  0.6000E+01
    -18.606  0.0000E+00  0.6000E+01
    -18.220  0.0000E+00  0.6000E+01
    -17.834  0.0000E+00  0.6000E+01
    -17.448  0.0000E+00  0.6000E+01
    -17.062  0.0000E+00  0.6000E+01
    -16.675  0.0000E+00  0.6000E+01
    -16.289  0.0000E+00  0.6000E+01
    -15.903  0.0000E+00  0.6000E+01
    -15.517  0.0000E+00  0.6000E+01
    -15.131  0.0000E+00  0.6000E+01
    -14.745  0.0000E+00  0.6000E+01
    -14.359  0.0000E+00  0.6000E+01
    -13.973  0.0000E+00  0.6000E+01
    -13.587  0.0000E+00  0.6000E+01
    -13.200  0.0000E+00  0.6000E+01
    -12.814  0.0000E+00  0.6000E+01
    -12.428  0.0000E+00  0.6000E+01
    -12.042  0.0000E+00  0.6000E+01
    -11.656  0.0000E+00  0.6000E+01
    -11.270  0.0000E+00  0.6000E+01
    -10.884  0.0000E+00  0.6000E+01
    -10.498  0.0000E+00  0.6000E+01
    -10.112  0.0000E+00  0.6000E+01
     -9.725  0.0000E+00  0.6000E+01
     -9.339  0.0000E+00  0.6000E+01
     -8.953  0.0000E+00  0.6000E+01
     -8.567  0.0000E+00  0.6000E+01
     -8.181  0.0000E+00  0.6000E+01
     -7.795  0.0000E+00  0.6000E+01
     -7.409  0.0000E+00  0.6000E+01
     -7.023  0.0000E+00  0.6000E+01
     -6.637  0.0000E+00  0.6000E+01
     -6.251  0.0000E+00  0.6000E+01
     -5.864  0.0000E+00  0.6000E+01
     -5.478  0.0000E+00  0.6000E+01
     -5.092  0.0000E+00  0.6000E+01
     -4.706  0.0000E+00  0.6000E+01
     -4.320  0.0000E+00  0.6000E+01
     -3.934  0.0000E+00  0.6000E+01
     -3.548  0.0000E+00  0.6000E+01
     -3.162  0.0000E+00  0.6000E+01
     -2.776  0.0000E+00  0.6000E+01
     -2.389  0.0000E+00  0.6000E+01
     -2.003  0.0000E+00  0.6000E+01
     -1.617  0.0000E+00  0.6000E+01
     -1.231  0.0000E+00  0.6000E+01
     -0.845  0.0000E+00  0.6000E+01
     -0.459  0.0000E+00  0.6000E+01
     -0.073  0.0000E+00  0.6000E+01
      0.313  0.0000E+00  0.6000E+01
      0.699  0.0000E+00  0.6000E+01
      1.086  0.0000E+00  0.6000E+01
      1.472  0.0000E+00  0.6000E+01
      1.858  0.9934E-02  0.6004E+01
      2.244  0.3186E-01  0.6016E+01
      2.630  0.7029E-01  0.6043E+01
      3.016  0.7828E-01  0.6074E+01
      3.402  0.8729E-01  0.6108E+01
      3.788  0.1241E+00  0.6156E+01
      4.174  0.1768E+00  0.6224E+01
      4.561  0.2048E+00  0.6307E+01
      4.947  0.5818E+00  0.6532E+01
      5.333  0.8977E+00  0.6885E+01
      5.719  0.1375E+01  0.7429E+01
      6.105  0.1257E+01  0.7938E+01
      6.491  0.1255E+01  0.8431E+01
      6.877  0.9537E+00  0.8806E+01
      7.263  0.1352E+01  0.9337E+01
      7.649  0.1359E+01  0.9872E+01
      8.036  0.1613E+01  0.1050E+02
      8.422  0.2074E+01  0.1130E+02
      8.808  0.1775E+01  0.1200E+02
      9.194  0.1204E+01  0.1247E+02
      9.580  0.1212E+01  0.1295E+02
      9.966  0.1625E+01  0.1358E+02
     10.352  0.1193E+01  0.1406E+02
     10.738  0.1012E+01  0.1446E+02
     11.124  0.1303E+01  0.1498E+02
     11.511  0.1324E+01  0.1549E+02
     11.897  0.1747E+01  0.1619E+02
     12.283  0.1056E+01  0.1663E+02
     12.669  0.1531E+00  0.1669E+02
     13.055  0.4647E+00  0.1687E+02
     13.441  0.1237E+00  0.1692E+02
     13.827  0.2878E+00  0.1703E+02
     14.213  0.3127E+00  0.1715E+02
     14.599  0.3147E+00  0.1728E+02
     14.986  0.1245E+00  0.1733E+02
     15.372  0.3724E+00  0.1747E+02
     15.758  0.2123E+00  0.1755E+02
     16.144  0.2267E+00  0.1764E+02
     16.530  0.2337E+00  0.1774E+02
     16.916  0.1533E+00  0.1781E+02
     17.302  0.2513E+00  0.1790E+02
     17.688  0.4377E+00  0.1808E+02
     18.074  0.2022E+00  0.1816E+02
     18.461  0.3641E+00  0.1832E+02
     18.847  0.2877E+00  0.1843E+02
     19.233  0.3214E+00  0.1856E+02
     19.619  0.3773E+00  0.1871E+02
     20.005  0.1348E+00  0.1877E+02
     20.391  0.3871E+00  0.1892E+02
     20.777  0.4003E+00  0.1907E+02
     21.163  0.1244E+00  0.1912E+02
     21.549  0.2407E+00  0.1921E+02
     21.936  0.4744E+00  0.1940E+02
     22.322  0.4143E+00  0.1956E+02
     22.708  0.1840E+00  0.1964E+02
     23.094  0.4999E+00  0.1983E+02
     23.480  0.2349E+00  0.1993E+02
     23.866  0.4928E+00  0.2012E+02
     24.252  0.5158E+00  0.2033E+02
     24.638  0.4363E+00  0.2050E+02
     25.024  0.4689E+00  0.2069E+02
     25.411  0.4226E+00  0.2085E+02
     25.797  0.6439E+00  0.2110E+02
     26.183  0.3993E+00  0.2126E+02
     26.569  0.8629E+00  0.2160E+02
     26.955  0.4506E+00  0.2178E+02
     27.341  0.9888E+00  0.2217E+02
     27.727  0.5485E+00  0.2239E+02
     28.113  0.6631E+00  0.2265E+02
     28.499  0.5441E+00  0.2287E+02
     28.886  0.7702E+00  0.2317E+02
     29.272  0.5217E+00  0.2338E+02
     29.658  0.2908E+00  0.2349E+02
     30.044  0.2927E+00  0.2360E+02
     30.430  0.5177E+00  0.2380E+02
     30.816  0.5444E+00  0.2402E+02
     31.202  0.5896E+00  0.2425E+02
     31.588  0.9058E+00  0.2461E+02
     31.974  0.6738E+00  0.2488E+02
     32.361  0.6313E+00  0.2514E+02
     32.747  0.7855E+00  0.2545E+02
     33.133  0.5055E+00  0.2564E+02
     33.519  0.4398E+00  0.2581E+02
     33.905  0.3146E+00  0.2594E+02
     34.291  0.2900E+00  0.2605E+02
     34.677  0.4606E+00  0.2623E+02
     35.063  0.3362E+00  0.2637E+02
     35.449  0.5471E+00  0.2658E+02
     35.836  0.4021E+00  0.2674E+02
     36.222  0.3910E+00  0.2689E+02
     36.608  0.8389E+00  0.2722E+02
     36.994  0.5243E+00  0.2744E+02
     37.380  0.5018E+00  0.2763E+02
     37.766  0.3314E+00  0.2776E+02
     38.152  0.5547E+00  0.2798E+02
     38.538  0.9360E+00  0.2836E+02
     38.924  0.5313E+00  0.2857E+02
     39.310  0.1260E+01  0.2907E+02
     39.697  0.1148E+01  0.2952E+02
     40.083  0.1064E+01  0.2995E+02
     40.469  0.8998E+00  0.3030E+02
     40.855  0.7944E+00  0.3062E+02
     41.241  0.7751E+00  0.3092E+02
     41.627  0.3856E+00  0.3108E+02
     42.013  0.3428E+00  0.3122E+02
     42.399  0.9707E+00  0.3160E+02
     42.785  0.7348E+00  0.3190E+02
     43.172  0.9491E+00  0.3227E+02
     43.558  0.7837E+00  0.3258E+02
     43.944  0.6390E+00  0.3283E+02
     44.330  0.5952E+00  0.3306E+02
     44.716  0.9482E+00  0.3344E+02
     45.102  0.3006E+00  0.3356E+02
     45.488  0.5529E+00  0.3377E+02
     45.874  0.6126E+00  0.3401E+02
     46.260  0.5743E+00  0.3425E+02
     46.647  0.8857E+00  0.3460E+02
     47.033  0.5743E+00  0.3482E+02
     47.419  0.8231E+00  0.3515E+02
     47.805  0.1380E+01  0.3568E+02
     48.191  0.9404E+00  0.3605E+02
     48.577  0.1233E+01  0.3652E+02
     48.963  0.8233E+00  0.3685E+02
     49.349  0.1149E+01  0.3729E+02
     49.735  0.8873E+00  0.3764E+02
     50.122  0.7336E+00  0.3794E+02
     50.508  0.9358E+00  0.3830E+02
     50.894  0.4979E+00  0.3850E+02
     51.280  0.6056E+00  0.3873E+02
     51.666  0.7438E+00  0.3902E+02
     52.052  0.7946E+00  0.3934E+02
     52.438  0.9480E+00  0.3972E+02
     52.824  0.5787E+01  0.4197E+02
     53.210  0.8874E+00  0.4232E+02
     53.597  0.9421E+00  0.4269E+02
     53.983  0.7064E+00  0.4296E+02
     54.369  0.9627E+00  0.4334E+02
     54.755  0.5120E+00  0.4355E+02
     55.141  0.9128E+00  0.4390E+02
     55.527  0.7374E+00  0.4420E+02
     55.913  0.8251E+00  0.4452E+02
     56.299  0.9660E+00  0.4490E+02
     56.685  0.8459E+00  0.4523E+02
     57.072  0.8066E+00  0.4555E+02
     57.458  0.9538E+00  0.4593E+02
     57.844  0.6588E+00  0.4618E+02
     58.230  0.9037E+00  0.4654E+02
     58.616  0.6664E+00  0.4680E+02
     59.002  0.5357E+00  0.4701E+02
     59.388  0.6997E+00  0.4728E+02
     59.774  0.4111E+00  0.4745E+02
     60.160  0.3777E+00  0.4759E+02
     60.547  0.1863E+00  0.4767E+02
     60.933  0.1928E+00  0.4774E+02
     61.319  0.2476E+00  0.4784E+02
     61.705  0.1667E+00  0.4790E+02
     62.091  0.4046E-01  0.4792E+02
     62.477  0.1149E+00  0.4796E+02
     62.863  0.3450E-17  0.4796E+02
     63.249  0.5633E-01  0.4799E+02
     63.635  0.0000E+00  0.4799E+02
     64.022  0.1111E-05  0.4799E+02
     64.408  0.3108E-01  0.4800E+02
     64.794  0.0000E+00  0.4800E+02
     65.180  0.0000E+00  0.4800E+02
     65.566  0.0000E+00  0.4800E+02
     65.952  0.0000E+00  0.4800E+02
     66.338  0.0000E+00  0.4800E+02
     66.724  0.0000E+00  0.4800E+02
     67.110  0.0000E+00  0.4800E+02
     67.497  0.0000E+00  0.4800E+02
     67.883  0.0000E+00  0.4800E+02
     68.269  0.0000E+00  0.4800E+02
     68.655  0.0000E+00  0.4800E+02
     69.041  0.0000E+00  0.4800E+02
     69.427  0.0000E+00  0.4800E+02
