 vasp.6.3.2 27Jun22 (build Aug 12 2022 00:53:59) complex                        
  
 executed on               tv2STD date 2024.11.30  15:56:05
 running   24 mpi-ranks, with    1 threads/rank
 distrk:  each k-point on   24 cores,    1 groups
 distr:  one band on NCORE=   1 cores,   24 groups


--------------------------------------------------------------------------------------------------------


 INCAR:
   SYSTEM = Pt-fcc
   NWRITE = 2    write-flag
   ISTART = 0    job   : 0-new, 1-cont, 2-samecut
   ICHARG = 2    charge: 0-wave, 1-file, 2-atom, >10-const
   INIWAV = 1    electr: 0-lowe 1-rand  2-diag
   ENCUT = 425.0     energy cutoff in eV
   PREC = accurate      normal | accurate
   ADDGRID = .FALSE.  (use fine grid)
   NELM = 100     number of ELM steps
   EDIFF = 1E-06    energy stopping-criterion for ELM
   LREAL = .FALSE.      real-space projection (.FALSE., .TRUE., On, Auto)
   ALGO = Normal     Normal, Fast, Very_Fast
   LWAVE = .FALSE.
   LCHARG = .FALSE.
   NSW = 0       max number of geometry steps
   IBRION = -1     ionic relax: 0-MD, 1-quasi-Newton, 2-CG, 3-Damped MD
   EDIFFG = -0.02  force (eV/A) stopping-criterion for geometry steps
   ISIF = 2     (1:force\=y stress\=trace only ions\=y shape\=n volume\=n)
   ISYM = 1     (1-use symmetry, 0-no symmetry)
   ISMEAR = 0     (-1-Fermi, 1-Methfessel/Paxton)
   SIGMA = 0.05   broadening in eV

 POTCAR:    PAW_PBE Pt_pv 12Dec2005               
 POTCAR:    PAW_PBE Pt_pv 12Dec2005               
   SHA256 =  e5abf7e8cd8db70d0153315afc5ad66b6e3eeee29cc2d5b91b16730957c1d208 Pt_pv/POTCAR          
   COPYR  = (c) Copyright 12Dec2005 Georg Kresse                                                    
   COPYR  = This file is part of the software VASP. Any use, copying, and all other rights are regul
   COPYR  = If you do not have a valid VASP license, you may not use, copy or distribute this file. 
   VRHFIN =Pt: 5ps1d9                                                                               
   LEXCH  = PE                                                                                      
   EATOM  =  2428.2504 eV,  178.4714 Ry                                                             
                                                                                                    
   TITEL  = PAW_PBE Pt_pv 12Dec2005                                                                 
   LULTRA =        F    use ultrasoft PP ?                                                          
   IUNSCR =        1    unscreen: 0-lin 1-nonlin 2-no                                               
   RPACOR =    2.000    partial core radius                                                         
   POMASS =  195.080; ZVAL   =   16.000    mass and valenz                                          
   RCORE  =    2.200    outmost cutoff radius                                                       
   RWIGS  =    2.200; RWIGS  =    1.164    wigner-seitz radius (au A)                               
   ENMAX  =  294.607; ENMIN  =  220.955 eV                                                          
   ICORE  =        3    local potential                                                             
   LCOR   =        T    correct aug charges                                                         
   LPAW   =        T    paw PP                                                                      
   EAUG   =  527.014                                                                                
   DEXC   =    0.000                                                                                
   RMAX   =    2.247    core radius for proj-oper                                                   
   RAUG   =    1.300    factor for augmentation sphere                                              
   RDEP   =    2.279    radius for radial grids                                                     
   RDEPT  =    1.878    core radius for aug-charge                                                  
                                                                                                    
   Atomic configuration                                                                             
   16 entries                                                                                       
     n  l   j            E        occ.                                                              
     1  0  0.50    -78401.1885   2.0000                                                             
     2  0  0.50    -13770.7750   2.0000                                                             
     2  1  1.50    -11931.0468   6.0000                                                             
     3  0  0.50     -3234.7234   2.0000                                                             
     3  1  1.50     -2699.2216   6.0000                                                             
     3  2  2.50     -2119.5714  10.0000                                                             
     4  0  0.50      -695.1528   2.0000                                                             
     4  1  1.50      -519.6034   6.0000                                                             
     4  2  2.50      -306.6786  10.0000                                                             
     4  3  3.50       -70.1041  14.0000                                                             
     5  0  0.50      -101.7747   2.0000                                                             
     5  1  1.50       -55.9873   6.0000                                                             
     6  1  1.50        -6.8029   0.0000                                                             
     5  2  2.50        -6.1423   9.0000                                                             
     6  0  0.50        -5.6573   1.0000                                                             
     5  3  2.50        -1.3606   0.0000                                                             
   Description                                                                                      
     l       E           TYP  RCUT    TYP  RCUT                                                     
     1    -55.9873477     23  2.000                                                                 
     1     27.2116520     23  2.000                                                                 
     2     -6.1423404     23  2.200                                                                 
     2     -4.6754623     23  2.200                                                                 
     0     -5.6573207     23  2.200                                                                 
     0     47.6203910     23  2.200                                                                 
     3      6.8029130     23  2.200                                                                 
  local pseudopotential read in
  partial core-charges read in
  partial kinetic energy density read in
  atomic valenz-charges read in
  non local Contribution for L=           1  read in
    real space projection operators read in
  non local Contribution for L=           1  read in
    real space projection operators read in
  non local Contribution for L=           2  read in
    real space projection operators read in
  non local Contribution for L=           2  read in
    real space projection operators read in
  non local Contribution for L=           0  read in
    real space projection operators read in
  non local Contribution for L=           0  read in
    real space projection operators read in
    PAW grid and wavefunctions read in
 
   number of l-projection  operators is LMAX  =           6
   number of lm-projection operators is LMMAX =          18
 
  PAW_PBE Pt_pv 12Dec2005               :
 energy of atom  1       EATOM=-2428.2504
 kinetic energy error for atom=    0.0554 (will be added to EATOM!!)
 
 
 POSCAR: Pt
  positions in cartesian coordinates
  No initial velocities read in
 exchange correlation table for  LEXCH =        8
   RHO(1)=    0.500       N(1)  =     2000
   RHO(2)=  100.500       N(2)  =     4000
 


--------------------------------------------------------------------------------------------------------


 ion  position               nearest neighbor table
   1  0.000  0.000  0.000-
 
  LATTYP: Found a face centered cubic cell.
 ALAT       =     3.9400000000
  
  Lattice vectors:
  
 A1 = (   0.0000000000,   1.9700000000,   1.9700000000)
 A2 = (   1.9700000000,   0.0000000000,   1.9700000000)
 A3 = (   1.9700000000,   1.9700000000,   0.0000000000)


Analysis of symmetry for initial positions (statically):
=====================================================================
 Subroutine PRICEL returns:
 Original cell was already a primitive cell.
 

 Routine SETGRP: Setting up the symmetry group for a 
 face centered cubic supercell.


 Subroutine GETGRP returns: Found 48 space group operations
 (whereof 48 operations were pure point group operations)
 out of a pool of 48 trial point group operations.


The static configuration has the point symmetry O_h .


Analysis of symmetry for dynamics (positions and initial velocities):
=====================================================================
 Subroutine PRICEL returns:
 Original cell was already a primitive cell.
 

 Routine SETGRP: Setting up the symmetry group for a 
 face centered cubic supercell.


 Subroutine GETGRP returns: Found 48 space group operations
 (whereof 48 operations were pure point group operations)
 out of a pool of 48 trial point group operations.


The dynamic configuration has the point symmetry O_h .


 Subroutine INISYM returns: Found 48 space group operations
 (whereof 48 operations are pure point group operations),
 and found     1 'primitive' translations


----------------------------------------------------------------------------------------

                                     Primitive cell                                     

  volume of cell :      15.2907

  direct lattice vectors                    reciprocal lattice vectors
     0.000000000  1.970000000  1.970000000    -0.253807107  0.253807107  0.253807107
     1.970000000  0.000000000  1.970000000     0.253807107 -0.253807107  0.253807107
     1.970000000  1.970000000  0.000000000     0.253807107  0.253807107 -0.253807107

  length of vectors
     2.786000718  2.786000718  2.786000718     0.439606804  0.439606804  0.439606804

  position of ions in fractional coordinates (direct lattice)
     0.000000000  0.000000000  0.000000000

  ion indices of the primitive-cell ions
   primitive index   ion index
                 1           1

----------------------------------------------------------------------------------------

 
 
 KPOINTS: Automatic mesh                          

Automatic generation of k-mesh.
 Grid dimensions read from file:
 generate k-points for:   10   10   10

 Generating k-lattice:

  Cartesian coordinates                     Fractional coordinates (reciprocal lattice)
    -0.025380711  0.025380711  0.025380711     0.100000000  0.000000000  0.000000000
     0.025380711 -0.025380711  0.025380711     0.000000000  0.100000000  0.000000000
     0.025380711  0.025380711 -0.025380711     0.000000000  0.000000000  0.100000000

  Length of vectors
     0.043960680  0.043960680  0.043960680

  Shift w.r.t. Gamma in fractional coordinates (k-lattice)
     0.500000000  0.500000000  0.500000000

 
 Subroutine IBZKPT returns following result:
 ===========================================
 
 Found    110 irreducible k-points:
 
 Following reciprocal coordinates:
            Coordinates               Weight
  0.050000  0.050000  0.050000      8.000000
  0.150000  0.050000  0.050000     24.000000
  0.250000  0.050000  0.050000     24.000000
  0.350000  0.050000  0.050000     24.000000
  0.450000  0.050000  0.050000     24.000000
 -0.450000  0.050000  0.050000     24.000000
 -0.350000  0.050000  0.050000     24.000000
 -0.250000  0.050000  0.050000     24.000000
 -0.150000  0.050000  0.050000     24.000000
 -0.050000  0.050000  0.050000     24.000000
  0.150000  0.150000  0.050000     24.000000
  0.250000  0.150000  0.050000     48.000000
  0.350000  0.150000  0.050000     48.000000
  0.450000  0.150000  0.050000     48.000000
 -0.450000  0.150000  0.050000     48.000000
 -0.350000  0.150000  0.050000     48.000000
 -0.250000  0.150000  0.050000     48.000000
 -0.150000  0.150000  0.050000     48.000000
 -0.050000  0.150000  0.050000     48.000000
  0.250000  0.250000  0.050000     24.000000
  0.350000  0.250000  0.050000     48.000000
  0.450000  0.250000  0.050000     48.000000
 -0.450000  0.250000  0.050000     48.000000
 -0.350000  0.250000  0.050000     48.000000
 -0.250000  0.250000  0.050000     48.000000
 -0.150000  0.250000  0.050000     48.000000
 -0.050000  0.250000  0.050000     48.000000
  0.350000  0.350000  0.050000     24.000000
  0.450000  0.350000  0.050000     48.000000
 -0.450000  0.350000  0.050000     48.000000
 -0.350000  0.350000  0.050000     48.000000
 -0.250000  0.350000  0.050000     48.000000
 -0.150000  0.350000  0.050000     48.000000
 -0.050000  0.350000  0.050000     48.000000
  0.450000  0.450000  0.050000     24.000000
 -0.450000  0.450000  0.050000     48.000000
 -0.350000  0.450000  0.050000     48.000000
 -0.250000  0.450000  0.050000     48.000000
 -0.150000  0.450000  0.050000     48.000000
 -0.050000  0.450000  0.050000     48.000000
 -0.450000 -0.450000  0.050000     24.000000
 -0.350000 -0.450000  0.050000     48.000000
 -0.250000 -0.450000  0.050000     48.000000
 -0.150000 -0.450000  0.050000     48.000000
 -0.350000 -0.350000  0.050000     24.000000
 -0.250000 -0.350000  0.050000     48.000000
 -0.150000 -0.350000  0.050000     48.000000
 -0.250000 -0.250000  0.050000     24.000000
 -0.150000 -0.250000  0.050000     48.000000
 -0.150000 -0.150000  0.050000     24.000000
  0.150000  0.150000  0.150000      8.000000
  0.250000  0.150000  0.150000     24.000000
  0.350000  0.150000  0.150000     24.000000
  0.450000  0.150000  0.150000     24.000000
 -0.450000  0.150000  0.150000     24.000000
 -0.350000  0.150000  0.150000     24.000000
 -0.250000  0.150000  0.150000     24.000000
 -0.150000  0.150000  0.150000     24.000000
  0.250000  0.250000  0.150000     24.000000
  0.350000  0.250000  0.150000     48.000000
  0.450000  0.250000  0.150000     48.000000
 -0.450000  0.250000  0.150000     48.000000
 -0.350000  0.250000  0.150000     48.000000
 -0.250000  0.250000  0.150000     48.000000
 -0.150000  0.250000  0.150000     48.000000
  0.350000  0.350000  0.150000     24.000000
  0.450000  0.350000  0.150000     48.000000
 -0.450000  0.350000  0.150000     48.000000
 -0.350000  0.350000  0.150000     48.000000
 -0.250000  0.350000  0.150000     48.000000
 -0.150000  0.350000  0.150000     48.000000
  0.450000  0.450000  0.150000     24.000000
 -0.450000  0.450000  0.150000     48.000000
 -0.350000  0.450000  0.150000     48.000000
 -0.250000  0.450000  0.150000     48.000000
 -0.150000  0.450000  0.150000     48.000000
 -0.450000 -0.450000  0.150000     24.000000
 -0.350000 -0.450000  0.150000     48.000000
 -0.250000 -0.450000  0.150000     48.000000
 -0.350000 -0.350000  0.150000     24.000000
 -0.250000 -0.350000  0.150000     48.000000
 -0.250000 -0.250000  0.150000     24.000000
  0.250000  0.250000  0.250000      8.000000
  0.350000  0.250000  0.250000     24.000000
  0.450000  0.250000  0.250000     24.000000
 -0.450000  0.250000  0.250000     24.000000
 -0.350000  0.250000  0.250000     24.000000
 -0.250000  0.250000  0.250000     24.000000
  0.350000  0.350000  0.250000     24.000000
  0.450000  0.350000  0.250000     48.000000
 -0.450000  0.350000  0.250000     48.000000
 -0.350000  0.350000  0.250000     48.000000
 -0.250000  0.350000  0.250000     48.000000
  0.450000  0.450000  0.250000     24.000000
 -0.450000  0.450000  0.250000     48.000000
 -0.350000  0.450000  0.250000     48.000000
 -0.250000  0.450000  0.250000     48.000000
 -0.450000 -0.450000  0.250000     24.000000
 -0.350000 -0.450000  0.250000     48.000000
 -0.350000 -0.350000  0.250000     24.000000
  0.350000  0.350000  0.350000      8.000000
  0.450000  0.350000  0.350000     24.000000
 -0.450000  0.350000  0.350000     24.000000
 -0.350000  0.350000  0.350000     24.000000
  0.450000  0.450000  0.350000     24.000000
 -0.450000  0.450000  0.350000     48.000000
 -0.350000  0.450000  0.350000     48.000000
 -0.450000 -0.450000  0.350000     24.000000
  0.450000  0.450000  0.450000      8.000000
 -0.450000  0.450000  0.450000     24.000000
 
 Following cartesian coordinates:
            Coordinates               Weight
  0.012690  0.012690  0.012690      8.000000
 -0.012690  0.038071  0.038071     24.000000
 -0.038071  0.063452  0.063452     24.000000
 -0.063452  0.088832  0.088832     24.000000
 -0.088832  0.114213  0.114213     24.000000
  0.139594 -0.114213 -0.114213     24.000000
  0.114213 -0.088832 -0.088832     24.000000
  0.088832 -0.063452 -0.063452     24.000000
  0.063452 -0.038071 -0.038071     24.000000
  0.038071 -0.012690 -0.012690     24.000000
  0.012690  0.012690  0.063452     24.000000
 -0.012690  0.038071  0.088832     48.000000
 -0.038071  0.063452  0.114213     48.000000
 -0.063452  0.088832  0.139594     48.000000
  0.164975 -0.139594 -0.088832     48.000000
  0.139594 -0.114213 -0.063452     48.000000
  0.114213 -0.088832 -0.038071     48.000000
  0.088832 -0.063452 -0.012690     48.000000
  0.063452 -0.038071  0.012690     48.000000
  0.012690  0.012690  0.114213     24.000000
 -0.012690  0.038071  0.139594     48.000000
 -0.038071  0.063452  0.164975     48.000000
  0.190355 -0.164975 -0.063452     48.000000
  0.164975 -0.139594 -0.038071     48.000000
  0.139594 -0.114213 -0.012690     48.000000
  0.114213 -0.088832  0.012690     48.000000
  0.088832 -0.063452  0.038071     48.000000
  0.012690  0.012690  0.164975     24.000000
 -0.012690  0.038071  0.190355     48.000000
  0.215736 -0.190355 -0.038071     48.000000
  0.190355 -0.164975 -0.012690     48.000000
  0.164975 -0.139594  0.012690     48.000000
  0.139594 -0.114213  0.038071     48.000000
  0.114213 -0.088832  0.063452     48.000000
  0.012690  0.012690  0.215736     24.000000
  0.241117 -0.215736 -0.012690     48.000000
  0.215736 -0.190355  0.012690     48.000000
  0.190355 -0.164975  0.038071     48.000000
  0.164975 -0.139594  0.063452     48.000000
  0.139594 -0.114213  0.088832     48.000000
  0.012690  0.012690 -0.241117     24.000000
 -0.012690  0.038071 -0.215736     48.000000
 -0.038071  0.063452 -0.190355     48.000000
 -0.063452  0.088832 -0.164975     48.000000
  0.012690  0.012690 -0.190355     24.000000
 -0.012690  0.038071 -0.164975     48.000000
 -0.038071  0.063452 -0.139594     48.000000
  0.012690  0.012690 -0.139594     24.000000
 -0.012690  0.038071 -0.114213     48.000000
  0.012690  0.012690 -0.088832     24.000000
  0.038071  0.038071  0.038071      8.000000
  0.012690  0.063452  0.063452     24.000000
 -0.012690  0.088832  0.088832     24.000000
 -0.038071  0.114213  0.114213     24.000000
  0.190355 -0.114213 -0.114213     24.000000
  0.164975 -0.088832 -0.088832     24.000000
  0.139594 -0.063452 -0.063452     24.000000
  0.114213 -0.038071 -0.038071     24.000000
  0.038071  0.038071  0.088832     24.000000
  0.012690  0.063452  0.114213     48.000000
 -0.012690  0.088832  0.139594     48.000000
  0.215736 -0.139594 -0.088832     48.000000
  0.190355 -0.114213 -0.063452     48.000000
  0.164975 -0.088832 -0.038071     48.000000
  0.139594 -0.063452 -0.012690     48.000000
  0.038071  0.038071  0.139594     24.000000
  0.012690  0.063452  0.164975     48.000000
  0.241117 -0.164975 -0.063452     48.000000
  0.215736 -0.139594 -0.038071     48.000000
  0.190355 -0.114213 -0.012690     48.000000
  0.164975 -0.088832  0.012690     48.000000
  0.038071  0.038071  0.190355     24.000000
  0.266497 -0.190355 -0.038071     48.000000
  0.241117 -0.164975 -0.012690     48.000000
  0.215736 -0.139594  0.012690     48.000000
  0.190355 -0.114213  0.038071     48.000000
  0.038071  0.038071 -0.266497     24.000000
  0.012690  0.063452 -0.241117     48.000000
 -0.012690  0.088832 -0.215736     48.000000
  0.038071  0.038071 -0.215736     24.000000
  0.012690  0.063452 -0.190355     48.000000
  0.038071  0.038071 -0.164975     24.000000
  0.063452  0.063452  0.063452      8.000000
  0.038071  0.088832  0.088832     24.000000
  0.012690  0.114213  0.114213     24.000000
  0.241117 -0.114213 -0.114213     24.000000
  0.215736 -0.088832 -0.088832     24.000000
  0.190355 -0.063452 -0.063452     24.000000
  0.063452  0.063452  0.114213     24.000000
  0.038071  0.088832  0.139594     48.000000
  0.266497 -0.139594 -0.088832     48.000000
  0.241117 -0.114213 -0.063452     48.000000
  0.215736 -0.088832 -0.038071     48.000000
  0.063452  0.063452  0.164975     24.000000
  0.291878 -0.164975 -0.063452     48.000000
  0.266497 -0.139594 -0.038071     48.000000
  0.241117 -0.114213 -0.012690     48.000000
  0.063452  0.063452 -0.291878     24.000000
  0.038071  0.088832 -0.266497     48.000000
  0.063452  0.063452 -0.241117     24.000000
  0.088832  0.088832  0.088832      8.000000
  0.063452  0.114213  0.114213     24.000000
  0.291878 -0.114213 -0.114213     24.000000
  0.266497 -0.088832 -0.088832     24.000000
  0.088832  0.088832  0.139594     24.000000
  0.317259 -0.139594 -0.088832     48.000000
  0.291878 -0.114213 -0.063452     48.000000
  0.088832  0.088832 -0.317259     24.000000
  0.114213  0.114213  0.114213      8.000000
  0.342640 -0.114213 -0.114213     24.000000
 


--------------------------------------------------------------------------------------------------------




 Dimension of arrays:
   k-points           NKPTS =    110   k-points in BZ     NKDIM =    110   number of bands    NBANDS=     24
   number of dos      NEDOS =    301   number of ions     NIONS =      1
   non local maximal  LDIM  =      6   non local SUM 2l+1 LMDIM =     18
   total plane-waves  NPLWV =   8000
   max r-space proj   IRMAX =      1   max aug-charges    IRDMAX=  18011
   dimension x,y,z NGX =    20 NGY =   20 NGZ =   20
   dimension x,y,z NGXF=    40 NGYF=   40 NGZF=   40
   support grid    NGXF=    40 NGYF=   40 NGZF=   40
   ions per type =               1
   NGX,Y,Z   is equivalent  to a cutoff of  11.93, 11.93, 11.93 a.u.
   NGXF,Y,Z  is equivalent  to a cutoff of  23.87, 23.87, 23.87 a.u.

 SYSTEM =  Pt-fcc                                  
 POSCAR =  Pt                                      

 Startparameter for this run:
   NWRITE =      2    write-flag & timer
   PREC   = accura    normal or accurate (medium, high low for compatibility)
   ISTART =      0    job   : 0-new  1-cont  2-samecut
   ICHARG =      2    charge: 1-file 2-atom 10-const
   ISPIN  =      1    spin polarized calculation?
   LNONCOLLINEAR =      F non collinear calculations
   LSORBIT =      F    spin-orbit coupling
   INIWAV =      1    electr: 0-lowe 1-rand  2-diag
   LASPH  =      F    aspherical Exc in radial PAW
 Electronic Relaxation 1
   ENCUT  =  425.0 eV  31.24 Ry    5.59 a.u.   4.68  4.68  4.68*2*pi/ulx,y,z
   ENINI  =  425.0     initial cutoff
   ENAUG  =  527.0 eV  augmentation charge cutoff
   NELM   =    100;   NELMIN=  2; NELMDL= -5     # of ELM steps 
   EDIFF  = 0.1E-05   stopping-criterion for ELM
   LREAL  =      F    real-space projection
   NLSPLINE    = F    spline interpolate recip. space projectors
   LCOMPAT=      F    compatible to vasp.4.4
   GGA_COMPAT  = T    GGA compatible to vasp.4.4-vasp.4.6
   LMAXPAW     = -100 max onsite density
   LMAXMIX     =    2 max onsite mixed and CHGCAR
   VOSKOWN=      0    Vosko Wilk Nusair interpolation
   ROPT   =    0.00000
 Ionic relaxation
   EDIFFG = -.2E-01   stopping-criterion for IOM
   NSW    =      0    number of steps for IOM
   NBLOCK =      1;   KBLOCK =      1    inner block; outer block 
   IBRION =     -1    ionic relax: 0-MD 1-quasi-New 2-CG
   NFREE  =      0    steps in history (QN), initial steepest desc. (CG)
   ISIF   =      2    stress and relaxation
   IWAVPR =     10    prediction:  0-non 1-charg 2-wave 3-comb
   ISYM   =      1    0-nonsym 1-usesym 2-fastsym
   LCORR  =      T    Harris-Foulkes like correction to forces

   POTIM  = 0.5000    time-step for ionic-motion
   TEIN   =    0.0    initial temperature
   TEBEG  =    0.0;   TEEND  =   0.0 temperature during run
   SMASS  =  -3.00    Nose mass-parameter (am)
   estimated Nose-frequenzy (Omega)   =  0.10E-29 period in steps = 0.13E+47 mass=  -0.177E-27a.u.
   SCALEE = 1.0000    scale energy and forces
   NPACO  =    256;   APACO  = 10.0  distance and # of slots for P.C.
   PSTRESS=    0.0 pullay stress

  Mass of Ions in am
   POMASS = 195.08
  Ionic Valenz
   ZVAL   =  16.00
  Atomic Wigner-Seitz radii
   RWIGS  =  -1.00
  virtual crystal weights 
   VCA    =   1.00
   NELECT =      16.0000    total number of electrons
   NUPDOWN=      -1.0000    fix difference up-down

 DOS related values:
   EMIN   =  10.00;   EMAX   =-10.00  energy-range for DOS
   EFERMI =   0.00
   ISMEAR =     0;   SIGMA  =   0.05  broadening in eV -4-tet -1-fermi 0-gaus

 Electronic relaxation 2 (details)
   IALGO  =     38    algorithm
   LDIAG  =      T    sub-space diagonalisation (order eigenvalues)
   LSUBROT=      F    optimize rotation matrix (better conditioning)
   TURBO    =      0    0=normal 1=particle mesh
   IRESTART =      0    0=no restart 2=restart with 2 vectors
   NREBOOT  =      0    no. of reboots
   NMIN     =      0    reboot dimension
   EREF     =   0.00    reference energy to select bands
   IMIX   =      4    mixing-type and parameters
     AMIX     =   0.40;   BMIX     =  1.00
     AMIX_MAG =   1.60;   BMIX_MAG =  1.00
     AMIN     =   0.10
     WC   =   100.;   INIMIX=   1;  MIXPRE=   1;  MAXMIX= -45

 Intra band minimization:
   WEIMIN = 0.0000     energy-eigenvalue tresh-hold
   EBREAK =  0.10E-07  absolut break condition
   DEPER  =   0.30     relativ break condition  

   TIME   =   0.40     timestep for ELM

  volume/ion in A,a.u.               =      15.29       103.19
  Fermi-wavevector in a.u.,A,eV,Ry     =   1.662029  3.140779 37.583923  2.762340
  Thomas-Fermi vector in A             =   2.748990
 
 Write flags
   LWAVE        =      F    write WAVECAR
   LDOWNSAMPLE  =      F    k-point downsampling of WAVECAR
   LCHARG       =      F    write CHGCAR
   LVTOT        =      F    write LOCPOT, total local potential
   LVHAR        =      F    write LOCPOT, Hartree potential only
   LELF         =      F    write electronic localiz. function (ELF)
   LORBIT       =      0    0 simple, 1 ext, 2 COOP (PROOUT), +10 PAW based schemes


 Dipole corrections
   LMONO  =      F    monopole corrections only (constant potential shift)
   LDIPOL =      F    correct potential (dipole corrections)
   IDIPOL =      0    1-x, 2-y, 3-z, 4-all directions 
   EPSILON=  1.0000000 bulk dielectric constant

 Exchange correlation treatment:
   GGA     =    --    GGA type
   LEXCH   =     8    internal setting for exchange type
   LIBXC   =     F    Libxc                    
   VOSKOWN =     0    Vosko Wilk Nusair interpolation
   LHFCALC =     F    Hartree Fock is set to
   LHFONE  =     F    Hartree Fock one center treatment
   AEXX    =    0.0000 exact exchange contribution

 Linear response parameters
   LEPSILON=     F    determine dielectric tensor
   LRPA    =     F    only Hartree local field effects (RPA)
   LNABLA  =     F    use nabla operator in PAW spheres
   LVEL    =     F    velocity operator in full k-point grid
   CSHIFT  =0.1000    complex shift for real part using Kramers Kronig
   OMEGAMAX=  -1.0    maximum frequency
   DEG_THRESHOLD= 0.2000000E-02 threshold for treating states as degnerate
   RTIME   =   -0.100 relaxation time in fs
  (WPLASMAI=    0.000 imaginary part of plasma frequency in eV, 0.658/RTIME)
   DFIELD  = 0.0000000 0.0000000 0.0000000 field for delta impulse in time
 
  Optional k-point grid parameters
   LKPOINTS_OPT  =     F    use optional k-point grid
   KPOINTS_OPT_MODE=     1    mode for optional k-point grid
 
 Orbital magnetization related:
   ORBITALMAG=     F  switch on orbital magnetization
   LCHIMAG   =     F  perturbation theory with respect to B field
   DQ        =  0.001000  dq finite difference perturbation B field
   LLRAUG    =     F  two centre corrections for induced B field



--------------------------------------------------------------------------------------------------------


 Static calculation
 charge density and potential will be updated during run
 non-spin polarized calculation
 Variant of blocked Davidson
 Davidson routine will perform the subspace rotation
 perform sub-space diagonalisation
    after iterative eigenvector-optimisation
 modified Broyden-mixing scheme, WC =      100.0
 initial mixing is a Kerker type mixing with AMIX =  0.4000 and BMIX =      1.0000
 Hartree-type preconditioning will be used
 using additional bands           16
 reciprocal scheme for non local part
 use partial core corrections
 calculate Harris-corrections to forces 
   (improved forces if not selfconsistent)
 use gradient corrections 
 use of overlap-Matrix (Vanderbilt PP)
 Gauss-broadening in eV      SIGMA  =   0.05


--------------------------------------------------------------------------------------------------------


  energy-cutoff  :      425.00
  volume of cell :       15.29
      direct lattice vectors                 reciprocal lattice vectors
     0.000000000  1.970000000  1.970000000    -0.253807107  0.253807107  0.253807107
     1.970000000  0.000000000  1.970000000     0.253807107 -0.253807107  0.253807107
     1.970000000  1.970000000  0.000000000     0.253807107  0.253807107 -0.253807107

  length of vectors
     2.786000718  2.786000718  2.786000718     0.439606804  0.439606804  0.439606804


 
 k-points in units of 2pi/SCALE and weight: Automatic mesh                          
   0.01269036  0.01269036  0.01269036       0.002
  -0.01269036  0.03807107  0.03807107       0.006
  -0.03807107  0.06345178  0.06345178       0.006
  -0.06345178  0.08883249  0.08883249       0.006
  -0.08883249  0.11421320  0.11421320       0.006
   0.13959391 -0.11421320 -0.11421320       0.006
   0.11421320 -0.08883249 -0.08883249       0.006
   0.08883249 -0.06345178 -0.06345178       0.006
   0.06345178 -0.03807107 -0.03807107       0.006
   0.03807107 -0.01269036 -0.01269036       0.006
   0.01269036  0.01269036  0.06345178       0.006
  -0.01269036  0.03807107  0.08883249       0.012
  -0.03807107  0.06345178  0.11421320       0.012
  -0.06345178  0.08883249  0.13959391       0.012
   0.16497462 -0.13959391 -0.08883249       0.012
   0.13959391 -0.11421320 -0.06345178       0.012
   0.11421320 -0.08883249 -0.03807107       0.012
   0.08883249 -0.06345178 -0.01269036       0.012
   0.06345178 -0.03807107  0.01269036       0.012
   0.01269036  0.01269036  0.11421320       0.006
  -0.01269036  0.03807107  0.13959391       0.012
  -0.03807107  0.06345178  0.16497462       0.012
   0.19035533 -0.16497462 -0.06345178       0.012
   0.16497462 -0.13959391 -0.03807107       0.012
   0.13959391 -0.11421320 -0.01269036       0.012
   0.11421320 -0.08883249  0.01269036       0.012
   0.08883249 -0.06345178  0.03807107       0.012
   0.01269036  0.01269036  0.16497462       0.006
  -0.01269036  0.03807107  0.19035533       0.012
   0.21573604 -0.19035533 -0.03807107       0.012
   0.19035533 -0.16497462 -0.01269036       0.012
   0.16497462 -0.13959391  0.01269036       0.012
   0.13959391 -0.11421320  0.03807107       0.012
   0.11421320 -0.08883249  0.06345178       0.012
   0.01269036  0.01269036  0.21573604       0.006
   0.24111675 -0.21573604 -0.01269036       0.012
   0.21573604 -0.19035533  0.01269036       0.012
   0.19035533 -0.16497462  0.03807107       0.012
   0.16497462 -0.13959391  0.06345178       0.012
   0.13959391 -0.11421320  0.08883249       0.012
   0.01269036  0.01269036 -0.24111675       0.006
  -0.01269036  0.03807107 -0.21573604       0.012
  -0.03807107  0.06345178 -0.19035533       0.012
  -0.06345178  0.08883249 -0.16497462       0.012
   0.01269036  0.01269036 -0.19035533       0.006
  -0.01269036  0.03807107 -0.16497462       0.012
  -0.03807107  0.06345178 -0.13959391       0.012
   0.01269036  0.01269036 -0.13959391       0.006
  -0.01269036  0.03807107 -0.11421320       0.012
   0.01269036  0.01269036 -0.08883249       0.006
   0.03807107  0.03807107  0.03807107       0.002
   0.01269036  0.06345178  0.06345178       0.006
  -0.01269036  0.08883249  0.08883249       0.006
  -0.03807107  0.11421320  0.11421320       0.006
   0.19035533 -0.11421320 -0.11421320       0.006
   0.16497462 -0.08883249 -0.08883249       0.006
   0.13959391 -0.06345178 -0.06345178       0.006
   0.11421320 -0.03807107 -0.03807107       0.006
   0.03807107  0.03807107  0.08883249       0.006
   0.01269036  0.06345178  0.11421320       0.012
  -0.01269036  0.08883249  0.13959391       0.012
   0.21573604 -0.13959391 -0.08883249       0.012
   0.19035533 -0.11421320 -0.06345178       0.012
   0.16497462 -0.08883249 -0.03807107       0.012
   0.13959391 -0.06345178 -0.01269036       0.012
   0.03807107  0.03807107  0.13959391       0.006
   0.01269036  0.06345178  0.16497462       0.012
   0.24111675 -0.16497462 -0.06345178       0.012
   0.21573604 -0.13959391 -0.03807107       0.012
   0.19035533 -0.11421320 -0.01269036       0.012
   0.16497462 -0.08883249  0.01269036       0.012
   0.03807107  0.03807107  0.19035533       0.006
   0.26649746 -0.19035533 -0.03807107       0.012
   0.24111675 -0.16497462 -0.01269036       0.012
   0.21573604 -0.13959391  0.01269036       0.012
   0.19035533 -0.11421320  0.03807107       0.012
   0.03807107  0.03807107 -0.26649746       0.006
   0.01269036  0.06345178 -0.24111675       0.012
  -0.01269036  0.08883249 -0.21573604       0.012
   0.03807107  0.03807107 -0.21573604       0.006
   0.01269036  0.06345178 -0.19035533       0.012
   0.03807107  0.03807107 -0.16497462       0.006
   0.06345178  0.06345178  0.06345178       0.002
   0.03807107  0.08883249  0.08883249       0.006
   0.01269036  0.11421320  0.11421320       0.006
   0.24111675 -0.11421320 -0.11421320       0.006
   0.21573604 -0.08883249 -0.08883249       0.006
   0.19035533 -0.06345178 -0.06345178       0.006
   0.06345178  0.06345178  0.11421320       0.006
   0.03807107  0.08883249  0.13959391       0.012
   0.26649746 -0.13959391 -0.08883249       0.012
   0.24111675 -0.11421320 -0.06345178       0.012
   0.21573604 -0.08883249 -0.03807107       0.012
   0.06345178  0.06345178  0.16497462       0.006
   0.29187817 -0.16497462 -0.06345178       0.012
   0.26649746 -0.13959391 -0.03807107       0.012
   0.24111675 -0.11421320 -0.01269036       0.012
   0.06345178  0.06345178 -0.29187817       0.006
   0.03807107  0.08883249 -0.26649746       0.012
   0.06345178  0.06345178 -0.24111675       0.006
   0.08883249  0.08883249  0.08883249       0.002
   0.06345178  0.11421320  0.11421320       0.006
   0.29187817 -0.11421320 -0.11421320       0.006
   0.26649746 -0.08883249 -0.08883249       0.006
   0.08883249  0.08883249  0.13959391       0.006
   0.31725888 -0.13959391 -0.08883249       0.012
   0.29187817 -0.11421320 -0.06345178       0.012
   0.08883249  0.08883249 -0.31725888       0.006
   0.11421320  0.11421320  0.11421320       0.002
   0.34263959 -0.11421320 -0.11421320       0.006
 
 k-points in reciprocal lattice and weights: Automatic mesh                          
   0.05000000  0.05000000  0.05000000       0.002
   0.15000000  0.05000000  0.05000000       0.006
   0.25000000  0.05000000  0.05000000       0.006
   0.35000000  0.05000000  0.05000000       0.006
   0.45000000  0.05000000  0.05000000       0.006
  -0.45000000  0.05000000  0.05000000       0.006
  -0.35000000  0.05000000  0.05000000       0.006
  -0.25000000  0.05000000  0.05000000       0.006
  -0.15000000  0.05000000  0.05000000       0.006
  -0.05000000  0.05000000  0.05000000       0.006
   0.15000000  0.15000000  0.05000000       0.006
   0.25000000  0.15000000  0.05000000       0.012
   0.35000000  0.15000000  0.05000000       0.012
   0.45000000  0.15000000  0.05000000       0.012
  -0.45000000  0.15000000  0.05000000       0.012
  -0.35000000  0.15000000  0.05000000       0.012
  -0.25000000  0.15000000  0.05000000       0.012
  -0.15000000  0.15000000  0.05000000       0.012
  -0.05000000  0.15000000  0.05000000       0.012
   0.25000000  0.25000000  0.05000000       0.006
   0.35000000  0.25000000  0.05000000       0.012
   0.45000000  0.25000000  0.05000000       0.012
  -0.45000000  0.25000000  0.05000000       0.012
  -0.35000000  0.25000000  0.05000000       0.012
  -0.25000000  0.25000000  0.05000000       0.012
  -0.15000000  0.25000000  0.05000000       0.012
  -0.05000000  0.25000000  0.05000000       0.012
   0.35000000  0.35000000  0.05000000       0.006
   0.45000000  0.35000000  0.05000000       0.012
  -0.45000000  0.35000000  0.05000000       0.012
  -0.35000000  0.35000000  0.05000000       0.012
  -0.25000000  0.35000000  0.05000000       0.012
  -0.15000000  0.35000000  0.05000000       0.012
  -0.05000000  0.35000000  0.05000000       0.012
   0.45000000  0.45000000  0.05000000       0.006
  -0.45000000  0.45000000  0.05000000       0.012
  -0.35000000  0.45000000  0.05000000       0.012
  -0.25000000  0.45000000  0.05000000       0.012
  -0.15000000  0.45000000  0.05000000       0.012
  -0.05000000  0.45000000  0.05000000       0.012
  -0.45000000 -0.45000000  0.05000000       0.006
  -0.35000000 -0.45000000  0.05000000       0.012
  -0.25000000 -0.45000000  0.05000000       0.012
  -0.15000000 -0.45000000  0.05000000       0.012
  -0.35000000 -0.35000000  0.05000000       0.006
  -0.25000000 -0.35000000  0.05000000       0.012
  -0.15000000 -0.35000000  0.05000000       0.012
  -0.25000000 -0.25000000  0.05000000       0.006
  -0.15000000 -0.25000000  0.05000000       0.012
  -0.15000000 -0.15000000  0.05000000       0.006
   0.15000000  0.15000000  0.15000000       0.002
   0.25000000  0.15000000  0.15000000       0.006
   0.35000000  0.15000000  0.15000000       0.006
   0.45000000  0.15000000  0.15000000       0.006
  -0.45000000  0.15000000  0.15000000       0.006
  -0.35000000  0.15000000  0.15000000       0.006
  -0.25000000  0.15000000  0.15000000       0.006
  -0.15000000  0.15000000  0.15000000       0.006
   0.25000000  0.25000000  0.15000000       0.006
   0.35000000  0.25000000  0.15000000       0.012
   0.45000000  0.25000000  0.15000000       0.012
  -0.45000000  0.25000000  0.15000000       0.012
  -0.35000000  0.25000000  0.15000000       0.012
  -0.25000000  0.25000000  0.15000000       0.012
  -0.15000000  0.25000000  0.15000000       0.012
   0.35000000  0.35000000  0.15000000       0.006
   0.45000000  0.35000000  0.15000000       0.012
  -0.45000000  0.35000000  0.15000000       0.012
  -0.35000000  0.35000000  0.15000000       0.012
  -0.25000000  0.35000000  0.15000000       0.012
  -0.15000000  0.35000000  0.15000000       0.012
   0.45000000  0.45000000  0.15000000       0.006
  -0.45000000  0.45000000  0.15000000       0.012
  -0.35000000  0.45000000  0.15000000       0.012
  -0.25000000  0.45000000  0.15000000       0.012
  -0.15000000  0.45000000  0.15000000       0.012
  -0.45000000 -0.45000000  0.15000000       0.006
  -0.35000000 -0.45000000  0.15000000       0.012
  -0.25000000 -0.45000000  0.15000000       0.012
  -0.35000000 -0.35000000  0.15000000       0.006
  -0.25000000 -0.35000000  0.15000000       0.012
  -0.25000000 -0.25000000  0.15000000       0.006
   0.25000000  0.25000000  0.25000000       0.002
   0.35000000  0.25000000  0.25000000       0.006
   0.45000000  0.25000000  0.25000000       0.006
  -0.45000000  0.25000000  0.25000000       0.006
  -0.35000000  0.25000000  0.25000000       0.006
  -0.25000000  0.25000000  0.25000000       0.006
   0.35000000  0.35000000  0.25000000       0.006
   0.45000000  0.35000000  0.25000000       0.012
  -0.45000000  0.35000000  0.25000000       0.012
  -0.35000000  0.35000000  0.25000000       0.012
  -0.25000000  0.35000000  0.25000000       0.012
   0.45000000  0.45000000  0.25000000       0.006
  -0.45000000  0.45000000  0.25000000       0.012
  -0.35000000  0.45000000  0.25000000       0.012
  -0.25000000  0.45000000  0.25000000       0.012
  -0.45000000 -0.45000000  0.25000000       0.006
  -0.35000000 -0.45000000  0.25000000       0.012
  -0.35000000 -0.35000000  0.25000000       0.006
   0.35000000  0.35000000  0.35000000       0.002
   0.45000000  0.35000000  0.35000000       0.006
  -0.45000000  0.35000000  0.35000000       0.006
  -0.35000000  0.35000000  0.35000000       0.006
   0.45000000  0.45000000  0.35000000       0.006
  -0.45000000  0.45000000  0.35000000       0.012
  -0.35000000  0.45000000  0.35000000       0.012
  -0.45000000 -0.45000000  0.35000000       0.006
   0.45000000  0.45000000  0.45000000       0.002
  -0.45000000  0.45000000  0.45000000       0.006
 
 position of ions in fractional coordinates (direct lattice) 
   0.00000000  0.00000000  0.00000000
 
 position of ions in cartesian coordinates  (Angst):
   0.00000000  0.00000000  0.00000000
 


--------------------------------------------------------------------------------------------------------


 k-point   1 :   0.0500 0.0500 0.0500  plane waves:     316
 k-point   2 :   0.1500 0.0500 0.0500  plane waves:     311
 k-point   3 :   0.2500 0.0500 0.0500  plane waves:     307
 k-point   4 :   0.3500 0.0500 0.0500  plane waves:     304
 k-point   5 :   0.4500 0.0500 0.0500  plane waves:     304
 k-point   6 :  -0.4500 0.0500 0.0500  plane waves:     303
 k-point   7 :  -0.3500 0.0500 0.0500  plane waves:     303
 k-point   8 :  -0.2500 0.0500 0.0500  plane waves:     303
 k-point   9 :  -0.1500 0.0500 0.0500  plane waves:     307
 k-point  10 :  -0.0500 0.0500 0.0500  plane waves:     311
 k-point  11 :   0.1500 0.1500 0.0500  plane waves:     307
 k-point  12 :   0.2500 0.1500 0.0500  plane waves:     305
 k-point  13 :   0.3500 0.1500 0.0500  plane waves:     302
 k-point  14 :   0.4500 0.1500 0.0500  plane waves:     304
 k-point  15 :  -0.4500 0.1500 0.0500  plane waves:     302
 k-point  16 :  -0.3500 0.1500 0.0500  plane waves:     304
 k-point  17 :  -0.2500 0.1500 0.0500  plane waves:     304
 k-point  18 :  -0.1500 0.1500 0.0500  plane waves:     306
 k-point  19 :  -0.0500 0.1500 0.0500  plane waves:     309
 k-point  20 :   0.2500 0.2500 0.0500  plane waves:     304
 k-point  21 :   0.3500 0.2500 0.0500  plane waves:     306
 k-point  22 :   0.4500 0.2500 0.0500  plane waves:     306
 k-point  23 :  -0.4500 0.2500 0.0500  plane waves:     303
 k-point  24 :  -0.3500 0.2500 0.0500  plane waves:     301
 k-point  25 :  -0.2500 0.2500 0.0500  plane waves:     306
 k-point  26 :  -0.1500 0.2500 0.0500  plane waves:     305
 k-point  27 :  -0.0500 0.2500 0.0500  plane waves:     306
 k-point  28 :   0.3500 0.3500 0.0500  plane waves:     309
 k-point  29 :   0.4500 0.3500 0.0500  plane waves:     309
 k-point  30 :  -0.4500 0.3500 0.0500  plane waves:     304
 k-point  31 :  -0.3500 0.3500 0.0500  plane waves:     298
 k-point  32 :  -0.2500 0.3500 0.0500  plane waves:     302
 k-point  33 :  -0.1500 0.3500 0.0500  plane waves:     305
 k-point  34 :  -0.0500 0.3500 0.0500  plane waves:     301
 k-point  35 :   0.4500 0.4500 0.0500  plane waves:     312
 k-point  36 :  -0.4500 0.4500 0.0500  plane waves:     306
 k-point  37 :  -0.3500 0.4500 0.0500  plane waves:     302
 k-point  38 :  -0.2500 0.4500 0.0500  plane waves:     300
 k-point  39 :  -0.1500 0.4500 0.0500  plane waves:     301
 k-point  40 :  -0.0500 0.4500 0.0500  plane waves:     304
 k-point  41 :  -0.4500-0.4500 0.0500  plane waves:     302
 k-point  42 :  -0.3500-0.4500 0.0500  plane waves:     309
 k-point  43 :  -0.2500-0.4500 0.0500  plane waves:     304
 k-point  44 :  -0.1500-0.4500 0.0500  plane waves:     305
 k-point  45 :  -0.3500-0.3500 0.0500  plane waves:     314
 k-point  46 :  -0.2500-0.3500 0.0500  plane waves:     310
 k-point  47 :  -0.1500-0.3500 0.0500  plane waves:     308
 k-point  48 :  -0.2500-0.2500 0.0500  plane waves:     308
 k-point  49 :  -0.1500-0.2500 0.0500  plane waves:     303
 k-point  50 :  -0.1500-0.1500 0.0500  plane waves:     303
 k-point  51 :   0.1500 0.1500 0.1500  plane waves:     310
 k-point  52 :   0.2500 0.1500 0.1500  plane waves:     310
 k-point  53 :   0.3500 0.1500 0.1500  plane waves:     305
 k-point  54 :   0.4500 0.1500 0.1500  plane waves:     302
 k-point  55 :  -0.4500 0.1500 0.1500  plane waves:     301
 k-point  56 :  -0.3500 0.1500 0.1500  plane waves:     306
 k-point  57 :  -0.2500 0.1500 0.1500  plane waves:     305
 k-point  58 :  -0.1500 0.1500 0.1500  plane waves:     306
 k-point  59 :   0.2500 0.2500 0.1500  plane waves:     306
 k-point  60 :   0.3500 0.2500 0.1500  plane waves:     305
 k-point  61 :   0.4500 0.2500 0.1500  plane waves:     308
 k-point  62 :  -0.4500 0.2500 0.1500  plane waves:     302
 k-point  63 :  -0.3500 0.2500 0.1500  plane waves:     304
 k-point  64 :  -0.2500 0.2500 0.1500  plane waves:     304
 k-point  65 :  -0.1500 0.2500 0.1500  plane waves:     309
 k-point  66 :   0.3500 0.3500 0.1500  plane waves:     303
 k-point  67 :   0.4500 0.3500 0.1500  plane waves:     307
 k-point  68 :  -0.4500 0.3500 0.1500  plane waves:     304
 k-point  69 :  -0.3500 0.3500 0.1500  plane waves:     301
 k-point  70 :  -0.2500 0.3500 0.1500  plane waves:     299
 k-point  71 :  -0.1500 0.3500 0.1500  plane waves:     306
 k-point  72 :   0.4500 0.4500 0.1500  plane waves:     307
 k-point  73 :  -0.4500 0.4500 0.1500  plane waves:     304
 k-point  74 :  -0.3500 0.4500 0.1500  plane waves:     302
 k-point  75 :  -0.2500 0.4500 0.1500  plane waves:     302
 k-point  76 :  -0.1500 0.4500 0.1500  plane waves:     302
 k-point  77 :  -0.4500-0.4500 0.1500  plane waves:     308
 k-point  78 :  -0.3500-0.4500 0.1500  plane waves:     302
 k-point  79 :  -0.2500-0.4500 0.1500  plane waves:     302
 k-point  80 :  -0.3500-0.3500 0.1500  plane waves:     307
 k-point  81 :  -0.2500-0.3500 0.1500  plane waves:     304
 k-point  82 :  -0.2500-0.2500 0.1500  plane waves:     311
 k-point  83 :   0.2500 0.2500 0.2500  plane waves:     305
 k-point  84 :   0.3500 0.2500 0.2500  plane waves:     304
 k-point  85 :   0.4500 0.2500 0.2500  plane waves:     305
 k-point  86 :  -0.4500 0.2500 0.2500  plane waves:     301
 k-point  87 :  -0.3500 0.2500 0.2500  plane waves:     301
 k-point  88 :  -0.2500 0.2500 0.2500  plane waves:     307
 k-point  89 :   0.3500 0.3500 0.2500  plane waves:     300
 k-point  90 :   0.4500 0.3500 0.2500  plane waves:     308
 k-point  91 :  -0.4500 0.3500 0.2500  plane waves:     302
 k-point  92 :  -0.3500 0.3500 0.2500  plane waves:     301
 k-point  93 :  -0.2500 0.3500 0.2500  plane waves:     298
 k-point  94 :   0.4500 0.4500 0.2500  plane waves:     307
 k-point  95 :  -0.4500 0.4500 0.2500  plane waves:     302
 k-point  96 :  -0.3500 0.4500 0.2500  plane waves:     304
 k-point  97 :  -0.2500 0.4500 0.2500  plane waves:     301
 k-point  98 :  -0.4500-0.4500 0.2500  plane waves:     302
 k-point  99 :  -0.3500-0.4500 0.2500  plane waves:     299
 k-point 100 :  -0.3500-0.3500 0.2500  plane waves:     302
 k-point 101 :   0.3500 0.3500 0.3500  plane waves:     305
 k-point 102 :   0.4500 0.3500 0.3500  plane waves:     305
 k-point 103 :  -0.4500 0.3500 0.3500  plane waves:     301
 k-point 104 :  -0.3500 0.3500 0.3500  plane waves:     295
 k-point 105 :   0.4500 0.4500 0.3500  plane waves:     305
 k-point 106 :  -0.4500 0.4500 0.3500  plane waves:     303
 k-point 107 :  -0.3500 0.4500 0.3500  plane waves:     302
 k-point 108 :  -0.4500-0.4500 0.3500  plane waves:     303
 k-point 109 :   0.4500 0.4500 0.4500  plane waves:     308
 k-point 110 :  -0.4500 0.4500 0.4500  plane waves:     306

 maximum and minimum number of plane-waves per node :       316      295

 maximum number of plane-waves:       316
 maximum index in each direction: 
   IXMAX=    5   IYMAX=    5   IZMAX=    4
   IXMIN=   -5   IYMIN=   -5   IZMIN=   -5


 serial   3D FFT for wavefunctions
 parallel 3D FFT for charge:
    minimum data exchange during FFTs selected (reduces bandwidth)


 total amount of memory used by VASP MPI-rank0    36607. kBytes
=======================================================================

   base      :      30000. kBytes
   nonl-proj :       5327. kBytes
   fftplans  :        147. kBytes
   grid      :        485. kBytes
   one-center:         15. kBytes
   wavefun   :        633. kBytes
 
     INWAV:  cpu time      0.0000: real time      0.0001
 Broyden mixing: mesh for mixing (old mesh)
   NGX =  9   NGY =  9   NGZ =  9
  (NGX  = 40   NGY  = 40   NGZ  = 40)
  gives a total of    729 points

 initial charge density was supplied:
 charge density of overlapping atoms calculated
 number of electron      16.0000000 magnetization 
 keeping initial charge density in first step


--------------------------------------------------------------------------------------------------------


 Maximum index for augmentation-charges          868 (set IRDMAX)


--------------------------------------------------------------------------------------------------------


 First call to EWALD:  gamma=   0.714
 Maximum number of real-space cells 3x 3x 3
 Maximum number of reciprocal cells 3x 3x 3

    FEWALD:  cpu time      0.0015: real time      0.0015


--------------------------------------- Iteration      1(   1)  ---------------------------------------


    POTLOK:  cpu time      0.0034: real time      0.0035
    SETDIJ:  cpu time      0.0023: real time      0.0023
     EDDAV:  cpu time      0.5140: real time      0.5167
       DOS:  cpu time      0.0009: real time      0.0009
    --------------------------------------------
      LOOP:  cpu time      0.5205: real time      0.5233

 eigenvalue-minimisations  :  5976
 total energy-change (2. order) : 0.1634119E+02  (-0.1171113E+04)
 number of electron      16.0000000 magnetization 
 augmentation part       16.0000000 magnetization 

 Free energy of the ion-electron system (eV)
  ---------------------------------------------------
  alpha Z        PSCENC =       156.91311333
  Ewald energy   TEWEN  =     -2144.84590610
  -Hartree energ DENC   =      -397.82488157
  -exchange      EXHF   =         0.00000000
  -V(xc)+E(xc)   XCENC  =        63.81680431
  PAW double counting   =      2065.75261637    -2030.83594803
  entropy T*S    EENTRO =        -0.00049425
  eigenvalues    EBANDS =      -124.82912779
  atomic energy  EATOM  =      2428.19501064
  Solvation  Ediel_sol  =         0.00000000
  ---------------------------------------------------
  free energy    TOTEN  =        16.34118693 eV

  energy without entropy =       16.34168118  energy(sigma->0) =       16.34143405


--------------------------------------------------------------------------------------------------------




--------------------------------------- Iteration      1(   2)  ---------------------------------------


     EDDAV:  cpu time      0.6433: real time      0.6474
       DOS:  cpu time      0.0005: real time      0.0005
    --------------------------------------------
      LOOP:  cpu time      0.6438: real time      0.6479

 eigenvalue-minimisations  :  6888
 total energy-change (2. order) :-0.2273715E+02  (-0.2244321E+02)
 number of electron      16.0000000 magnetization 
 augmentation part       16.0000000 magnetization 

 Free energy of the ion-electron system (eV)
  ---------------------------------------------------
  alpha Z        PSCENC =       156.91311333
  Ewald energy   TEWEN  =     -2144.84590610
  -Hartree energ DENC   =      -397.82488157
  -exchange      EXHF   =         0.00000000
  -V(xc)+E(xc)   XCENC  =        63.81680431
  PAW double counting   =      2065.75261637    -2030.83594803
  entropy T*S    EENTRO =        -0.00172367
  eigenvalues    EBANDS =      -147.56504973
  atomic energy  EATOM  =      2428.19501064
  Solvation  Ediel_sol  =         0.00000000
  ---------------------------------------------------
  free energy    TOTEN  =        -6.39596443 eV

  energy without entropy =       -6.39424076  energy(sigma->0) =       -6.39510259


--------------------------------------------------------------------------------------------------------




--------------------------------------- Iteration      1(   3)  ---------------------------------------


     EDDAV:  cpu time      0.7014: real time      0.7049
       DOS:  cpu time      0.0005: real time      0.0005
    --------------------------------------------
      LOOP:  cpu time      0.7018: real time      0.7054

 eigenvalue-minimisations  :  6960
 total energy-change (2. order) :-0.3331355E-01  (-0.3331303E-01)
 number of electron      16.0000000 magnetization 
 augmentation part       16.0000000 magnetization 

 Free energy of the ion-electron system (eV)
  ---------------------------------------------------
  alpha Z        PSCENC =       156.91311333
  Ewald energy   TEWEN  =     -2144.84590610
  -Hartree energ DENC   =      -397.82488157
  -exchange      EXHF   =         0.00000000
  -V(xc)+E(xc)   XCENC  =        63.81680431
  PAW double counting   =      2065.75261637    -2030.83594803
  entropy T*S    EENTRO =        -0.00174004
  eigenvalues    EBANDS =      -147.59834690
  atomic energy  EATOM  =      2428.19501064
  Solvation  Ediel_sol  =         0.00000000
  ---------------------------------------------------
  free energy    TOTEN  =        -6.42927798 eV

  energy without entropy =       -6.42753794  energy(sigma->0) =       -6.42840796


--------------------------------------------------------------------------------------------------------




--------------------------------------- Iteration      1(   4)  ---------------------------------------


     EDDAV:  cpu time      0.9077: real time      0.9122
       DOS:  cpu time      0.0005: real time      0.0005
    --------------------------------------------
      LOOP:  cpu time      0.9082: real time      0.9127

 eigenvalue-minimisations  :  8232
 total energy-change (2. order) :-0.2485772E-04  (-0.2485763E-04)
 number of electron      16.0000000 magnetization 
 augmentation part       16.0000000 magnetization 

 Free energy of the ion-electron system (eV)
  ---------------------------------------------------
  alpha Z        PSCENC =       156.91311333
  Ewald energy   TEWEN  =     -2144.84590610
  -Hartree energ DENC   =      -397.82488157
  -exchange      EXHF   =         0.00000000
  -V(xc)+E(xc)   XCENC  =        63.81680431
  PAW double counting   =      2065.75261637    -2030.83594803
  entropy T*S    EENTRO =        -0.00174004
  eigenvalues    EBANDS =      -147.59837176
  atomic energy  EATOM  =      2428.19501064
  Solvation  Ediel_sol  =         0.00000000
  ---------------------------------------------------
  free energy    TOTEN  =        -6.42930283 eV

  energy without entropy =       -6.42756279  energy(sigma->0) =       -6.42843281


--------------------------------------------------------------------------------------------------------




--------------------------------------- Iteration      1(   5)  ---------------------------------------


     EDDAV:  cpu time      0.6825: real time      0.6859
       DOS:  cpu time      0.0005: real time      0.0005
    CHARGE:  cpu time      0.0185: real time      0.0186
    MIXING:  cpu time      0.0004: real time      0.0004
    --------------------------------------------
      LOOP:  cpu time      0.7019: real time      0.7053

 eigenvalue-minimisations  :  6840
 total energy-change (2. order) :-0.2501110E-10  (-0.5862415E-09)
 number of electron      16.0000003 magnetization 
 augmentation part        3.9771892 magnetization 

 Broyden mixing:
  rms(total) = 0.14937E+01    rms(broyden)= 0.14935E+01
  rms(prec ) = 0.20509E+01
  weight for this iteration     100.00

 Free energy of the ion-electron system (eV)
  ---------------------------------------------------
  alpha Z        PSCENC =       156.91311333
  Ewald energy   TEWEN  =     -2144.84590610
  -Hartree energ DENC   =      -397.82488157
  -exchange      EXHF   =         0.00000000
  -V(xc)+E(xc)   XCENC  =        63.81680431
  PAW double counting   =      2065.75261637    -2030.83594803
  entropy T*S    EENTRO =        -0.00174004
  eigenvalues    EBANDS =      -147.59837176
  atomic energy  EATOM  =      2428.19501064
  Solvation  Ediel_sol  =         0.00000000
  ---------------------------------------------------
  free energy    TOTEN  =        -6.42930283 eV

  energy without entropy =       -6.42756279  energy(sigma->0) =       -6.42843281


--------------------------------------------------------------------------------------------------------




--------------------------------------- Iteration      1(   6)  ---------------------------------------


    POTLOK:  cpu time      0.0025: real time      0.0026
    SETDIJ:  cpu time      0.0021: real time      0.0021
     EDDAV:  cpu time      0.5144: real time      0.5169
       DOS:  cpu time      0.0005: real time      0.0005
    CHARGE:  cpu time      0.0177: real time      0.0177
    MIXING:  cpu time      0.0003: real time      0.0003
    --------------------------------------------
      LOOP:  cpu time      0.5374: real time      0.5402

 eigenvalue-minimisations  :  5928
 total energy-change (2. order) : 0.3339680E+00  (-0.1233253E+00)
 number of electron      16.0000003 magnetization 
 augmentation part        4.0897799 magnetization 

 Broyden mixing:
  rms(total) = 0.47996E+00    rms(broyden)= 0.47995E+00
  rms(prec ) = 0.58973E+00
  weight for this iteration     100.00

 eigenvalues of (default mixing * dielectric matrix)
  average eigenvalue GAMMA=   1.4493
  1.4493

 Free energy of the ion-electron system (eV)
  ---------------------------------------------------
  alpha Z        PSCENC =       156.91311333
  Ewald energy   TEWEN  =     -2144.84590610
  -Hartree energ DENC   =      -382.54269243
  -exchange      EXHF   =         0.00000000
  -V(xc)+E(xc)   XCENC  =        63.15779890
  PAW double counting   =      2236.30353817    -2203.45161129
  entropy T*S    EENTRO =        -0.00239133
  eigenvalues    EBANDS =      -159.82219471
  atomic energy  EATOM  =      2428.19501064
  Solvation  Ediel_sol  =         0.00000000
  ---------------------------------------------------
  free energy    TOTEN  =        -6.09533482 eV

  energy without entropy =       -6.09294349  energy(sigma->0) =       -6.09413916


--------------------------------------------------------------------------------------------------------




--------------------------------------- Iteration      1(   7)  ---------------------------------------


    POTLOK:  cpu time      0.0023: real time      0.0025
    SETDIJ:  cpu time      0.0019: real time      0.0019
     EDDAV:  cpu time      0.8397: real time      0.8438
       DOS:  cpu time      0.0005: real time      0.0005
    CHARGE:  cpu time      0.0180: real time      0.0180
    MIXING:  cpu time      0.0003: real time      0.0003
    --------------------------------------------
      LOOP:  cpu time      0.8626: real time      0.8669

 eigenvalue-minimisations  :  8040
 total energy-change (2. order) : 0.1859100E-01  (-0.7665424E-02)
 number of electron      16.0000003 magnetization 
 augmentation part        4.1163748 magnetization 

 Broyden mixing:
  rms(total) = 0.14950E+00    rms(broyden)= 0.14950E+00
  rms(prec ) = 0.18099E+00
  weight for this iteration     100.00

 eigenvalues of (default mixing * dielectric matrix)
  average eigenvalue GAMMA=   1.9585
  1.1963  2.7207

 Free energy of the ion-electron system (eV)
  ---------------------------------------------------
  alpha Z        PSCENC =       156.91311333
  Ewald energy   TEWEN  =     -2144.84590610
  -Hartree energ DENC   =      -378.55198600
  -exchange      EXHF   =         0.00000000
  -V(xc)+E(xc)   XCENC  =        62.97574440
  PAW double counting   =      2309.48066699    -2277.21337135
  entropy T*S    EENTRO =        -0.00243243
  eigenvalues    EBANDS =      -163.02758329
  atomic energy  EATOM  =      2428.19501064
  Solvation  Ediel_sol  =         0.00000000
  ---------------------------------------------------
  free energy    TOTEN  =        -6.07674382 eV

  energy without entropy =       -6.07431139  energy(sigma->0) =       -6.07552761


--------------------------------------------------------------------------------------------------------




--------------------------------------- Iteration      1(   8)  ---------------------------------------


    POTLOK:  cpu time      0.0023: real time      0.0024
    SETDIJ:  cpu time      0.0020: real time      0.0020
     EDDAV:  cpu time      0.4942: real time      0.4968
       DOS:  cpu time      0.0005: real time      0.0005
    CHARGE:  cpu time      0.0175: real time      0.0176
    MIXING:  cpu time      0.0003: real time      0.0003
    --------------------------------------------
      LOOP:  cpu time      0.5167: real time      0.5195

 eigenvalue-minimisations  :  5808
 total energy-change (2. order) : 0.1542236E-02  (-0.4146665E-03)
 number of electron      16.0000003 magnetization 
 augmentation part        4.1120266 magnetization 

 Broyden mixing:
  rms(total) = 0.14404E-01    rms(broyden)= 0.14395E-01
  rms(prec ) = 0.18419E-01
  weight for this iteration     100.00

 eigenvalues of (default mixing * dielectric matrix)
  average eigenvalue GAMMA=   1.5715
  1.0772  1.2016  2.4359

 Free energy of the ion-electron system (eV)
  ---------------------------------------------------
  alpha Z        PSCENC =       156.91311333
  Ewald energy   TEWEN  =     -2144.84590610
  -Hartree energ DENC   =      -378.48099512
  -exchange      EXHF   =         0.00000000
  -V(xc)+E(xc)   XCENC  =        62.95953398
  PAW double counting   =      2353.49014311    -2321.26561664
  entropy T*S    EENTRO =        -0.00245724
  eigenvalues    EBANDS =      -163.03802755
  atomic energy  EATOM  =      2428.19501064
  Solvation  Ediel_sol  =         0.00000000
  ---------------------------------------------------
  free energy    TOTEN  =        -6.07520159 eV

  energy without entropy =       -6.07274434  energy(sigma->0) =       -6.07397297


--------------------------------------------------------------------------------------------------------




--------------------------------------- Iteration      1(   9)  ---------------------------------------


    POTLOK:  cpu time      0.0022: real time      0.0024
    SETDIJ:  cpu time      0.0018: real time      0.0019
     EDDAV:  cpu time      0.7697: real time      0.7733
       DOS:  cpu time      0.0005: real time      0.0005
    CHARGE:  cpu time      0.0175: real time      0.0175
    MIXING:  cpu time      0.0002: real time      0.0002
    --------------------------------------------
      LOOP:  cpu time      0.7919: real time      0.7958

 eigenvalue-minimisations  :  7416
 total energy-change (2. order) : 0.6896452E-04  (-0.5562496E-05)
 number of electron      16.0000003 magnetization 
 augmentation part        4.1125408 magnetization 

 Broyden mixing:
  rms(total) = 0.16125E-02    rms(broyden)= 0.16109E-02
  rms(prec ) = 0.32055E-02
  weight for this iteration     100.00

 eigenvalues of (default mixing * dielectric matrix)
  average eigenvalue GAMMA=   1.8308
  1.0136  1.1919  2.7463  2.3716

 Free energy of the ion-electron system (eV)
  ---------------------------------------------------
  alpha Z        PSCENC =       156.91311333
  Ewald energy   TEWEN  =     -2144.84590610
  -Hartree energ DENC   =      -378.50205603
  -exchange      EXHF   =         0.00000000
  -V(xc)+E(xc)   XCENC  =        62.96161908
  PAW double counting   =      2350.44806042    -2318.20115599
  entropy T*S    EENTRO =        -0.00245350
  eigenvalues    EBANDS =      -163.04136448
  atomic energy  EATOM  =      2428.19501064
  Solvation  Ediel_sol  =         0.00000000
  ---------------------------------------------------
  free energy    TOTEN  =        -6.07513262 eV

  energy without entropy =       -6.07267913  energy(sigma->0) =       -6.07390587


--------------------------------------------------------------------------------------------------------




--------------------------------------- Iteration      1(  10)  ---------------------------------------


    POTLOK:  cpu time      0.0021: real time      0.0023
    SETDIJ:  cpu time      0.0019: real time      0.0019
     EDDAV:  cpu time      0.7402: real time      0.7438
       DOS:  cpu time      0.0005: real time      0.0005
    CHARGE:  cpu time      0.0178: real time      0.0179
    MIXING:  cpu time      0.0005: real time      0.0005
    --------------------------------------------
      LOOP:  cpu time      0.7630: real time      0.7668

 eigenvalue-minimisations  :  7344
 total energy-change (2. order) :-0.5544855E-05  (-0.5049950E-06)
 number of electron      16.0000003 magnetization 
 augmentation part        4.1125717 magnetization 

 Broyden mixing:
  rms(total) = 0.55721E-03    rms(broyden)= 0.55698E-03
  rms(prec ) = 0.57234E-03
  weight for this iteration     100.00

 eigenvalues of (default mixing * dielectric matrix)
  average eigenvalue GAMMA=   1.7382
  2.6796  2.3411  0.9872  1.4825  1.2005

 Free energy of the ion-electron system (eV)
  ---------------------------------------------------
  alpha Z        PSCENC =       156.91311333
  Ewald energy   TEWEN  =     -2144.84590610
  -Hartree energ DENC   =      -378.53268439
  -exchange      EXHF   =         0.00000000
  -V(xc)+E(xc)   XCENC  =        62.96280174
  PAW double counting   =      2352.15355442    -2319.87925417
  entropy T*S    EENTRO =        -0.00245234
  eigenvalues    EBANDS =      -163.03932131
  atomic energy  EATOM  =      2428.19501064
  Solvation  Ediel_sol  =         0.00000000
  ---------------------------------------------------
  free energy    TOTEN  =        -6.07513817 eV

  energy without entropy =       -6.07268583  energy(sigma->0) =       -6.07391200


--------------------------------------------------------------------------------------------------------




--------------------------------------- Iteration      1(  11)  ---------------------------------------


    POTLOK:  cpu time      0.0022: real time      0.0024
    SETDIJ:  cpu time      0.0019: real time      0.0020
     EDDAV:  cpu time      0.3232: real time      0.3248
       DOS:  cpu time      0.0005: real time      0.0005
    --------------------------------------------
      LOOP:  cpu time      0.3278: real time      0.3296

 eigenvalue-minimisations  :  3768
 total energy-change (2. order) : 0.6338269E-07  (-0.3705889E-09)
 number of electron      16.0000003 magnetization 
 augmentation part        4.1125717 magnetization 

 Free energy of the ion-electron system (eV)
  ---------------------------------------------------
  alpha Z        PSCENC =       156.91311333
  Ewald energy   TEWEN  =     -2144.84590610
  -Hartree energ DENC   =      -378.53191457
  -exchange      EXHF   =         0.00000000
  -V(xc)+E(xc)   XCENC  =        62.96276660
  PAW double counting   =      2351.99111183    -2319.71725491
  entropy T*S    EENTRO =        -0.00245234
  eigenvalues    EBANDS =      -163.03961258
  atomic energy  EATOM  =      2428.19501064
  Solvation  Ediel_sol  =         0.00000000
  ---------------------------------------------------
  free energy    TOTEN  =        -6.07513810 eV

  energy without entropy =       -6.07268576  energy(sigma->0) =       -6.07391193


--------------------------------------------------------------------------------------------------------




 average (electrostatic) potential at core
  the test charge radii are     0.9952
  (the norm of the test charge is              1.0000)
       1 -88.9636
 
 
 
 E-fermi :  11.8133     XC(G=0): -13.9150     alpha+bet :-17.1560

 Fermi energy:        11.8133402319

 k-point     1 :       0.0500    0.0500    0.0500
  band No.  band energies     occupation 
      1     -40.7101      2.00000
      2     -40.7011      2.00000
      3     -40.7011      2.00000
      4       1.7964      2.00000
      5       8.0336      2.00000
      6       8.1176      2.00000
      7       8.1176      2.00000
      8      10.1750      2.00000
      9      10.1750      2.00000
     10      26.5929      0.00000
     11      30.7752      0.00000
     12      31.4777      0.00000
     13      31.4777      0.00000
     14      37.2442      0.00000
     15      42.0647      0.00000
     16      42.8051      0.00000
     17      42.8051      0.00000
     18      46.0344      0.00000
     19      46.0344      0.00000
     20      46.9565      0.00000
     21      52.5059      0.00000
     22      52.7983      0.00000
     23      52.7983      0.00000
     24      59.9755      0.00000

 k-point     2 :       0.1500    0.0500    0.0500
  band No.  band energies     occupation 
      1     -40.7629      2.00000
      2     -40.7164      2.00000
      3     -40.7054      2.00000
      4       2.3131      2.00000
      5       7.8060      2.00000
      6       8.2964      2.00000
      7       8.3355      2.00000
      8       9.9536      2.00000
      9      10.2318      2.00000
     10      27.3312      0.00000
     11      29.0671      0.00000
     12      31.5897      0.00000
     13      32.5889      0.00000
     14      37.7788      0.00000
     15      40.1896      0.00000
     16      40.6428      0.00000
     17      41.8683      0.00000
     18      44.3792      0.00000
     19      47.4541      0.00000
     20      49.7023      0.00000
     21      51.6347      0.00000
     22      52.5075      0.00000
     23      53.9701      0.00000
     24      60.8331      0.00000

 k-point     3 :       0.2500    0.0500    0.0500
  band No.  band energies     occupation 
      1     -40.8807      2.00000
      2     -40.7369      2.00000
      3     -40.7208      2.00000
      4       3.4194      2.00000
      5       7.5869      2.00000
      6       8.4837      2.00000
      7       8.5223      2.00000
      8       9.9391      2.00000
      9      10.4943      2.00000
     10      26.1605      0.00000
     11      28.2751      0.00000
     12      32.6556      0.00000
     13      34.5849      0.00000
     14      34.6544      0.00000
     15      37.9313      0.00000
     16      37.9444      0.00000
     17      44.5355      0.00000
     18      44.8168      0.00000
     19      48.0835      0.00000
     20      50.1510      0.00000
     21      52.5088      0.00000
     22      52.7946      0.00000
     23      54.6266      0.00000
     24      61.1394      0.00000

 k-point     4 :       0.3500    0.0500    0.0500
  band No.  band energies     occupation 
      1     -41.0146      2.00000
      2     -40.7574      2.00000
      3     -40.7411      2.00000
      4       4.4079      2.00000
      5       8.1510      2.00000
      6       8.3346      2.00000
      7       8.3658      2.00000
      8      10.5923      2.00000
      9      11.2315      2.00000
     10      22.6665      0.00000
     11      27.4980      0.00000
     12      32.0205      0.00000
     13      34.2409      0.00000
     14      35.4793      0.00000
     15      37.2805      0.00000
     16      37.8841      0.00000
     17      45.2573      0.00000
     18      47.4527      0.00000
     19      49.6008      0.00000
     20      50.8546      0.00000
     21      52.5147      0.00000
     22      53.5082      0.00000
     23      55.3295      0.00000
     24      60.1197      0.00000

 k-point     5 :       0.4500    0.0500    0.0500
  band No.  band energies     occupation 
      1     -41.1136      2.00000
      2     -40.7703      2.00000
      3     -40.7584      2.00000
      4       4.6636      2.00000
      5       8.0442      2.00000
      6       8.1422      2.00000
      7       9.9096      2.00000
      8      11.4283      2.00000
      9      12.1057      0.00000
     10      19.0591      0.00000
     11      26.4420      0.00000
     12      30.5778      0.00000
     13      31.6099      0.00000
     14      38.3606      0.00000
     15      39.3879      0.00000
     16      40.0076      0.00000
     17      45.9283      0.00000
     18      47.2843      0.00000
     19      48.6316      0.00000
     20      52.5191      0.00000
     21      53.1164      0.00000
     22      55.9014      0.00000
     23      56.1082      0.00000
     24      57.2241      0.00000

 k-point     6 :      -0.4500    0.0500    0.0500
  band No.  band energies     occupation 
      1     -41.1408      2.00000
      2     -40.7709      2.00000
      3     -40.7664      2.00000
      4       4.6696      2.00000
      5       7.9549      2.00000
      6       8.0903      2.00000
      7      10.6273      2.00000
      8      11.8392      0.46475
      9      12.5475      0.00000
     10      17.5613      0.00000
     11      26.1591      0.00000
     12      30.4760      0.00000
     13      30.5261      0.00000
     14      39.6142      0.00000
     15      39.8300      0.00000
     16      41.3217      0.00000
     17      46.1962      0.00000
     18      47.1309      0.00000
     19      47.2598      0.00000
     20      52.5221      0.00000
     21      54.2220      0.00000
     22      54.8393      0.00000
     23      56.7755      0.00000
     24      57.6521      0.00000

 k-point     7 :      -0.3500    0.0500    0.0500
  band No.  band energies     occupation 
      1     -41.0873      2.00000
      2     -40.7619      2.00000
      3     -40.7586      2.00000
      4       4.6323      2.00000
      5       8.0844      2.00000
      6       8.2367      2.00000
      7       9.2583      2.00000
      8      11.4891      2.00000
      9      11.5495      2.00000
     10      20.1824      0.00000
     11      26.7239      0.00000
     12      31.1882      0.00000
     13      32.0261      0.00000
     14      38.0981      0.00000
     15      38.2698      0.00000
     16      39.1874      0.00000
     17      45.1757      0.00000
     18      48.2920      0.00000
     19      48.9792      0.00000
     20      52.5192      0.00000
     21      52.9839      0.00000
     22      54.2329      0.00000
     23      56.0448      0.00000
     24      57.8985      0.00000

 k-point     8 :      -0.2500    0.0500    0.0500
  band No.  band energies     occupation 
      1     -40.9714      2.00000
      2     -40.7465      2.00000
      3     -40.7387      2.00000
      4       4.1554      2.00000
      5       7.8122      2.00000
      6       8.3676      2.00000
      7       8.4677      2.00000
      8      10.4427      2.00000
      9      10.8491      2.00000
     10      23.8955      0.00000
     11      27.9245      0.00000
     12      32.7363      0.00000
     13      34.1349      0.00000
     14      35.7520      0.00000
     15      36.5922      0.00000
     16      37.2638      0.00000
     17      44.7777      0.00000
     18      47.8802      0.00000
     19      48.4666      0.00000
     20      50.8368      0.00000
     21      52.2692      0.00000
     22      52.5160      0.00000
     23      55.6566      0.00000
     24      61.1126      0.00000

 k-point     9 :      -0.1500    0.0500    0.0500
  band No.  band energies     occupation 
      1     -40.8369      2.00000
      2     -40.7259      2.00000
      3     -40.7186      2.00000
      4       3.0145      2.00000
      5       7.6015      2.00000
      6       8.4771      2.00000
      7       8.4992      2.00000
      8       9.8825      2.00000
      9      10.3412      2.00000
     10      27.2109      0.00000
     11      28.1059      0.00000
     12      32.4517      0.00000
     13      33.4050      0.00000
     14      35.9631      0.00000
     15      38.0210      0.00000
     16      39.4702      0.00000
     17      43.0983      0.00000
     18      44.5993      0.00000
     19      48.3995      0.00000
     20      50.1093      0.00000
     21      51.6323      0.00000
     22      52.5119      0.00000
     23      54.7785      0.00000
     24      61.0696      0.00000

 k-point    10 :      -0.0500    0.0500    0.0500
  band No.  band energies     occupation 
      1     -40.7339      2.00000
      2     -40.7088      2.00000
      3     -40.7062      2.00000
      4       2.0596      2.00000
      5       7.8790      2.00000
      6       8.2395      2.00000
      7       8.2473      2.00000
      8       9.9913      2.00000
      9      10.2511      2.00000
     10      26.9891      0.00000
     11      30.0111      0.00000
     12      31.5092      0.00000
     13      31.7658      0.00000
     14      38.4273      0.00000
     15      40.5605      0.00000
     16      40.8460      0.00000
     17      42.8601      0.00000
     18      44.0524      0.00000
     19      48.0062      0.00000
     20      48.4776      0.00000
     21      51.5186      0.00000
     22      52.5093      0.00000
     23      53.8293      0.00000
     24      60.7039      0.00000

 k-point    11 :       0.1500    0.1500    0.0500
  band No.  band energies     occupation 
      1     -40.7744      2.00000
      2     -40.7239      2.00000
      3     -40.7209      2.00000
      4       2.5688      2.00000
      5       7.5770      2.00000
      6       8.4960      2.00000
      7       8.5028      2.00000
      8       9.6690      2.00000
      9      10.3982      2.00000
     10      27.7338      0.00000
     11      29.2992      0.00000
     12      31.4061      0.00000
     13      31.7837      0.00000
     14      38.2458      0.00000
     15      39.1109      0.00000
     16      40.9197      0.00000
     17      41.2452      0.00000
     18      43.4926      0.00000
     19      49.2588      0.00000
     20      50.1081      0.00000
     21      50.3506      0.00000
     22      52.5111      0.00000
     23      54.6219      0.00000
     24      61.8141      0.00000

 k-point    12 :       0.2500    0.1500    0.0500
  band No.  band energies     occupation 
      1     -40.8567      2.00000
      2     -40.7536      2.00000
      3     -40.7328      2.00000
      4       3.4891      2.00000
      5       7.2273      2.00000
      6       8.6087      2.00000
      7       8.8630      2.00000
      8       9.5621      2.00000
      9      10.6796      2.00000
     10      27.5108      0.00000
     11      28.7215      0.00000
     12      31.0038      0.00000
     13      32.2948      0.00000
     14      35.9156      0.00000
     15      38.2484      0.00000
     16      39.2431      0.00000
     17      42.8996      0.00000
     18      44.6562      0.00000
     19      48.2823      0.00000
     20      49.5589      0.00000
     21      52.5125      0.00000
     22      52.9704      0.00000
     23      55.9956      0.00000
     24      61.5726      0.00000

 k-point    13 :       0.3500    0.1500    0.0500
  band No.  band energies     occupation 
      1     -40.9739      2.00000
      2     -40.7805      2.00000
      3     -40.7522      2.00000
      4       4.6204      2.00000
      5       7.2660      2.00000
      6       8.1898      2.00000
      7       8.8729      2.00000
      8      10.4016      2.00000
      9      11.4031      2.00000
     10      24.1572      0.00000
     11      28.3676      0.00000
     12      30.3180      0.00000
     13      32.4682      0.00000
     14      36.4902      0.00000
     15      37.3799      0.00000
     16      39.3511      0.00000
     17      42.2379      0.00000
     18      47.9094      0.00000
     19      49.4054      0.00000
     20      49.9413      0.00000
     21      52.5177      0.00000
     22      53.2111      0.00000
     23      57.5942      0.00000
     24      59.4954      0.00000

 k-point    14 :       0.4500    0.1500    0.0500
[...]

 k-point    99 :      -0.3500   -0.4500    0.2500
  band No.  band energies     occupation 
      1     -41.0434      2.00000
      2     -40.9587      2.00000
      3     -40.8452      2.00000
      4       5.8839      2.00000
      5       6.5202      2.00000
      6       8.5277      2.00000
      7      10.2789      2.00000
      8      11.8798      0.06020
      9      17.7719      0.00000
     10      18.5033      0.00000
     11      21.9279      0.00000
     12      25.2690      0.00000
     13      32.9784      0.00000
     14      37.7140      0.00000
     15      38.6091      0.00000
     16      42.1119      0.00000
     17      45.8590      0.00000
     18      47.2175      0.00000
     19      50.2067      0.00000
     20      52.0146      0.00000
     21      52.5245      0.00000
     22      54.0435      0.00000
     23      57.1797      0.00000
     24      58.1040      0.00000

 k-point   100 :      -0.3500   -0.3500    0.2500
  band No.  band energies     occupation 
      1     -41.0530      2.00000
      2     -40.9564      2.00000
      3     -40.8332      2.00000
      4       5.6549      2.00000
      5       6.4448      2.00000
      6       8.9576      2.00000
      7      10.4499      2.00000
      8      11.6606      1.99998
      9      17.4997      0.00000
     10      18.1779      0.00000
     11      22.1102      0.00000
     12      26.4042      0.00000
     13      31.5716      0.00000
     14      38.2006      0.00000
     15      39.1570      0.00000
     16      40.5065      0.00000
     17      47.9880      0.00000
     18      49.0107      0.00000
     19      49.1699      0.00000
     20      51.7602      0.00000
     21      52.5201      0.00000
     22      53.2071      0.00000
     23      56.0734      0.00000
     24      57.7588      0.00000

 k-point   101 :       0.3500    0.3500    0.3500
  band No.  band energies     occupation 
      1     -41.0558      2.00000
      2     -40.7505      2.00000
      3     -40.7505      2.00000
      4       4.4731      2.00000
      5       8.2333      2.00000
      6       8.2333      2.00000
      7       8.8684      2.00000
      8      11.1189      2.00000
      9      11.1189      2.00000
     10      21.3822      0.00000
     11      26.9692      0.00000
     12      32.5953      0.00000
     13      32.5953      0.00000
     14      37.1993      0.00000
     15      37.6311      0.00000
     16      37.6311      0.00000
     17      46.9839      0.00000
     18      46.9839      0.00000
     19      48.7800      0.00000
     20      52.5148      0.00000
     21      52.8699      0.00000
     22      54.2900      0.00000
     23      54.2900      0.00000
     24      60.1842      0.00000

 k-point   102 :       0.4500    0.3500    0.3500
  band No.  band energies     occupation 
      1     -41.0798      2.00000
      2     -40.7931      2.00000
      3     -40.7551      2.00000
      4       4.8852      2.00000
      5       7.9672      2.00000
      6       8.3732      2.00000
      7       8.8567      2.00000
      8      10.9590      2.00000
      9      12.5040      0.00000
     10      20.2814      0.00000
     11      27.0140      0.00000
     12      29.6652      0.00000
     13      32.5659      0.00000
     14      36.5883      0.00000
     15      39.3151      0.00000
     16      40.5138      0.00000
     17      44.5970      0.00000
     18      47.2709      0.00000
     19      50.1462      0.00000
     20      51.0456      0.00000
     21      52.5168      0.00000
     22      55.4430      0.00000
     23      56.0908      0.00000
     24      57.5072      0.00000

 k-point   103 :      -0.4500    0.3500    0.3500
  band No.  band energies     occupation 
      1     -41.0690      2.00000
      2     -40.8774      2.00000
      3     -40.7762      2.00000
      4       5.7484      2.00000
      5       7.4102      2.00000
      6       8.2923      2.00000
      7       8.9640      2.00000
      8      10.9222      2.00000
      9      14.3423      0.00000
     10      19.6727      0.00000
     11      25.5531      0.00000
     12      28.8383      0.00000
     13      31.1927      0.00000
     14      36.5565      0.00000
     15      39.3224      0.00000
     16      42.9746      0.00000
     17      45.9531      0.00000
     18      47.4152      0.00000
     19      48.8118      0.00000
     20      50.0720      0.00000
     21      52.5204      0.00000
     22      53.6318      0.00000
     23      57.6331      0.00000
     24      58.3610      0.00000

 k-point   104 :      -0.3500    0.3500    0.3500
  band No.  band energies     occupation 
      1     -41.0256      2.00000
      2     -40.9723      2.00000
      3     -40.8056      2.00000
      4       6.0964      2.00000
      5       7.0868      2.00000
      6       8.0689      2.00000
      7       9.7892      2.00000
      8      11.1259      2.00000
      9      15.8532      0.00000
     10      20.0469      0.00000
     11      22.2263      0.00000
     12      28.8128      0.00000
     13      30.2942      0.00000
     14      37.8901      0.00000
     15      38.9538      0.00000
     16      41.2179      0.00000
     17      48.1170      0.00000
     18      49.0560      0.00000
     19      49.1405      0.00000
     20      51.8398      0.00000
     21      52.1605      0.00000
     22      52.5312      0.00000
     23      54.1818      0.00000
     24      59.5261      0.00000

 k-point   105 :       0.4500    0.4500    0.3500
  band No.  band energies     occupation 
      1     -41.1062      2.00000
      2     -40.7821      2.00000
      3     -40.7739      2.00000
      4       4.8884      2.00000
      5       7.8392      2.00000
      6       8.3754      2.00000
      7       9.1696      2.00000
      8      11.8188      0.87627
      9      12.5670      0.00000
     10      19.0503      0.00000
     11      26.7922      0.00000
     12      30.1114      0.00000
     13      30.8072      0.00000
     14      38.5603      0.00000
     15      39.7350      0.00000
     16      40.5519      0.00000
     17      43.6189      0.00000
     18      48.8142      0.00000
     19      49.1857      0.00000
     20      51.6742      0.00000
     21      52.5172      0.00000
     22      55.4143      0.00000
     23      56.2764      0.00000
     24      57.1806      0.00000

 k-point   106 :      -0.4500    0.4500    0.3500
  band No.  band energies     occupation 
      1     -41.0981      2.00000
      2     -40.8434      2.00000
      3     -40.7863      2.00000
      4       5.4583      2.00000
      5       7.3969      2.00000
      6       8.6282      2.00000
      7       8.8749      2.00000
      8      11.5867      2.00000
      9      14.5491      0.00000
     10      18.1739      0.00000
     11      26.9886      0.00000
     12      27.7930      0.00000
     13      30.6694      0.00000
     14      37.9348      0.00000
     15      40.0600      0.00000
     16      42.9129      0.00000
     17      43.7803      0.00000
     18      47.6633      0.00000
     19      49.5566      0.00000
     20      50.4022      0.00000
     21      52.5180      0.00000
     22      53.7777      0.00000
     23      57.4168      0.00000
     24      58.8625      0.00000

 k-point   107 :      -0.3500    0.4500    0.3500
  band No.  band energies     occupation 
      1     -41.0594      2.00000
      2     -40.9255      2.00000
      3     -40.8142      2.00000
      4       6.2004      2.00000
      5       6.8949      2.00000
      6       8.0463      2.00000
      7       9.5688      2.00000
      8      11.5170      2.00000
      9      16.5123      0.00000
     10      18.0601      0.00000
     11      24.2859      0.00000
     12      26.9281      0.00000
     13      31.5173      0.00000
     14      37.2861      0.00000
     15      40.6138      0.00000
     16      42.0961      0.00000
     17      44.7470      0.00000
     18      46.6338      0.00000
     19      51.4407      0.00000
     20      52.0036      0.00000
     21      52.5013      0.00000
     22      52.5202      0.00000
     23      55.8525      0.00000
     24      58.3631      0.00000

 k-point   108 :      -0.4500   -0.4500    0.3500
  band No.  band energies     occupation 
      1     -41.0950      2.00000
      2     -40.8667      2.00000
      3     -40.7954      2.00000
      4       5.6001      2.00000
      5       7.2512      2.00000
      6       8.5967      2.00000
      7       9.0061      2.00000
      8      11.7363      1.97059
      9      15.6766      0.00000
     10      17.2553      0.00000
     11      26.1205      0.00000
     12      29.0024      0.00000
     13      29.1885      0.00000
     14      39.0497      0.00000
     15      39.3335      0.00000
     16      42.1585      0.00000
     17      44.6571      0.00000
     18      48.0801      0.00000
     19      49.7205      0.00000
     20      50.5860      0.00000
     21      52.5172      0.00000
     22      53.2700      0.00000
     23      56.7518      0.00000
     24      59.4151      0.00000

 k-point   109 :       0.4500    0.4500    0.4500
  band No.  band energies     occupation 
      1     -41.1358      2.00000
      2     -40.7624      2.00000
      3     -40.7624      2.00000
      4       4.5886      2.00000
      5       8.0463      2.00000
      6       8.0463      2.00000
      7      10.8973      2.00000
      8      11.7404      1.96087
      9      11.7404      1.96087
     10      18.1325      0.00000
     11      26.1160      0.00000
     12      30.8938      0.00000
     13      30.8938      0.00000
     14      39.5144      0.00000
     15      39.5144      0.00000
     16      40.4431      0.00000
     17      46.8581      0.00000
     18      46.8581      0.00000
     19      47.4355      0.00000
     20      52.5155      0.00000
     21      55.2642      0.00000
     22      55.2642      0.00000
     23      56.6324      0.00000
     24      57.2463      0.00000

 k-point   110 :      -0.4500    0.4500    0.4500
  band No.  band energies     occupation 
      1     -41.1307      2.00000
      2     -40.7953      2.00000
      3     -40.7709      2.00000
      4       4.9024      2.00000
      5       7.7840      2.00000
      6       8.2704      2.00000
      7       9.8792      2.00000
      8      11.7054      1.99774
      9      13.5912      0.00000
     10      17.5078      0.00000
     11      26.5175      0.00000
     12      29.5070      0.00000
     13      30.5210      0.00000
     14      39.2390      0.00000
     15      39.6251      0.00000
     16      42.0434      0.00000
     17      46.3063      0.00000
     18      47.1153      0.00000
     19      47.2403      0.00000
     20      52.5169      0.00000
     21      52.8569      0.00000
     22      53.4819      0.00000
     23      57.4974      0.00000
     24      58.0153      0.00000


--------------------------------------------------------------------------------------------------------


 soft charge-density along one line, spin component           1
         0         1         2         3         4         5         6         7         8         9
 total charge-density along one line
 
 pseudopotential strength for first ion, spin component:           1
-31.476  -0.000  -0.000  10.529   0.000   0.000  -0.000   0.000
 -0.000 -31.476  -0.000   0.000  10.529   0.000  -0.000  -0.000
 -0.000  -0.000 -31.476   0.000   0.000  10.529  -0.000  -0.000
 10.529   0.000   0.000  16.331  -0.000  -0.000   0.000  -0.000
  0.000  10.529   0.000  -0.000  16.331  -0.000   0.000   0.000
  0.000   0.000  10.529  -0.000  -0.000  16.331   0.000   0.000
 -0.000  -0.000  -0.000   0.000   0.000   0.000  -3.582   0.000
  0.000  -0.000  -0.000  -0.000   0.000   0.000   0.000  -3.582
  0.000   0.000   0.000  -0.000  -0.000  -0.000   0.000  -0.000
 -0.000  -0.000   0.000   0.000   0.000  -0.000   0.000   0.000
  0.000   0.000  -0.000  -0.000  -0.000   0.000   0.000   0.000
 -0.000   0.000  -0.000   0.000   0.000   0.000  -3.795   0.000
  0.000  -0.000  -0.000  -0.000   0.000   0.000   0.000  -3.795
  0.000   0.000   0.000  -0.000  -0.000  -0.000   0.000  -0.000
 -0.000   0.000   0.000   0.000   0.000  -0.000   0.000   0.000
  0.000   0.000   0.000  -0.000  -0.000   0.000   0.000   0.000
  0.000  -0.000   0.000   0.000  -0.000   0.000   0.000   0.000
 -0.000   0.000  -0.000  -0.000   0.000  -0.000  -0.000  -0.000
 total augmentation occupancy for first ion, spin component:           1
  2.002  -0.000   0.000  -0.021   0.000  -0.000   0.000   0.000   0.000   0.000   0.000   0.000   0.000   0.000   0.000   0.000
 -0.000   2.002  -0.000  -0.000  -0.021   0.000   0.000   0.000   0.000   0.000   0.000   0.000   0.000   0.000   0.000   0.000
  0.000  -0.000   2.002   0.000  -0.000  -0.021   0.000   0.000   0.000   0.000   0.000   0.000   0.000   0.000   0.000   0.000
 -0.021  -0.000   0.000   0.050   0.000  -0.000   0.000   0.000   0.000   0.000   0.000   0.000   0.000   0.000   0.000   0.000
  0.000  -0.021   0.000   0.000   0.050   0.000   0.000   0.000   0.000   0.000   0.000   0.000   0.000   0.000   0.000   0.000
 -0.000   0.000  -0.021  -0.000  -0.000   0.050   0.000   0.000   0.000   0.000   0.000   0.000   0.000   0.000   0.000   0.000
  0.000   0.000   0.000   0.000   0.000   0.000   5.395  -0.000  -0.000  -0.000  -0.000  -3.059   0.000   0.000   0.000   0.000
  0.000   0.000   0.000   0.000   0.000   0.000  -0.000   5.395  -0.000  -0.000   0.000   0.000  -3.059   0.000   0.000   0.000
  0.000   0.000   0.000   0.000   0.000   0.000  -0.000  -0.000   4.448  -0.000  -0.000   0.000   0.000  -2.439   0.000   0.000
  0.000   0.000   0.000   0.000   0.000   0.000  -0.000  -0.000  -0.000   5.395   0.000   0.000   0.000   0.000  -3.059  -0.000
  0.000   0.000   0.000   0.000   0.000   0.000  -0.000   0.000   0.000   0.000   4.448   0.000   0.000   0.000  -0.000  -2.439
  0.000   0.000   0.000   0.000   0.000   0.000  -3.059   0.000   0.000   0.000   0.000   2.462  -0.000  -0.000  -0.000  -0.000
  0.000   0.000   0.000   0.000   0.000   0.000   0.000  -3.059   0.000   0.000   0.000  -0.000   2.462  -0.000  -0.000   0.000
  0.000   0.000   0.000   0.000   0.000   0.000   0.000   0.000  -2.439   0.000   0.000   0.000  -0.000   2.283   0.000   0.000
  0.000   0.000   0.000   0.000   0.000   0.000   0.000   0.000   0.000  -3.059  -0.000  -0.000  -0.000  -0.000   2.462   0.000
  0.000   0.000   0.000   0.000   0.000   0.000   0.000   0.000   0.000  -0.000  -2.439   0.000  -0.000   0.000  -0.000   2.283
  0.000   0.000   0.000   0.000   0.000   0.000   0.000  -0.000  -0.000   0.000   0.000   0.000   0.000  -0.000   0.000  -0.000
  0.000   0.000   0.000   0.000   0.000   0.000   0.000  -0.000  -0.000  -0.000   0.000  -0.000   0.000  -0.000  -0.000  -0.000


------------------------ aborting loop because EDIFF is reached ----------------------------------------


    CHARGE:  cpu time      0.0175: real time      0.0176
    FORLOC:  cpu time      0.0001: real time      0.0001
    FORNL :  cpu time      0.0066: real time      0.0066
    STRESS:  cpu time      0.1172: real time      0.1177
    FORCOR:  cpu time      0.0020: real time      0.0020
    FORHAR:  cpu time      0.0004: real time      0.0004
    MIXING:  cpu time      0.0002: real time      0.0002
    OFIELD:  cpu time      0.0000: real time      0.0000

  FORCE on cell =-STRESS in cart. coord.  units (eV):
  Direction    XX          YY          ZZ          XY          YZ          ZX
  --------------------------------------------------------------------------------------
  Alpha Z   156.91311   156.91311   156.91311
  Ewald    -714.94866  -714.94866  -714.94866    -0.00000     0.00000     0.00000
  Hartree   126.17643   126.17643   126.17643     0.00000     0.00000     0.00000
  E(xc)     -85.53279   -85.53279   -85.53279     0.00000     0.00000     0.00000
  Local     125.02141   125.02141   125.02141     0.00000     0.00000     0.00000
  n-local   -29.94151   -27.25226   -32.68332     3.29948    -3.08923     0.17110
  augment    73.32761    73.32761    73.32761     0.00000     0.00000     0.00000
  Kinetic   348.50424   353.76566   345.77547     4.49238    -3.82478    -0.55441
  Fock        0.00000     0.00000     0.00000     0.00000     0.00000     0.00000
  -------------------------------------------------------------------------------------
  Total       0.34654     0.34654     0.34654    -0.00000    -0.00000    -0.00000
  in kB      36.31114    36.31114    36.31114    -0.00000    -0.00000    -0.00000
  external pressure =       36.31 kB  Pullay stress =        0.00 kB


 VOLUME and BASIS-vectors are now :
 -----------------------------------------------------------------------------
  energy-cutoff  :      425.00
  volume of cell :       15.29
      direct lattice vectors                 reciprocal lattice vectors
     0.000000000  1.970000000  1.970000000    -0.253807107  0.253807107  0.253807107
     1.970000000  0.000000000  1.970000000     0.253807107 -0.253807107  0.253807107
     1.970000000  1.970000000  0.000000000     0.253807107  0.253807107 -0.253807107

  length of vectors
     2.786000718  2.786000718  2.786000718     0.439606804  0.439606804  0.439606804


 FORCES acting on ions
    electron-ion (+dipol)            ewald-force                    non-local-force                 convergence-correction
 -----------------------------------------------------------------------------------------------
   -.680E-14 -.595E-14 0.498E-15   -.456E-14 -.897E-14 -.116E-13   0.129E-25 0.129E-25 0.000E+00   0.171E-14 -.814E-13 -.381E-13
 -----------------------------------------------------------------------------------------------
   -.680E-14 -.595E-14 0.498E-15   -.456E-14 -.897E-14 -.116E-13   0.129E-25 0.129E-25 0.000E+00   0.171E-14 -.814E-13 -.381E-13
 
 
 POSITION                                       TOTAL-FORCE (eV/Angst)
 -----------------------------------------------------------------------------------
      0.00000      0.00000      0.00000         0.000000      0.000000      0.000000
 -----------------------------------------------------------------------------------
    total drift:                               -0.000000     -0.000000     -0.000000


--------------------------------------------------------------------------------------------------------



  FREE ENERGIE OF THE ION-ELECTRON SYSTEM (eV)
  ---------------------------------------------------
  free  energy   TOTEN  =        -6.07513810 eV

  energy  without entropy=       -6.07268576  energy(sigma->0) =       -6.07391193
 


--------------------------------------------------------------------------------------------------------


    POTLOK:  cpu time      0.0048: real time      0.0049


--------------------------------------------------------------------------------------------------------


     LOOP+:  cpu time      7.4322: real time      7.4776
    4ORBIT:  cpu time      0.0000: real time      0.0000

 total amount of memory used by VASP MPI-rank0    36607. kBytes
=======================================================================

   base      :      30000. kBytes
   nonl-proj :       5327. kBytes
   fftplans  :        147. kBytes
   grid      :        485. kBytes
   one-center:         15. kBytes
   wavefun   :        633. kBytes
 
  
  
 General timing and accounting informations for this job:
 ========================================================
  
                  Total CPU time used (sec):        8.464
                            User time (sec):        7.979
                          System time (sec):        0.485
                         Elapsed time (sec):        9.851
  
                   Maximum memory used (kb):      226796.
                   Average memory used (kb):          N/A
  
                          Minor page faults:        24685
                          Major page faults:           79
                 Voluntary context switches:         2341
