<?xml version="1.0" encoding="ISO-8859-1"?>
<modeling>
 <generator>
  <i name="program" type="string">vasp </i>
  <i name="version" type="string">6.3.2  </i>
  <i name="subversion" type="string">27Jun22 (build Aug 12 2022 00:53:59) complex                          parallel </i>
  <i name="platform" type="string">tv2STD </i>
  <i name="date" type="string">2024 11 30 </i>
  <i name="time" type="string">15:56:05 </i>
 </generator>
 <incar>
  <i type="string" name="SYSTEM">Pt-fcc</i>
  <i type="int" name="ISTART">     0</i>
  <i type="string" name="PREC">accurate      normal | accurate</i>
  <i type="string" name="ALGO">Normal     Normal, Fast, Very_Fast</i>
  <i type="logical" name="ADDGRID"> F  </i>
  <i type="int" name="ICHARG">     2</i>
  <i type="int" name="INIWAV">     1</i>
  <i type="int" name="NELM">   100</i>
  <i type="int" name="IBRION">    -1</i>
  <i name="EDIFF">      0.00000100</i>
  <i name="EDIFFG">     -0.02000000</i>
  <i type="int" name="NSW">     0</i>
  <i type="int" name="ISIF">     2</i>
  <i type="int" name="ISYM">     1</i>
  <i name="ENCUT">    425.00000000</i>
  <i type="logical" name="LREAL"> F  </i>
  <i type="int" name="ISMEAR">     0</i>
  <i name="SIGMA">      0.05000000</i>
  <i type="int" name="NWRITE">     2</i>
  <i type="logical" name="LWAVE"> F  </i>
  <i type="logical" name="LCHARG"> F  </i>
 </incar>
 <primitive_cell>
  <structure name="primitive_cell" >
   <crystal>
    <varray name="basis" >
     <v>       0.00000000       1.97000000       1.97000000 </v>
     <v>       1.97000000       0.00000000       1.97000000 </v>
     <v>       1.97000000       1.97000000       0.00000000 </v>
    </varray>
    <i name="volume">     15.29074600 </i>
    <varray name="rec_basis" >
     <v>      -0.25380711       0.25380711       0.25380711 </v>
     <v>       0.25380711      -0.25380711       0.25380711 </v>
     <v>       0.25380711       0.25380711      -0.25380711 </v>
    </varray>
   </crystal>
   <varray name="positions" >
    <v>       0.00000000       0.00000000       0.00000000 </v>
   </varray>
  </structure>
  <varray name="primitive_index" >
   <v type="int" >        1 </v>
  </varray>
 </primitive_cell>
 <kpoints>
  <generation param="Monkhorst-Pack">
   <v type="int" name="divisions">      10       10       10 </v>
   <v name="usershift">      0.00000000       0.00000000       0.00000000 </v>
   <v name="genvec1">      0.10000000       0.00000000       0.00000000 </v>
   <v name="genvec2">      0.00000000       0.10000000       0.00000000 </v>
   <v name="genvec3">      0.00000000       0.00000000       0.10000000 </v>
   <v name="shift">      0.50000000       0.50000000       0.50000000 </v>
  </generation>
  <varray name="kpointlist" >
   <v>       0.05000000       0.05000000       0.05000000 </v>
   <v>       0.15000000       0.05000000       0.05000000 </v>
   <v>       0.25000000       0.05000000       0.05000000 </v>
   <v>       0.35000000       0.05000000       0.05000000 </v>
   <v>       0.45000000       0.05000000       0.05000000 </v>
   <v>      -0.45000000       0.05000000       0.05000000 </v>
   <v>      -0.35000000       0.05000000       0.05000000 </v>
   <v>      -0.25000000       0.05000000       0.05000000 </v>
   <v>      -0.15000000       0.05000000       0.05000000 </v>
   <v>      -0.05000000       0.05000000       0.05000000 </v>
   <v>       0.15000000       0.15000000       0.05000000 </v>
   <v>       0.25000000       0.15000000       0.05000000 </v>
   <v>       0.35000000       0.15000000       0.05000000 </v>
   <v>       0.45000000       0.15000000       0.05000000 </v>
   <v>      -0.45000000       0.15000000       0.05000000 </v>
   <v>      -0.35000000       0.15000000       0.05000000 </v>
   <v>      -0.25000000       0.15000000       0.05000000 </v>
   <v>      -0.15000000       0.15000000       0.05000000 </v>
   <v>      -0.05000000       0.15000000       0.05000000 </v>
   <v>       0.25000000       0.25000000       0.05000000 </v>
   <v>       0.35000000       0.25000000       0.05000000 </v>
   <v>       0.45000000       0.25000000       0.05000000 </v>
   <v>      -0.45000000       0.25000000       0.05000000 </v>
   <v>      -0.35000000       0.25000000       0.05000000 </v>
   <v>      -0.25000000       0.25000000       0.05000000 </v>
   <v>      -0.15000000       0.25000000       0.05000000 </v>
   <v>      -0.05000000       0.25000000       0.05000000 </v>
   <v>       0.35000000       0.35000000       0.05000000 </v>
   <v>       0.45000000       0.35000000       0.05000000 </v>
   <v>      -0.45000000       0.35000000       0.05000000 </v>
   <v>      -0.35000000       0.35000000       0.05000000 </v>
   <v>      -0.25000000       0.35000000       0.05000000 </v>
   <v>      -0.15000000       0.35000000       0.05000000 </v>
   <v>      -0.05000000       0.35000000       0.05000000 </v>
   <v>       0.45000000       0.45000000       0.05000000 </v>
   <v>      -0.45000000       0.45000000       0.05000000 </v>
   <v>      -0.35000000       0.45000000       0.05000000 </v>
   <v>      -0.25000000       0.45000000       0.05000000 </v>
   <v>      -0.15000000       0.45000000       0.05000000 </v>
   <v>      -0.05000000       0.45000000       0.05000000 </v>
   <v>      -0.45000000      -0.45000000       0.05000000 </v>
   <v>      -0.35000000      -0.45000000       0.05000000 </v>
   <v>      -0.25000000      -0.45000000       0.05000000 </v>
   <v>      -0.15000000      -0.45000000       0.05000000 </v>
   <v>      -0.35000000      -0.35000000       0.05000000 </v>
   <v>      -0.25000000      -0.35000000       0.05000000 </v>
   <v>      -0.15000000      -0.35000000       0.05000000 </v>
   <v>      -0.25000000      -0.25000000       0.05000000 </v>
   <v>      -0.15000000      -0.25000000       0.05000000 </v>
   <v>      -0.15000000      -0.15000000       0.05000000 </v>
   <v>       0.15000000       0.15000000       0.15000000 </v>
   <v>       0.25000000       0.15000000       0.15000000 </v>
   <v>       0.35000000       0.15000000       0.15000000 </v>
   <v>       0.45000000       0.15000000       0.15000000 </v>
   <v>      -0.45000000       0.15000000       0.15000000 </v>
   <v>      -0.35000000       0.15000000       0.15000000 </v>
   <v>      -0.25000000       0.15000000       0.15000000 </v>
   <v>      -0.15000000       0.15000000       0.15000000 </v>
   <v>       0.25000000       0.25000000       0.15000000 </v>
   <v>       0.35000000       0.25000000       0.15000000 </v>
   <v>       0.45000000       0.25000000       0.15000000 </v>
   <v>      -0.45000000       0.25000000       0.15000000 </v>
   <v>      -0.35000000       0.25000000       0.15000000 </v>
   <v>      -0.25000000       0.25000000       0.15000000 </v>
   <v>      -0.15000000       0.25000000       0.15000000 </v>
   <v>       0.35000000       0.35000000       0.15000000 </v>
   <v>       0.45000000       0.35000000       0.15000000 </v>
   <v>      -0.45000000       0.35000000       0.15000000 </v>
   <v>      -0.35000000       0.35000000       0.15000000 </v>
   <v>      -0.25000000       0.35000000       0.15000000 </v>
   <v>      -0.15000000       0.35000000       0.15000000 </v>
   <v>       0.45000000       0.45000000       0.15000000 </v>
   <v>      -0.45000000       0.45000000       0.15000000 </v>
   <v>      -0.35000000       0.45000000       0.15000000 </v>
   <v>      -0.25000000       0.45000000       0.15000000 </v>
   <v>      -0.15000000       0.45000000       0.15000000 </v>
   <v>      -0.45000000      -0.45000000       0.15000000 </v>
   <v>      -0.35000000      -0.45000000       0.15000000 </v>
   <v>      -0.25000000      -0.45000000       0.15000000 </v>
   <v>      -0.35000000      -0.35000000       0.15000000 </v>
   <v>      -0.25000000      -0.35000000       0.15000000 </v>
   <v>      -0.25000000      -0.25000000       0.15000000 </v>
   <v>       0.25000000       0.25000000       0.25000000 </v>
   <v>       0.35000000       0.25000000       0.25000000 </v>
   <v>       0.45000000       0.25000000       0.25000000 </v>
   <v>      -0.45000000       0.25000000       0.25000000 </v>
   <v>      -0.35000000       0.25000000       0.25000000 </v>
   <v>      -0.25000000       0.25000000       0.25000000 </v>
   <v>       0.35000000       0.35000000       0.25000000 </v>
   <v>       0.45000000       0.35000000       0.25000000 </v>
   <v>      -0.45000000       0.35000000       0.25000000 </v>
   <v>      -0.35000000       0.35000000       0.25000000 </v>
   <v>      -0.25000000       0.35000000       0.25000000 </v>
   <v>       0.45000000       0.45000000       0.25000000 </v>
   <v>      -0.45000000       0.45000000       0.25000000 </v>
   <v>      -0.35000000       0.45000000       0.25000000 </v>
   <v>      -0.25000000       0.45000000       0.25000000 </v>
   <v>      -0.45000000      -0.45000000       0.25000000 </v>
   <v>      -0.35000000      -0.45000000       0.25000000 </v>
   <v>      -0.35000000      -0.35000000       0.25000000 </v>
   <v>       0.35000000       0.35000000       0.35000000 </v>
   <v>       0.45000000       0.35000000       0.35000000 </v>
   <v>      -0.45000000       0.35000000       0.35000000 </v>
   <v>      -0.35000000       0.35000000       0.35000000 </v>
   <v>       0.45000000       0.45000000       0.35000000 </v>
   <v>      -0.45000000       0.45000000       0.35000000 </v>
   <v>      -0.35000000       0.45000000       0.35000000 </v>
   <v>      -0.45000000      -0.45000000       0.35000000 </v>
   <v>       0.45000000       0.45000000       0.45000000 </v>
   <v>      -0.45000000       0.45000000       0.45000000 </v>
  </varray>
  <varray name="weights" >
   <v>       0.00200000 </v>
   <v>       0.00600000 </v>
   <v>       0.00600000 </v>
   <v>       0.00600000 </v>
   <v>       0.00600000 </v>
   <v>       0.00600000 </v>
   <v>       0.00600000 </v>
   <v>       0.00600000 </v>
   <v>       0.00600000 </v>
   <v>       0.00600000 </v>
   <v>       0.00600000 </v>
   <v>       0.01200000 </v>
   <v>       0.01200000 </v>
   <v>       0.01200000 </v>
   <v>       0.01200000 </v>
   <v>       0.01200000 </v>
   <v>       0.01200000 </v>
   <v>       0.01200000 </v>
   <v>       0.01200000 </v>
   <v>       0.00600000 </v>
   <v>       0.01200000 </v>
   <v>       0.01200000 </v>
   <v>       0.01200000 </v>
   <v>       0.01200000 </v>
   <v>       0.01200000 </v>
   <v>       0.01200000 </v>
   <v>       0.01200000 </v>
   <v>       0.00600000 </v>
   <v>       0.01200000 </v>
   <v>       0.01200000 </v>
   <v>       0.01200000 </v>
   <v>       0.01200000 </v>
   <v>       0.01200000 </v>
   <v>       0.01200000 </v>
   <v>       0.00600000 </v>
   <v>       0.01200000 </v>
   <v>       0.01200000 </v>
   <v>       0.01200000 </v>
   <v>       0.01200000 </v>
   <v>       0.01200000 </v>
   <v>       0.00600000 </v>
   <v>       0.01200000 </v>
   <v>       0.01200000 </v>
   <v>       0.01200000 </v>
   <v>       0.00600000 </v>
   <v>       0.01200000 </v>
   <v>       0.01200000 </v>
   <v>       0.00600000 </v>
   <v>       0.01200000 </v>
   <v>       0.00600000 </v>
   <v>       0.00200000 </v>
   <v>       0.00600000 </v>
   <v>       0.00600000 </v>
   <v>       0.00600000 </v>
   <v>       0.00600000 </v>
   <v>       0.00600000 </v>
   <v>       0.00600000 </v>
   <v>       0.00600000 </v>
   <v>       0.00600000 </v>
   <v>       0.01200000 </v>
   <v>       0.01200000 </v>
   <v>       0.01200000 </v>
   <v>       0.01200000 </v>
   <v>       0.01200000 </v>
   <v>       0.01200000 </v>
   <v>       0.00600000 </v>
   <v>       0.01200000 </v>
   <v>       0.01200000 </v>
   <v>       0.01200000 </v>
   <v>       0.01200000 </v>
   <v>       0.01200000 </v>
   <v>       0.00600000 </v>
   <v>       0.01200000 </v>
   <v>       0.01200000 </v>
   <v>       0.01200000 </v>
   <v>       0.01200000 </v>
   <v>       0.00600000 </v>
   <v>       0.01200000 </v>
   <v>       0.01200000 </v>
   <v>       0.00600000 </v>
   <v>       0.01200000 </v>
   <v>       0.00600000 </v>
   <v>       0.00200000 </v>
   <v>       0.00600000 </v>
   <v>       0.00600000 </v>
   <v>       0.00600000 </v>
   <v>       0.00600000 </v>
   <v>       0.00600000 </v>
   <v>       0.00600000 </v>
   <v>       0.01200000 </v>
   <v>       0.01200000 </v>
   <v>       0.01200000 </v>
   <v>       0.01200000 </v>
   <v>       0.00600000 </v>
   <v>       0.01200000 </v>
   <v>       0.01200000 </v>
   <v>       0.01200000 </v>
   <v>       0.00600000 </v>
   <v>       0.01200000 </v>
   <v>       0.00600000 </v>
   <v>       0.00200000 </v>
   <v>       0.00600000 </v>
   <v>       0.00600000 </v>
   <v>       0.00600000 </v>
   <v>       0.00600000 </v>
   <v>       0.01200000 </v>
   <v>       0.01200000 </v>
   <v>       0.00600000 </v>
   <v>       0.00200000 </v>
   <v>       0.00600000 </v>
  </varray>
 </kpoints>
 <parameters>
  <separator name="general" >
   <i type="string" name="SYSTEM">Pt-fcc</i>
   <i type="logical" name="LCOMPAT"> F  </i>
  </separator>
  <separator name="electronic" >
   <i type="string" name="PREC">accura</i>
   <i name="ENMAX">    425.00000000</i>
   <i name="ENAUG">    527.01400000</i>
   <i name="EDIFF">      0.00000100</i>
   <i type="int" name="IALGO">    38</i>
   <i type="int" name="IWAVPR">    10</i>
   <i type="int" name="NBANDS">    24</i>
   <i type="int" name="NBANDSLOW">    -1</i>
   <i type="int" name="NBANDSHIGH">    -1</i>
   <i name="NELECT">     16.00000000</i>
   <i type="int" name="TURBO">     0</i>
   <i type="int" name="IRESTART">     0</i>
   <i type="int" name="NREBOOT">     0</i>
   <i type="int" name="NMIN">     0</i>
   <i name="EREF">      0.00000000</i>
   <separator name="electronic smearing" >
    <i type="int" name="ISMEAR">     0</i>
    <i name="SIGMA">      0.05000000</i>
    <i name="KSPACING">      0.50000000</i>
    <i type="logical" name="KGAMMA"> T  </i>
    <i type="logical" name="KBLOWUP"> T  </i>
   </separator>
   <separator name="electronic projectors" >
    <i type="logical" name="LREAL"> F  </i>
    <v name="ROPT">      0.00000000</v>
    <i type="int" name="LMAXPAW">  -100</i>
    <i type="int" name="LMAXMIX">     2</i>
    <i type="logical" name="NLSPLINE"> F  </i>
   </separator>
   <separator name="electronic startup" >
    <i type="int" name="ISTART">     0</i>
    <i type="int" name="ICHARG">     2</i>
    <i type="int" name="INIWAV">     1</i>
   </separator>
   <separator name="electronic spin" >
    <i type="int" name="ISPIN">     1</i>
    <i type="logical" name="LNONCOLLINEAR"> F  </i>
    <v name="MAGMOM">      1.00000000</v>
    <i name="NUPDOWN">     -1.00000000</i>
    <i type="logical" name="LSORBIT"> F  </i>
    <v name="SAXIS">      0.00000000      0.00000000      1.00000000</v>
    <i type="logical" name="LSPIRAL"> F  </i>
    <v name="QSPIRAL">      0.00000000      0.00000000      0.00000000</v>
    <i type="logical" name="LZEROZ"> F  </i>
   </separator>
   <separator name="electronic exchange-correlation" >
    <i type="logical" name="LASPH"> F  </i>
    <i type="logical" name="LMETAGGA"> F  </i>
   </separator>
   <separator name="electronic convergence" >
    <i type="int" name="NELM">   100</i>
    <i type="int" name="NELMDL">    -5</i>
    <i type="int" name="NELMIN">     2</i>
    <i name="ENINI">    425.00000000</i>
    <separator name="electronic convergence detail" >
     <i type="logical" name="LDIAG"> T  </i>
     <i type="logical" name="LSUBROT"> F  </i>
     <i name="WEIMIN">      0.00000000</i>
     <i name="EBREAK">      0.00000001</i>
     <i name="DEPER">      0.30000000</i>
     <i type="int" name="NRMM">     4</i>
     <i name="TIME">      0.40000000</i>
    </separator>
   </separator>
   <separator name="electronic mixer" >
    <i name="AMIX">      0.40000000</i>
    <i name="BMIX">      1.00000000</i>
    <i name="AMIN">      0.10000000</i>
    <i name="AMIX_MAG">      1.60000000</i>
    <i name="BMIX_MAG">      1.00000000</i>
    <separator name="electronic mixer details" >
     <i type="int" name="IMIX">     4</i>
     <i type="logical" name="MIXFIRST"> F  </i>
     <i type="int" name="MAXMIX">   -45</i>
     <i name="WC">    100.00000000</i>
     <i type="int" name="INIMIX">     1</i>
     <i type="int" name="MIXPRE">     1</i>
     <i type="int" name="MREMOVE">     5</i>
    </separator>
   </separator>
   <separator name="electronic dipolcorrection" >
    <i type="logical" name="LDIPOL"> F  </i>
    <i type="logical" name="LMONO"> F  </i>
    <i type="int" name="IDIPOL">     0</i>
    <i name="EPSILON">      1.00000000</i>
    <v name="DIPOL">   -100.00000000   -100.00000000   -100.00000000</v>
    <i name="EFIELD">      0.00000000</i>
   </separator>
  </separator>
  <separator name="grids" >
   <i type="int" name="NGX">    20</i>
   <i type="int" name="NGY">    20</i>
   <i type="int" name="NGZ">    20</i>
   <i type="int" name="NGXF">    40</i>
   <i type="int" name="NGYF">    40</i>
   <i type="int" name="NGZF">    40</i>
   <i type="logical" name="ADDGRID"> F  </i>
  </separator>
  <separator name="ionic" >
   <i type="int" name="NSW">     0</i>
   <i type="int" name="IBRION">    -1</i>
   <i type="int" name="MDALGO">     0</i>
   <i type="int" name="ISIF">     2</i>
   <i name="PSTRESS">      0.00000000</i>
   <i name="EDIFFG">     -0.02000000</i>
   <i type="int" name="NFREE">     0</i>
   <i name="POTIM">      0.50000000</i>
   <i name="SMASS">     -3.00000000</i>
   <i name="SCALEE">      1.00000000</i>
  </separator>
  <separator name="ionic md" >
   <i name="TEBEG">      0.00010000</i>
   <i name="TEEND">      0.00010000</i>
   <i type="int" name="NBLOCK">     1</i>
   <i type="int" name="KBLOCK">     1</i>
   <i type="int" name="NPACO">   256</i>
   <i name="APACO">     10.00000000</i>
  </separator>
  <separator name="symmetry" >
   <i type="int" name="ISYM">     1</i>
   <i name="SYMPREC">      0.00001000</i>
  </separator>
  <separator name="dos" >
   <i type="int" name="LORBIT">     0</i>
   <v name="RWIGS">     -1.00000000</v>
   <i type="int" name="NEDOS">   301</i>
   <i name="EMIN">     10.00000000</i>
   <i name="EMAX">    -10.00000000</i>
   <i name="EFERMI">      0.00000000</i>
  </separator>
  <separator name="writing" >
   <i type="int" name="NWRITE">     2</i>
   <i type="logical" name="LWAVE"> F  </i>
   <i type="logical" name="LDOWNSAMPLE"> F  </i>
   <i type="logical" name="LCHARG"> F  </i>
   <i type="logical" name="LPARD"> F  </i>
   <i type="logical" name="LVTOT"> F  </i>
   <i type="logical" name="LVHAR"> F  </i>
   <i type="logical" name="LELF"> F  </i>
   <i type="logical" name="LOPTICS"> F  </i>
   <v name="STM">      0.00000000      0.00000000      0.00000000      0.00000000      0.00000000      0.00000000      0.00000000</v>
  </separator>
  <separator name="performance" >
   <i type="int" name="NPAR">    24</i>
   <i type="int" name="NSIM">     4</i>
   <i type="int" name="NBLK">    -1</i>
   <i type="logical" name="LPLANE"> T  </i>
   <i type="logical" name="LSCALAPACK"> T  </i>
   <i type="logical" name="LSCAAWARE"> T  </i>
   <i type="logical" name="LSCALU"> F  </i>
   <i type="logical" name="LASYNC"> F  </i>
   <i type="logical" name="LORBITALREAL"> F  </i>
  </separator>
  <separator name="miscellaneous" >
   <i type="int" name="IDIOT">     3</i>
   <i type="int" name="PHON_NSTRUCT">    -1</i>
   <i type="logical" name="LMUSIC"> F  </i>
   <v name="POMASS">    195.08000000</v>
   <v name="DARWINR">      0.00000000</v>
   <v name="DARWINV">      1.00000000</v>
   <i type="logical" name="LCORR"> T  </i>
  </separator>
  <i type="logical" name="GGA_COMPAT"> T  </i>
  <i type="logical" name="LBERRY"> F  </i>
  <i type="int" name="ICORELEVEL">     0</i>
  <i type="logical" name="LDAU"> F  </i>
  <i type="int" name="I_CONSTRAINED_M">     0</i>
  <separator name="electronic exchange-correlation" >
   <i type="string" name="GGA">--</i>
   <i type="int" name="VOSKOWN">     0</i>
   <i type="logical" name="LHFCALC"> F  </i>
   <i type="string" name="PRECFOCK"></i>
   <i type="logical" name="LSYMGRAD"> F  </i>
   <i type="logical" name="LHFONE"> F  </i>
   <i type="logical" name="LRHFCALC"> F  </i>
   <i type="logical" name="LTHOMAS"> F  </i>
   <i type="logical" name="LMODELHF"> F  </i>
   <i type="logical" name="LFOCKACE"> F  </i>
   <i name="ENCUT4O">     -1.00000000</i>
   <i type="int" name="EXXOEP">     0</i>
   <i type="int" name="FOURORBIT">     0</i>
   <i name="AEXX">      0.00000000</i>
   <i name="HFALPHA">      0.00000000</i>
   <i name="MCALPHA">      0.00000000</i>
   <i name="ALDAX">      1.00000000</i>
   <i name="AGGAX">      1.00000000</i>
   <i name="ALDAC">      1.00000000</i>
   <i name="AGGAC">      1.00000000</i>
   <i type="int" name="NKREDX">     1</i>
   <i type="int" name="NKREDY">     1</i>
   <i type="int" name="NKREDZ">     1</i>
   <i type="logical" name="SHIFTRED"> F  </i>
   <i type="logical" name="ODDONLY"> F  </i>
   <i type="logical" name="EVENONLY"> F  </i>
   <i type="int" name="LMAXFOCK">     0</i>
   <i type="int" name="NMAXFOCKAE">     0</i>
   <i type="logical" name="LFOCKAEDFT"> F  </i>
   <i name="HFSCREEN">      0.00000000</i>
   <i name="HFSCREENC">      0.00000000</i>
   <i type="int" name="NBANDSGWLOW">     0</i>
  </separator>
  <separator name="vdW DFT" >
   <i type="logical" name="LUSE_VDW"> F  </i>
   <i name="Zab_VDW">     -0.84910000</i>
   <i name="PARAM1">      0.12340000</i>
   <i name="PARAM2">      1.00000000</i>
   <i name="PARAM3">      0.00000000</i>
  </separator>
  <separator name="model GW" >
   <i type="int" name="MODEL_GW">     0</i>
   <i name="MODEL_EPS0">      9.17444760</i>
   <i name="MODEL_ALPHA">      1.00000000</i>
  </separator>
  <separator name="linear response parameters" >
   <i type="logical" name="LEPSILON"> F  </i>
   <i type="logical" name="LRPA"> F  </i>
   <i type="logical" name="LNABLA"> F  </i>
   <i type="logical" name="LVEL"> F  </i>
   <i name="CSHIFT">      0.10000000</i>
   <i name="OMEGAMAX">     -1.00000000</i>
   <i name="DEG_THRESHOLD">      0.00200000</i>
   <i name="RTIME">     -0.10000000</i>
   <i name="WPLASMAI">      0.00000000</i>
   <v name="DFIELD">      0.00000000      0.00000000      0.00000000</v>
   <v name="WPLASMA">      0.00000000      0.00000000      0.00000000      0.00000000      0.00000000      0.00000000      0.00000000      0.00000000      0.00000000</v>
  </separator>
  <separator name="orbital magnetization" >
   <i type="logical" name="NUCIND"> F  </i>
   <v name="MAGPOS">      0.00000000      0.00000000      0.00000000</v>
   <i type="logical" name="LNICSALL"> T  </i>
   <i type="logical" name="ORBITALMAG"> F  </i>
   <i type="logical" name="LMAGBLOCH"> F  </i>
   <i type="logical" name="LCHIMAG"> F  </i>
   <i type="logical" name="LGAUGE"> T  </i>
   <i type="int" name="MAGATOM">     0</i>
   <v name="MAGDIPOL">      0.00000000      0.00000000      0.00000000</v>
   <v name="AVECCONST">      0.00000000      0.00000000      0.00000000</v>
  </separator>
  <separator name="response functions" >
   <i type="logical" name="LFINITE_TEMPERATURE"> F  </i>
   <i type="logical" name="LADDER"> F  </i>
   <i type="logical" name="LRPAFORCE"> F  </i>
   <i type="logical" name="LFXC"> F  </i>
   <i type="logical" name="LHARTREE"> T  </i>
   <i type="int" name="IBSE">     0</i>
   <v type="int" name="KPOINT">    -1     0     0     0</v>
   <i type="logical" name="LTCTC"> F  </i>
   <i type="logical" name="LTCTE"> F  </i>
   <i type="logical" name="LTETE"> F  </i>
   <i type="logical" name="LTRIPLET"> F  </i>
   <i type="logical" name="LFXCEPS"> F  </i>
   <i type="logical" name="LFXHEG"> F  </i>
   <i type="int" name="NATURALO">     2</i>
   <i type="logical" name="LHOLEGF"> F  </i>
   <i type="logical" name="L2ORDER"> F  </i>
   <i type="logical" name="LDMP1"> F  </i>
   <i type="logical" name="LMP2LT"> F  </i>
   <i type="logical" name="LSMP2LT"> F  </i>
   <i type="logical" name="LGWLF"> F  </i>
   <i name="ENCUTGW">     -2.00000000</i>
   <i name="ENCUTGWSOFT">     -2.00000000</i>
   <i name="ENCUTLF">     -1.00000000</i>
   <i type="logical" name="LESF_SPLINES"> F  </i>
   <i type="int" name="LMAXMP2">    -1</i>
   <i name="SCISSOR">      0.00000000</i>
   <i type="int" name="NOMEGA">     0</i>
   <i type="int" name="NOMEGAR">     0</i>
   <i type="int" name="NBANDSGW">    -1</i>
   <i type="int" name="NBANDSO">    -1</i>
   <i type="int" name="NBANDSV">    -1</i>
   <i type="int" name="NELMGW">     1</i>
   <i type="int" name="NELMHF">     1</i>
   <i type="int" name="DIM">     3</i>
   <i type="int" name="IESPILON">     4</i>
   <i type="int" name="ANTIRES">     0</i>
   <i name="OMEGAMAX">    -30.00000000</i>
   <i name="OMEGAMIN">    -30.00000000</i>
   <i name="OMEGATL">   -200.00000000</i>
   <i type="int" name="OMEGAGRID">     0</i>
   <i name="CSHIFT">     -0.10000000</i>
   <i type="logical" name="LSELFENERGY"> F  </i>
   <i type="logical" name="LSPECTRAL"> F  </i>
   <i type="logical" name="LSPECTRALGW"> F  </i>
   <i type="logical" name="LSINGLES"> F  </i>
   <i type="logical" name="LFERMIGW"> F  </i>
   <i type="logical" name="ODDONLYGW"> F  </i>
   <i type="logical" name="EVENONLYGW"> F  </i>
   <i type="int" name="NKREDLFX">     1</i>
   <i type="int" name="NKREDLFY">     1</i>
   <i type="int" name="NKREDLFZ">     1</i>
   <i type="int" name="MAXMEM">  2800</i>
   <i type="int" name="TELESCOPE">     0</i>
   <i type="int" name="NTAUPAR">    -1</i>
   <i type="int" name="NOMEGAPAR">    -1</i>
   <i name="DAMP_NEWTON">      0.80000001</i>
   <i name="LAMBDA">      1.00000000</i>
  </separator>
  <separator name="External order field" >
   <i name="OFIELD_KAPPA">      0.00000000</i>
   <v name="OFIELD_K">      0.00000000      0.00000000      0.00000000</v>
   <i name="OFIELD_Q6_NEAR">      0.00000000</i>
   <i name="OFIELD_Q6_FAR">      0.00000000</i>
   <i name="OFIELD_A">      0.00000000</i>
  </separator>
  <separator name="optional k-points parameters" >
   <i type="int" name="KPOINTS_OPT_MODE">     1</i>
   <i type="logical" name="LKPOINTS_OPT"> F  </i>
  </separator>
 </parameters>
 <atominfo>
  <atoms>       1 </atoms>
  <types>       1 </types>
  <array name="atoms" >
   <dimension dim="1">ion</dimension>
   <field type="string">element</field>
   <field type="int">atomtype</field>
   <set>
    <rc><c>Pt</c><c>   1</c></rc>
   </set>
  </array>
  <array name="atomtypes" >
   <dimension dim="1">type</dimension>
   <field type="int">atomspertype</field>
   <field type="string">element</field>
   <field>mass</field>
   <field>valence</field>
   <field type="string">pseudopotential</field>
   <set>
    <rc><c>   1</c><c>Pt</c><c>    195.08000000</c><c>     16.00000000</c><c>  PAW_PBE Pt_pv 12Dec2005               </c></rc>
   </set>
  </array>
 </atominfo>
 <structure name="initialpos" >
  <crystal>
   <varray name="basis" >
    <v>       0.00000000       1.97000000       1.97000000 </v>
    <v>       1.97000000       0.00000000       1.97000000 </v>
    <v>       1.97000000       1.97000000       0.00000000 </v>
   </varray>
   <i name="volume">     15.29074600 </i>
   <varray name="rec_basis" >
    <v>      -0.25380711       0.25380711       0.25380711 </v>
    <v>       0.25380711      -0.25380711       0.25380711 </v>
    <v>       0.25380711       0.25380711      -0.25380711 </v>
   </varray>
  </crystal>
  <varray name="positions" >
   <v>       0.00000000       0.00000000       0.00000000 </v>
  </varray>
 </structure>
 <calculation>
  <scstep>
   <time name="dav">    0.51    0.52</time>
   <time name="total">    0.52    0.52</time>
   <energy>
    <i name="alphaZ">    156.91311333 </i>
    <i name="ewald">  -2144.84590610 </i>
    <i name="hartreedc">   -397.82488157 </i>
    <i name="XCdc">     63.81680431 </i>
    <i name="pawpsdc">   2065.75261637 </i>
    <i name="pawaedc">  -2030.83594803 </i>
    <i name="eentropy">     -0.00049425 </i>
    <i name="bandstr">   -124.82912779 </i>
    <i name="atom">   2428.19501064 </i>
    <i name="e_fr_energy">     16.34118693 </i>
    <i name="e_wo_entrp">     16.34168118 </i>
    <i name="e_0_energy">     16.34143405 </i>
   </energy>
  </scstep>
  <scstep>
   <time name="dav">    0.64    0.65</time>
   <time name="total">    0.64    0.65</time>
   <energy>
    <i name="e_fr_energy">     -6.39596443 </i>
    <i name="e_wo_entrp">     -6.39424076 </i>
    <i name="e_0_energy">     -6.39510259 </i>
   </energy>
  </scstep>
  <scstep>
   <time name="dav">    0.70    0.70</time>
   <time name="total">    0.70    0.71</time>
   <energy>
    <i name="e_fr_energy">     -6.42927798 </i>
    <i name="e_wo_entrp">     -6.42753794 </i>
    <i name="e_0_energy">     -6.42840796 </i>
   </energy>
  </scstep>
  <scstep>
   <time name="dav">    0.91    0.91</time>
   <time name="total">    0.91    0.91</time>
   <energy>
    <i name="e_fr_energy">     -6.42930283 </i>
    <i name="e_wo_entrp">     -6.42756279 </i>
    <i name="e_0_energy">     -6.42843281 </i>
   </energy>
  </scstep>
  <scstep>
   <time name="dav">    0.68    0.69</time>
   <time name="total">    0.70    0.71</time>
   <energy>
    <i name="e_fr_energy">     -6.42930283 </i>
    <i name="e_wo_entrp">     -6.42756279 </i>
    <i name="e_0_energy">     -6.42843281 </i>
   </energy>
  </scstep>
  <scstep>
   <time name="dav">    0.51    0.52</time>
   <time name="total">    0.54    0.54</time>
   <energy>
    <i name="e_fr_energy">     -6.09533482 </i>
    <i name="e_wo_entrp">     -6.09294349 </i>
    <i name="e_0_energy">     -6.09413916 </i>
   </energy>
  </scstep>
  <scstep>
   <time name="dav">    0.84    0.84</time>
   <time name="total">    0.86    0.87</time>
   <energy>
    <i name="e_fr_energy">     -6.07674382 </i>
    <i name="e_wo_entrp">     -6.07431139 </i>
    <i name="e_0_energy">     -6.07552761 </i>
   </energy>
  </scstep>
  <scstep>
   <time name="dav">    0.49    0.50</time>
   <time name="total">    0.52    0.52</time>
   <energy>
    <i name="e_fr_energy">     -6.07520159 </i>
    <i name="e_wo_entrp">     -6.07274434 </i>
    <i name="e_0_energy">     -6.07397297 </i>
   </energy>
  </scstep>
  <scstep>
   <time name="dav">    0.77    0.77</time>
   <time name="total">    0.79    0.80</time>
   <energy>
    <i name="e_fr_energy">     -6.07513262 </i>
    <i name="e_wo_entrp">     -6.07267913 </i>
    <i name="e_0_energy">     -6.07390587 </i>
   </energy>
  </scstep>
  <scstep>
   <time name="dav">    0.74    0.74</time>
   <time name="total">    0.76    0.77</time>
   <energy>
    <i name="e_fr_energy">     -6.07513817 </i>
    <i name="e_wo_entrp">     -6.07268583 </i>
    <i name="e_0_energy">     -6.07391200 </i>
   </energy>
  </scstep>
  <scstep>
   <time name="dav">    0.32    0.32</time>
   <time name="total">    0.33    0.33</time>
   <energy>
    <i name="alphaZ">    156.91311333 </i>
    <i name="ewald">  -2144.84590610 </i>
    <i name="hartreedc">   -378.53191457 </i>
    <i name="XCdc">     62.96276660 </i>
    <i name="pawpsdc">   2351.99111183 </i>
    <i name="pawaedc">  -2319.71725491 </i>
    <i name="eentropy">     -0.00245234 </i>
    <i name="bandstr">   -163.03961258 </i>
    <i name="atom">   2428.19501064 </i>
    <i name="e_fr_energy">     -6.07513810 </i>
    <i name="e_wo_entrp">     -6.07268576 </i>
    <i name="e_0_energy">     -6.07391193 </i>
   </energy>
  </scstep>
  <structure>
   <crystal>
    <varray name="basis" >
     <v>       0.00000000       1.97000000       1.97000000 </v>
     <v>       1.97000000       0.00000000       1.97000000 </v>
     <v>       1.97000000       1.97000000       0.00000000 </v>
    </varray>
    <i name="volume">     15.29074600 </i>
    <varray name="rec_basis" >
     <v>      -0.25380711       0.25380711       0.25380711 </v>
     <v>       0.25380711      -0.25380711       0.25380711 </v>
     <v>       0.25380711       0.25380711      -0.25380711 </v>
    </varray>
   </crystal>
   <varray name="positions" >
    <v>       0.00000000       0.00000000       0.00000000 </v>
   </varray>
  </structure>
  <varray name="forces" >
   <v>       0.00000000       0.00000000       0.00000000 </v>
  </varray>
  <varray name="stress" >
   <v>      36.31113926       0.00000000      -0.00000000 </v>
   <v>      -0.00000000      36.31113926       0.00000000 </v>
   <v>       0.00000000      -0.00000000      36.31113926 </v>
  </varray>
  <energy>
   <i name="e_fr_energy">     -6.07513810 </i>
   <i name="e_wo_entrp">     -6.07268576 </i>
   <i name="e_0_energy">     -6.07391193 </i>
  </energy>
  <time name="totalsc">    7.43    7.48</time>
  <eigenvalues>
   <array>
    <dimension dim="1">band</dimension>
    <dimension dim="2">kpoint</dimension>
    <dimension dim="3">spin</dimension>
    <field>eigene</field>
    <field>occ</field>
    <set>
     <set comment="spin 1">
      <set comment="kpoint 1">
       <r>  -40.7101    1.0000 </r>
       <r>  -40.7011    1.0000 </r>
       <r>  -40.7011    1.0000 </r>
       <r>    1.7964    1.0000 </r>
       <r>    8.0336    1.0000 </r>
       <r>    8.1176    1.0000 </r>
       <r>    8.1176    1.0000 </r>
       <r>   10.1750    1.0000 </r>
       <r>   10.1750    1.0000 </r>
       <r>   26.5929    0.0000 </r>
       <r>   30.7752    0.0000 </r>
       <r>   31.4777    0.0000 </r>
       <r>   31.4777    0.0000 </r>
       <r>   37.2442    0.0000 </r>
       <r>   42.0647    0.0000 </r>
       <r>   42.8051    0.0000 </r>
       <r>   42.8051    0.0000 </r>
       <r>   46.0344    0.0000 </r>
       <r>   46.0344    0.0000 </r>
       <r>   46.9565    0.0000 </r>
       <r>   52.5059    0.0000 </r>
       <r>   52.7983    0.0000 </r>
       <r>   52.7983    0.0000 </r>
       <r>   59.9755    0.0000 </r>
      </set>
      <set comment="kpoint 2">
       <r>  -40.7629    1.0000 </r>
       <r>  -40.7164    1.0000 </r>
       <r>  -40.7054    1.0000 </r>
       <r>    2.3131    1.0000 </r>
       <r>    7.8060    1.0000 </r>
       <r>    8.2964    1.0000 </r>
       <r>    8.3355    1.0000 </r>
       <r>    9.9536    1.0000 </r>
       <r>   10.2318    1.0000 </r>
       <r>   27.3312    0.0000 </r>
       <r>   29.0671    0.0000 </r>
       <r>   31.5897    0.0000 </r>
       <r>   32.5889    0.0000 </r>
       <r>   37.7788    0.0000 </r>
       <r>   40.1896    0.0000 </r>
       <r>   40.6428    0.0000 </r>
       <r>   41.8683    0.0000 </r>
       <r>   44.3792    0.0000 </r>
       <r>   47.4541    0.0000 </r>
       <r>   49.7023    0.0000 </r>
       <r>   51.6347    0.0000 </r>
       <r>   52.5075    0.0000 </r>
       <r>   53.9701    0.0000 </r>
       <r>   60.8331    0.0000 </r>
      </set>
      <set comment="kpoint 3">
       <r>  -40.8807    1.0000 </r>
       <r>  -40.7369    1.0000 </r>
       <r>  -40.7208    1.0000 </r>
       <r>    3.4194    1.0000 </r>
       <r>    7.5869    1.0000 </r>
       <r>    8.4837    1.0000 </r>
       <r>    8.5223    1.0000 </r>
       <r>    9.9391    1.0000 </r>
       <r>   10.4943    1.0000 </r>
       <r>   26.1605    0.0000 </r>
       <r>   28.2751    0.0000 </r>
       <r>   32.6556    0.0000 </r>
       <r>   34.5849    0.0000 </r>
       <r>   34.6544    0.0000 </r>
       <r>   37.9313    0.0000 </r>
       <r>   37.9444    0.0000 </r>
       <r>   44.5355    0.0000 </r>
       <r>   44.8168    0.0000 </r>
       <r>   48.0835    0.0000 </r>
       <r>   50.1510    0.0000 </r>
       <r>   52.5088    0.0000 </r>
       <r>   52.7946    0.0000 </r>
       <r>   54.6266    0.0000 </r>
       <r>   61.1394    0.0000 </r>
      </set>
      <set comment="kpoint 4">
       <r>  -41.0146    1.0000 </r>
       <r>  -40.7574    1.0000 </r>
       <r>  -40.7411    1.0000 </r>
       <r>    4.4079    1.0000 </r>
       <r>    8.1510    1.0000 </r>
       <r>    8.3346    1.0000 </r>
       <r>    8.3658    1.0000 </r>
       <r>   10.5923    1.0000 </r>
       <r>   11.2315    1.0000 </r>
       <r>   22.6665    0.0000 </r>
       <r>   27.4980    0.0000 </r>
       <r>   32.0205    0.0000 </r>
       <r>   34.2409    0.0000 </r>
       <r>   35.4793    0.0000 </r>
       <r>   37.2805    0.0000 </r>
       <r>   37.8841    0.0000 </r>
       <r>   45.2573    0.0000 </r>
       <r>   47.4527    0.0000 </r>
       <r>   49.6008    0.0000 </r>
       <r>   50.8546    0.0000 </r>
       <r>   52.5147    0.0000 </r>
       <r>   53.5082    0.0000 </r>
       <r>   55.3295    0.0000 </r>
       <r>   60.1197    0.0000 </r>
      </set>
      <set comment="kpoint 5">
       <r>  -41.1136    1.0000 </r>
       <r>  -40.7703    1.0000 </r>
       <r>  -40.7584    1.0000 </r>
       <r>    4.6636    1.0000 </r>
       <r>    8.0442    1.0000 </r>
       <r>    8.1422    1.0000 </r>
       <r>    9.9096    1.0000 </r>
       <r>   11.4283    1.0000 </r>
       <r>   12.1057    0.0000 </r>
       <r>   19.0591    0.0000 </r>
       <r>   26.4420    0.0000 </r>
       <r>   30.5778    0.0000 </r>
       <r>   31.6099    0.0000 </r>
       <r>   38.3606    0.0000 </r>
       <r>   39.3879    0.0000 </r>
       <r>   40.0076    0.0000 </r>
       <r>   45.9283    0.0000 </r>
       <r>   47.2843    0.0000 </r>
       <r>   48.6316    0.0000 </r>
       <r>   52.5191    0.0000 </r>
       <r>   53.1164    0.0000 </r>
       <r>   55.9014    0.0000 </r>
       <r>   56.1082    0.0000 </r>
       <r>   57.2241    0.0000 </r>
      </set>
      <set comment="kpoint 6">
       <r>  -41.1408    1.0000 </r>
       <r>  -40.7709    1.0000 </r>
       <r>  -40.7664    1.0000 </r>
       <r>    4.6696    1.0000 </r>
       <r>    7.9549    1.0000 </r>
       <r>    8.0903    1.0000 </r>
       <r>   10.6273    1.0000 </r>
       <r>   11.8392    0.2324 </r>
       <r>   12.5475    0.0000 </r>
       <r>   17.5613    0.0000 </r>
       <r>   26.1591    0.0000 </r>
       <r>   30.4760    0.0000 </r>
       <r>   30.5261    0.0000 </r>
       <r>   39.6142    0.0000 </r>
       <r>   39.8300    0.0000 </r>
       <r>   41.3217    0.0000 </r>
       <r>   46.1962    0.0000 </r>
       <r>   47.1309    0.0000 </r>
       <r>   47.2598    0.0000 </r>
       <r>   52.5221    0.0000 </r>
       <r>   54.2220    0.0000 </r>
       <r>   54.8393    0.0000 </r>
       <r>   56.7755    0.0000 </r>
       <r>   57.6521    0.0000 </r>
      </set>
      <set comment="kpoint 7">
       <r>  -41.0873    1.0000 </r>
       <r>  -40.7619    1.0000 </r>
       <r>  -40.7586    1.0000 </r>
       <r>    4.6323    1.0000 </r>
       <r>    8.0844    1.0000 </r>
       <r>    8.2367    1.0000 </r>
       <r>    9.2583    1.0000 </r>
       <r>   11.4891    1.0000 </r>
       <r>   11.5495    1.0000 </r>
       <r>   20.1824    0.0000 </r>
       <r>   26.7239    0.0000 </r>
       <r>   31.1882    0.0000 </r>
       <r>   32.0261    0.0000 </r>
       <r>   38.0981    0.0000 </r>
       <r>   38.2698    0.0000 </r>
       <r>   39.1874    0.0000 </r>
       <r>   45.1757    0.0000 </r>
       <r>   48.2920    0.0000 </r>
       <r>   48.9792    0.0000 </r>
       <r>   52.5192    0.0000 </r>
       <r>   52.9839    0.0000 </r>
       <r>   54.2329    0.0000 </r>
       <r>   56.0448    0.0000 </r>
       <r>   57.8985    0.0000 </r>
      </set>
      <set comment="kpoint 8">
       <r>  -40.9714    1.0000 </r>
       <r>  -40.7465    1.0000 </r>
       <r>  -40.7387    1.0000 </r>
       <r>    4.1554    1.0000 </r>
       <r>    7.8122    1.0000 </r>
       <r>    8.3676    1.0000 </r>
       <r>    8.4677    1.0000 </r>
       <r>   10.4427    1.0000 </r>
       <r>   10.8491    1.0000 </r>
       <r>   23.8955    0.0000 </r>
       <r>   27.9245    0.0000 </r>
       <r>   32.7363    0.0000 </r>
       <r>   34.1349    0.0000 </r>
       <r>   35.7520    0.0000 </r>
       <r>   36.5922    0.0000 </r>
       <r>   37.2638    0.0000 </r>
       <r>   44.7777    0.0000 </r>
       <r>   47.8802    0.0000 </r>
       <r>   48.4666    0.0000 </r>
       <r>   50.8368    0.0000 </r>
       <r>   52.2692    0.0000 </r>
       <r>   52.5160    0.0000 </r>
       <r>   55.6566    0.0000 </r>
       <r>   61.1126    0.0000 </r>
      </set>
      <set comment="kpoint 9">
       <r>  -40.8369    1.0000 </r>
       <r>  -40.7259    1.0000 </r>
       <r>  -40.7186    1.0000 </r>
       <r>    3.0145    1.0000 </r>
       <r>    7.6015    1.0000 </r>
       <r>    8.4771    1.0000 </r>
       <r>    8.4992    1.0000 </r>
       <r>    9.8825    1.0000 </r>
       <r>   10.3412    1.0000 </r>
       <r>   27.2109    0.0000 </r>
       <r>   28.1059    0.0000 </r>
       <r>   32.4517    0.0000 </r>
       <r>   33.4050    0.0000 </r>
       <r>   35.9631    0.0000 </r>
       <r>   38.0210    0.0000 </r>
       <r>   39.4702    0.0000 </r>
       <r>   43.0983    0.0000 </r>
       <r>   44.5993    0.0000 </r>
       <r>   48.3995    0.0000 </r>
       <r>   50.1093    0.0000 </r>
       <r>   51.6323    0.0000 </r>
       <r>   52.5119    0.0000 </r>
       <r>   54.7785    0.0000 </r>
       <r>   61.0696    0.0000 </r>
      </set>
      <set comment="kpoint 10">
       <r>  -40.7339    1.0000 </r>
       <r>  -40.7088    1.0000 </r>
       <r>  -40.7062    1.0000 </r>
       <r>    2.0596    1.0000 </r>
       <r>    7.8790    1.0000 </r>
       <r>    8.2395    1.0000 </r>
       <r>    8.2473    1.0000 </r>
       <r>    9.9913    1.0000 </r>
       <r>   10.2511    1.0000 </r>
       <r>   26.9891    0.0000 </r>
       <r>   30.0111    0.0000 </r>
       <r>   31.5092    0.0000 </r>
       <r>   31.7658    0.0000 </r>
       <r>   38.4273    0.0000 </r>
       <r>   40.5605    0.0000 </r>
       <r>   40.8460    0.0000 </r>
       <r>   42.8601    0.0000 </r>
       <r>   44.0524    0.0000 </r>
       <r>   48.0062    0.0000 </r>
       <r>   48.4776    0.0000 </r>
       <r>   51.5186    0.0000 </r>
       <r>   52.5093    0.0000 </r>
       <r>   53.8293    0.0000 </r>
       <r>   60.7039    0.0000 </r>
      </set>
      <set comment="kpoint 11">
       <r>  -40.7744    1.0000 </r>
       <r>  -40.7239    1.0000 </r>
       <r>  -40.7209    1.0000 </r>
       <r>    2.5688    1.0000 </r>
       <r>    7.5770    1.0000 </r>
       <r>    8.4960    1.0000 </r>
       <r>    8.5028    1.0000 </r>
       <r>    9.6690    1.0000 </r>
       <r>   10.3982    1.0000 </r>
       <r>   27.7338    0.0000 </r>
       <r>   29.2992    0.0000 </r>
       <r>   31.4061    0.0000 </r>
       <r>   31.7837    0.0000 </r>
       <r>   38.2458    0.0000 </r>
       <r>   39.1109    0.0000 </r>
       <r>   40.9197    0.0000 </r>
       <r>   41.2452    0.0000 </r>
       <r>   43.4926    0.0000 </r>
       <r>   49.2588    0.0000 </r>
       <r>   50.1081    0.0000 </r>
       <r>   50.3506    0.0000 </r>
       <r>   52.5111    0.0000 </r>
       <r>   54.6219    0.0000 </r>
       <r>   61.8141    0.0000 </r>
      </set>
      <set comment="kpoint 12">
       <r>  -40.8567    1.0000 </r>
       <r>  -40.7536    1.0000 </r>
       <r>  -40.7328    1.0000 </r>
       <r>    3.4891    1.0000 </r>
       <r>    7.2273    1.0000 </r>
       <r>    8.6087    1.0000 </r>
       <r>    8.8630    1.0000 </r>
       <r>    9.5621    1.0000 </r>
       <r>   10.6796    1.0000 </r>
       <r>   27.5108    0.0000 </r>
       <r>   28.7215    0.0000 </r>
       <r>   31.0038    0.0000 </r>
       <r>   32.2948    0.0000 </r>
       <r>   35.9156    0.0000 </r>
       <r>   38.2484    0.0000 </r>
       <r>   39.2431    0.0000 </r>
       <r>   42.8996    0.0000 </r>
       <r>   44.6562    0.0000 </r>
       <r>   48.2823    0.0000 </r>
       <r>   49.5589    0.0000 </r>
       <r>   52.5125    0.0000 </r>
       <r>   52.9704    0.0000 </r>
       <r>   55.9956    0.0000 </r>
       <r>   61.5726    0.0000 </r>
      </set>
      <set comment="kpoint 13">
       <r>  -40.9739    1.0000 </r>
       <r>  -40.7805    1.0000 </r>
       <r>  -40.7522    1.0000 </r>
       <r>    4.6204    1.0000 </r>
       <r>    7.2660    1.0000 </r>
       <r>    8.1898    1.0000 </r>
       <r>    8.8729    1.0000 </r>
       <r>   10.4016    1.0000 </r>
       <r>   11.4031    1.0000 </r>
       <r>   24.1572    0.0000 </r>
       <r>   28.3676    0.0000 </r>
       <r>   30.3180    0.0000 </r>
       <r>   32.4682    0.0000 </r>
       <r>   36.4902    0.0000 </r>
       <r>   37.3799    0.0000 </r>
       <r>   39.3511    0.0000 </r>
       <r>   42.2379    0.0000 </r>
       <r>   47.9094    0.0000 </r>
       <r>   49.4054    0.0000 </r>
       <r>   49.9413    0.0000 </r>
       <r>   52.5177    0.0000 </r>
       <r>   53.2111    0.0000 </r>
       <r>   57.5942    0.0000 </r>
       <r>   59.4954    0.0000 </r>
      </set>
      <set comment="kpoint 14">
       <r>  -41.0753    1.0000 </r>
       <r>  -40.8004    1.0000 </r>
       <r>  -40.7723    1.0000 </r>
       <r>    5.0815    1.0000 </r>
       <r>    7.7737    1.0000 </r>
       <r>    8.3209    1.0000 </r>
       <r>    8.6619    1.0000 </r>
       <r>   11.4753    1.0000 </r>
       <r>   12.6067    0.0000 </r>
       <r>   20.2770    0.0000 </r>
       <r>   27.2975    0.0000 </r>
       <r>   29.2780    0.0000 </r>
       <r>   31.4757    0.0000 </r>
       <r>   37.4770    0.0000 </r>
       <r>   39.6460    0.0000 </r>
       <r>   40.6614    0.0000 </r>
       <r>   42.5339    0.0000 </r>
       <r>   49.1273    0.0000 </r>
       <r>   49.5166    0.0000 </r>
       <r>   51.0127    0.0000 </r>
       <r>   52.5176    0.0000 </r>
       <r>   54.8760    0.0000 </r>
       <r>   56.2893    0.0000 </r>
       <r>   57.9270    0.0000 </r>
      </set>
      <set comment="kpoint 15">
       <r>  -41.1210    1.0000 </r>
       <r>  -40.8129    1.0000 </r>
       <r>  -40.7791    1.0000 </r>
       <r>    5.1154    1.0000 </r>
       <r>    7.6072    1.0000 </r>
       <r>    8.4745    1.0000 </r>
       <r>    9.3752    1.0000 </r>
       <r>   11.7652    0.9131 </r>
       <r>   14.2358    0.0000 </r>
       <r>   17.4248    0.0000 </r>
       <r>   26.7847    0.0000 </r>
       <r>   28.9574    0.0000 </r>
       <r>   30.1952    0.0000 </r>
       <r>   38.9812    0.0000 </r>
       <r>   39.7878    0.0000 </r>
       <r>   42.5318    0.0000 </r>
       <r>   44.7941    0.0000 </r>
       <r>   47.1264    0.0000 </r>
       <r>   48.7532    0.0000 </r>
       <r>   51.8903    0.0000 </r>
       <r>   52.5205    0.0000 </r>
       <r>   53.2774    0.0000 </r>
       <r>   57.0966    0.0000 </r>
       <r>   58.8857    0.0000 </r>
      </set>
      <set comment="kpoint 16">
       <r>  -41.0961    1.0000 </r>
       <r>  -40.8150    1.0000 </r>
       <r>  -40.7680    1.0000 </r>
       <r>    5.1324    1.0000 </r>
       <r>    7.7201    1.0000 </r>
       <r>    8.5028    1.0000 </r>
       <r>    8.9238    1.0000 </r>
       <r>   11.2929    1.0000 </r>
       <r>   13.3566    0.0000 </r>
       <r>   19.1796    0.0000 </r>
       <r>   26.9704    0.0000 </r>
       <r>   28.7728    0.0000 </r>
       <r>   31.4956    0.0000 </r>
       <r>   37.3920    0.0000 </r>
       <r>   39.7565    0.0000 </r>
       <r>   41.8042    0.0000 </r>
       <r>   44.2918    0.0000 </r>
       <r>   48.0357    0.0000 </r>
       <r>   49.3423    0.0000 </r>
       <r>   50.3739    0.0000 </r>
       <r>   52.5178    0.0000 </r>
       <r>   54.8864    0.0000 </r>
       <r>   57.0894    0.0000 </r>
       <r>   57.9634    0.0000 </r>
      </set>
      <set comment="kpoint 17">
       <r>  -41.0101    1.0000 </r>
       <r>  -40.8007    1.0000 </r>
       <r>  -40.7471    1.0000 </r>
       <r>    4.9033    1.0000 </r>
       <r>    7.6034    1.0000 </r>
       <r>    8.0824    1.0000 </r>
       <r>    8.7546    1.0000 </r>
       <r>   10.3243    1.0000 </r>
       <r>   12.0452    0.0000 </r>
       <r>   22.8871    0.0000 </r>
       <r>   27.7503    0.0000 </r>
       <r>   29.6890    0.0000 </r>
       <r>   33.4120    0.0000 </r>
       <r>   35.3429    0.0000 </r>
       <r>   38.6368    0.0000 </r>
       <r>   40.4129    0.0000 </r>
       <r>   42.3640    0.0000 </r>
       <r>   47.6920    0.0000 </r>
       <r>   48.3335    0.0000 </r>
       <r>   52.0032    0.0000 </r>
       <r>   52.5160    0.0000 </r>
       <r>   53.9919    0.0000 </r>
       <r>   57.2207    0.0000 </r>
       <r>   58.4517    0.0000 </r>
      </set>
      <set comment="kpoint 18">
       <r>  -40.8970    1.0000 </r>
       <r>  -40.7712    1.0000 </r>
       <r>  -40.7264    1.0000 </r>
       <r>    3.8878    1.0000 </r>
       <r>    7.2693    1.0000 </r>
       <r>    8.4564    1.0000 </r>
       <r>    8.8950    1.0000 </r>
       <r>    9.5662    1.0000 </r>
       <r>   10.9987    1.0000 </r>
       <r>   26.3049    0.0000 </r>
       <r>   28.5104    0.0000 </r>
       <r>   31.2007    0.0000 </r>
       <r>   32.2816    0.0000 </r>
       <r>   35.9456    0.0000 </r>
       <r>   38.5721    0.0000 </r>
       <r>   39.6133    0.0000 </r>
       <r>   41.8885    0.0000 </r>
       <r>   45.6009    0.0000 </r>
       <r>   47.7175    0.0000 </r>
       <r>   49.5962    0.0000 </r>
       <r>   52.5114    0.0000 </r>
       <r>   54.8117    0.0000 </r>
       <r>   56.2957    0.0000 </r>
       <r>   60.4641    0.0000 </r>
      </set>
      <set comment="kpoint 19">
       <r>  -40.8055    1.0000 </r>
       <r>  -40.7319    1.0000 </r>
       <r>  -40.7144    1.0000 </r>
       <r>    2.8032    1.0000 </r>
       <r>    7.5714    1.0000 </r>
       <r>    8.4952    1.0000 </r>
       <r>    8.5148    1.0000 </r>
       <r>    9.7236    1.0000 </r>
       <r>   10.3983    1.0000 </r>
       <r>   27.9410    0.0000 </r>
       <r>   28.2304    0.0000 </r>
       <r>   31.4705    0.0000 </r>
       <r>   33.0717    0.0000 </r>
       <r>   36.3507    0.0000 </r>
       <r>   39.1211    0.0000 </r>
       <r>   41.0065    0.0000 </r>
       <r>   42.2395    0.0000 </r>
       <r>   43.0603    0.0000 </r>
       <r>   48.3726    0.0000 </r>
       <r>   50.0252    0.0000 </r>
       <r>   51.6935    0.0000 </r>
       <r>   52.5087    0.0000 </r>
       <r>   55.0005    0.0000 </r>
       <r>   61.3356    0.0000 </r>
      </set>
      <set comment="kpoint 20">
       <r>  -40.8893    1.0000 </r>
       <r>  -40.7703    1.0000 </r>
       <r>  -40.7696    1.0000 </r>
       <r>    4.0972    1.0000 </r>
       <r>    6.7581    1.0000 </r>
       <r>    8.7630    1.0000 </r>
       <r>    9.3599    1.0000 </r>
       <r>    9.5879    1.0000 </r>
       <r>   10.8577    1.0000 </r>
       <r>   28.2368    0.0000 </r>
       <r>   29.6477    0.0000 </r>
       <r>   29.7264    0.0000 </r>
       <r>   30.5213    0.0000 </r>
       <r>   34.2315    0.0000 </r>
       <r>   38.2675    0.0000 </r>
       <r>   38.4766    0.0000 </r>
       <r>   44.4611    0.0000 </r>
       <r>   45.7703    0.0000 </r>
       <r>   46.8698    0.0000 </r>
       <r>   52.1765    0.0000 </r>
       <r>   52.5152    0.0000 </r>
       <r>   52.9076    0.0000 </r>
       <r>   54.7164    0.0000 </r>
       <r>   64.1619    0.0000 </r>
      </set>
      <set comment="kpoint 21">
       <r>  -40.9686    1.0000 </r>
       <r>  -40.8075    1.0000 </r>
       <r>  -40.7870    1.0000 </r>
       <r>    4.9923    1.0000 </r>
       <r>    6.4549    1.0000 </r>
       <r>    8.3753    1.0000 </r>
       <r>    9.8149    1.0000 </r>
       <r>   10.4182    1.0000 </r>
       <r>   11.4448    1.0000 </r>
       <r>   25.8121    0.0000 </r>
       <r>   27.8113    0.0000 </r>
       <r>   29.0178    0.0000 </r>
       <r>   31.5670    0.0000 </r>
       <r>   33.6909    0.0000 </r>
       <r>   38.5132    0.0000 </r>
       <r>   39.7609    0.0000 </r>
       <r>   44.3530    0.0000 </r>
       <r>   45.0415    0.0000 </r>
       <r>   49.3038    0.0000 </r>
       <r>   52.2632    0.0000 </r>
       <r>   52.5161    0.0000 </r>
       <r>   54.1196    0.0000 </r>
       <r>   55.4781    0.0000 </r>
       <r>   62.2362    0.0000 </r>
      </set>
      <set comment="kpoint 22">
       <r>  -41.0438    1.0000 </r>
       <r>  -40.8438    1.0000 </r>
       <r>  -40.8050    1.0000 </r>
       <r>    5.5690    1.0000 </r>
       <r>    6.7293    1.0000 </r>
       <r>    8.0233    1.0000 </r>
       <r>    9.6361    1.0000 </r>
       <r>   11.6085    1.0000 </r>
       <r>   12.9104    0.0000 </r>
       <r>   21.7046    0.0000 </r>
       <r>   27.1062    0.0000 </r>
       <r>   27.4116    0.0000 </r>
       <r>   31.2960    0.0000 </r>
       <r>   36.3421    0.0000 </r>
       <r>   39.0147    0.0000 </r>
       <r>   40.9605    0.0000 </r>
       <r>   43.8232    0.0000 </r>
       <r>   46.4733    0.0000 </r>
       <r>   49.4746    0.0000 </r>
       <r>   52.2756    0.0000 </r>
       <r>   52.5172    0.0000 </r>
       <r>   55.6667    0.0000 </r>
       <r>   56.2172    0.0000 </r>
       <r>   59.8084    0.0000 </r>
      </set>
      <set comment="kpoint 23">
       <r>  -41.0800    1.0000 </r>
       <r>  -40.8813    1.0000 </r>
       <r>  -40.8077    1.0000 </r>
       <r>    5.7426    1.0000 </r>
       <r>    7.0662    1.0000 </r>
       <r>    8.2443    1.0000 </r>
       <r>    9.3681    1.0000 </r>
       <r>   11.8090    0.5489 </r>
       <r>   15.4859    0.0000 </r>
       <r>   18.0550    0.0000 </r>
       <r>   25.9191    0.0000 </r>
       <r>   27.4974    0.0000 </r>
       <r>   30.3796    0.0000 </r>
       <r>   38.3129    0.0000 </r>
       <r>   40.2195    0.0000 </r>
       <r>   41.1398    0.0000 </r>
       <r>   44.4541    0.0000 </r>
       <r>   48.0113    0.0000 </r>
       <r>   49.2244    0.0000 </r>
       <r>   51.3213    0.0000 </r>
       <r>   52.5181    0.0000 </r>
       <r>   54.3532    0.0000 </r>
       <r>   56.9039    0.0000 </r>
       <r>   59.5052    0.0000 </r>
      </set>
      <set comment="kpoint 24">
       <r>  -41.0688    1.0000 </r>
       <r>  -40.9023    1.0000 </r>
       <r>  -40.7927    1.0000 </r>
       <r>    5.9586    1.0000 </r>
       <r>    7.1658    1.0000 </r>
       <r>    8.2405    1.0000 </r>
       <r>    9.2314    1.0000 </r>
       <r>   11.2347    1.0000 </r>
       <r>   15.2836    0.0000 </r>
       <r>   18.8237    0.0000 </r>
       <r>   24.8534    0.0000 </r>
       <r>   28.4993    0.0000 </r>
       <r>   30.6301    0.0000 </r>
       <r>   37.2938    0.0000 </r>
       <r>   39.4961    0.0000 </r>
       <r>   42.6747    0.0000 </r>
       <r>   46.0609    0.0000 </r>
       <r>   47.5733    0.0000 </r>
       <r>   49.4496    0.0000 </r>
       <r>   50.7578    0.0000 </r>
       <r>   52.5203    0.0000 </r>
       <r>   52.6454    0.0000 </r>
       <r>   56.5941    0.0000 </r>
       <r>   58.7432    0.0000 </r>
      </set>
      <set comment="kpoint 25">
       <r>  -41.0275    1.0000 </r>
       <r>  -40.8847    1.0000 </r>
       <r>  -40.7681    1.0000 </r>
       <r>    6.0160    1.0000 </r>
       <r>    7.2864    1.0000 </r>
       <r>    7.5641    1.0000 </r>
       <r>    9.3308    1.0000 </r>
       <r>   10.2792    1.0000 </r>
       <r>   13.6297    0.0000 </r>
       <r>   22.0978    0.0000 </r>
       <r>   24.9865    0.0000 </r>
       <r>   29.0668    0.0000 </r>
       <r>   32.9530    0.0000 </r>
       <r>   34.5238    0.0000 </r>
       <r>   39.5919    0.0000 </r>
       <r>   42.9235    0.0000 </r>
       <r>   44.0205    0.0000 </r>
       <r>   46.0254    0.0000 </r>
       <r>   48.3785    0.0000 </r>
       <r>   52.4422    0.0000 </r>
       <r>   52.5150    0.0000 </r>
       <r>   55.7064    0.0000 </r>
       <r>   56.5458    0.0000 </r>
       <r>   57.3589    0.0000 </r>
      </set>
      <set comment="kpoint 26">
       <r>  -40.9791    1.0000 </r>
       <r>  -40.8235    1.0000 </r>
       <r>  -40.7444    1.0000 </r>
       <r>    5.0750    1.0000 </r>
       <r>    7.1416    1.0000 </r>
       <r>    8.0553    1.0000 </r>
       <r>    9.1845    1.0000 </r>
       <r>    9.7390    1.0000 </r>
       <r>   12.1700    0.0000 </r>
       <r>   24.1743    0.0000 </r>
       <r>   27.1848    0.0000 </r>
       <r>   29.8112    0.0000 </r>
       <r>   32.6052    0.0000 </r>
       <r>   35.5566    0.0000 </r>
       <r>   39.2828    0.0000 </r>
       <r>   40.5926    0.0000 </r>
       <r>   41.9822    0.0000 </r>
       <r>   46.1506    0.0000 </r>
       <r>   47.7142    0.0000 </r>
       <r>   52.0545    0.0000 </r>
       <r>   52.5143    0.0000 </r>
       <r>   55.6361    0.0000 </r>
       <r>   57.5350    0.0000 </r>
       <r>   58.4148    0.0000 </r>
      </set>
      <set comment="kpoint 27">
       <r>  -40.9285    1.0000 </r>
       <r>  -40.7564    1.0000 </r>
       <r>  -40.7315    1.0000 </r>
       <r>    3.9789    1.0000 </r>
       <r>    7.4647    1.0000 </r>
       <r>    8.4276    1.0000 </r>
       <r>    8.6452    1.0000 </r>
       <r>    9.9958    1.0000 </r>
       <r>   10.9057    1.0000 </r>
       <r>   25.1779    0.0000 </r>
       <r>   28.3925    0.0000 </r>
       <r>   31.8708    0.0000 </r>
       <r>   33.3034    0.0000 </r>
       <r>   36.1044    0.0000 </r>
       <r>   36.9088    0.0000 </r>
       <r>   38.5327    0.0000 </r>
       <r>   43.3273    0.0000 </r>
       <r>   46.5655    0.0000 </r>
       <r>   48.8105    0.0000 </r>
       <r>   49.6846    0.0000 </r>
       <r>   52.5100    0.0000 </r>
       <r>   53.0291    0.0000 </r>
       <r>   56.3084    0.0000 </r>
       <r>   60.8370    0.0000 </r>
      </set>
      <set comment="kpoint 28">
       <r>  -41.0133    1.0000 </r>
       <r>  -40.8243    1.0000 </r>
       <r>  -40.8216    1.0000 </r>
       <r>    5.1518    1.0000 </r>
       <r>    5.9694    1.0000 </r>
       <r>    9.3047    1.0000 </r>
       <r>   10.5369    1.0000 </r>
       <r>   10.9567    1.0000 </r>
       <r>   11.4205    1.0000 </r>
       <r>   25.7273    0.0000 </r>
       <r>   26.4880    0.0000 </r>
       <r>   27.3304    0.0000 </r>
       <r>   31.0293    0.0000 </r>
       <r>   32.6412    0.0000 </r>
       <r>   40.4385    0.0000 </r>
       <r>   40.8481    0.0000 </r>
       <r>   42.9914    0.0000 </r>
       <r>   46.2769    0.0000 </r>
       <r>   49.2114    0.0000 </r>
       <r>   52.5079    0.0000 </r>
       <r>   54.6063    0.0000 </r>
       <r>   54.6589    0.0000 </r>
       <r>   55.3667    0.0000 </r>
       <r>   60.5106    0.0000 </r>
      </set>
      <set comment="kpoint 29">
       <r>  -41.0610    1.0000 </r>
       <r>  -40.8584    1.0000 </r>
       <r>  -40.8389    1.0000 </r>
       <r>    5.3322    1.0000 </r>
       <r>    5.8265    1.0000 </r>
       <r>    9.4389    1.0000 </r>
       <r>   10.9286    1.0000 </r>
       <r>   11.6253    1.0000 </r>
       <r>   12.8613    0.0000 </r>
       <r>   22.8713    0.0000 </r>
       <r>   24.9014    0.0000 </r>
       <r>   25.6960    0.0000 </r>
       <r>   32.0741    0.0000 </r>
       <r>   33.9290    0.0000 </r>
       <r>   40.0831    0.0000 </r>
       <r>   42.7059    0.0000 </r>
       <r>   44.1336    0.0000 </r>
       <r>   47.0948    0.0000 </r>
       <r>   48.2494    0.0000 </r>
       <r>   52.5097    0.0000 </r>
       <r>   53.1539    0.0000 </r>
       <r>   55.5681    0.0000 </r>
       <r>   57.1962    0.0000 </r>
       <r>   58.1585    0.0000 </r>
      </set>
      <set comment="kpoint 30">
       <r>  -41.0705    1.0000 </r>
       <r>  -40.9120    1.0000 </r>
       <r>  -40.8406    1.0000 </r>
       <r>    5.5635    1.0000 </r>
       <r>    6.1972    1.0000 </r>
       <r>    9.0225    1.0000 </r>
       <r>   10.5264    1.0000 </r>
       <r>   11.9440    0.0001 </r>
       <r>   15.7099    0.0000 </r>
       <r>   19.3783    0.0000 </r>
       <r>   23.6930    0.0000 </r>
       <r>   25.4884    0.0000 </r>
       <r>   32.1110    0.0000 </r>
       <r>   36.5870    0.0000 </r>
       <r>   39.2664    0.0000 </r>
       <r>   42.2664    0.0000 </r>
       <r>   46.3367    0.0000 </r>
       <r>   47.7576    0.0000 </r>
       <r>   48.5151    0.0000 </r>
       <r>   52.3546    0.0000 </r>
       <r>   52.5215    0.0000 </r>
       <r>   54.1557    0.0000 </r>
       <r>   56.6086    0.0000 </r>
       <r>   57.8064    0.0000 </r>
      </set>
      <set comment="kpoint 31">
       <r>  -41.0298    1.0000 </r>
       <r>  -40.9761    1.0000 </r>
       <r>  -40.8233    1.0000 </r>
       <r>    5.9498    1.0000 </r>
       <r>    6.8065    1.0000 </r>
       <r>    8.3543    1.0000 </r>
       <r>   10.0764    1.0000 </r>
       <r>   11.4752    1.0000 </r>
       <r>   16.7635    0.0000 </r>
       <r>   19.1962    0.0000 </r>
       <r>   21.9913    0.0000 </r>
       <r>   27.0787    0.0000 </r>
       <r>   31.4369    0.0000 </r>
       <r>   38.1322    0.0000 </r>
       <r>   39.8360    0.0000 </r>
       <r>   40.1654    0.0000 </r>
       <r>   47.0627    0.0000 </r>
       <r>   48.0885    0.0000 </r>
       <r>   50.9342    0.0000 </r>
       <r>   52.0773    0.0000 </r>
       <r>   52.4763    0.0000 </r>
       <r>   52.5274    0.0000 </r>
       <r>   55.5350    0.0000 </r>
       <r>   58.0683    0.0000 </r>
      </set>
      <set comment="kpoint 32">
       <r>  -41.0324    1.0000 </r>
       <r>  -40.9473    1.0000 </r>
       <r>  -40.7957    1.0000 </r>
       <r>    6.3129    1.0000 </r>
       <r>    7.1669    1.0000 </r>
       <r>    7.7153    1.0000 </r>
       <r>    9.5909    1.0000 </r>
       <r>   10.8974    1.0000 </r>
       <r>   15.1481    0.0000 </r>
       <r>   20.6909    0.0000 </r>
       <r>   22.8812    0.0000 </r>
       <r>   28.7635    0.0000 </r>
       <r>   31.1239    0.0000 </r>
       <r>   36.4631    0.0000 </r>
       <r>   39.3867    0.0000 </r>
       <r>   42.5122    0.0000 </r>
       <r>   45.8753    0.0000 </r>
       <r>   48.9580    0.0000 </r>
       <r>   49.8052    0.0000 </r>
       <r>   50.1890    0.0000 </r>
       <r>   52.5206    0.0000 </r>
       <r>   53.2734    0.0000 </r>
       <r>   54.8754    0.0000 </r>
       <r>   58.8381    0.0000 </r>
      </set>
      <set comment="kpoint 33">
       <r>  -41.0592    1.0000 </r>
       <r>  -40.8524    1.0000 </r>
       <r>  -40.7683    1.0000 </r>
       <r>    5.5621    1.0000 </r>
       <r>    7.5736    1.0000 </r>
       <r>    8.0317    1.0000 </r>
       <r>    8.9249    1.0000 </r>
       <r>   10.7724    1.0000 </r>
       <r>   13.5532    0.0000 </r>
       <r>   20.6221    0.0000 </r>
       <r>   26.4011    0.0000 </r>
       <r>   28.5683    0.0000 </r>
       <r>   32.2568    0.0000 </r>
       <r>   35.7905    0.0000 </r>
       <r>   39.6645    0.0000 </r>
       <r>   42.7448    0.0000 </r>
       <r>   43.4785    0.0000 </r>
       <r>   47.4979    0.0000 </r>
       <r>   48.7841    0.0000 </r>
       <r>   51.0144    0.0000 </r>
       <r>   52.5163    0.0000 </r>
       <r>   55.2393    0.0000 </r>
       <r>   56.6888    0.0000 </r>
       <r>   58.3781    0.0000 </r>
      </set>
      <set comment="kpoint 34">
       <r>  -41.0507    1.0000 </r>
       <r>  -40.7754    1.0000 </r>
       <r>  -40.7522    1.0000 </r>
       <r>    4.7237    1.0000 </r>
       <r>    8.0796    1.0000 </r>
       <r>    8.3556    1.0000 </r>
       <r>    8.4660    1.0000 </r>
       <r>   10.9311    1.0000 </r>
       <r>   11.8097    0.5405 </r>
       <r>   21.4713    0.0000 </r>
       <r>   27.2883    0.0000 </r>
       <r>   30.6029    0.0000 </r>
       <r>   32.9315    0.0000 </r>
       <r>   36.4554    0.0000 </r>
       <r>   38.4320    0.0000 </r>
       <r>   39.3147    0.0000 </r>
       <r>   43.8602    0.0000 </r>
       <r>   48.2400    0.0000 </r>
       <r>   50.0210    0.0000 </r>
       <r>   51.4746    0.0000 </r>
       <r>   52.5210    0.0000 </r>
       <r>   53.3905    0.0000 </r>
       <r>   56.7236    0.0000 </r>
       <r>   58.1786    0.0000 </r>
      </set>
      <set comment="kpoint 35">
       <r>  -41.0988    1.0000 </r>
       <r>  -40.8637    1.0000 </r>
       <r>  -40.8582    1.0000 </r>
       <r>    5.0082    1.0000 </r>
       <r>    5.4617    1.0000 </r>
       <r>   11.2273    1.0000 </r>
       <r>   11.5286    1.0000 </r>
       <r>   11.9880    0.0000 </r>
       <r>   12.9544    0.0000 </r>
       <r>   22.0444    0.0000 </r>
       <r>   23.8306    0.0000 </r>
       <r>   23.9715    0.0000 </r>
       <r>   31.6235    0.0000 </r>
       <r>   34.4256    0.0000 </r>
       <r>   40.4827    0.0000 </r>
       <r>   44.6095    0.0000 </r>
       <r>   45.1281    0.0000 </r>
       <r>   47.0284    0.0000 </r>
       <r>   48.8539    0.0000 </r>
       <r>   52.5080    0.0000 </r>
       <r>   54.1664    0.0000 </r>
       <r>   54.2107    0.0000 </r>
       <r>   55.1464    0.0000 </r>
       <r>   55.7037    0.0000 </r>
      </set>
      <set comment="kpoint 36">
       <r>  -41.1051    1.0000 </r>
       <r>  -40.8860    1.0000 </r>
       <r>  -40.8645    1.0000 </r>
       <r>    5.0991    1.0000 </r>
       <r>    5.5248    1.0000 </r>
       <r>   10.7216    1.0000 </r>
       <r>   11.4472    1.0000 </r>
       <r>   12.1935    0.0000 </r>
       <r>   15.1060    0.0000 </r>
       <r>   20.0584    0.0000 </r>
       <r>   22.8751    0.0000 </r>
       <r>   23.6960    0.0000 </r>
       <r>   32.6591    0.0000 </r>
       <r>   34.8700    0.0000 </r>
       <r>   39.8026    0.0000 </r>
       <r>   44.5946    0.0000 </r>
       <r>   47.2434    0.0000 </r>
       <r>   47.5155    0.0000 </r>
       <r>   49.2901    0.0000 </r>
       <r>   52.4809    0.0000 </r>
       <r>   52.5213    0.0000 </r>
       <r>   53.5135    0.0000 </r>
       <r>   53.8377    0.0000 </r>
       <r>   55.1160    0.0000 </r>
      </set>
      <set comment="kpoint 37">
       <r>  -41.0723    1.0000 </r>
       <r>  -40.9312    1.0000 </r>
       <r>  -40.8479    1.0000 </r>
       <r>    5.4927    1.0000 </r>
       <r>    6.0874    1.0000 </r>
       <r>    9.4057    1.0000 </r>
       <r>   10.7709    1.0000 </r>
       <r>   11.9319    0.0004 </r>
       <r>   17.0732    0.0000 </r>
       <r>   18.5997    0.0000 </r>
       <r>   22.2904    0.0000 </r>
       <r>   25.0982    0.0000 </r>
       <r>   32.5279    0.0000 </r>
       <r>   36.7169    0.0000 </r>
       <r>   39.0967    0.0000 </r>
       <r>   42.2372    0.0000 </r>
       <r>   47.5428    0.0000 </r>
       <r>   47.8047    0.0000 </r>
       <r>   49.9035    0.0000 </r>
       <r>   51.2171    0.0000 </r>
       <r>   52.5214    0.0000 </r>
       <r>   54.2409    0.0000 </r>
       <r>   55.0027    0.0000 </r>
       <r>   57.4498    0.0000 </r>
      </set>
      <set comment="kpoint 38">
       <r>  -41.0603    1.0000 </r>
       <r>  -40.9302    1.0000 </r>
       <r>  -40.8180    1.0000 </r>
       <r>    5.9088    1.0000 </r>
       <r>    6.8700    1.0000 </r>
       <r>    8.2927    1.0000 </r>
       <r>    9.7767    1.0000 </r>
       <r>   11.6564    1.0000 </r>
       <r>   17.2270    0.0000 </r>
       <r>   17.3320    0.0000 </r>
       <r>   23.9625    0.0000 </r>
       <r>   27.2126    0.0000 </r>
       <r>   30.9343    0.0000 </r>
       <r>   38.2344    0.0000 </r>
       <r>   39.9858    0.0000 </r>
       <r>   40.6725    0.0000 </r>
       <r>   46.2432    0.0000 </r>
       <r>   47.5337    0.0000 </r>
       <r>   49.9693    0.0000 </r>
       <r>   51.8729    0.0000 </r>
       <r>   52.5218    0.0000 </r>
       <r>   53.4903    0.0000 </r>
       <r>   56.4192    0.0000 </r>
       <r>   58.8352    0.0000 </r>
      </set>
      <set comment="kpoint 39">
       <r>  -41.1013    1.0000 </r>
       <r>  -40.8540    1.0000 </r>
       <r>  -40.7871    1.0000 </r>
       <r>    5.5096    1.0000 </r>
       <r>    7.3489    1.0000 </r>
       <r>    8.8139    1.0000 </r>
       <r>    8.8281    1.0000 </r>
       <r>   11.5786    1.0000 </r>
       <r>   15.2120    0.0000 </r>
       <r>   17.4801    0.0000 </r>
       <r>   26.4855    0.0000 </r>
       <r>   28.2439    0.0000 </r>
       <r>   30.1944    0.0000 </r>
       <r>   38.3477    0.0000 </r>
       <r>   39.6279    0.0000 </r>
       <r>   42.9011    0.0000 </r>
       <r>   45.7219    0.0000 </r>
       <r>   46.4997    0.0000 </r>
       <r>   49.2407    0.0000 </r>
       <r>   51.5996    0.0000 </r>
       <r>   52.2674    0.0000 </r>
       <r>   52.5205    0.0000 </r>
       <r>   57.4071    0.0000 </r>
       <r>   58.8314    0.0000 </r>
      </set>
      <set comment="kpoint 40">
       <r>  -41.1253    1.0000 </r>
       <r>  -40.7855    1.0000 </r>
       <r>  -40.7679    1.0000 </r>
       <r>    4.8266    1.0000 </r>
       <r>    7.8606    1.0000 </r>
       <r>    8.2401    1.0000 </r>
       <r>    9.8290    1.0000 </r>
       <r>   11.6936    0.9996 </r>
       <r>   12.9826    0.0000 </r>
       <r>   18.1103    0.0000 </r>
       <r>   26.5036    0.0000 </r>
       <r>   29.8292    0.0000 </r>
       <r>   30.8564    0.0000 </r>
       <r>   38.8426    0.0000 </r>
       <r>   39.8285    0.0000 </r>
       <r>   41.3099    0.0000 </r>
       <r>   45.2108    0.0000 </r>
       <r>   47.8530    0.0000 </r>
       <r>   48.0109    0.0000 </r>
       <r>   52.4178    0.0000 </r>
       <r>   52.5196    0.0000 </r>
       <r>   54.8248    0.0000 </r>
       <r>   56.9956    0.0000 </r>
       <r>   57.7688    0.0000 </r>
      </set>
      <set comment="kpoint 41">
       <r>  -41.1165    1.0000 </r>
       <r>  -40.8719    1.0000 </r>
       <r>  -40.8656    1.0000 </r>
       <r>    4.9140    1.0000 </r>
       <r>    5.3548    1.0000 </r>
       <r>   11.7098    0.9983 </r>
       <r>   11.7363    0.9853 </r>
       <r>   12.2131    0.0000 </r>
       <r>   13.9568    0.0000 </r>
       <r>   20.5744    0.0000 </r>
       <r>   23.1213    0.0000 </r>
       <r>   23.3726    0.0000 </r>
       <r>   31.9040    0.0000 </r>
       <r>   34.8220    0.0000 </r>
       <r>   40.1518    0.0000 </r>
       <r>   45.6486    0.0000 </r>
       <r>   47.1566    0.0000 </r>
       <r>   47.2581    0.0000 </r>
       <r>   49.6846    0.0000 </r>
       <r>   51.6452    0.0000 </r>
       <r>   52.1717    0.0000 </r>
       <r>   52.5184    0.0000 </r>
       <r>   54.9168    0.0000 </r>
       <r>   55.8491    0.0000 </r>
      </set>
      <set comment="kpoint 42">
       <r>  -41.0903    1.0000 </r>
       <r>  -40.8766    1.0000 </r>
       <r>  -40.8558    1.0000 </r>
       <r>    5.1965    1.0000 </r>
       <r>    5.6272    1.0000 </r>
       <r>   10.2074    1.0000 </r>
       <r>   11.3215    1.0000 </r>
       <r>   11.9700    0.0000 </r>
       <r>   14.0434    0.0000 </r>
       <r>   21.3089    0.0000 </r>
       <r>   23.6540    0.0000 </r>
       <r>   24.3478    0.0000 </r>
       <r>   32.3944    0.0000 </r>
       <r>   34.5392    0.0000 </r>
       <r>   39.9925    0.0000 </r>
       <r>   44.0959    0.0000 </r>
       <r>   45.3821    0.0000 </r>
       <r>   47.4430    0.0000 </r>
       <r>   48.7024    0.0000 </r>
       <r>   52.5094    0.0000 </r>
       <r>   53.0951    0.0000 </r>
       <r>   54.1275    0.0000 </r>
       <r>   55.5814    0.0000 </r>
       <r>   56.1551    0.0000 </r>
      </set>
      <set comment="kpoint 43">
       <r>  -41.0622    1.0000 </r>
       <r>  -40.8800    1.0000 </r>
       <r>  -40.8260    1.0000 </r>
       <r>    5.6359    1.0000 </r>
       <r>    6.4212    1.0000 </r>
       <r>    8.4710    1.0000 </r>
       <r>   10.1056    1.0000 </r>
       <r>   11.8747    0.0412 </r>
       <r>   14.2097    0.0000 </r>
       <r>   20.4485    0.0000 </r>
       <r>   25.5152    0.0000 </r>
       <r>   26.2674    0.0000 </r>
       <r>   31.5634    0.0000 </r>
       <r>   36.4338    0.0000 </r>
       <r>   39.3219    0.0000 </r>
       <r>   41.8324    0.0000 </r>
       <r>   45.1164    0.0000 </r>
       <r>   46.9773    0.0000 </r>
       <r>   48.4942    0.0000 </r>
       <r>   52.3102    0.0000 </r>
       <r>   52.5206    0.0000 </r>
       <r>   55.1790    0.0000 </r>
       <r>   57.3233    0.0000 </r>
       <r>   59.5513    0.0000 </r>
      </set>
      <set comment="kpoint 44">
       <r>  -41.0854    1.0000 </r>
       <r>  -40.8360    1.0000 </r>
       <r>  -40.7923    1.0000 </r>
       <r>    5.4428    1.0000 </r>
       <r>    7.3964    1.0000 </r>
       <r>    8.2584    1.0000 </r>
       <r>    8.9747    1.0000 </r>
       <r>   11.7826    0.8080 </r>
       <r>   13.8635    0.0000 </r>
       <r>   19.1104    0.0000 </r>
       <r>   27.1784    0.0000 </r>
       <r>   28.1088    0.0000 </r>
       <r>   30.4418    0.0000 </r>
       <r>   38.1250    0.0000 </r>
       <r>   40.4238    0.0000 </r>
       <r>   41.0797    0.0000 </r>
       <r>   42.8462    0.0000 </r>
       <r>   48.9513    0.0000 </r>
       <r>   49.1039    0.0000 </r>
       <r>   50.7234    0.0000 </r>
       <r>   52.5160    0.0000 </r>
       <r>   55.1326    0.0000 </r>
       <r>   56.5318    0.0000 </r>
       <r>   59.3303    0.0000 </r>
      </set>
      <set comment="kpoint 45">
       <r>  -41.0637    1.0000 </r>
       <r>  -40.8472    1.0000 </r>
       <r>  -40.8428    1.0000 </r>
       <r>    5.1386    1.0000 </r>
       <r>    5.6702    1.0000 </r>
       <r>   10.2919    1.0000 </r>
       <r>   11.1146    1.0000 </r>
       <r>   11.7004    0.9993 </r>
       <r>   11.8559    0.1146 </r>
       <r>   23.9756    0.0000 </r>
       <r>   25.0607    0.0000 </r>
       <r>   25.2665    0.0000 </r>
       <r>   31.2260    0.0000 </r>
       <r>   33.6695    0.0000 </r>
       <r>   40.9596    0.0000 </r>
       <r>   42.6641    0.0000 </r>
       <r>   43.2582    0.0000 </r>
       <r>   47.5108    0.0000 </r>
       <r>   48.0715    0.0000 </r>
       <r>   52.5042    0.0000 </r>
       <r>   54.8668    0.0000 </r>
       <r>   55.1436    0.0000 </r>
       <r>   57.1622    0.0000 </r>
       <r>   57.4641    0.0000 </r>
      </set>
      <set comment="kpoint 46">
       <r>  -41.0197    1.0000 </r>
       <r>  -40.8346    1.0000 </r>
       <r>  -40.8152    1.0000 </r>
       <r>    5.3456    1.0000 </r>
       <r>    6.1091    1.0000 </r>
       <r>    8.7090    1.0000 </r>
       <r>   10.3797    1.0000 </r>
       <r>   11.0994    1.0000 </r>
       <r>   11.9867    0.0000 </r>
       <r>   24.4258    0.0000 </r>
       <r>   26.3260    0.0000 </r>
       <r>   27.4468    0.0000 </r>
       <r>   31.9520    0.0000 </r>
       <r>   33.2730    0.0000 </r>
       <r>   39.5402    0.0000 </r>
       <r>   41.1091    0.0000 </r>
       <r>   44.0750    0.0000 </r>
       <r>   45.6091    0.0000 </r>
       <r>   49.1726    0.0000 </r>
       <r>   52.5073    0.0000 </r>
       <r>   53.4175    0.0000 </r>
       <r>   55.4184    0.0000 </r>
       <r>   55.7559    0.0000 </r>
       <r>   60.2062    0.0000 </r>
      </set>
      <set comment="kpoint 47">
       <r>  -41.0141    1.0000 </r>
       <r>  -40.8100    1.0000 </r>
       <r>  -40.7790    1.0000 </r>
       <r>    5.2127    1.0000 </r>
       <r>    7.0272    1.0000 </r>
       <r>    7.9456    1.0000 </r>
       <r>    9.2093    1.0000 </r>
       <r>   11.0575    1.0000 </r>
       <r>   11.9997    0.0000 </r>
       <r>   22.9882    0.0000 </r>
       <r>   28.0792    0.0000 </r>
       <r>   28.7420    0.0000 </r>
       <r>   31.6774    0.0000 </r>
       <r>   36.3613    0.0000 </r>
       <r>   38.3550    0.0000 </r>
       <r>   40.1002    0.0000 </r>
       <r>   42.5514    0.0000 </r>
       <r>   47.0466    0.0000 </r>
       <r>   49.7568    0.0000 </r>
       <r>   52.5104    0.0000 </r>
       <r>   52.7206    0.0000 </r>
       <r>   52.9971    0.0000 </r>
       <r>   56.5589    0.0000 </r>
       <r>   59.9841    0.0000 </r>
      </set>
      <set comment="kpoint 48">
       <r>  -40.9538    1.0000 </r>
       <r>  -40.7977    1.0000 </r>
       <r>  -40.7965    1.0000 </r>
       <r>    4.8102    1.0000 </r>
       <r>    6.3408    1.0000 </r>
       <r>    8.7635    1.0000 </r>
       <r>    9.9266    1.0000 </r>
       <r>   10.2010    1.0000 </r>
       <r>   11.1361    1.0000 </r>
       <r>   27.2451    0.0000 </r>
       <r>   28.0889    0.0000 </r>
       <r>   29.0625    0.0000 </r>
       <r>   31.2808    0.0000 </r>
       <r>   32.0339    0.0000 </r>
       <r>   39.1601    0.0000 </r>
       <r>   39.3784    0.0000 </r>
       <r>   44.1713    0.0000 </r>
       <r>   45.2552    0.0000 </r>
       <r>   49.2109    0.0000 </r>
       <r>   52.5049    0.0000 </r>
       <r>   53.0087    0.0000 </r>
       <r>   53.8626    0.0000 </r>
       <r>   54.5293    0.0000 </r>
       <r>   63.1536    0.0000 </r>
      </set>
      <set comment="kpoint 49">
       <r>  -40.9126    1.0000 </r>
       <r>  -40.7797    1.0000 </r>
       <r>  -40.7580    1.0000 </r>
       <r>    4.2823    1.0000 </r>
       <r>    6.8392    1.0000 </r>
       <r>    8.4710    1.0000 </r>
       <r>    9.3018    1.0000 </r>
       <r>    9.8291    1.0000 </r>
       <r>   11.0314    1.0000 </r>
       <r>   26.8168    0.0000 </r>
       <r>   28.9142    0.0000 </r>
       <r>   30.3117    0.0000 </r>
       <r>   31.1320    0.0000 </r>
       <r>   35.3047    0.0000 </r>
       <r>   37.6987    0.0000 </r>
       <r>   38.9066    0.0000 </r>
       <r>   43.4604    0.0000 </r>
       <r>   46.3027    0.0000 </r>
       <r>   47.7494    0.0000 </r>
       <r>   50.4209    0.0000 </r>
       <r>   52.5149    0.0000 </r>
       <r>   53.9421    0.0000 </r>
       <r>   55.9484    0.0000 </r>
       <r>   62.1274    0.0000 </r>
      </set>
      <set comment="kpoint 50">
       <r>  -40.8274    1.0000 </r>
       <r>  -40.7453    1.0000 </r>
       <r>  -40.7430    1.0000 </r>
       <r>    3.2805    1.0000 </r>
       <r>    7.1856    1.0000 </r>
       <r>    8.8032    1.0000 </r>
       <r>    8.8778    1.0000 </r>
       <r>    9.3585    1.0000 </r>
       <r>   10.6053    1.0000 </r>
       <r>   28.6536    0.0000 </r>
       <r>   28.8535    0.0000 </r>
       <r>   30.8403    0.0000 </r>
       <r>   31.3009    0.0000 </r>
       <r>   36.6759    0.0000 </r>
       <r>   38.1728    0.0000 </r>
       <r>   38.7420    0.0000 </r>
       <r>   43.8409    0.0000 </r>
       <r>   43.9375    0.0000 </r>
       <r>   47.5803    0.0000 </r>
       <r>   51.3617    0.0000 </r>
       <r>   51.6866    0.0000 </r>
       <r>   52.5140    0.0000 </r>
       <r>   54.8935    0.0000 </r>
       <r>   63.2175    0.0000 </r>
      </set>
      <set comment="kpoint 51">
       <r>  -40.7929    1.0000 </r>
       <r>  -40.7126    1.0000 </r>
       <r>  -40.7126    1.0000 </r>
       <r>    2.5525    1.0000 </r>
       <r>    7.7680    1.0000 </r>
       <r>    8.3607    1.0000 </r>
       <r>    8.3607    1.0000 </r>
       <r>   10.0897    1.0000 </r>
       <r>   10.0897    1.0000 </r>
       <r>   27.5966    0.0000 </r>
       <r>   28.1602    0.0000 </r>
       <r>   32.6159    0.0000 </r>
       <r>   32.6159    0.0000 </r>
       <r>   37.0476    0.0000 </r>
       <r>   39.7231    0.0000 </r>
       <r>   39.7231    0.0000 </r>
       <r>   41.5207    0.0000 </r>
       <r>   46.5840    0.0000 </r>
       <r>   46.5840    0.0000 </r>
       <r>   49.4193    0.0000 </r>
       <r>   52.5078    0.0000 </r>
       <r>   52.9902    0.0000 </r>
       <r>   52.9902    0.0000 </r>
       <r>   60.5607    0.0000 </r>
      </set>
      <set comment="kpoint 52">
       <r>  -40.8488    1.0000 </r>
       <r>  -40.7487    1.0000 </r>
       <r>  -40.7151    1.0000 </r>
       <r>    3.2554    1.0000 </r>
       <r>    7.4820    1.0000 </r>
       <r>    8.5085    1.0000 </r>
       <r>    8.6288    1.0000 </r>
       <r>    9.6461    1.0000 </r>
       <r>   10.5954    1.0000 </r>
       <r>   27.1812    0.0000 </r>
       <r>   28.3156    0.0000 </r>
       <r>   31.3896    0.0000 </r>
       <r>   34.1605    0.0000 </r>
       <r>   34.5985    0.0000 </r>
       <r>   39.2937    0.0000 </r>
       <r>   40.0935    0.0000 </r>
       <r>   42.5453    0.0000 </r>
       <r>   43.6469    0.0000 </r>
       <r>   47.6309    0.0000 </r>
       <r>   50.1020    0.0000 </r>
       <r>   52.5066    0.0000 </r>
       <r>   53.5069    0.0000 </r>
[...]
       <r>   42.9129    0.0000 </r>
       <r>   43.7803    0.0000 </r>
       <r>   47.6633    0.0000 </r>
       <r>   49.5566    0.0000 </r>
       <r>   50.4022    0.0000 </r>
       <r>   52.5180    0.0000 </r>
       <r>   53.7777    0.0000 </r>
       <r>   57.4168    0.0000 </r>
       <r>   58.8625    0.0000 </r>
      </set>
      <set comment="kpoint 107">
       <r>  -41.0594    1.0000 </r>
       <r>  -40.9255    1.0000 </r>
       <r>  -40.8142    1.0000 </r>
       <r>    6.2004    1.0000 </r>
       <r>    6.8949    1.0000 </r>
       <r>    8.0463    1.0000 </r>
       <r>    9.5688    1.0000 </r>
       <r>   11.5170    1.0000 </r>
       <r>   16.5123    0.0000 </r>
       <r>   18.0601    0.0000 </r>
       <r>   24.2859    0.0000 </r>
       <r>   26.9281    0.0000 </r>
       <r>   31.5173    0.0000 </r>
       <r>   37.2861    0.0000 </r>
       <r>   40.6138    0.0000 </r>
       <r>   42.0961    0.0000 </r>
       <r>   44.7470    0.0000 </r>
       <r>   46.6338    0.0000 </r>
       <r>   51.4407    0.0000 </r>
       <r>   52.0036    0.0000 </r>
       <r>   52.5013    0.0000 </r>
       <r>   52.5202    0.0000 </r>
       <r>   55.8525    0.0000 </r>
       <r>   58.3631    0.0000 </r>
      </set>
      <set comment="kpoint 108">
       <r>  -41.0950    1.0000 </r>
       <r>  -40.8667    1.0000 </r>
       <r>  -40.7954    1.0000 </r>
       <r>    5.6001    1.0000 </r>
       <r>    7.2512    1.0000 </r>
       <r>    8.5967    1.0000 </r>
       <r>    9.0061    1.0000 </r>
       <r>   11.7363    0.9853 </r>
       <r>   15.6766    0.0000 </r>
       <r>   17.2553    0.0000 </r>
       <r>   26.1205    0.0000 </r>
       <r>   29.0024    0.0000 </r>
       <r>   29.1885    0.0000 </r>
       <r>   39.0497    0.0000 </r>
       <r>   39.3335    0.0000 </r>
       <r>   42.1585    0.0000 </r>
       <r>   44.6571    0.0000 </r>
       <r>   48.0801    0.0000 </r>
       <r>   49.7205    0.0000 </r>
       <r>   50.5860    0.0000 </r>
       <r>   52.5172    0.0000 </r>
       <r>   53.2700    0.0000 </r>
       <r>   56.7518    0.0000 </r>
       <r>   59.4151    0.0000 </r>
      </set>
      <set comment="kpoint 109">
       <r>  -41.1358    1.0000 </r>
       <r>  -40.7624    1.0000 </r>
       <r>  -40.7624    1.0000 </r>
       <r>    4.5886    1.0000 </r>
       <r>    8.0463    1.0000 </r>
       <r>    8.0463    1.0000 </r>
       <r>   10.8973    1.0000 </r>
       <r>   11.7404    0.9804 </r>
       <r>   11.7404    0.9804 </r>
       <r>   18.1325    0.0000 </r>
       <r>   26.1160    0.0000 </r>
       <r>   30.8938    0.0000 </r>
       <r>   30.8938    0.0000 </r>
       <r>   39.5144    0.0000 </r>
       <r>   39.5144    0.0000 </r>
       <r>   40.4431    0.0000 </r>
       <r>   46.8581    0.0000 </r>
       <r>   46.8581    0.0000 </r>
       <r>   47.4355    0.0000 </r>
       <r>   52.5155    0.0000 </r>
       <r>   55.2642    0.0000 </r>
       <r>   55.2642    0.0000 </r>
       <r>   56.6324    0.0000 </r>
       <r>   57.2463    0.0000 </r>
      </set>
      <set comment="kpoint 110">
       <r>  -41.1307    1.0000 </r>
       <r>  -40.7953    1.0000 </r>
       <r>  -40.7709    1.0000 </r>
       <r>    4.9024    1.0000 </r>
       <r>    7.7840    1.0000 </r>
       <r>    8.2704    1.0000 </r>
       <r>    9.8792    1.0000 </r>
       <r>   11.7054    0.9989 </r>
       <r>   13.5912    0.0000 </r>
       <r>   17.5078    0.0000 </r>
       <r>   26.5175    0.0000 </r>
       <r>   29.5070    0.0000 </r>
       <r>   30.5210    0.0000 </r>
       <r>   39.2390    0.0000 </r>
       <r>   39.6251    0.0000 </r>
       <r>   42.0434    0.0000 </r>
       <r>   46.3063    0.0000 </r>
       <r>   47.1153    0.0000 </r>
       <r>   47.2403    0.0000 </r>
       <r>   52.5169    0.0000 </r>
       <r>   52.8569    0.0000 </r>
       <r>   53.4819    0.0000 </r>
       <r>   57.4974    0.0000 </r>
       <r>   58.0153    0.0000 </r>
      </set>
     </set>
    </set>
   </array>
  </eigenvalues>
  <separator name="orbital magnetization" >
   <v name="MAGDIPOLOUT">      0.00000000      0.00000000      0.00000000</v>
  </separator>
  <dos>
   <i name="efermi">     11.81334023 </i>
   <total>
    <array>
     <dimension dim="1">gridpoints</dimension>
     <dimension dim="2">spin</dimension>
     <field>energy</field>
     <field>total</field>
     <field>integrated</field>
     <set>
      <set comment="spin 1">
       <r>   -46.4060     0.0000     0.0000 </r>
       <r>   -46.0198     0.0000     0.0000 </r>
       <r>   -45.6337     0.0000     0.0000 </r>
       <r>   -45.2476     0.0000     0.0000 </r>
       <r>   -44.8615     0.0000     0.0000 </r>
       <r>   -44.4754     0.0000     0.0000 </r>
       <r>   -44.0893     0.0000     0.0000 </r>
       <r>   -43.7032     0.0000     0.0000 </r>
       <r>   -43.3171     0.0000     0.0000 </r>
       <r>   -42.9310     0.0000     0.0000 </r>
       <r>   -42.5449     0.0000     0.0000 </r>
       <r>   -42.1587     0.0000     0.0000 </r>
       <r>   -41.7726     0.0000     0.0000 </r>
       <r>   -41.3865     0.0000     0.0000 </r>
       <r>   -41.0004     3.8631     1.4916 </r>
       <r>   -40.6143    11.3669     5.9995 </r>
       <r>   -40.2282     0.0000     6.0000 </r>
       <r>   -39.8421     0.0000     6.0000 </r>
       <r>   -39.4560     0.0000     6.0000 </r>
       <r>   -39.0699     0.0000     6.0000 </r>
       <r>   -38.6838     0.0000     6.0000 </r>
       <r>   -38.2976     0.0000     6.0000 </r>
       <r>   -37.9115     0.0000     6.0000 </r>
       <r>   -37.5254     0.0000     6.0000 </r>
       <r>   -37.1393     0.0000     6.0000 </r>
       <r>   -36.7532     0.0000     6.0000 </r>
       <r>   -36.3671     0.0000     6.0000 </r>
       <r>   -35.9810     0.0000     6.0000 </r>
       <r>   -35.5949     0.0000     6.0000 </r>
       <r>   -35.2088     0.0000     6.0000 </r>
       <r>   -34.8226     0.0000     6.0000 </r>
       <r>   -34.4365     0.0000     6.0000 </r>
       <r>   -34.0504     0.0000     6.0000 </r>
       <r>   -33.6643     0.0000     6.0000 </r>
       <r>   -33.2782     0.0000     6.0000 </r>
       <r>   -32.8921     0.0000     6.0000 </r>
       <r>   -32.5060     0.0000     6.0000 </r>
       <r>   -32.1199     0.0000     6.0000 </r>
       <r>   -31.7338     0.0000     6.0000 </r>
       <r>   -31.3477     0.0000     6.0000 </r>
       <r>   -30.9615     0.0000     6.0000 </r>
       <r>   -30.5754     0.0000     6.0000 </r>
       <r>   -30.1893     0.0000     6.0000 </r>
       <r>   -29.8032     0.0000     6.0000 </r>
       <r>   -29.4171     0.0000     6.0000 </r>
       <r>   -29.0310     0.0000     6.0000 </r>
       <r>   -28.6449     0.0000     6.0000 </r>
       <r>   -28.2588     0.0000     6.0000 </r>
       <r>   -27.8727     0.0000     6.0000 </r>
       <r>   -27.4866     0.0000     6.0000 </r>
       <r>   -27.1004     0.0000     6.0000 </r>
       <r>   -26.7143     0.0000     6.0000 </r>
       <r>   -26.3282     0.0000     6.0000 </r>
       <r>   -25.9421     0.0000     6.0000 </r>
       <r>   -25.5560     0.0000     6.0000 </r>
       <r>   -25.1699     0.0000     6.0000 </r>
       <r>   -24.7838     0.0000     6.0000 </r>
       <r>   -24.3977     0.0000     6.0000 </r>
       <r>   -24.0116     0.0000     6.0000 </r>
       <r>   -23.6255     0.0000     6.0000 </r>
       <r>   -23.2393     0.0000     6.0000 </r>
       <r>   -22.8532     0.0000     6.0000 </r>
       <r>   -22.4671     0.0000     6.0000 </r>
       <r>   -22.0810     0.0000     6.0000 </r>
       <r>   -21.6949     0.0000     6.0000 </r>
       <r>   -21.3088     0.0000     6.0000 </r>
       <r>   -20.9227     0.0000     6.0000 </r>
       <r>   -20.5366     0.0000     6.0000 </r>
       <r>   -20.1505     0.0000     6.0000 </r>
       <r>   -19.7644     0.0000     6.0000 </r>
       <r>   -19.3782     0.0000     6.0000 </r>
       <r>   -18.9921     0.0000     6.0000 </r>
       <r>   -18.6060     0.0000     6.0000 </r>
       <r>   -18.2199     0.0000     6.0000 </r>
       <r>   -17.8338     0.0000     6.0000 </r>
       <r>   -17.4477     0.0000     6.0000 </r>
       <r>   -17.0616     0.0000     6.0000 </r>
       <r>   -16.6755     0.0000     6.0000 </r>
       <r>   -16.2894     0.0000     6.0000 </r>
       <r>   -15.9033     0.0000     6.0000 </r>
       <r>   -15.5171     0.0000     6.0000 </r>
       <r>   -15.1310     0.0000     6.0000 </r>
       <r>   -14.7449     0.0000     6.0000 </r>
       <r>   -14.3588     0.0000     6.0000 </r>
       <r>   -13.9727     0.0000     6.0000 </r>
       <r>   -13.5866     0.0000     6.0000 </r>
       <r>   -13.2005     0.0000     6.0000 </r>
       <r>   -12.8144     0.0000     6.0000 </r>
       <r>   -12.4283     0.0000     6.0000 </r>
       <r>   -12.0422     0.0000     6.0000 </r>
       <r>   -11.6560     0.0000     6.0000 </r>
       <r>   -11.2699     0.0000     6.0000 </r>
       <r>   -10.8838     0.0000     6.0000 </r>
       <r>   -10.4977     0.0000     6.0000 </r>
       <r>   -10.1116     0.0000     6.0000 </r>
       <r>    -9.7255     0.0000     6.0000 </r>
       <r>    -9.3394     0.0000     6.0000 </r>
       <r>    -8.9533     0.0000     6.0000 </r>
       <r>    -8.5672     0.0000     6.0000 </r>
       <r>    -8.1811     0.0000     6.0000 </r>
       <r>    -7.7949     0.0000     6.0000 </r>
       <r>    -7.4088     0.0000     6.0000 </r>
       <r>    -7.0227     0.0000     6.0000 </r>
       <r>    -6.6366     0.0000     6.0000 </r>
       <r>    -6.2505     0.0000     6.0000 </r>
       <r>    -5.8644     0.0000     6.0000 </r>
       <r>    -5.4783     0.0000     6.0000 </r>
       <r>    -5.0922     0.0000     6.0000 </r>
       <r>    -4.7061     0.0000     6.0000 </r>
       <r>    -4.3200     0.0000     6.0000 </r>
       <r>    -3.9338     0.0000     6.0000 </r>
       <r>    -3.5477     0.0000     6.0000 </r>
       <r>    -3.1616     0.0000     6.0000 </r>
       <r>    -2.7755     0.0000     6.0000 </r>
       <r>    -2.3894     0.0000     6.0000 </r>
       <r>    -2.0033     0.0000     6.0000 </r>
       <r>    -1.6172     0.0000     6.0000 </r>
       <r>    -1.2311     0.0000     6.0000 </r>
       <r>    -0.8450     0.0000     6.0000 </r>
       <r>    -0.4589     0.0000     6.0000 </r>
       <r>    -0.0727     0.0000     6.0000 </r>
       <r>     0.3134     0.0000     6.0000 </r>
       <r>     0.6995     0.0000     6.0000 </r>
       <r>     1.0856     0.0000     6.0000 </r>
       <r>     1.4717     0.0000     6.0000 </r>
       <r>     1.8578     0.0099     6.0038 </r>
       <r>     2.2439     0.0319     6.0163 </r>
       <r>     2.6300     0.0703     6.0434 </r>
       <r>     3.0161     0.0783     6.0742 </r>
       <r>     3.4023     0.0873     6.1079 </r>
       <r>     3.7884     0.1241     6.1559 </r>
       <r>     4.1745     0.1768     6.2243 </r>
       <r>     4.5606     0.2048     6.3071 </r>
       <r>     4.9467     0.5818     6.5317 </r>
       <r>     5.3328     0.8977     6.8855 </r>
       <r>     5.7189     1.3754     7.4291 </r>
       <r>     6.1050     1.2573     7.9381 </r>
       <r>     6.4911     1.2551     8.4308 </r>
       <r>     6.8772     0.9537     8.8058 </r>
       <r>     7.2634     1.3524     9.3366 </r>
       <r>     7.6495     1.3589     9.8716 </r>
       <r>     8.0356     1.6129    10.5028 </r>
       <r>     8.4217     2.0742    11.3048 </r>
       <r>     8.8078     1.7754    12.0010 </r>
       <r>     9.1939     1.2041    12.4703 </r>
       <r>     9.5800     1.2120    12.9463 </r>
       <r>     9.9661     1.6254    13.5839 </r>
       <r>    10.3522     1.1929    14.0561 </r>
       <r>    10.7383     1.0119    14.4605 </r>
       <r>    11.1245     1.3027    14.9762 </r>
       <r>    11.5106     1.3240    15.4943 </r>
       <r>    11.8967     1.7470    16.1873 </r>
       <r>    12.2828     1.0556    16.6314 </r>
       <r>    12.6689     0.1531    16.6911 </r>
       <r>    13.0550     0.4647    16.8715 </r>
       <r>    13.4411     0.1237    16.9197 </r>
       <r>    13.8272     0.2878    17.0311 </r>
       <r>    14.2133     0.3127    17.1528 </r>
       <r>    14.5994     0.3147    17.2768 </r>
       <r>    14.9856     0.1245    17.3281 </r>
       <r>    15.3717     0.3724    17.4719 </r>
       <r>    15.7578     0.2123    17.5540 </r>
       <r>    16.1439     0.2267    17.6438 </r>
       <r>    16.5300     0.2337    17.7385 </r>
       <r>    16.9161     0.1533    17.8072 </r>
       <r>    17.3022     0.2513    17.9043 </r>
       <r>    17.6883     0.4377    18.0812 </r>
       <r>    18.0744     0.2022    18.1623 </r>
       <r>    18.4605     0.3641    18.3187 </r>
       <r>    18.8467     0.2877    18.4298 </r>
       <r>    19.2328     0.3214    18.5601 </r>
       <r>    19.6189     0.3773    18.7137 </r>
       <r>    20.0050     0.1348    18.7658 </r>
       <r>    20.3911     0.3871    18.9158 </r>
       <r>    20.7772     0.4003    19.0718 </r>
       <r>    21.1633     0.1244    19.1200 </r>
       <r>    21.5494     0.2407    19.2130 </r>
       <r>    21.9355     0.4744    19.3965 </r>
       <r>    22.3216     0.4143    19.5634 </r>
       <r>    22.7078     0.1840    19.6391 </r>
       <r>    23.0939     0.4999    19.8336 </r>
       <r>    23.4800     0.2349    19.9287 </r>
       <r>    23.8661     0.4928    20.1190 </r>
       <r>    24.2522     0.5158    20.3284 </r>
       <r>    24.6383     0.4363    20.4973 </r>
       <r>    25.0244     0.4689    20.6851 </r>
       <r>    25.4105     0.4226    20.8534 </r>
       <r>    25.7966     0.6439    21.1021 </r>
       <r>    26.1827     0.3993    21.2584 </r>
       <r>    26.5689     0.8629    21.5993 </r>
       <r>    26.9550     0.4506    21.7790 </r>
       <r>    27.3411     0.9888    22.1730 </r>
       <r>    27.7272     0.5485    22.3916 </r>
       <r>    28.1133     0.6631    22.6544 </r>
       <r>    28.4994     0.5441    22.8727 </r>
       <r>    28.8855     0.7702    23.1701 </r>
       <r>    29.2716     0.5217    23.3768 </r>
       <r>    29.6577     0.2908    23.4892 </r>
       <r>    30.0438     0.2927    23.6022 </r>
       <r>    30.4300     0.5177    23.8042 </r>
       <r>    30.8161     0.5444    24.0165 </r>
       <r>    31.2022     0.5896    24.2524 </r>
       <r>    31.5883     0.9058    24.6073 </r>
       <r>    31.9744     0.6738    24.8844 </r>
       <r>    32.3605     0.6313    25.1424 </r>
       <r>    32.7466     0.7855    25.4468 </r>
       <r>    33.1327     0.5055    25.6426 </r>
       <r>    33.5188     0.4398    25.8141 </r>
       <r>    33.9049     0.3146    25.9379 </r>
       <r>    34.2911     0.2900    26.0499 </r>
       <r>    34.6772     0.4606    26.2302 </r>
       <r>    35.0633     0.3362    26.3711 </r>
       <r>    35.4494     0.5471    26.5824 </r>
       <r>    35.8355     0.4021    26.7377 </r>
       <r>    36.2216     0.3910    26.8942 </r>
       <r>    36.6077     0.8389    27.2182 </r>
       <r>    36.9938     0.5243    27.4395 </r>
       <r>    37.3799     0.5018    27.6340 </r>
       <r>    37.7661     0.3314    27.7643 </r>
       <r>    38.1522     0.5547    27.9809 </r>
       <r>    38.5383     0.9360    28.3563 </r>
       <r>    38.9244     0.5313    28.5691 </r>
       <r>    39.3105     1.2597    29.0671 </r>
       <r>    39.6966     1.1478    29.5240 </r>
       <r>    40.0827     1.0638    29.9476 </r>
       <r>    40.4688     0.8998    30.3030 </r>
       <r>    40.8549     0.7944    30.6202 </r>
       <r>    41.2410     0.7751    30.9197 </r>
       <r>    41.6272     0.3856    31.0798 </r>
       <r>    42.0133     0.3428    31.2197 </r>
       <r>    42.3994     0.9707    31.6011 </r>
       <r>    42.7855     0.7348    31.9002 </r>
       <r>    43.1716     0.9491    32.2737 </r>
       <r>    43.5577     0.7837    32.5809 </r>
       <r>    43.9438     0.6390    32.8324 </r>
       <r>    44.3299     0.5952    33.0625 </r>
       <r>    44.7160     0.9482    33.4351 </r>
       <r>    45.1021     0.3006    33.5575 </r>
       <r>    45.4883     0.5529    33.7720 </r>
       <r>    45.8744     0.6126    34.0087 </r>
       <r>    46.2605     0.5743    34.2478 </r>
       <r>    46.6466     0.8857    34.5977 </r>
       <r>    47.0327     0.5743    34.8216 </r>
       <r>    47.4188     0.8231    35.1470 </r>
       <r>    47.8049     1.3800    35.6798 </r>
       <r>    48.1910     0.9404    36.0482 </r>
       <r>    48.5771     1.2327    36.5245 </r>
       <r>    48.9632     0.8233    36.8460 </r>
       <r>    49.3494     1.1494    37.2927 </r>
       <r>    49.7355     0.8873    37.6449 </r>
       <r>    50.1216     0.7336    37.9370 </r>
       <r>    50.5077     0.9358    38.3034 </r>
       <r>    50.8938     0.4979    38.4965 </r>
       <r>    51.2799     0.6056    38.7326 </r>
       <r>    51.6660     0.7438    39.0243 </r>
       <r>    52.0521     0.7946    39.3417 </r>
       <r>    52.4382     0.9480    39.7159 </r>
       <r>    52.8243     5.7868    41.9652 </r>
       <r>    53.2105     0.8874    42.3173 </r>
       <r>    53.5966     0.9421    42.6911 </r>
       <r>    53.9827     0.7064    42.9644 </r>
       <r>    54.3688     0.9627    43.3411 </r>
       <r>    54.7549     0.5120    43.5476 </r>
       <r>    55.1410     0.9128    43.9029 </r>
       <r>    55.5271     0.7374    44.1962 </r>
       <r>    55.9132     0.8251    44.5170 </r>
       <r>    56.2993     0.9660    44.8969 </r>
       <r>    56.6854     0.8459    45.2340 </r>
       <r>    57.0716     0.8066    45.5530 </r>
       <r>    57.4577     0.9538    45.9255 </r>
       <r>    57.8438     0.6588    46.1849 </r>
       <r>    58.2299     0.9037    46.5379 </r>
       <r>    58.6160     0.6664    46.7983 </r>
       <r>    59.0021     0.5357    47.0079 </r>
       <r>    59.3882     0.6997    47.2781 </r>
       <r>    59.7743     0.4111    47.4480 </r>
       <r>    60.1604     0.3777    47.5939 </r>
       <r>    60.5465     0.1863    47.6673 </r>
       <r>    60.9327     0.1928    47.7439 </r>
       <r>    61.3188     0.2476    47.8396 </r>
       <r>    61.7049     0.1667    47.9040 </r>
       <r>    62.0910     0.0405    47.9196 </r>
       <r>    62.4771     0.1149    47.9640 </r>
       <r>    62.8632     0.0000    47.9640 </r>
       <r>    63.2493     0.0563    47.9857 </r>
       <r>    63.6354     0.0000    47.9880 </r>
       <r>    64.0215     0.0000    47.9880 </r>
       <r>    64.4076     0.0311    48.0000 </r>
       <r>    64.7938     0.0000    48.0000 </r>
       <r>    65.1799     0.0000    48.0000 </r>
       <r>    65.5660     0.0000    48.0000 </r>
       <r>    65.9521     0.0000    48.0000 </r>
       <r>    66.3382     0.0000    48.0000 </r>
       <r>    66.7243     0.0000    48.0000 </r>
       <r>    67.1104     0.0000    48.0000 </r>
       <r>    67.4965     0.0000    48.0000 </r>
       <r>    67.8826     0.0000    48.0000 </r>
       <r>    68.2687     0.0000    48.0000 </r>
       <r>    68.6549     0.0000    48.0000 </r>
       <r>    69.0410     0.0000    48.0000 </r>
       <r>    69.4271     0.0000    48.0000 </r>
      </set>
     </set>
    </array>
   </total>
  </dos>
 </calculation>
 <structure name="finalpos" >
  <crystal>
   <varray name="basis" >
    <v>       0.00000000       1.97000000       1.97000000 </v>
    <v>       1.97000000       0.00000000       1.97000000 </v>
    <v>       1.97000000       1.97000000       0.00000000 </v>
   </varray>
   <i name="volume">     15.29074600 </i>
   <varray name="rec_basis" >
    <v>      -0.25380711       0.25380711       0.25380711 </v>
    <v>       0.25380711      -0.25380711       0.25380711 </v>
    <v>       0.25380711       0.25380711      -0.25380711 </v>
   </varray>
  </crystal>
  <varray name="positions" >
   <v>       0.00000000       0.00000000       0.00000000 </v>
  </varray>
 </structure>
</modeling>
