    2    2  100    2
  0.1045232E+02  0.2464270E-09  0.2464270E-09  0.3974984E-09  0.5000000E-15
  1.000000000000000E-004
  CAR 
 Co-hcc                                  
     18     95     24
 
  0.0000000E+00  0.0000000E+00  0.0000000E+00  0.8680556E-03
      1          1.665237        1.666379   1.000000   1.000000
      2          5.482614        6.422552   1.000000   1.000000
      3          8.132512        9.755341   1.000000   1.000000
      4          8.138780        9.758395   1.000000   1.000000
      5          8.138780        9.758396   1.000000   1.000000
      6          8.473581       10.148542   1.000000   1.000000
      7          8.473581       10.148542   1.000000   1.000000
      8          8.839434       10.576433   1.000000   1.000000
      9          8.839434       10.576433   1.000000   1.000000
     10         10.013118       10.676013   1.000000   0.996248
     11         10.013119       11.868679   1.000000   0.000000
     12         10.731625       11.868680   0.864471   0.000000
     13         17.516988       18.529408   0.000000   0.000000
     14         33.055121       32.785297   0.000000   0.000000
     15         35.970637       36.143406   0.000000   0.000000
     16         35.970638       36.324700   0.000000   0.000000
     17         36.290839       36.324701   0.000000   0.000000
     18         36.717813       36.493407   0.000000   0.000000
     19         37.285806       37.585314   0.000000   0.000000
     20         37.285806       37.585318   0.000000   0.000000
     21         41.807412       41.752260   0.000000   0.000000
     22         41.807413       41.752262   0.000000   0.000000
     23         42.917538       42.938108   0.000000   0.000000
     24         43.255459       43.169104   0.000000   0.000000
 
  0.8333333E-01  0.6938894E-17  0.0000000E+00  0.5208333E-02
      1          1.914988        1.917118   1.000000   1.000000
      2          5.632381        6.592147   1.000000   1.000000
      3          7.893129        9.467473   1.000000   1.000000
      4          8.257922        9.888983   1.000000   1.000000
      5          8.336911        9.935746   1.000000   1.000000
      6          8.425663        9.984646   1.000000   1.000000
      7          8.578679       10.084447   1.000000   1.000000
      8          8.679777       10.263672   1.000000   1.000000
      9          8.764176       10.489036   1.000000   1.000000
     10          9.196941       10.521522   1.000000   1.000000
     11         10.045525       11.906955   1.000000   0.000000
     12         11.873909       12.814728   0.000000   0.000000
     13         17.557147       18.547049   0.000000   0.000000
     14         31.311168       31.389886   0.000000   0.000000
     15         33.694716       33.769936   0.000000   0.000000
     16         33.779356       34.111142   0.000000   0.000000
     17         36.731524       36.523044   0.000000   0.000000
     18         37.224569       37.178296   0.000000   0.000000
     19         38.622561       38.504927   0.000000   0.000000
     20         39.695981       39.993449   0.000000   0.000000
     21         40.466000       40.702737   0.000000   0.000000
     22         41.317336       41.335672   0.000000   0.000000
     23         42.489238       42.768077   0.000000   0.000000
     24         42.742645       43.036384   0.000000   0.000000
 
  0.1666667E+00  0.1387779E-16  0.0000000E+00  0.5208333E-02
      1          2.636268        2.645875   1.000000   1.000000
      2          6.001487        7.025762   1.000000   1.000000
      3          7.602539        9.019871   1.000000   1.000000
      4          7.935647        9.095970   1.000000   1.000000
      5          8.245699        9.852885   1.000000   1.000000
      6          8.578804       10.260291   1.000000   1.000000
      7          8.594856       10.275202   1.000000   1.000000
      8          8.658521       10.333677   1.000000   1.000000
      9          8.804567       10.354459   1.000000   1.000000
     10          8.873932       10.588011   1.000000   1.000000
     11         10.114693       11.987721   1.000000   0.000000
     12         13.520672       14.363154   0.000000   0.000000
     13         17.698483       18.617869   0.000000   0.000000
     14         27.498940       27.831321   0.000000   0.000000
     15         31.323929       31.634742   0.000000   0.000000
     16         32.726652       32.816325   0.000000   0.000000
     17         34.653557       34.665412   0.000000   0.000000
     18         36.841525       36.626095   0.000000   0.000000
     19         37.829746       37.954323   0.000000   0.000000
     20         40.112844       40.438806   0.000000   0.000000
     21         40.523368       40.634924   0.000000   0.000000
     22         41.359184       41.626346   0.000000   0.000000
     23         41.853438       42.125902   0.000000   0.000000
     24         43.581536       44.136852   0.000000   0.000000
 
  0.2500000E+00  0.2775558E-16  0.0000000E+00  0.5208333E-02
      1          3.722436        3.770226   1.000000   1.000000
      2          6.291068        7.439585   1.000000   1.000000
      3          7.174297        8.289790   1.000000   1.000000
      4          7.428792        8.778062   1.000000   1.000000
      5          8.152134        9.699395   1.000000   1.000000
      6          8.356140       10.020144   1.000000   1.000000
      7          8.595815       10.131139   1.000000   1.000000
      8          9.083300       10.798103   1.000000   0.217795
      9          9.108787       10.804597   1.000000   0.167688
     10          9.298565       11.056525   1.000000   0.000000
     11         10.180235       12.063190   1.000000   0.000000
     12         15.370705       16.126744   0.000000   0.000000
     13         17.969171       18.764169   0.000000   0.000000
     14         23.751864       24.225629   0.000000   0.000000
     15         29.189750       29.462808   0.000000   0.000000
     16         31.272676       31.407610   0.000000   0.000000
     17         31.532798       31.752863   0.000000   0.000000
     18         35.680502       35.677180   0.000000   0.000000
     19         35.832975       36.146242   0.000000   0.000000
     20         39.875398       40.057647   0.000000   0.000000
     21         39.883141       40.268876   0.000000   0.000000
     22         40.657072       40.736441   0.000000   0.000000
     23         41.902654       42.091276   0.000000   0.000000
     24         44.802231       45.161162   0.000000   0.000000
 
  0.3333333E+00  0.2775558E-16  0.0000000E+00  0.5208333E-02
      1          4.892534        5.101110   1.000000   1.000000
      2          6.212801        7.452245   1.000000   1.000000
      3          6.617774        7.771699   1.000000   1.000000
      4          7.552122        8.678767   1.000000   1.000000
      5          8.155803        9.791816   1.000000   1.000000
      6          8.285018        9.807985   1.000000   1.000000
      7          8.412102        9.912280   1.000000   1.000000
      8          9.603636       11.394488   1.000000   0.000000
      9          9.759098       11.485311   1.000000   0.000000
     10          9.828516       11.567726   1.000000   0.000000
     11         10.225243       12.114337   1.000000   0.000000
     12         17.380255       18.040929   0.000000   0.000000
     13         17.988399       18.632929   0.000000   0.000000
     14         20.877636       21.484720   0.000000   0.000000
     15         27.492303       27.712202   0.000000   0.000000
     16         28.170376       28.440141   0.000000   0.000000
     17         29.300441       29.674043   0.000000   0.000000
     18         34.148384       34.543803   0.000000   0.000000
     19         34.687079       34.603927   0.000000   0.000000
     20         38.044123       38.398220   0.000000   0.000000
     21         39.432471       39.665254   0.000000   0.000000
     22         41.486019       41.653184   0.000000   0.000000
     23         43.711175       43.875663   0.000000   0.000000
     24         45.757493       46.205742   0.000000   0.000000
 
  0.4166667E+00  0.2775558E-16  0.0000000E+00  0.5208333E-02
      1          5.636601        6.250973   1.000000   1.000000
      2          6.019296        7.229146   1.000000   1.000000
      3          6.283567        7.465094   1.000000   1.000000
      4          7.942379        8.748604   1.000000   1.000000
      5          8.019063        9.636469   1.000000   1.000000
      6          8.282683        9.754342   1.000000   1.000000
      7          8.498553       10.044421   1.000000   1.000000
      8          9.993150       11.840657   1.000000   0.000000
      9         10.140449       11.999071   1.000000   0.000000
     10         10.249463       12.141556   1.000000   0.000000
     11         10.993609       12.479436   0.000000   0.000000
     12         16.056926       16.824835   0.000000   0.000000
     13         19.451791       19.994880   0.000000   0.000000
     14         20.788580       21.295397   0.000000   0.000000
     15         25.457773       25.874495   0.000000   0.000000
     16         26.373750       26.540507   0.000000   0.000000
     17         26.680999       27.162317   0.000000   0.000000
     18         33.623565       33.744050   0.000000   0.000000
     19         33.897286       34.077181   0.000000   0.000000
     20         36.843094       37.160921   0.000000   0.000000
     21         39.178639       39.442201   0.000000   0.000000
     22         42.009175       42.259343   0.000000   0.000000
     23         46.184141       46.349966   0.000000   0.000000
     24         46.223161       46.721527   0.000000   0.000000
 
  0.5000000E+00  0.5551115E-16  0.0000000E+00  0.2604167E-02
      1          5.855024        6.763741   1.000000   1.000000
      2          5.905996        7.038574   1.000000   1.000000
      3          6.172238        7.363724   1.000000   1.000000
      4          7.970752        8.859661   1.000000   1.000000
      5          8.202545        9.581678   1.000000   1.000000
      6          8.236109        9.697041   1.000000   1.000000
      7          8.579351       10.138167   1.000000   1.000000
      8         10.133995       12.000987   1.000000   0.000000
      9         10.256831       12.149773   1.000000   0.000000
     10         10.294811       12.178258   1.000000   0.000000
     11         12.190079       13.431695   0.000000   0.000000
     12         14.288963       15.264715   0.000000   0.000000
     13         20.802744       21.226356   0.000000   0.000000
     14         21.496651       21.883317   0.000000   0.000000
     15         23.896169       24.443174   0.000000   0.000000
     16         25.261895       25.824579   0.000000   0.000000
     17         25.978949       26.122105   0.000000   0.000000
     18         33.496913       33.462996   0.000000   0.000000
     19         33.621988       33.954962   0.000000   0.000000
     20         36.425112       36.727857   0.000000   0.000000
     21         39.096432       39.370343   0.000000   0.000000
     22         42.204185       42.488115   0.000000   0.000000
     23         46.350767       46.788898   0.000000   0.000000
     24         47.345486       48.695307   0.000000   0.000000
 
  0.8333333E-01  0.8333333E-01  0.0000000E+00  0.5208333E-02
      1          2.401458        2.407444   1.000000   1.000000
      2          5.898063        6.898581   1.000000   1.000000
      3          7.663742        9.186257   1.000000   1.000000
      4          8.193627        9.261002   1.000000   1.000000
      5          8.314861        9.938067   1.000000   1.000000
      6          8.501738       10.155999   1.000000   1.000000
      7          8.502991       10.170118   1.000000   1.000000
      8          8.550389       10.233933   1.000000   1.000000
      9          8.811974       10.508792   1.000000   1.000000
     10          8.929626       10.515822   1.000000   1.000000
     11         10.086009       11.954022   1.000000   0.000000
     12         13.059605       13.927414   0.000000   0.000000
     13         17.649985       18.593457   0.000000   0.000000
     14         29.228491       29.446465   0.000000   0.000000
     15         30.047021       30.389776   0.000000   0.000000
     16         35.283629       35.342463   0.000000   0.000000
     17         36.162080       36.059917   0.000000   0.000000
     18         36.324351       36.219270   0.000000   0.000000
     19         36.512882       36.563507   0.000000   0.000000
     20         39.788517       39.947908   0.000000   0.000000
     21         40.846118       41.282678   0.000000   0.000000
     22         41.437097       41.904172   0.000000   0.000000
     23         43.415863       43.537611   0.000000   0.000000
     24         43.892142       44.045292   0.000000   0.000000
 
  0.1666667E+00  0.8333333E-01  0.0000000E+00  0.1041667E-01
      1          3.314606        3.339267   1.000000   1.000000
      2          6.274587        7.361493   1.000000   1.000000
      3          7.376639        8.548605   1.000000   1.000000
      4          7.455135        8.807668   1.000000   1.000000
      5          8.191100        9.761724   1.000000   1.000000
      6          8.314917        9.948982   1.000000   1.000000
      7          8.767748       10.362139   1.000000   1.000000
      8          8.770180       10.461860   1.000000   1.000000
      9          8.946303       10.643197   1.000000   0.999842
     10          9.249072       10.979639   1.000000   0.000000
     11         10.136005       12.011753   1.000000   0.000000
     12         14.704015       15.495200   0.000000   0.000000
     13         17.878809       18.725474   0.000000   0.000000
     14         25.663666       26.057950   0.000000   0.000000
     15         27.925856       28.261783   0.000000   0.000000
     16         32.971905       33.004549   0.000000   0.000000
     17         34.032770       34.191833   0.000000   0.000000
     18         35.065710       35.084527   0.000000   0.000000
     19         36.764455       36.931036   0.000000   0.000000
     20         38.299700       38.757820   0.000000   0.000000
     21         39.950037       39.986780   0.000000   0.000000
     22         42.070430       42.545467   0.000000   0.000000
     23         43.487586       43.663503   0.000000   0.000000
     24         43.958795       44.172183   0.000000   0.000000
 
  0.2500000E+00  0.8333333E-01  0.0000000E+00  0.1041667E-01
      1          4.482905        4.588286   1.000000   1.000000
      2          6.389836        7.603257   1.000000   1.000000
      3          6.846507        7.985796   1.000000   1.000000
      4          7.306510        8.571395   1.000000   1.000000
      5          8.117912        9.712248   1.000000   1.000000
      6          8.207627        9.733255   1.000000   1.000000
      7          8.563667       10.127162   1.000000   1.000000
      8          9.191162       10.911170   1.000000   0.000035
      9          9.473603       11.233036   1.000000   0.000000
     10          9.843909       11.579720   1.000000   0.000000
     11         10.178226       12.060096   1.000000   0.000000
     12         16.593957       17.301194   0.000000   0.000000
     13         18.214801       18.914745   0.000000   0.000000
     14         22.177876       22.708950   0.000000   0.000000
     15         26.347424       26.671401   0.000000   0.000000
     16         29.790388       29.975435   0.000000   0.000000
     17         31.347707       31.663205   0.000000   0.000000
     18         33.783749       33.809255   0.000000   0.000000
     19         36.136284       36.463946   0.000000   0.000000
     20         36.588819       36.963297   0.000000   0.000000
     21         40.596579       40.619445   0.000000   0.000000
     22         43.380223       43.572449   0.000000   0.000000
     23         43.643830       43.845921   0.000000   0.000000
     24         44.631110       44.980078   0.000000   0.000000
 
  0.3333333E+00  0.8333333E-01  0.0000000E+00  0.1041667E-01
      1          5.489108        5.877462   1.000000   1.000000
      2          6.204835        7.443820   1.000000   1.000000
      3          6.431949        7.609286   1.000000   1.000000
      4          7.560002        8.571625   1.000000   1.000000
      5          7.990296        9.566264   1.000000   1.000000
      6          8.362369        9.880947   1.000000   1.000000
      7          8.411225        9.947251   1.000000   1.000000
      8          9.717588       11.488076   1.000000   0.000000
      9          9.924247       11.744042   1.000000   0.000000
     10         10.204483       12.089769   1.000000   0.000000
     11         10.685435       12.311848   0.991960   0.000000
     12         17.436338       18.090419   0.000000   0.000000
     13         18.641780       19.249520   0.000000   0.000000
     14         20.562392       21.137663   0.000000   0.000000
     15         25.116591       25.408936   0.000000   0.000000
     16         26.881410       27.214679   0.000000   0.000000
     17         28.365272       28.773628   0.000000   0.000000
     18         32.841447       32.846131   0.000000   0.000000
     19         35.434564       35.758995   0.000000   0.000000
     20         35.548699       35.934679   0.000000   0.000000
     21         40.674136       40.760842   0.000000   0.000000
     22         43.708541       43.928712   0.000000   0.000000
     23         45.304642       45.483443   0.000000   0.000000
     24         46.062766       46.535450   0.000000   0.000000
 
  0.4166667E+00  0.8333333E-01  0.0000000E+00  0.1041667E-01
      1          5.912707        6.738235   1.000000   1.000000
      2          6.046020        7.213585   1.000000   1.000000
      3          6.223837        7.422589   1.000000   1.000000
      4          7.939275        8.697190   1.000000   1.000000
      5          7.949023        9.526289   1.000000   1.000000
      6          8.228953        9.699890   1.000000   1.000000
      7          8.574823       10.136632   1.000000   1.000000
      8         10.093645       11.942064   1.000000   0.000000
      9         10.168322       12.024265   1.000000   0.000000
     10         10.216092       12.102716   1.000000   0.000000
     11         12.014906       13.312555   0.000000   0.000000
     12         15.071226       15.961147   0.000000   0.000000
     13         20.599497       21.077803   0.000000   0.000000
     14         21.404260       21.828446   0.000000   0.000000
     15         24.301734       24.603616   0.000000   0.000000
     16         24.498855       24.987164   0.000000   0.000000
     17         26.105479       26.560000   0.000000   0.000000
     18         32.349141       32.338475   0.000000   0.000000
     19         34.831415       35.146900   0.000000   0.000000
     20         35.241967       35.632973   0.000000   0.000000
     21         40.579734       40.702565   0.000000   0.000000
     22         43.931663       44.207098   0.000000   0.000000
     23         46.375666       46.841050   0.000000   0.000000
     24         47.357417       47.937615   0.000000   0.000000
 
  0.1666667E+00  0.1666667E+00  0.0000000E+00  0.5208333E-02
      1          4.338510        4.410660   1.000000   1.000000
      2          6.579577        7.741824   1.000000   1.000000
      3          6.966719        8.096918   1.000000   1.000000
      4          7.067593        8.423799   1.000000   1.000000
      5          8.044306        9.629537   1.000000   1.000000
      6          8.202731        9.735118   1.000000   1.000000
      7          8.661285       10.244292   1.000000   1.000000
      8          8.945936       10.663339   1.000000   0.998785
      9          9.461509       11.208373   1.000000   0.000000
     10          9.865809       11.593668   1.000000   0.000000
     11         10.137791       12.013429   1.000000   0.000000
     12         16.328042       17.055505   0.000000   0.000000
     13         18.265591       18.993876   0.000000   0.000000
     14         23.875114       24.303725   0.000000   0.000000
     15         24.403171       24.830276   0.000000   0.000000
     16         31.284613       31.291993   0.000000   0.000000
     17         32.247257       32.504771   0.000000   0.000000
     18         33.419767       33.733132   0.000000   0.000000
     19         34.221806       34.507138   0.000000   0.000000
     20         39.009854       39.278663   0.000000   0.000000
     21         40.973971       40.924831   0.000000   0.000000
     22         41.709682       42.186743   0.000000   0.000000
     23         45.140246       45.412525   0.000000   0.000000
     24         46.408940       46.570656   0.000000   0.000000
 
  0.2500000E+00  0.1666667E+00  0.0000000E+00  0.1041667E-01
      1          5.448643        5.679255   1.000000   1.000000
      2          6.557330        7.757797   1.000000   1.000000
      3          6.580006        7.798133   1.000000   1.000000
      4          7.046455        8.246273   1.000000   1.000000
      5          7.881925        9.426246   1.000000   1.000000
      6          8.355645        9.883663   1.000000   1.000000
      7          8.460686       10.006643   1.000000   1.000000
      8          9.268386       11.016324   1.000000   0.000000
      9          9.926240       11.735823   1.000000   0.000000
     10         10.135501       12.010677   1.000000   0.000000
     11         10.708938       12.354705   0.959273   0.000000
     12         18.235718       18.886013   0.000000   0.000000
     13         18.612608       19.205488   0.000000   0.000000
     14         21.038371       21.589237   0.000000   0.000000
     15         22.941904       23.357338   0.000000   0.000000
     16         28.652782       28.870736   0.000000   0.000000
     17         30.366909       30.745870   0.000000   0.000000
     18         30.788931       30.982397   0.000000   0.000000
     19         32.924172       33.263509   0.000000   0.000000
     20         39.171243       39.464368   0.000000   0.000000
     21         42.344578       42.272113   0.000000   0.000000
     22         43.979262       44.366229   0.000000   0.000000
     23         45.757178       46.004751   0.000000   0.000000
     24         46.386380       46.547040   0.000000   0.000000
 
  0.3333333E+00  0.1666667E+00  0.0000000E+00  0.1041667E-01
      1          6.124919        6.760039   1.000000   1.000000
      2          6.339639        7.555132   1.000000   1.000000
      3          6.348131        7.564973   1.000000   1.000000
      4          7.385104        8.337746   1.000000   1.000000
      5          7.837829        9.367971   1.000000   1.000000
      6          8.243219        9.741154   1.000000   1.000000
      7          8.567951       10.129933   1.000000   1.000000
      8          9.694358       11.482568   1.000000   0.000000
      9         10.132670       12.007167   1.000000   0.000000
     10         10.157747       12.008744   1.000000   0.000000
     11         11.936154       13.322179   0.000000   0.000000
     12         16.768866       17.485709   0.000000   0.000000
     13         20.300738       20.853669   0.000000   0.000000
     14         20.961353       21.448867   0.000000   0.000000
     15         22.163669       22.550972   0.000000   0.000000
     16         25.955483       26.342102   0.000000   0.000000
     17         27.453052       27.885937   0.000000   0.000000
     18         30.104539       30.262630   0.000000   0.000000
     19         32.158294       32.498438   0.000000   0.000000
     20         38.833348       39.151226   0.000000   0.000000
     21         43.164074       43.113180   0.000000   0.000000
     22         45.900856       46.192678   0.000000   0.000000
     23         47.051604       47.633315   0.000000   0.000000
     24         47.314136       47.636541   0.000000   0.000000
 
  0.4166667E+00  0.1666667E+00  0.0000000E+00  0.5208333E-02
      1          6.243588        7.189392   1.000000   1.000000
      2          6.258639        7.426488   1.000000   1.000000
      3          6.289967        7.488309   1.000000   1.000000
      4          7.618622        8.435635   1.000000   1.000000
      5          7.855935        9.404598   1.000000   1.000000
      6          8.130039        9.585978   1.000000   1.000000
      7          8.658524       10.239593   1.000000   1.000000
      8          9.982221       11.807017   1.000000   0.000000
      9         10.131249       11.991526   1.000000   0.000000
     10         10.135906       12.005382   1.000000   0.000000
     11         13.235670       14.283069   0.000000   0.000000
     12         14.883968       15.856320   0.000000   0.000000
     13         21.441423       21.844361   0.000000   0.000000
     14         21.769205       22.215346   0.000000   0.000000
     15         22.196296       22.575359   0.000000   0.000000
     16         24.271631       24.784576   0.000000   0.000000
     17         25.964602       26.444180   0.000000   0.000000
     18         29.881347       30.031503   0.000000   0.000000
     19         31.885301       32.221588   0.000000   0.000000
     20         38.698221       39.022256   0.000000   0.000000
     21         43.330599       43.301053   0.000000   0.000000
     22         46.522535       46.960343   0.000000   0.000000
     23         46.825118       47.240920   0.000000   0.000000
     24         47.523259       49.141998   0.000000   0.000000
 
  0.2500000E+00  0.2500000E+00  0.0000000E+00  0.5208333E-02
      1          6.273117        6.789549   1.000000   1.000000
      2          6.406049        7.631426   1.000000   1.000000
      3          6.768745        7.933394   1.000000   1.000000
      4          6.819522        7.965800   1.000000   1.000000
      5          7.770672        9.274991   1.000000   1.000000
      6          8.259422        9.766712   1.000000   1.000000
      7          8.572699       10.130307   1.000000   1.000000
      8          9.457049       11.234116   1.000000   0.000000
      9         10.089716       11.958383   1.000000   0.000000
     10         10.164421       12.014549   1.000000   0.000000
     11         11.944297       13.359770   0.000000   0.000000
     12         18.584286       19.121961   0.000000   0.000000
     13         19.328343       19.914646   0.000000   0.000000
     14         20.182760       20.764498   0.000000   0.000000
     15         21.624512       22.086444   0.000000   0.000000
     16         27.884994       28.071039   0.000000   0.000000
     17         27.893394       28.271640   0.000000   0.000000
     18         29.110227       29.519376   0.000000   0.000000
     19         30.031684       30.385259   0.000000   0.000000
     20         42.180021       42.379078   0.000000   0.000000
     21         44.054315       44.279240   0.000000   0.000000
     22         44.378115       44.524965   0.000000   0.000000
     23         46.689922       47.248150   0.000000   0.000000
     24         47.758165       48.917064   0.000000   0.000000
 
  0.3333333E+00  0.2500000E+00  0.0000000E+00  0.1041667E-01
      1          6.322742        7.465640   1.000000   1.000000
      2          6.543232        7.582748   1.000000   1.000000
      3          6.629016        7.771103   1.000000   1.000000
      4          7.157484        8.090370   1.000000   1.000000
      5          7.791635        9.281016   1.000000   1.000000
      6          8.050972        9.518725   1.000000   1.000000
      7          8.748203       10.336722   1.000000   1.000000
      8          9.744668       11.551034   1.000000   0.000000
      9         10.062750       11.927569   1.000000   0.000000
     10         10.107652       11.957806   1.000000   0.000000
     11         13.653773       14.713466   0.000000   0.000000
     12         16.303034       17.070986   0.000000   0.000000
     13         18.675686       19.228526   0.000000   0.000000
     14         22.261806       22.756114   0.000000   0.000000
     15         22.666038       23.060728   0.000000   0.000000
     16         25.335072       25.763458   0.000000   0.000000
     17         26.920107       27.356258   0.000000   0.000000
     18         27.509673       27.774875   0.000000   0.000000
     19         29.219457       29.586593   0.000000   0.000000
     20         42.619644       42.874729   0.000000   0.000000
     21         46.004479       45.893764   0.000000   0.000000
     22         46.223235       46.670124   0.000000   0.000000
     23         47.197407       48.892081   0.000000   0.000000
     24         47.933874       49.387924   0.000000   0.000000
 
  0.3333333E+00  0.3333333E+00  0.0000000E+00  0.1736111E-02
      1          6.327484        7.609664   1.000000   1.000000
      2          6.740654        7.796563   1.000000   1.000000
      3          6.740654        7.796563   1.000000   1.000000
      4          7.025844        8.001500   1.000000   1.000000
      5          7.872760        9.334879   1.000000   1.000000
      6          7.872760        9.334879   1.000000   1.000000
      7          8.849863       10.446875   1.000000   1.000000
      8          9.897687       11.725534   1.000000   0.000000
      9          9.897687       11.725535   1.000000   0.000000
     10         10.035034       11.896138   1.000000   0.000000
     11         15.416438       16.203600   0.000000   0.000000
     12         16.308983       17.071500   0.000000   0.000000
     13         16.308984       17.071502   0.000000   0.000000
     14         23.524913       23.895110   0.000000   0.000000
     15         24.300222       24.748273   0.000000   0.000000