 vasp.6.3.2 27Jun22 (build Aug 12 2022 00:53:59) complex                        
  
 executed on               tv2STD date 2024.12.02  17:31:15
 running   24 mpi-ranks, with    1 threads/rank
 distrk:  each k-point on   24 cores,    1 groups
 distr:  one band on NCORE=   1 cores,   24 groups


--------------------------------------------------------------------------------------------------------


 INCAR:
   SYSTEM = Co-hcc
   NWRITE = 2    write-flag
   ISTART = 0    job   : 0-new, 1-cont, 2-samecut
   ICHARG = 2    charge: 0-wave, 1-file, 2-atom, >10-const
   INIWAV = 1    electr: 0-lowe 1-rand  2-diag
   ENCUT = 425.0     energy cutoff in eV
   PREC = Accurate      normal | accurate
   ADDGRID = .FALSE.  (use fine grid)
   NELM = 100     number of ELM steps
   EDIFF = 1E-06    energy stopping-criterion for ELM
   LREAL = .FALSE.      real-space projection (.FALSE., .TRUE., On, Auto)
   ALGO = Normal     Normal, Fast, Very_Fast
   LWAVE = .FALSE.
   LCHARG = .FALSE.
   NSW = 100       max number of geometry steps
   IBRION = 2     ionic relax: 0-MD, 1-quasi-Newton, 2-CG, 3-Damped MD
   EDIFFG = -0.02  force (eV/A) stopping-criterion for geometry steps
   ISIF = 2     (1:force\=y stress\=trace only ions\=y shape\=n volume\=n)
   ISYM = 1     (1-use symmetry, 0-no symmetry)
   ISMEAR = 0     (-1-Fermi, 1-Methfessel/Paxton)
   SIGMA = 0.05   broadening in eV
   LORBIT = 11
   ISPIN = 2
   MAGMOM = 2*3

 POTCAR:    PAW_PBE Co 02Aug2007                  
 POTCAR:    PAW_PBE Co 02Aug2007                  
   SHA256 =  0e690c60710354995174544f52f9f2c30879afabeffe3b3fbd4001cb294e56d4 Co/POTCAR             
   COPYR  = (c) Copyright 02Aug2007 Georg Kresse                                                    
   COPYR  = This file is part of the software VASP. Any use, copying, and all other rights are regul
   COPYR  = If you do not have a valid VASP license, you may not use, copy or distribute this file. 
   VRHFIN =Co: d8 s1                                                                                
   LEXCH  = PE                                                                                      
   EATOM  =   813.3670 eV,   59.7808 Ry                                                             
                                                                                                    
   TITEL  = PAW_PBE Co 02Aug2007                                                                    
   LULTRA =        F    use ultrasoft PP ?                                                          
   IUNSCR =        1    unscreen: 0-lin 1-nonlin 2-no                                               
   RPACOR =    2.000    partial core radius                                                         
   POMASS =   58.933; ZVAL   =    9.000    mass and valenz                                          
   RCORE  =    2.300    outmost cutoff radius                                                       
   RWIGS  =    2.460; RWIGS  =    1.302    wigner-seitz radius (au A)                               
   ENMAX  =  267.968; ENMIN  =  200.976 eV                                                          
   RCLOC  =    1.203    cutoff for local pot                                                        
   LCOR   =        T    correct aug charges                                                         
   LPAW   =        T    paw PP                                                                      
   EAUG   =  477.818                                                                                
   DEXC   =    0.000                                                                                
   RMAX   =    2.360    core radius for proj-oper                                                   
   RAUG   =    1.300    factor for augmentation sphere                                              
   RDEP   =    2.393    radius for radial grids                                                     
   RDEPT  =    1.864    core radius for aug-charge                                                  
                                                                                                    
   Atomic configuration                                                                             
    9 entries                                                                                       
     n  l   j            E        occ.                                                              
     1  0  0.50     -7587.6674   2.0000                                                             
     2  0  0.50      -893.6084   2.0000                                                             
     2  1  1.50      -764.5805   6.0000                                                             
     3  0  0.50       -97.5973   2.0000                                                             
     3  1  1.50       -60.9648   6.0000                                                             
     3  2  2.50        -4.2382   8.0000                                                             
     4  0  0.50        -4.3746   1.0000                                                             
     4  1  1.50        -4.0817   0.0000                                                             
     4  3  2.50        -1.3606   0.0000                                                             
   Description                                                                                      
     l       E           TYP  RCUT    TYP  RCUT                                                     
     2     -4.2382362     23  2.300                                                                 
     2     -5.5988188     23  2.300                                                                 
     0     -4.3745797     23  2.300                                                                 
     0      5.7660125     23  2.300                                                                 
     1     -2.7211652     23  2.300                                                                 
     1     16.9860234     23  2.300                                                                 
  local pseudopotential read in
  partial core-charges read in
  partial kinetic energy density read in
  atomic valenz-charges read in
  non local Contribution for L=           2  read in
    real space projection operators read in
  non local Contribution for L=           2  read in
    real space projection operators read in
  non local Contribution for L=           0  read in
    real space projection operators read in
  non local Contribution for L=           0  read in
    real space projection operators read in
  non local Contribution for L=           1  read in
    real space projection operators read in
  non local Contribution for L=           1  read in
    real space projection operators read in
    PAW grid and wavefunctions read in
 
   number of l-projection  operators is LMAX  =           6
   number of lm-projection operators is LMMAX =          18
 
  PAW_PBE Co 02Aug2007                  :
 energy of atom  1       EATOM= -813.3670
 kinetic energy error for atom=    0.0054 (will be added to EATOM!!)
 
 
 POSCAR: Co
  positions in cartesian coordinates
  No initial velocities read in
 exchange correlation table for  LEXCH =        8
   RHO(1)=    0.500       N(1)  =     2000
   RHO(2)=  100.500       N(2)  =     4000
 


--------------------------------------------------------------------------------------------------------


 ion  position               nearest neighbor table
   1  0.333  0.667  0.250-   2 2.44   2 2.44   2 2.44   2 2.44   2 2.44   2 2.44
   2  0.667  0.333  0.750-   1 2.44   1 2.44   1 2.44   1 2.44   1 2.44   1 2.44
 
  LATTYP: Found a hexagonal cell.
 ALAT       =     2.4642701426
 C/A-ratio  =     1.6130472937
  
  Lattice vectors:
  
 A1 = (   1.2321350713,  -2.1341205453,   0.0000000000)
 A2 = (   1.2321350713,   2.1341205453,   0.0000000000)
 A3 = (   0.0000000000,   0.0000000000,   3.9749842845)


Analysis of symmetry for initial positions (statically):
=====================================================================
 Subroutine PRICEL returns:
 Original cell was already a primitive cell.
 

 Routine SETGRP: Setting up the symmetry group for a 
 hexagonal supercell.


 Subroutine GETGRP returns: Found 24 space group operations
 (whereof 12 operations were pure point group operations)
 out of a pool of 24 trial point group operations.


The static configuration has the point symmetry D_3d.
 The point group associated with its full space group is D_6h.


Analysis of symmetry for dynamics (positions and initial velocities):
=====================================================================
 Subroutine PRICEL returns:
 Original cell was already a primitive cell.
 

 Routine SETGRP: Setting up the symmetry group for a 
 hexagonal supercell.


 Subroutine GETGRP returns: Found 24 space group operations
 (whereof 12 operations were pure point group operations)
 out of a pool of 24 trial point group operations.


The dynamic configuration has the point symmetry D_3d.
 The point group associated with its full space group is D_6h.


Analysis of structural, dynamic, and magnetic symmetry:
=====================================================================
 Subroutine PRICEL returns:
 Original cell was already a primitive cell.
 

 Routine SETGRP: Setting up the symmetry group for a 
 hexagonal supercell.


 Subroutine GETGRP returns: Found 24 space group operations
 (whereof 12 operations were pure point group operations)
 out of a pool of 24 trial point group operations.


The overall configuration has the point symmetry D_3d.
 The point group associated with its full space group is D_6h.


 Subroutine INISYM returns: Found 24 space group operations
 (whereof 12 operations are pure point group operations),
 and found     1 'primitive' translations


----------------------------------------------------------------------------------------

                                     Primitive cell                                     

  volume of cell :      20.9046

  direct lattice vectors                    reciprocal lattice vectors
     1.232135071 -2.134120545  0.000000000     0.405799666 -0.234288546  0.000000000
     1.232135071  2.134120545  0.000000000     0.405799666  0.234288546  0.000000000
     0.000000000  0.000000000  3.974984285     0.000000000  0.000000000  0.251573322

  length of vectors
     2.464270143  2.464270143  3.974984285     0.468577092  0.468577092  0.251573322

  position of ions in fractional coordinates (direct lattice)
     0.333333333  0.666666667  0.250000000
     0.666666667  0.333333333  0.750000000

  ion indices of the primitive-cell ions
   primitive index   ion index
                 1           1
                 2           2

----------------------------------------------------------------------------------------

 
 
 KPOINTS: Automatic mesh                          

Automatic generation of k-mesh.
 Grid dimensions read from file:
 generate k-points for:   12   12    8

 Generating k-lattice:

  Cartesian coordinates                     Fractional coordinates (reciprocal lattice)
     0.033816639 -0.019524046  0.000000000     0.083333333  0.000000000  0.000000000
     0.033816639  0.019524046  0.000000000     0.000000000  0.083333333  0.000000000
     0.000000000  0.000000000  0.031446665     0.000000000  0.000000000  0.125000000

  Length of vectors
     0.039048091  0.039048091  0.031446665

  Shift w.r.t. Gamma in fractional coordinates (k-lattice)
     0.000000000  0.000000000  0.000000000

 
 Subroutine IBZKPT returns following result:
 ===========================================
 
 Found     95 irreducible k-points:
 
 Following reciprocal coordinates:
            Coordinates               Weight
  0.000000  0.000000  0.000000      1.000000
  0.083333  0.000000  0.000000      6.000000
  0.166667  0.000000  0.000000      6.000000
  0.250000  0.000000  0.000000      6.000000
  0.333333  0.000000  0.000000      6.000000
  0.416667  0.000000  0.000000      6.000000
  0.500000  0.000000  0.000000      3.000000
  0.083333  0.083333  0.000000      6.000000
  0.166667  0.083333  0.000000     12.000000
  0.250000  0.083333  0.000000     12.000000
  0.333333  0.083333  0.000000     12.000000
  0.416667  0.083333  0.000000     12.000000
  0.166667  0.166667  0.000000      6.000000
  0.250000  0.166667  0.000000     12.000000
  0.333333  0.166667  0.000000     12.000000
  0.416667  0.166667  0.000000      6.000000
  0.250000  0.250000  0.000000      6.000000
  0.333333  0.250000  0.000000     12.000000
  0.333333  0.333333  0.000000      2.000000
  0.000000  0.000000  0.125000      2.000000
  0.083333  0.000000  0.125000     12.000000
  0.166667  0.000000  0.125000     12.000000
  0.250000  0.000000  0.125000     12.000000
  0.333333  0.000000  0.125000     12.000000
  0.416667  0.000000  0.125000     12.000000
  0.500000  0.000000  0.125000      6.000000
  0.083333  0.083333  0.125000     12.000000
  0.166667  0.083333  0.125000     24.000000
  0.250000  0.083333  0.125000     24.000000
  0.333333  0.083333  0.125000     24.000000
  0.416667  0.083333  0.125000     24.000000
  0.166667  0.166667  0.125000     12.000000
  0.250000  0.166667  0.125000     24.000000
  0.333333  0.166667  0.125000     24.000000
  0.416667  0.166667  0.125000     12.000000
  0.250000  0.250000  0.125000     12.000000
  0.333333  0.250000  0.125000     24.000000
  0.333333  0.333333  0.125000      4.000000
  0.000000  0.000000  0.250000      2.000000
  0.083333  0.000000  0.250000     12.000000
  0.166667  0.000000  0.250000     12.000000
  0.250000  0.000000  0.250000     12.000000
  0.333333  0.000000  0.250000     12.000000
  0.416667  0.000000  0.250000     12.000000
  0.500000  0.000000  0.250000      6.000000
  0.083333  0.083333  0.250000     12.000000
  0.166667  0.083333  0.250000     24.000000
  0.250000  0.083333  0.250000     24.000000
  0.333333  0.083333  0.250000     24.000000
  0.416667  0.083333  0.250000     24.000000
  0.166667  0.166667  0.250000     12.000000
  0.250000  0.166667  0.250000     24.000000
  0.333333  0.166667  0.250000     24.000000
  0.416667  0.166667  0.250000     12.000000
  0.250000  0.250000  0.250000     12.000000
  0.333333  0.250000  0.250000     24.000000
  0.333333  0.333333  0.250000      4.000000
  0.000000  0.000000  0.375000      2.000000
  0.083333  0.000000  0.375000     12.000000
  0.166667  0.000000  0.375000     12.000000
  0.250000  0.000000  0.375000     12.000000
  0.333333  0.000000  0.375000     12.000000
  0.416667  0.000000  0.375000     12.000000
  0.500000  0.000000  0.375000      6.000000
  0.083333  0.083333  0.375000     12.000000
  0.166667  0.083333  0.375000     24.000000
  0.250000  0.083333  0.375000     24.000000
  0.333333  0.083333  0.375000     24.000000
  0.416667  0.083333  0.375000     24.000000
  0.166667  0.166667  0.375000     12.000000
  0.250000  0.166667  0.375000     24.000000
  0.333333  0.166667  0.375000     24.000000
  0.416667  0.166667  0.375000     12.000000
  0.250000  0.250000  0.375000     12.000000
  0.333333  0.250000  0.375000     24.000000
  0.333333  0.333333  0.375000      4.000000
  0.000000  0.000000  0.500000      1.000000
  0.083333  0.000000  0.500000      6.000000
  0.166667  0.000000  0.500000      6.000000
  0.250000  0.000000  0.500000      6.000000
  0.333333  0.000000  0.500000      6.000000
  0.416667  0.000000  0.500000      6.000000
  0.500000  0.000000  0.500000      3.000000
  0.083333  0.083333  0.500000      6.000000
  0.166667  0.083333  0.500000     12.000000
  0.250000  0.083333  0.500000     12.000000
  0.333333  0.083333  0.500000     12.000000
  0.416667  0.083333  0.500000     12.000000
  0.166667  0.166667  0.500000      6.000000
  0.250000  0.166667  0.500000     12.000000
  0.333333  0.166667  0.500000     12.000000
  0.416667  0.166667  0.500000      6.000000
  0.250000  0.250000  0.500000      6.000000
  0.333333  0.250000  0.500000     12.000000
  0.333333  0.333333  0.500000      2.000000
 
 Following cartesian coordinates:
            Coordinates               Weight
  0.000000  0.000000  0.000000      1.000000
  0.033817 -0.019524  0.000000      6.000000
  0.067633 -0.039048  0.000000      6.000000
  0.101450 -0.058572  0.000000      6.000000
  0.135267 -0.078096  0.000000      6.000000
  0.169083 -0.097620  0.000000      6.000000
  0.202900 -0.117144  0.000000      3.000000
  0.067633  0.000000  0.000000      6.000000
  0.101450 -0.019524  0.000000     12.000000
  0.135267 -0.039048  0.000000     12.000000
  0.169083 -0.058572  0.000000     12.000000
  0.202900 -0.078096  0.000000     12.000000
  0.135267  0.000000  0.000000      6.000000
  0.169083 -0.019524  0.000000     12.000000
  0.202900 -0.039048  0.000000     12.000000
  0.236716 -0.058572  0.000000      6.000000
  0.202900  0.000000  0.000000      6.000000
  0.236716 -0.019524  0.000000     12.000000
  0.270533  0.000000  0.000000      2.000000
  0.000000  0.000000  0.031447      2.000000
  0.033817 -0.019524  0.031447     12.000000
  0.067633 -0.039048  0.031447     12.000000
  0.101450 -0.058572  0.031447     12.000000
  0.135267 -0.078096  0.031447     12.000000
  0.169083 -0.097620  0.031447     12.000000
  0.202900 -0.117144  0.031447      6.000000
  0.067633  0.000000  0.031447     12.000000
  0.101450 -0.019524  0.031447     24.000000
  0.135267 -0.039048  0.031447     24.000000
  0.169083 -0.058572  0.031447     24.000000
  0.202900 -0.078096  0.031447     24.000000
  0.135267  0.000000  0.031447     12.000000
  0.169083 -0.019524  0.031447     24.000000
  0.202900 -0.039048  0.031447     24.000000
  0.236716 -0.058572  0.031447     12.000000
  0.202900  0.000000  0.031447     12.000000
  0.236716 -0.019524  0.031447     24.000000
  0.270533  0.000000  0.031447      4.000000
  0.000000  0.000000  0.062893      2.000000
  0.033817 -0.019524  0.062893     12.000000
  0.067633 -0.039048  0.062893     12.000000
  0.101450 -0.058572  0.062893     12.000000
  0.135267 -0.078096  0.062893     12.000000
  0.169083 -0.097620  0.062893     12.000000
  0.202900 -0.117144  0.062893      6.000000
  0.067633  0.000000  0.062893     12.000000
  0.101450 -0.019524  0.062893     24.000000
  0.135267 -0.039048  0.062893     24.000000
  0.169083 -0.058572  0.062893     24.000000
  0.202900 -0.078096  0.062893     24.000000
  0.135267  0.000000  0.062893     12.000000
  0.169083 -0.019524  0.062893     24.000000
  0.202900 -0.039048  0.062893     24.000000
  0.236716 -0.058572  0.062893     12.000000
  0.202900  0.000000  0.062893     12.000000
  0.236716 -0.019524  0.062893     24.000000
  0.270533  0.000000  0.062893      4.000000
  0.000000  0.000000  0.094340      2.000000
  0.033817 -0.019524  0.094340     12.000000
  0.067633 -0.039048  0.094340     12.000000
  0.101450 -0.058572  0.094340     12.000000
  0.135267 -0.078096  0.094340     12.000000
  0.169083 -0.097620  0.094340     12.000000
  0.202900 -0.117144  0.094340      6.000000
  0.067633  0.000000  0.094340     12.000000
  0.101450 -0.019524  0.094340     24.000000
  0.135267 -0.039048  0.094340     24.000000
  0.169083 -0.058572  0.094340     24.000000
  0.202900 -0.078096  0.094340     24.000000
  0.135267  0.000000  0.094340     12.000000
  0.169083 -0.019524  0.094340     24.000000
  0.202900 -0.039048  0.094340     24.000000
  0.236716 -0.058572  0.094340     12.000000
  0.202900  0.000000  0.094340     12.000000
  0.236716 -0.019524  0.094340     24.000000
  0.270533  0.000000  0.094340      4.000000
  0.000000  0.000000  0.125787      1.000000
  0.033817 -0.019524  0.125787      6.000000
  0.067633 -0.039048  0.125787      6.000000
  0.101450 -0.058572  0.125787      6.000000
  0.135267 -0.078096  0.125787      6.000000
  0.169083 -0.097620  0.125787      6.000000
  0.202900 -0.117144  0.125787      3.000000
  0.067633  0.000000  0.125787      6.000000
  0.101450 -0.019524  0.125787     12.000000
  0.135267 -0.039048  0.125787     12.000000
  0.169083 -0.058572  0.125787     12.000000
  0.202900 -0.078096  0.125787     12.000000
  0.135267  0.000000  0.125787      6.000000
  0.169083 -0.019524  0.125787     12.000000
  0.202900 -0.039048  0.125787     12.000000
  0.236716 -0.058572  0.125787      6.000000
  0.202900  0.000000  0.125787      6.000000
  0.236716 -0.019524  0.125787     12.000000
  0.270533  0.000000  0.125787      2.000000
 


--------------------------------------------------------------------------------------------------------




 Dimension of arrays:
   k-points           NKPTS =     95   k-points in BZ     NKDIM =     95   number of bands    NBANDS=     24
   number of dos      NEDOS =    301   number of ions     NIONS =      2
   non local maximal  LDIM  =      6   non local SUM 2l+1 LMDIM =     18
   total plane-waves  NPLWV =   9072
   max r-space proj   IRMAX =      1   max aug-charges    IRDMAX=  17313
   dimension x,y,z NGX =    18 NGY =   18 NGZ =   28
   dimension x,y,z NGXF=    36 NGYF=   36 NGZF=   56
   support grid    NGXF=    36 NGYF=   36 NGZF=   56
   ions per type =               2
   NGX,Y,Z   is equivalent  to a cutoff of  12.14, 12.14, 11.71 a.u.
   NGXF,Y,Z  is equivalent  to a cutoff of  24.29, 24.29, 23.42 a.u.

 SYSTEM =  Co-hcc                                  
 POSCAR =  Co                                      

 Startparameter for this run:
   NWRITE =      2    write-flag & timer
   PREC   = accura    normal or accurate (medium, high low for compatibility)
   ISTART =      0    job   : 0-new  1-cont  2-samecut
   ICHARG =      2    charge: 1-file 2-atom 10-const
   ISPIN  =      2    spin polarized calculation?
   LNONCOLLINEAR =      F non collinear calculations
   LSORBIT =      F    spin-orbit coupling
   INIWAV =      1    electr: 0-lowe 1-rand  2-diag
   LASPH  =      F    aspherical Exc in radial PAW
 Electronic Relaxation 1
   ENCUT  =  425.0 eV  31.24 Ry    5.59 a.u.   4.14  4.14  6.68*2*pi/ulx,y,z
   ENINI  =  425.0     initial cutoff
   ENAUG  =  477.8 eV  augmentation charge cutoff
   NELM   =    100;   NELMIN=  2; NELMDL= -5     # of ELM steps 
   EDIFF  = 0.1E-05   stopping-criterion for ELM
   LREAL  =      F    real-space projection
   NLSPLINE    = F    spline interpolate recip. space projectors
   LCOMPAT=      F    compatible to vasp.4.4
   GGA_COMPAT  = T    GGA compatible to vasp.4.4-vasp.4.6
   LMAXPAW     = -100 max onsite density
   LMAXMIX     =    2 max onsite mixed and CHGCAR
   VOSKOWN=      0    Vosko Wilk Nusair interpolation
   ROPT   =    0.00000
 Ionic relaxation
   EDIFFG = -.2E-01   stopping-criterion for IOM
   NSW    =    100    number of steps for IOM
   NBLOCK =      1;   KBLOCK =    100    inner block; outer block 
   IBRION =      2    ionic relax: 0-MD 1-quasi-New 2-CG
   NFREE  =      1    steps in history (QN), initial steepest desc. (CG)
   ISIF   =      2    stress and relaxation
   IWAVPR =     11    prediction:  0-non 1-charg 2-wave 3-comb
   ISYM   =      1    0-nonsym 1-usesym 2-fastsym
   LCORR  =      T    Harris-Foulkes like correction to forces

   POTIM  = 0.5000    time-step for ionic-motion
   TEIN   =    0.0    initial temperature
   TEBEG  =    0.0;   TEEND  =   0.0 temperature during run
   SMASS  =  -3.00    Nose mass-parameter (am)
   estimated Nose-frequenzy (Omega)   =  0.10E-29 period in steps = 0.13E+47 mass=  -0.139E-27a.u.
   SCALEE = 1.0000    scale energy and forces
   NPACO  =    256;   APACO  = 10.0  distance and # of slots for P.C.
   PSTRESS=    0.0 pullay stress

  Mass of Ions in am
   POMASS =  58.93
  Ionic Valenz
   ZVAL   =   9.00
  Atomic Wigner-Seitz radii
   RWIGS  =  -1.00
  virtual crystal weights 
   VCA    =   1.00
   NELECT =      18.0000    total number of electrons
   NUPDOWN=      -1.0000    fix difference up-down

 DOS related values:
   EMIN   =  10.00;   EMAX   =-10.00  energy-range for DOS
   EFERMI =   0.00
   ISMEAR =     0;   SIGMA  =   0.05  broadening in eV -4-tet -1-fermi 0-gaus

 Electronic relaxation 2 (details)
   IALGO  =     38    algorithm
   LDIAG  =      T    sub-space diagonalisation (order eigenvalues)
   LSUBROT=      F    optimize rotation matrix (better conditioning)
   TURBO    =      0    0=normal 1=particle mesh
   IRESTART =      0    0=no restart 2=restart with 2 vectors
   NREBOOT  =      0    no. of reboots
   NMIN     =      0    reboot dimension
   EREF     =   0.00    reference energy to select bands
   IMIX   =      4    mixing-type and parameters
     AMIX     =   0.40;   BMIX     =  1.00
     AMIX_MAG =   1.60;   BMIX_MAG =  1.00
     AMIN     =   0.10
     WC   =   100.;   INIMIX=   1;  MIXPRE=   1;  MAXMIX= -45

 Intra band minimization:
   WEIMIN = 0.0010     energy-eigenvalue tresh-hold
   EBREAK =  0.10E-07  absolut break condition
   DEPER  =   0.30     relativ break condition  

   TIME   =   0.40     timestep for ELM

  volume/ion in A,a.u.               =      10.45        70.54
  Fermi-wavevector in a.u.,A,eV,Ry     =   1.557464  2.943181 33.003586  2.425695
  Thomas-Fermi vector in A             =   2.661111
 
 Write flags
   LWAVE        =      F    write WAVECAR
   LDOWNSAMPLE  =      F    k-point downsampling of WAVECAR
   LCHARG       =      F    write CHGCAR
   LVTOT        =      F    write LOCPOT, total local potential
   LVHAR        =      F    write LOCPOT, Hartree potential only
   LELF         =      F    write electronic localiz. function (ELF)
   LORBIT       =     11    0 simple, 1 ext, 2 COOP (PROOUT), +10 PAW based schemes


 Dipole corrections
   LMONO  =      F    monopole corrections only (constant potential shift)
   LDIPOL =      F    correct potential (dipole corrections)
   IDIPOL =      0    1-x, 2-y, 3-z, 4-all directions 
   EPSILON=  1.0000000 bulk dielectric constant

 Exchange correlation treatment:
   GGA     =    --    GGA type
   LEXCH   =     8    internal setting for exchange type
   LIBXC   =     F    Libxc                    
   VOSKOWN =     0    Vosko Wilk Nusair interpolation
   LHFCALC =     F    Hartree Fock is set to
   LHFONE  =     F    Hartree Fock one center treatment
   AEXX    =    0.0000 exact exchange contribution

 Linear response parameters
   LEPSILON=     F    determine dielectric tensor
   LRPA    =     F    only Hartree local field effects (RPA)
   LNABLA  =     F    use nabla operator in PAW spheres
   LVEL    =     F    velocity operator in full k-point grid
   CSHIFT  =0.1000    complex shift for real part using Kramers Kronig
   OMEGAMAX=  -1.0    maximum frequency
   DEG_THRESHOLD= 0.2000000E-02 threshold for treating states as degnerate
   RTIME   =   -0.100 relaxation time in fs
  (WPLASMAI=    0.000 imaginary part of plasma frequency in eV, 0.658/RTIME)
   DFIELD  = 0.0000000 0.0000000 0.0000000 field for delta impulse in time
 
  Optional k-point grid parameters
   LKPOINTS_OPT  =     F    use optional k-point grid
   KPOINTS_OPT_MODE=     1    mode for optional k-point grid
 
 Orbital magnetization related:
   ORBITALMAG=     F  switch on orbital magnetization
   LCHIMAG   =     F  perturbation theory with respect to B field
   DQ        =  0.001000  dq finite difference perturbation B field
   LLRAUG    =     F  two centre corrections for induced B field



--------------------------------------------------------------------------------------------------------


 conjugate gradient relaxation of ions
 charge density and potential will be updated during run
 spin polarized calculation
 Variant of blocked Davidson
 Davidson routine will perform the subspace rotation
 perform sub-space diagonalisation
    after iterative eigenvector-optimisation
 modified Broyden-mixing scheme, WC =      100.0
 initial mixing is a Kerker type mixing with AMIX =  0.4000 and BMIX =      1.0000
 Hartree-type preconditioning will be used
 using additional bands           15
 reciprocal scheme for non local part
 use partial core corrections
 calculate Harris-corrections to forces 
   (improved forces if not selfconsistent)
 use gradient corrections 
 use of overlap-Matrix (Vanderbilt PP)
 Gauss-broadening in eV      SIGMA  =   0.05


--------------------------------------------------------------------------------------------------------


  energy-cutoff  :      425.00
  volume of cell :       20.90
      direct lattice vectors                 reciprocal lattice vectors
     1.232135071 -2.134120545  0.000000000     0.405799666 -0.234288546  0.000000000
     1.232135071  2.134120545  0.000000000     0.405799666  0.234288546  0.000000000
     0.000000000  0.000000000  3.974984285     0.000000000  0.000000000  0.251573322

  length of vectors
     2.464270143  2.464270143  3.974984285     0.468577092  0.468577092  0.251573322


 
 k-points in units of 2pi/SCALE and weight: Automatic mesh                          
   0.00000000  0.00000000  0.00000000       0.001
   0.03381664 -0.01952405  0.00000000       0.005
   0.06763328 -0.03904809  0.00000000       0.005
   0.10144992 -0.05857214  0.00000000       0.005
   0.13526656 -0.07809618  0.00000000       0.005
   0.16908319 -0.09762023  0.00000000       0.005
   0.20289983 -0.11714427  0.00000000       0.003
   0.06763328  0.00000000  0.00000000       0.005
   0.10144992 -0.01952405  0.00000000       0.010
   0.13526656 -0.03904809  0.00000000       0.010
   0.16908319 -0.05857214  0.00000000       0.010
   0.20289983 -0.07809618  0.00000000       0.010
   0.13526656  0.00000000  0.00000000       0.005
   0.16908319 -0.01952405  0.00000000       0.010
   0.20289983 -0.03904809  0.00000000       0.010
   0.23671647 -0.05857214  0.00000000       0.005
   0.20289983  0.00000000  0.00000000       0.005
   0.23671647 -0.01952405  0.00000000       0.010
   0.27053311  0.00000000  0.00000000       0.002
   0.00000000  0.00000000  0.03144667       0.002
   0.03381664 -0.01952405  0.03144667       0.010
   0.06763328 -0.03904809  0.03144667       0.010
   0.10144992 -0.05857214  0.03144667       0.010
   0.13526656 -0.07809618  0.03144667       0.010
   0.16908319 -0.09762023  0.03144667       0.010
   0.20289983 -0.11714427  0.03144667       0.005
   0.06763328  0.00000000  0.03144667       0.010
   0.10144992 -0.01952405  0.03144667       0.021
   0.13526656 -0.03904809  0.03144667       0.021
   0.16908319 -0.05857214  0.03144667       0.021
   0.20289983 -0.07809618  0.03144667       0.021
   0.13526656  0.00000000  0.03144667       0.010
   0.16908319 -0.01952405  0.03144667       0.021
   0.20289983 -0.03904809  0.03144667       0.021
   0.23671647 -0.05857214  0.03144667       0.010
   0.20289983  0.00000000  0.03144667       0.010
   0.23671647 -0.01952405  0.03144667       0.021
   0.27053311  0.00000000  0.03144667       0.003
   0.00000000  0.00000000  0.06289333       0.002
   0.03381664 -0.01952405  0.06289333       0.010
   0.06763328 -0.03904809  0.06289333       0.010
   0.10144992 -0.05857214  0.06289333       0.010
   0.13526656 -0.07809618  0.06289333       0.010
   0.16908319 -0.09762023  0.06289333       0.010
   0.20289983 -0.11714427  0.06289333       0.005
   0.06763328  0.00000000  0.06289333       0.010
   0.10144992 -0.01952405  0.06289333       0.021
   0.13526656 -0.03904809  0.06289333       0.021
   0.16908319 -0.05857214  0.06289333       0.021
   0.20289983 -0.07809618  0.06289333       0.021
   0.13526656  0.00000000  0.06289333       0.010
   0.16908319 -0.01952405  0.06289333       0.021
   0.20289983 -0.03904809  0.06289333       0.021
   0.23671647 -0.05857214  0.06289333       0.010
   0.20289983  0.00000000  0.06289333       0.010
   0.23671647 -0.01952405  0.06289333       0.021
   0.27053311  0.00000000  0.06289333       0.003
   0.00000000  0.00000000  0.09434000       0.002
   0.03381664 -0.01952405  0.09434000       0.010
   0.06763328 -0.03904809  0.09434000       0.010
   0.10144992 -0.05857214  0.09434000       0.010
   0.13526656 -0.07809618  0.09434000       0.010
   0.16908319 -0.09762023  0.09434000       0.010
   0.20289983 -0.11714427  0.09434000       0.005
   0.06763328  0.00000000  0.09434000       0.010
   0.10144992 -0.01952405  0.09434000       0.021
   0.13526656 -0.03904809  0.09434000       0.021
   0.16908319 -0.05857214  0.09434000       0.021
   0.20289983 -0.07809618  0.09434000       0.021
   0.13526656  0.00000000  0.09434000       0.010
   0.16908319 -0.01952405  0.09434000       0.021
   0.20289983 -0.03904809  0.09434000       0.021
   0.23671647 -0.05857214  0.09434000       0.010
   0.20289983  0.00000000  0.09434000       0.010
   0.23671647 -0.01952405  0.09434000       0.021
   0.27053311  0.00000000  0.09434000       0.003
   0.00000000  0.00000000  0.12578666       0.001
   0.03381664 -0.01952405  0.12578666       0.005
   0.06763328 -0.03904809  0.12578666       0.005
   0.10144992 -0.05857214  0.12578666       0.005
   0.13526656 -0.07809618  0.12578666       0.005
   0.16908319 -0.09762023  0.12578666       0.005
   0.20289983 -0.11714427  0.12578666       0.003
   0.06763328  0.00000000  0.12578666       0.005
   0.10144992 -0.01952405  0.12578666       0.010
   0.13526656 -0.03904809  0.12578666       0.010
   0.16908319 -0.05857214  0.12578666       0.010
   0.20289983 -0.07809618  0.12578666       0.010
   0.13526656  0.00000000  0.12578666       0.005
   0.16908319 -0.01952405  0.12578666       0.010
   0.20289983 -0.03904809  0.12578666       0.010
   0.23671647 -0.05857214  0.12578666       0.005
   0.20289983  0.00000000  0.12578666       0.005
   0.23671647 -0.01952405  0.12578666       0.010
   0.27053311  0.00000000  0.12578666       0.002
 
 k-points in reciprocal lattice and weights: Automatic mesh                          
   0.00000000  0.00000000  0.00000000       0.001
   0.08333333  0.00000000  0.00000000       0.005
   0.16666667  0.00000000  0.00000000       0.005
   0.25000000  0.00000000  0.00000000       0.005
   0.33333333  0.00000000  0.00000000       0.005
   0.41666667  0.00000000  0.00000000       0.005
   0.50000000  0.00000000  0.00000000       0.003
   0.08333333  0.08333333  0.00000000       0.005
   0.16666667  0.08333333  0.00000000       0.010
   0.25000000  0.08333333  0.00000000       0.010
   0.33333333  0.08333333  0.00000000       0.010
   0.41666667  0.08333333  0.00000000       0.010
   0.16666667  0.16666667  0.00000000       0.005
   0.25000000  0.16666667  0.00000000       0.010
   0.33333333  0.16666667  0.00000000       0.010
   0.41666667  0.16666667  0.00000000       0.005
   0.25000000  0.25000000  0.00000000       0.005
   0.33333333  0.25000000  0.00000000       0.010
   0.33333333  0.33333333  0.00000000       0.002
   0.00000000  0.00000000  0.12500000       0.002
   0.08333333  0.00000000  0.12500000       0.010
   0.16666667  0.00000000  0.12500000       0.010
   0.25000000  0.00000000  0.12500000       0.010
   0.33333333  0.00000000  0.12500000       0.010
   0.41666667  0.00000000  0.12500000       0.010
   0.50000000  0.00000000  0.12500000       0.005
   0.08333333  0.08333333  0.12500000       0.010
   0.16666667  0.08333333  0.12500000       0.021
   0.25000000  0.08333333  0.12500000       0.021
   0.33333333  0.08333333  0.12500000       0.021
   0.41666667  0.08333333  0.12500000       0.021
   0.16666667  0.16666667  0.12500000       0.010
   0.25000000  0.16666667  0.12500000       0.021
   0.33333333  0.16666667  0.12500000       0.021
   0.41666667  0.16666667  0.12500000       0.010
   0.25000000  0.25000000  0.12500000       0.010
   0.33333333  0.25000000  0.12500000       0.021
   0.33333333  0.33333333  0.12500000       0.003
   0.00000000  0.00000000  0.25000000       0.002
   0.08333333  0.00000000  0.25000000       0.010
   0.16666667  0.00000000  0.25000000       0.010
   0.25000000  0.00000000  0.25000000       0.010
   0.33333333  0.00000000  0.25000000       0.010
   0.41666667  0.00000000  0.25000000       0.010
   0.50000000  0.00000000  0.25000000       0.005
   0.08333333  0.08333333  0.25000000       0.010
   0.16666667  0.08333333  0.25000000       0.021
   0.25000000  0.08333333  0.25000000       0.021
   0.33333333  0.08333333  0.25000000       0.021
   0.41666667  0.08333333  0.25000000       0.021
   0.16666667  0.16666667  0.25000000       0.010
   0.25000000  0.16666667  0.25000000       0.021
   0.33333333  0.16666667  0.25000000       0.021
   0.41666667  0.16666667  0.25000000       0.010
   0.25000000  0.25000000  0.25000000       0.010
   0.33333333  0.25000000  0.25000000       0.021
   0.33333333  0.33333333  0.25000000       0.003
   0.00000000  0.00000000  0.37500000       0.002
   0.08333333  0.00000000  0.37500000       0.010
   0.16666667  0.00000000  0.37500000       0.010
   0.25000000  0.00000000  0.37500000       0.010
   0.33333333  0.00000000  0.37500000       0.010
   0.41666667  0.00000000  0.37500000       0.010
   0.50000000  0.00000000  0.37500000       0.005
   0.08333333  0.08333333  0.37500000       0.010
   0.16666667  0.08333333  0.37500000       0.021
   0.25000000  0.08333333  0.37500000       0.021
   0.33333333  0.08333333  0.37500000       0.021
   0.41666667  0.08333333  0.37500000       0.021
   0.16666667  0.16666667  0.37500000       0.010
   0.25000000  0.16666667  0.37500000       0.021
   0.33333333  0.16666667  0.37500000       0.021
   0.41666667  0.16666667  0.37500000       0.010
   0.25000000  0.25000000  0.37500000       0.010
   0.33333333  0.25000000  0.37500000       0.021
   0.33333333  0.33333333  0.37500000       0.003
   0.00000000  0.00000000  0.50000000       0.001
   0.08333333  0.00000000  0.50000000       0.005
   0.16666667  0.00000000  0.50000000       0.005
   0.25000000  0.00000000  0.50000000       0.005
   0.33333333  0.00000000  0.50000000       0.005
   0.41666667  0.00000000  0.50000000       0.005
   0.50000000  0.00000000  0.50000000       0.003
   0.08333333  0.08333333  0.50000000       0.005
   0.16666667  0.08333333  0.50000000       0.010
   0.25000000  0.08333333  0.50000000       0.010
   0.33333333  0.08333333  0.50000000       0.010
   0.41666667  0.08333333  0.50000000       0.010
   0.16666667  0.16666667  0.50000000       0.005
   0.25000000  0.16666667  0.50000000       0.010
   0.33333333  0.16666667  0.50000000       0.010
   0.41666667  0.16666667  0.50000000       0.005
   0.25000000  0.25000000  0.50000000       0.005
   0.33333333  0.25000000  0.50000000       0.010
   0.33333333  0.33333333  0.50000000       0.002
 
 position of ions in fractional coordinates (direct lattice) 
   0.33333333  0.66666667  0.25000000
   0.66666667  0.33333333  0.75000000
 
 position of ions in cartesian coordinates  (Angst):
   1.23213507  0.71137352  0.99374607
   1.23213507 -0.71137352  2.98123821
 


--------------------------------------------------------------------------------------------------------


 k-point   1 :   0.0000 0.0000 0.0000  plane waves:     391
 k-point   2 :   0.0833 0.0000 0.0000  plane waves:     405
 k-point   3 :   0.1667 0.0000 0.0000  plane waves:     405
 k-point   4 :   0.2500 0.0000 0.0000  plane waves:     411
 k-point   5 :   0.3333 0.0000 0.0000  plane waves:     423
 k-point   6 :   0.4167 0.0000 0.0000  plane waves:     426
 k-point   7 :   0.5000 0.0000 0.0000  plane waves:     428
 k-point   8 :   0.0833 0.0833 0.0000  plane waves:     408
 k-point   9 :   0.1667 0.0833 0.0000  plane waves:     416
 k-point  10 :   0.2500 0.0833 0.0000  plane waves:     412
 k-point  11 :   0.3333 0.0833 0.0000  plane waves:     418
 k-point  12 :   0.4167 0.0833 0.0000  plane waves:     428
 k-point  13 :   0.1667 0.1667 0.0000  plane waves:     414
 k-point  14 :   0.2500 0.1667 0.0000  plane waves:     416
 k-point  15 :   0.3333 0.1667 0.0000  plane waves:     416
 k-point  16 :   0.4167 0.1667 0.0000  plane waves:     422
 k-point  17 :   0.2500 0.2500 0.0000  plane waves:     418
 k-point  18 :   0.3333 0.2500 0.0000  plane waves:     415
 k-point  19 :   0.3333 0.3333 0.0000  plane waves:     420
 k-point  20 :   0.0000 0.0000 0.1250  plane waves:     391
 k-point  21 :   0.0833 0.0000 0.1250  plane waves:     408
 k-point  22 :   0.1667 0.0000 0.1250  plane waves:     408
 k-point  23 :   0.2500 0.0000 0.1250  plane waves:     413
 k-point  24 :   0.3333 0.0000 0.1250  plane waves:     417
 k-point  25 :   0.4167 0.0000 0.1250  plane waves:     425
 k-point  26 :   0.5000 0.0000 0.1250  plane waves:     426
 k-point  27 :   0.0833 0.0833 0.1250  plane waves:     411
 k-point  28 :   0.1667 0.0833 0.1250  plane waves:     413
 k-point  29 :   0.2500 0.0833 0.1250  plane waves:     413
 k-point  30 :   0.3333 0.0833 0.1250  plane waves:     418
 k-point  31 :   0.4167 0.0833 0.1250  plane waves:     419
 k-point  32 :   0.1667 0.1667 0.1250  plane waves:     410
 k-point  33 :   0.2500 0.1667 0.1250  plane waves:     413
 k-point  34 :   0.3333 0.1667 0.1250  plane waves:     418
 k-point  35 :   0.4167 0.1667 0.1250  plane waves:     426
 k-point  36 :   0.2500 0.2500 0.1250  plane waves:     420
 k-point  37 :   0.3333 0.2500 0.1250  plane waves:     417
 k-point  38 :   0.3333 0.3333 0.1250  plane waves:     420
 k-point  39 :   0.0000 0.0000 0.2500  plane waves:     397
 k-point  40 :   0.0833 0.0000 0.2500  plane waves:     410
 k-point  41 :   0.1667 0.0000 0.2500  plane waves:     413
 k-point  42 :   0.2500 0.0000 0.2500  plane waves:     420
 k-point  43 :   0.3333 0.0000 0.2500  plane waves:     416
 k-point  44 :   0.4167 0.0000 0.2500  plane waves:     418
 k-point  45 :   0.5000 0.0000 0.2500  plane waves:     420
 k-point  46 :   0.0833 0.0833 0.2500  plane waves:     411
 k-point  47 :   0.1667 0.0833 0.2500  plane waves:     414
 k-point  48 :   0.2500 0.0833 0.2500  plane waves:     415
 k-point  49 :   0.3333 0.0833 0.2500  plane waves:     415
 k-point  50 :   0.4167 0.0833 0.2500  plane waves:     419
 k-point  51 :   0.1667 0.1667 0.2500  plane waves:     416
 k-point  52 :   0.2500 0.1667 0.2500  plane waves:     414
 k-point  53 :   0.3333 0.1667 0.2500  plane waves:     417
 k-point  54 :   0.4167 0.1667 0.2500  plane waves:     421
 k-point  55 :   0.2500 0.2500 0.2500  plane waves:     413
 k-point  56 :   0.3333 0.2500 0.2500  plane waves:     416
 k-point  57 :   0.3333 0.3333 0.2500  plane waves:     426
 k-point  58 :   0.0000 0.0000 0.3750  plane waves:     410
 k-point  59 :   0.0833 0.0000 0.3750  plane waves:     413
 k-point  60 :   0.1667 0.0000 0.3750  plane waves:     417
 k-point  61 :   0.2500 0.0000 0.3750  plane waves:     415
 k-point  62 :   0.3333 0.0000 0.3750  plane waves:     415
 k-point  63 :   0.4167 0.0000 0.3750  plane waves:     415
 k-point  64 :   0.5000 0.0000 0.3750  plane waves:     416
 k-point  65 :   0.0833 0.0833 0.3750  plane waves:     415
 k-point  66 :   0.1667 0.0833 0.3750  plane waves:     412
 k-point  67 :   0.2500 0.0833 0.3750  plane waves:     416
 k-point  68 :   0.3333 0.0833 0.3750  plane waves:     416
 k-point  69 :   0.4167 0.0833 0.3750  plane waves:     417
 k-point  70 :   0.1667 0.1667 0.3750  plane waves:     415
 k-point  71 :   0.2500 0.1667 0.3750  plane waves:     417
 k-point  72 :   0.3333 0.1667 0.3750  plane waves:     415
 k-point  73 :   0.4167 0.1667 0.3750  plane waves:     412
 k-point  74 :   0.2500 0.2500 0.3750  plane waves:     413
 k-point  75 :   0.3333 0.2500 0.3750  plane waves:     418
 k-point  76 :   0.3333 0.3333 0.3750  plane waves:     417
 k-point  77 :   0.0000 0.0000 0.5000  plane waves:     422
 k-point  78 :   0.0833 0.0000 0.5000  plane waves:     406
 k-point  79 :   0.1667 0.0000 0.5000  plane waves:     414
 k-point  80 :   0.2500 0.0000 0.5000  plane waves:     416
 k-point  81 :   0.3333 0.0000 0.5000  plane waves:     418
 k-point  82 :   0.4167 0.0000 0.5000  plane waves:     416
 k-point  83 :   0.5000 0.0000 0.5000  plane waves:     416
 k-point  84 :   0.0833 0.0833 0.5000  plane waves:     412
 k-point  85 :   0.1667 0.0833 0.5000  plane waves:     414
 k-point  86 :   0.2500 0.0833 0.5000  plane waves:     418
 k-point  87 :   0.3333 0.0833 0.5000  plane waves:     418
 k-point  88 :   0.4167 0.0833 0.5000  plane waves:     416
 k-point  89 :   0.1667 0.1667 0.5000  plane waves:     416
 k-point  90 :   0.2500 0.1667 0.5000  plane waves:     416
 k-point  91 :   0.3333 0.1667 0.5000  plane waves:     412
 k-point  92 :   0.4167 0.1667 0.5000  plane waves:     412
 k-point  93 :   0.2500 0.2500 0.5000  plane waves:     420
 k-point  94 :   0.3333 0.2500 0.5000  plane waves:     422
 k-point  95 :   0.3333 0.3333 0.5000  plane waves:     420

 maximum and minimum number of plane-waves per node :       428      391

 maximum number of plane-waves:       428
 maximum index in each direction: 
   IXMAX=    4   IYMAX=    4   IZMAX=    6
   IXMIN=   -4   IYMIN=   -4   IZMIN=   -7


 serial   3D FFT for wavefunctions
 parallel 3D FFT for charge:
    minimum data exchange during FFTs selected (reduces bandwidth)


 total amount of memory used by VASP MPI-rank0    38650. kBytes
=======================================================================

   base      :      30000. kBytes
   nonl-proj :       5923. kBytes
   fftplans  :        172. kBytes
   grid      :       1034. kBytes
   one-center:         62. kBytes
   wavefun   :       1459. kBytes
 
     INWAV:  cpu time      0.0000: real time      0.0004
 Broyden mixing: mesh for mixing (old mesh)
   NGX =  9   NGY =  9   NGZ = 13
  (NGX  = 36   NGY  = 36   NGZ  = 56)
  gives a total of   1053 points

 initial charge density was supplied:
 charge density of overlapping atoms calculated
 number of electron      18.0000000 magnetization       6.0000000
 keeping initial charge density in first step


--------------------------------------------------------------------------------------------------------


 Maximum index for augmentation-charges         1086 (set IRDMAX)


--------------------------------------------------------------------------------------------------------


 First call to EWALD:  gamma=   0.643
 Maximum number of real-space cells 3x 3x 2
 Maximum number of reciprocal cells 3x 3x 4

    FEWALD:  cpu time      0.0015: real time      0.0015


--------------------------------------- Iteration      1(   1)  ---------------------------------------


    POTLOK:  cpu time      0.0068: real time      0.0070
    SETDIJ:  cpu time      0.0054: real time      0.0054
     EDDAV:  cpu time      0.7454: real time      0.7523
       DOS:  cpu time      0.0008: real time      0.0008
    --------------------------------------------
      LOOP:  cpu time      0.7584: real time      0.7655

 eigenvalue-minimisations  :  9120
 total energy-change (2. order) : 0.3811131E+01  (-0.8504107E+03)
 number of electron      18.0000000 magnetization       6.0000000
 augmentation part       18.0000000 magnetization       6.0000000

 Free energy of the ion-electron system (eV)
  ---------------------------------------------------
  alpha Z        PSCENC =        81.04936008
  Ewald energy   TEWEN  =     -1540.68710150
  -Hartree energ DENC   =      -292.12363252
  -exchange      EXHF   =         0.00000000
  -V(xc)+E(xc)   XCENC  =        35.87560679
  PAW double counting   =      1439.98163886    -1545.88690193
  entropy T*S    EENTRO =        -0.00225653
  eigenvalues    EBANDS =       198.88118775
  atomic energy  EATOM  =      1626.72322989
  Solvation  Ediel_sol  =         0.00000000
  ---------------------------------------------------
  free energy    TOTEN  =         3.81113089 eV

  energy without entropy =        3.81338742  energy(sigma->0) =        3.81225915


--------------------------------------------------------------------------------------------------------




--------------------------------------- Iteration      1(   2)  ---------------------------------------


     EDDAV:  cpu time      1.0536: real time      1.0599
       DOS:  cpu time      0.0008: real time      0.0008
    --------------------------------------------
      LOOP:  cpu time      1.0544: real time      1.0607

 eigenvalue-minimisations  : 11232
 total energy-change (2. order) :-0.1925206E+02  (-0.1904369E+02)
 number of electron      18.0000000 magnetization       6.0000000
 augmentation part       18.0000000 magnetization       6.0000000

 Free energy of the ion-electron system (eV)
  ---------------------------------------------------
  alpha Z        PSCENC =        81.04936008
  Ewald energy   TEWEN  =     -1540.68710150
  -Hartree energ DENC   =      -292.12363252
  -exchange      EXHF   =         0.00000000
  -V(xc)+E(xc)   XCENC  =        35.87560679
  PAW double counting   =      1439.98163886    -1545.88690193
  entropy T*S    EENTRO =        -0.00180077
  eigenvalues    EBANDS =       179.62867425
  atomic energy  EATOM  =      1626.72322989
  Solvation  Ediel_sol  =         0.00000000
  ---------------------------------------------------
  free energy    TOTEN  =       -15.44092684 eV

  energy without entropy =      -15.43912608  energy(sigma->0) =      -15.44002646


--------------------------------------------------------------------------------------------------------




--------------------------------------- Iteration      1(   3)  ---------------------------------------


     EDDAV:  cpu time      1.1627: real time      1.1690
       DOS:  cpu time      0.0007: real time      0.0007
    --------------------------------------------
      LOOP:  cpu time      1.1634: real time      1.1697

 eigenvalue-minimisations  : 11760
 total energy-change (2. order) :-0.1180658E+00  (-0.1180351E+00)
 number of electron      18.0000000 magnetization       6.0000000
 augmentation part       18.0000000 magnetization       6.0000000

 Free energy of the ion-electron system (eV)
  ---------------------------------------------------
  alpha Z        PSCENC =        81.04936008
  Ewald energy   TEWEN  =     -1540.68710150
  -Hartree energ DENC   =      -292.12363252
  -exchange      EXHF   =         0.00000000
  -V(xc)+E(xc)   XCENC  =        35.87560679
  PAW double counting   =      1439.98163886    -1545.88690193
  entropy T*S    EENTRO =        -0.00186331
  eigenvalues    EBANDS =       179.51067102
  atomic energy  EATOM  =      1626.72322989
  Solvation  Ediel_sol  =         0.00000000
  ---------------------------------------------------
  free energy    TOTEN  =       -15.55899261 eV

  energy without entropy =      -15.55712931  energy(sigma->0) =      -15.55806096


--------------------------------------------------------------------------------------------------------




--------------------------------------- Iteration      1(   4)  ---------------------------------------


     EDDAV:  cpu time      1.4098: real time      1.4168
       DOS:  cpu time      0.0008: real time      0.0008
    --------------------------------------------
      LOOP:  cpu time      1.4106: real time      1.4176

 eigenvalue-minimisations  : 13176
 total energy-change (2. order) :-0.6918177E-03  (-0.6918002E-03)
 number of electron      18.0000000 magnetization       6.0000000
 augmentation part       18.0000000 magnetization       6.0000000

 Free energy of the ion-electron system (eV)
  ---------------------------------------------------
  alpha Z        PSCENC =        81.04936008
  Ewald energy   TEWEN  =     -1540.68710150
  -Hartree energ DENC   =      -292.12363252
  -exchange      EXHF   =         0.00000000
  -V(xc)+E(xc)   XCENC  =        35.87560679
  PAW double counting   =      1439.98163886    -1545.88690193
  entropy T*S    EENTRO =        -0.00186361
  eigenvalues    EBANDS =       179.50997951
  atomic energy  EATOM  =      1626.72322989
  Solvation  Ediel_sol  =         0.00000000
  ---------------------------------------------------
  free energy    TOTEN  =       -15.55968443 eV

  energy without entropy =      -15.55782082  energy(sigma->0) =      -15.55875262


--------------------------------------------------------------------------------------------------------




--------------------------------------- Iteration      1(   5)  ---------------------------------------


     EDDAV:  cpu time      1.3030: real time      1.3100
       DOS:  cpu time      0.0008: real time      0.0008
    CHARGE:  cpu time      0.0331: real time      0.0332
    MIXING:  cpu time      0.0003: real time      0.0003
    --------------------------------------------
      LOOP:  cpu time      1.3371: real time      1.3442

 eigenvalue-minimisations  : 12312
 total energy-change (2. order) :-0.6147775E-06  (-0.6146261E-06)
 number of electron      17.9999980 magnetization       3.3944523
 augmentation part        9.1783976 magnetization       2.6423821

 Broyden mixing:
  rms(total) = 0.16820E+01    rms(broyden)= 0.16820E+01
  rms(prec ) = 0.27367E+01
  weight for this iteration     100.00

 Free energy of the ion-electron system (eV)
  ---------------------------------------------------
  alpha Z        PSCENC =        81.04936008
  Ewald energy   TEWEN  =     -1540.68710150
  -Hartree energ DENC   =      -292.12363252
  -exchange      EXHF   =         0.00000000
  -V(xc)+E(xc)   XCENC  =        35.87560679
  PAW double counting   =      1439.98163886    -1545.88690193
  entropy T*S    EENTRO =        -0.00186362
  eigenvalues    EBANDS =       179.50997890
  atomic energy  EATOM  =      1626.72322989
  Solvation  Ediel_sol  =         0.00000000
  ---------------------------------------------------
  free energy    TOTEN  =       -15.55968505 eV

  energy without entropy =      -15.55782143  energy(sigma->0) =      -15.55875324


--------------------------------------------------------------------------------------------------------




--------------------------------------- Iteration      1(   6)  ---------------------------------------


    POTLOK:  cpu time      0.0057: real time      0.0059
    SETDIJ:  cpu time      0.0054: real time      0.0054
     EDDAV:  cpu time      1.8762: real time      1.8854
       DOS:  cpu time      0.0008: real time      0.0008
    CHARGE:  cpu time      0.0325: real time      0.0326
    MIXING:  cpu time      0.0003: real time      0.0003
    --------------------------------------------
      LOOP:  cpu time      1.9208: real time      1.9303

 eigenvalue-minimisations  : 15696
 total energy-change (2. order) : 0.1159811E+01  (-0.2790699E+01)
 number of electron      17.9999977 magnetization       3.1852979
 augmentation part       10.6367178 magnetization       2.8216079

 Broyden mixing:
  rms(total) = 0.59267E+00    rms(broyden)= 0.59264E+00
  rms(prec ) = 0.79815E+00
  weight for this iteration     100.00

 eigenvalues of (default mixing * dielectric matrix)
  average eigenvalue GAMMA=   0.9450
  0.9450

 Free energy of the ion-electron system (eV)
  ---------------------------------------------------
  alpha Z        PSCENC =        81.04936008
  Ewald energy   TEWEN  =     -1540.68710150
  -Hartree energ DENC   =      -256.00308377
  -exchange      EXHF   =         0.00000000
  -V(xc)+E(xc)   XCENC  =        32.86034172
  PAW double counting   =      1607.17055513    -1703.28128481
  entropy T*S    EENTRO =        -0.00248535
  eigenvalues    EBANDS =       137.77059418
  atomic energy  EATOM  =      1626.72322989
  Solvation  Ediel_sol  =         0.00000000
  ---------------------------------------------------
  free energy    TOTEN  =       -14.39987444 eV

  energy without entropy =      -14.39738909  energy(sigma->0) =      -14.39863177


--------------------------------------------------------------------------------------------------------




--------------------------------------- Iteration      1(   7)  ---------------------------------------


    POTLOK:  cpu time      0.0057: real time      0.0059
    SETDIJ:  cpu time      0.0052: real time      0.0052
     EDDAV:  cpu time      1.8801: real time      1.8892
       DOS:  cpu time      0.0008: real time      0.0008
    CHARGE:  cpu time      0.0323: real time      0.0324
    MIXING:  cpu time      0.0003: real time      0.0003
    --------------------------------------------
      LOOP:  cpu time      1.9244: real time      1.9338

 eigenvalue-minimisations  : 15696
 total energy-change (2. order) : 0.3088925E+00  (-0.3102916E+00)
 number of electron      17.9999978 magnetization       3.1529169
 augmentation part       10.1534447 magnetization       2.8274752

 Broyden mixing:
  rms(total) = 0.37642E+00    rms(broyden)= 0.37642E+00
  rms(prec ) = 0.46079E+00
  weight for this iteration     100.00

 eigenvalues of (default mixing * dielectric matrix)
  average eigenvalue GAMMA=   0.7589
  1.0497  0.4681

 Free energy of the ion-electron system (eV)
  ---------------------------------------------------
  alpha Z        PSCENC =        81.04936008
  Ewald energy   TEWEN  =     -1540.68710150
  -Hartree energ DENC   =      -263.27462604
  -exchange      EXHF   =         0.00000000
  -V(xc)+E(xc)   XCENC  =        33.30794258
  PAW double counting   =      1683.29169974    -1786.16477678
  entropy T*S    EENTRO =        -0.00175212
  eigenvalues    EBANDS =       151.66504223
  atomic energy  EATOM  =      1626.72322989
  Solvation  Ediel_sol  =         0.00000000
  ---------------------------------------------------
  free energy    TOTEN  =       -14.09098193 eV

  energy without entropy =      -14.08922981  energy(sigma->0) =      -14.09010587


--------------------------------------------------------------------------------------------------------




--------------------------------------- Iteration      1(   8)  ---------------------------------------


    POTLOK:  cpu time      0.0055: real time      0.0057
    SETDIJ:  cpu time      0.0051: real time      0.0051
     EDDAV:  cpu time      1.9690: real time      1.9785
       DOS:  cpu time      0.0008: real time      0.0008
    CHARGE:  cpu time      0.0321: real time      0.0322
    MIXING:  cpu time      0.0003: real time      0.0003
    --------------------------------------------
      LOOP:  cpu time      2.0128: real time      2.0226

 eigenvalue-minimisations  : 16128
 total energy-change (2. order) : 0.2882496E-01  (-0.4258937E-02)
 number of electron      17.9999978 magnetization       3.1641195
 augmentation part       10.2030598 magnetization       2.8571572

 Broyden mixing:
  rms(total) = 0.17253E+00    rms(broyden)= 0.17253E+00
  rms(prec ) = 0.22092E+00
  weight for this iteration     100.00

 eigenvalues of (default mixing * dielectric matrix)
  average eigenvalue GAMMA=   1.0331
  1.7490  0.7833  0.5669

 Free energy of the ion-electron system (eV)
  ---------------------------------------------------
  alpha Z        PSCENC =        81.04936008
  Ewald energy   TEWEN  =     -1540.68710150
  -Hartree energ DENC   =      -260.45835041
  -exchange      EXHF   =         0.00000000
  -V(xc)+E(xc)   XCENC  =        33.19493980
  PAW double counting   =      1743.97429589    -1848.04105866
  entropy T*S    EENTRO =        -0.00169765
  eigenvalues    EBANDS =       150.18422559
  atomic energy  EATOM  =      1626.72322989
  Solvation  Ediel_sol  =         0.00000000
  ---------------------------------------------------
  free energy    TOTEN  =       -14.06215697 eV

  energy without entropy =      -14.06045932  energy(sigma->0) =      -14.06130815


--------------------------------------------------------------------------------------------------------




--------------------------------------- Iteration      1(   9)  ---------------------------------------


    POTLOK:  cpu time      0.0054: real time      0.0056
    SETDIJ:  cpu time      0.0050: real time      0.0051
     EDDAV:  cpu time      2.1662: real time      2.1767
       DOS:  cpu time      0.0008: real time      0.0008
    CHARGE:  cpu time      0.0320: real time      0.0321
    MIXING:  cpu time      0.0003: real time      0.0003
    --------------------------------------------
      LOOP:  cpu time      2.2098: real time      2.2206

 eigenvalue-minimisations  : 17232
 total energy-change (2. order) : 0.1380841E-01  (-0.1991173E-02)
 number of electron      17.9999978 magnetization       3.1851057
 augmentation part       10.2407093 magnetization       2.8868859

 Broyden mixing:
  rms(total) = 0.47139E-01    rms(broyden)= 0.47139E-01
  rms(prec ) = 0.55189E-01
  weight for this iteration     100.00

 eigenvalues of (default mixing * dielectric matrix)
  average eigenvalue GAMMA=   1.1521
  2.3057  0.9478  0.7413  0.6137

 Free energy of the ion-electron system (eV)
  ---------------------------------------------------
  alpha Z        PSCENC =        81.04936008
  Ewald energy   TEWEN  =     -1540.68710150
  -Hartree energ DENC   =      -257.81576148
  -exchange      EXHF   =         0.00000000
  -V(xc)+E(xc)   XCENC  =        33.09673255
  PAW double counting   =      1811.50323920    -1917.01043344
  entropy T*S    EENTRO =        -0.00179014
  eigenvalues    EBANDS =       149.09417627
  atomic energy  EATOM  =      1626.72322989
  Solvation  Ediel_sol  =         0.00000000
  ---------------------------------------------------
  free energy    TOTEN  =       -14.04834856 eV

  energy without entropy =      -14.04655842  energy(sigma->0) =      -14.04745349


--------------------------------------------------------------------------------------------------------




--------------------------------------- Iteration      1(  10)  ---------------------------------------


    POTLOK:  cpu time      0.0055: real time      0.0057
    SETDIJ:  cpu time      0.0050: real time      0.0051
     EDDAV:  cpu time      2.0844: real time      2.0970
       DOS:  cpu time      0.0008: real time      0.0008
    CHARGE:  cpu time      0.0325: real time      0.0326
    MIXING:  cpu time      0.0004: real time      0.0004
    --------------------------------------------
      LOOP:  cpu time      2.1286: real time      2.1415

 eigenvalue-minimisations  : 16656
 total energy-change (2. order) : 0.1085569E-02  (-0.1333347E-03)
 number of electron      17.9999978 magnetization       3.1809150
 augmentation part       10.2428425 magnetization       2.8744602

 Broyden mixing:
  rms(total) = 0.49107E-02    rms(broyden)= 0.49106E-02
  rms(prec ) = 0.68871E-02
  weight for this iteration     100.00

 eigenvalues of (default mixing * dielectric matrix)
  average eigenvalue GAMMA=   1.1670
  2.3304  1.0932  1.0932  0.6591  0.6591

 Free energy of the ion-electron system (eV)
  ---------------------------------------------------
  alpha Z        PSCENC =        81.04936008
  Ewald energy   TEWEN  =     -1540.68710150
  -Hartree energ DENC   =      -256.96134314
  -exchange      EXHF   =         0.00000000
  -V(xc)+E(xc)   XCENC  =        33.05041213
  PAW double counting   =      1842.64984469    -1948.91139351
  entropy T*S    EENTRO =        -0.00182410
  eigenvalues    EBANDS =       149.04155247
  atomic energy  EATOM  =      1626.72322989
  Solvation  Ediel_sol  =         0.00000000
  ---------------------------------------------------
  free energy    TOTEN  =       -14.04726299 eV

  energy without entropy =      -14.04543889  energy(sigma->0) =      -14.04635094


--------------------------------------------------------------------------------------------------------




--------------------------------------- Iteration      1(  11)  ---------------------------------------


    POTLOK:  cpu time      0.0054: real time      0.0057
    SETDIJ:  cpu time      0.0052: real time      0.0052
     EDDAV:  cpu time      1.5890: real time      1.5969
       DOS:  cpu time      0.0008: real time      0.0008
    CHARGE:  cpu time      0.0318: real time      0.0319
    MIXING:  cpu time      0.0003: real time      0.0003
    --------------------------------------------
      LOOP:  cpu time      1.6325: real time      1.6408

 eigenvalue-minimisations  : 13896
 total energy-change (2. order) :-0.5017077E-05  (-0.8328999E-05)
 number of electron      17.9999978 magnetization       3.1782001
 augmentation part       10.2437814 magnetization       2.8707015

 Broyden mixing:
  rms(total) = 0.25632E-02    rms(broyden)= 0.25631E-02
  rms(prec ) = 0.35402E-02
  weight for this iteration     100.00

 eigenvalues of (default mixing * dielectric matrix)
  average eigenvalue GAMMA=   1.1117
  2.3121  1.1409  1.1409  0.6214  0.7275  0.7275

 Free energy of the ion-electron system (eV)
  ---------------------------------------------------
  alpha Z        PSCENC =        81.04936008
  Ewald energy   TEWEN  =     -1540.68710150
  -Hartree energ DENC   =      -256.91578888
  -exchange      EXHF   =         0.00000000
  -V(xc)+E(xc)   XCENC  =        33.04182756
  PAW double counting   =      1845.26392681    -1951.54823796
  entropy T*S    EENTRO =        -0.00186868
  eigenvalues    EBANDS =       149.02738469
  atomic energy  EATOM  =      1626.72322989
  Solvation  Ediel_sol  =         0.00000000
  ---------------------------------------------------
  free energy    TOTEN  =       -14.04726801 eV

  energy without entropy =      -14.04539933  energy(sigma->0) =      -14.04633367


--------------------------------------------------------------------------------------------------------




--------------------------------------- Iteration      1(  12)  ---------------------------------------


    POTLOK:  cpu time      0.0052: real time      0.0054
    SETDIJ:  cpu time      0.0049: real time      0.0049
     EDDAV:  cpu time      1.3464: real time      1.3530
       DOS:  cpu time      0.0008: real time      0.0008
    CHARGE:  cpu time      0.0318: real time      0.0319
    MIXING:  cpu time      0.0003: real time      0.0003
    --------------------------------------------
      LOOP:  cpu time      1.3894: real time      1.3962

 eigenvalue-minimisations  : 12744
 total energy-change (2. order) : 0.3226256E-05  (-0.3873756E-06)
 number of electron      17.9999978 magnetization       3.1785546
 augmentation part       10.2438647 magnetization       2.8710594

 Broyden mixing:
  rms(total) = 0.13969E-02    rms(broyden)= 0.13969E-02
  rms(prec ) = 0.22250E-02
  weight for this iteration     100.00

 eigenvalues of (default mixing * dielectric matrix)
  average eigenvalue GAMMA=   1.2596
  2.4373  2.1243  1.1255  1.1255  0.6465  0.6465  0.7113

 Free energy of the ion-electron system (eV)
  ---------------------------------------------------
  alpha Z        PSCENC =        81.04936008
  Ewald energy   TEWEN  =     -1540.68710150
  -Hartree energ DENC   =      -256.89572670
  -exchange      EXHF   =         0.00000000
  -V(xc)+E(xc)   XCENC  =        33.03956741
  PAW double counting   =      1846.79722080    -1953.09693643
  entropy T*S    EENTRO =        -0.00187176
  eigenvalues    EBANDS =       149.02499341
  atomic energy  EATOM  =      1626.72322989
  Solvation  Ediel_sol  =         0.00000000
  ---------------------------------------------------
  free energy    TOTEN  =       -14.04726478 eV

  energy without entropy =      -14.04539303  energy(sigma->0) =      -14.04632891


--------------------------------------------------------------------------------------------------------




--------------------------------------- Iteration      1(  13)  ---------------------------------------


    POTLOK:  cpu time      0.0052: real time      0.0054
    SETDIJ:  cpu time      0.0049: real time      0.0050
     EDDAV:  cpu time      2.0758: real time      2.0859
       DOS:  cpu time      0.0008: real time      0.0008
    --------------------------------------------
      LOOP:  cpu time      2.0867: real time      2.0971

 eigenvalue-minimisations  : 16608
 total energy-change (2. order) : 0.3287794E-06  (-0.5217892E-06)
 number of electron      17.9999978 magnetization       3.1785546
 augmentation part       10.2438647 magnetization       2.8710594

 Free energy of the ion-electron system (eV)
  ---------------------------------------------------
  alpha Z        PSCENC =        81.04936008
  Ewald energy   TEWEN  =     -1540.68710150
  -Hartree energ DENC   =      -256.85035592
  -exchange      EXHF   =         0.00000000
  -V(xc)+E(xc)   XCENC  =        33.03810557
  PAW double counting   =      1849.15940634    -1955.48887499
  entropy T*S    EENTRO =        -0.00187933
  eigenvalues    EBANDS =       149.01084541
  atomic energy  EATOM  =      1626.72322989
  Solvation  Ediel_sol  =         0.00000000
  ---------------------------------------------------
  free energy    TOTEN  =       -14.04726446 eV

  energy without entropy =      -14.04538513  energy(sigma->0) =      -14.04632479


--------------------------------------------------------------------------------------------------------




 average (electrostatic) potential at core
  the test charge radii are     1.0452
  (the norm of the test charge is              1.0000)
       1 -77.7877       2 -77.7877
 
 
 
 E-fermi :  10.7705     XC(G=0): -13.6265     alpha+bet :-18.4020

 Fermi energy:        10.7705380582

 spin component 1

 k-point     1 :       0.0000    0.0000    0.0000
  band No.  band energies     occupation 
      1       1.6652      1.00000
      2       5.4826      1.00000
      3       8.1325      1.00000
      4       8.1388      1.00000
      5       8.1388      1.00000
      6       8.4736      1.00000
      7       8.4736      1.00000
      8       8.8394      1.00000
      9       8.8394      1.00000
     10      10.0131      1.00000
     11      10.0131      1.00000
     12      10.7316      0.86447
     13      17.5170      0.00000
     14      33.0551      0.00000
     15      35.9706      0.00000
     16      35.9706      0.00000
     17      36.2908      0.00000
     18      36.7178      0.00000
     19      37.2858      0.00000
     20      37.2858      0.00000
     21      41.8074      0.00000
     22      41.8074      0.00000
     23      42.9175      0.00000
     24      43.2555      0.00000

 k-point     2 :       0.0833    0.0000    0.0000
  band No.  band energies     occupation 
      1       1.9150      1.00000
      2       5.6324      1.00000
      3       7.8931      1.00000
      4       8.2579      1.00000
      5       8.3369      1.00000
      6       8.4257      1.00000
      7       8.5787      1.00000
      8       8.6798      1.00000
      9       8.7642      1.00000
     10       9.1969      1.00000
     11      10.0455      1.00000
     12      11.8739      0.00000
     13      17.5571      0.00000
     14      31.3112      0.00000
     15      33.6947      0.00000
     16      33.7794      0.00000
     17      36.7315      0.00000
     18      37.2246      0.00000
     19      38.6226      0.00000
     20      39.6960      0.00000
     21      40.4660      0.00000
     22      41.3173      0.00000
     23      42.4892      0.00000
     24      42.7426      0.00000

 k-point     3 :       0.1667    0.0000    0.0000
  band No.  band energies     occupation 
      1       2.6363      1.00000
      2       6.0015      1.00000
      3       7.6025      1.00000
      4       7.9356      1.00000
      5       8.2457      1.00000
      6       8.5788      1.00000
      7       8.5949      1.00000
      8       8.6585      1.00000
      9       8.8046      1.00000
     10       8.8739      1.00000
     11      10.1147      1.00000
     12      13.5207      0.00000
     13      17.6985      0.00000
     14      27.4989      0.00000
     15      31.3239      0.00000
     16      32.7267      0.00000
     17      34.6536      0.00000
     18      36.8415      0.00000
     19      37.8297      0.00000
     20      40.1128      0.00000
     21      40.5234      0.00000
     22      41.3592      0.00000
     23      41.8534      0.00000
     24      43.5815      0.00000

 k-point     4 :       0.2500    0.0000    0.0000
  band No.  band energies     occupation 
      1       3.7224      1.00000
      2       6.2911      1.00000
      3       7.1743      1.00000
      4       7.4288      1.00000
      5       8.1521      1.00000
      6       8.3561      1.00000
      7       8.5958      1.00000
      8       9.0833      1.00000
      9       9.1088      1.00000
     10       9.2986      1.00000
     11      10.1802      1.00000
     12      15.3707      0.00000
     13      17.9692      0.00000
     14      23.7519      0.00000
     15      29.1898      0.00000
     16      31.2727      0.00000
     17      31.5328      0.00000
     18      35.6805      0.00000
     19      35.8330      0.00000
     20      39.8754      0.00000
     21      39.8831      0.00000
     22      40.6571      0.00000
     23      41.9027      0.00000
     24      44.8022      0.00000

 k-point     5 :       0.3333    0.0000    0.0000
  band No.  band energies     occupation 
      1       4.8925      1.00000
      2       6.2128      1.00000
      3       6.6178      1.00000
      4       7.5521      1.00000
      5       8.1558      1.00000
      6       8.2850      1.00000
      7       8.4121      1.00000
      8       9.6036      1.00000
      9       9.7591      1.00000
     10       9.8285      1.00000
     11      10.2252      1.00000
     12      17.3803      0.00000
     13      17.9884      0.00000
     14      20.8776      0.00000
     15      27.4923      0.00000
     16      28.1704      0.00000
     17      29.3004      0.00000
     18      34.1484      0.00000
     19      34.6871      0.00000
     20      38.0441      0.00000
     21      39.4325      0.00000
     22      41.4860      0.00000
     23      43.7112      0.00000
     24      45.7575      0.00000

 k-point     6 :       0.4167    0.0000    0.0000
  band No.  band energies     occupation 
      1       5.6366      1.00000
      2       6.0193      1.00000
      3       6.2836      1.00000
      4       7.9424      1.00000
      5       8.0191      1.00000
      6       8.2827      1.00000
      7       8.4986      1.00000
      8       9.9931      1.00000
      9      10.1404      1.00000
     10      10.2495      1.00000
     11      10.9936      0.00000
     12      16.0569      0.00000
     13      19.4518      0.00000
     14      20.7886      0.00000
     15      25.4578      0.00000
     16      26.3737      0.00000
     17      26.6810      0.00000
     18      33.6236      0.00000
     19      33.8973      0.00000
     20      36.8431      0.00000
     21      39.1786      0.00000
     22      42.0092      0.00000
     23      46.1841      0.00000
     24      46.2232      0.00000

 k-point     7 :       0.5000    0.0000    0.0000
  band No.  band energies     occupation 
      1       5.8550      1.00000
      2       5.9060      1.00000
      3       6.1722      1.00000
      4       7.9708      1.00000
      5       8.2025      1.00000
      6       8.2361      1.00000
      7       8.5794      1.00000
      8      10.1340      1.00000
      9      10.2568      1.00000
     10      10.2948      1.00000
     11      12.1901      0.00000
     12      14.2890      0.00000
     13      20.8027      0.00000
     14      21.4967      0.00000
     15      23.8962      0.00000
     16      25.2619      0.00000
     17      25.9789      0.00000
     18      33.4969      0.00000
     19      33.6220      0.00000
     20      36.4251      0.00000
     21      39.0964      0.00000
     22      42.2042      0.00000
     23      46.3508      0.00000
     24      47.3455      0.00000

 k-point     8 :       0.0833    0.0833    0.0000
  band No.  band energies     occupation 
      1       2.4015      1.00000
      2       5.8981      1.00000
      3       7.6637      1.00000
      4       8.1936      1.00000
      5       8.3149      1.00000
      6       8.5017      1.00000
      7       8.5030      1.00000
      8       8.5504      1.00000
      9       8.8120      1.00000
     10       8.9296      1.00000
     11      10.0860      1.00000
     12      13.0596      0.00000
     13      17.6500      0.00000
     14      29.2285      0.00000
     15      30.0470      0.00000
     16      35.2836      0.00000
     17      36.1621      0.00000
     18      36.3244      0.00000
     19      36.5129      0.00000
     20      39.7885      0.00000
     21      40.8461      0.00000
     22      41.4371      0.00000
     23      43.4159      0.00000
     24      43.8921      0.00000

 k-point     9 :       0.1667    0.0833    0.0000
  band No.  band energies     occupation 
      1       3.3146      1.00000
      2       6.2746      1.00000
      3       7.3766      1.00000
      4       7.4551      1.00000
      5       8.1911      1.00000
      6       8.3149      1.00000
      7       8.7677      1.00000
      8       8.7702      1.00000
      9       8.9463      1.00000
     10       9.2491      1.00000
     11      10.1360      1.00000
     12      14.7040      0.00000
     13      17.8788      0.00000
     14      25.6637      0.00000
     15      27.9259      0.00000
     16      32.9719      0.00000
     17      34.0328      0.00000
     18      35.0657      0.00000
     19      36.7645      0.00000
     20      38.2997      0.00000
     21      39.9500      0.00000
     22      42.0704      0.00000
     23      43.4876      0.00000
     24      43.9588      0.00000

 k-point    10 :       0.2500    0.0833    0.0000
  band No.  band energies     occupation 
      1       4.4829      1.00000
      2       6.3898      1.00000
      3       6.8465      1.00000
      4       7.3065      1.00000
      5       8.1179      1.00000
      6       8.2076      1.00000
      7       8.5637      1.00000
      8       9.1912      1.00000
      9       9.4736      1.00000
     10       9.8439      1.00000
     11      10.1782      1.00000
     12      16.5940      0.00000
     13      18.2148      0.00000
     14      22.1779      0.00000
     15      26.3474      0.00000
     16      29.7904      0.00000
     17      31.3477      0.00000
     18      33.7837      0.00000
     19      36.1363      0.00000
     20      36.5888      0.00000
     21      40.5966      0.00000
     22      43.3802      0.00000
     23      43.6438      0.00000
     24      44.6311      0.00000

 k-point    11 :       0.3333    0.0833    0.0000
  band No.  band energies     occupation 
      1       5.4891      1.00000
      2       6.2048      1.00000
      3       6.4319      1.00000
      4       7.5600      1.00000
      5       7.9903      1.00000
      6       8.3624      1.00000
      7       8.4112      1.00000
      8       9.7176      1.00000
      9       9.9242      1.00000
     10      10.2045      1.00000
     11      10.6854      0.99196
     12      17.4363      0.00000
     13      18.6418      0.00000
     14      20.5624      0.00000
     15      25.1166      0.00000
     16      26.8814      0.00000
     17      28.3653      0.00000
     18      32.8414      0.00000
     19      35.4346      0.00000
     20      35.5487      0.00000
     21      40.6741      0.00000
     22      43.7085      0.00000
     23      45.3046      0.00000
     24      46.0628      0.00000

 k-point    12 :       0.4167    0.0833    0.0000
  band No.  band energies     occupation 
      1       5.9127      1.00000
      2       6.0460      1.00000
      3       6.2238      1.00000
      4       7.9393      1.00000
      5       7.9490      1.00000
      6       8.2290      1.00000
      7       8.5748      1.00000
      8      10.0936      1.00000
      9      10.1683      1.00000
     10      10.2161      1.00000
     11      12.0149      0.00000
     12      15.0712      0.00000
     13      20.5995      0.00000
     14      21.4043      0.00000
     15      24.3017      0.00000
     16      24.4989      0.00000
     17      26.1055      0.00000
     18      32.3491      0.00000
     19      34.8314      0.00000
     20      35.2420      0.00000
     21      40.5797      0.00000
     22      43.9317      0.00000
     23      46.3757      0.00000
     24      47.3574      0.00000

 k-point    13 :       0.1667    0.1667    0.0000
  band No.  band energies     occupation 
      1       4.3385      1.00000
      2       6.5796      1.00000
      3       6.9667      1.00000
[...]
     22      40.6927      0.00000
     23      44.4074      0.00000
     24      44.4074      0.00000

 k-point    90 :       0.2500    0.1667    0.5000
  band No.  band energies     occupation 
      1       6.7457      1.00000
      2       6.7457      1.00000
      3       8.5745      1.00000
      4       8.5745      1.00000
      5       9.2685      1.00000
      6       9.2685      1.00000
      7      10.5169      1.00000
      8      10.5169      1.00000
      9      12.0411      0.00000
     10      12.0411      0.00000
     11      12.9729      0.00000
     12      12.9729      0.00000
     13      23.4184      0.00000
     14      23.4184      0.00000
     15      25.8469      0.00000
     16      25.8469      0.00000
     17      30.1734      0.00000
     18      30.1734      0.00000
     19      38.7507      0.00000
     20      38.7507      0.00000
     21      41.5677      0.00000
     22      41.5677      0.00000
     23      42.9514      0.00000
     24      42.9514      0.00000

 k-point    91 :       0.3333    0.1667    0.5000
  band No.  band energies     occupation 
      1       7.0398      1.00000
      2       7.0398      1.00000
      3       8.5288      1.00000
      4       8.5288      1.00000
      5       9.4506      1.00000
      6       9.4506      1.00000
      7      10.6734      0.99699
      8      10.6734      0.99699
      9      12.0364      0.00000
     10      12.0364      0.00000
     11      14.1300      0.00000
     12      14.1300      0.00000
     13      20.7384      0.00000
     14      20.7384      0.00000
     15      25.1299      0.00000
     16      25.1299      0.00000
     17      31.4489      0.00000
     18      31.4489      0.00000
     19      37.2959      0.00000
     20      37.2959      0.00000
     21      40.0653      0.00000
     22      40.0653      0.00000
     23      43.9587      0.00000
     24      43.9587      0.00000

 k-point    92 :       0.4167    0.1667    0.5000
  band No.  band energies     occupation 
      1       7.1044      1.00000
      2       7.1044      1.00000
      3       8.5128      1.00000
      4       8.5128      1.00000
      5       9.5086      1.00000
      6       9.5086      1.00000
      7      10.8520      0.01063
      8      10.8520      0.01063
      9      11.9688      0.00000
     10      11.9688      0.00000
     11      14.8947      0.00000
     12      14.8947      0.00000
     13      19.4438      0.00000
     14      19.4438      0.00000
     15      24.8813      0.00000
     16      24.8813      0.00000
     17      32.1920      0.00000
     18      32.1920      0.00000
     19      36.4731      0.00000
     20      36.4731      0.00000
     21      39.5025      0.00000
     22      39.5025      0.00000
     23      44.2455      0.00000
     24      44.2455      0.00000

 k-point    93 :       0.2500    0.2500    0.5000
  band No.  band energies     occupation 
      1       7.2455      1.00000
      2       7.2455      1.00000
      3       8.6067      1.00000
      4       8.6067      1.00000
      5       9.0896      1.00000
      6       9.0896      1.00000
      7      10.4957      1.00000
      8      10.4957      1.00000
      9      12.0615      0.00000
     10      12.0615      0.00000
     11      14.3523      0.00000
     12      14.3523      0.00000
     13      22.0555      0.00000
     14      22.0555      0.00000
     15      23.2560      0.00000
     16      23.2560      0.00000
     17      31.5318      0.00000
     18      31.5318      0.00000
     19      38.4527      0.00000
     20      38.4527      0.00000
     21      40.0497      0.00000
     22      40.0497      0.00000
     23      44.4108      0.00000
     24      44.4108      0.00000

 k-point    94 :       0.3333    0.2500    0.5000
  band No.  band energies     occupation 
      1       7.5454      1.00000
      2       7.5454      1.00000
      3       8.5524      1.00000
      4       8.5524      1.00000
      5       9.0116      1.00000
      6       9.0116      1.00000
      7      10.6079      1.00000
      8      10.6079      1.00000
      9      11.9570      0.00000
     10      11.9570      0.00000
     11      15.9279      0.00000
     12      15.9279      0.00000
     13      19.9380      0.00000
     14      19.9380      0.00000
     15      22.4917      0.00000
     16      22.4917      0.00000
     17      33.0247      0.00000
     18      33.0247      0.00000
     19      36.6739      0.00000
     20      36.6739      0.00000
     21      39.4468      0.00000
     22      39.4468      0.00000
     23      45.9058      0.00000
     24      45.9058      0.00000

 k-point    95 :       0.3333    0.3333    0.5000
  band No.  band energies     occupation 
      1       8.0610      1.00000
      2       8.0610      1.00000
      3       8.1349      1.00000
      4       8.1349      1.00000
      5       8.9687      1.00000
      6       8.9687      1.00000
      7      10.5756      1.00000
      8      10.5756      1.00000
      9      11.9015      0.00000
     10      11.9015      0.00000
     11      17.3340      0.00000
     12      17.3340      0.00000
     13      19.0612      0.00000
     14      19.0612      0.00000
     15      21.4220      0.00000
     16      21.4220      0.00000
     17      34.8142      0.00000
     18      34.8142      0.00000
     19      34.9900      0.00000
     20      34.9900      0.00000
     21      39.1054      0.00000
     22      39.1054      0.00000
     23      49.2207      0.00000
     24      49.2207      0.00000


--------------------------------------------------------------------------------------------------------


 soft charge-density along one line, spin component           1
         0         1         2         3         4         5         6         7         8         9
 total charge-density along one line
 
 soft charge-density along one line, spin component           2
         0         1         2         3         4         5         6         7         8         9
 total charge-density along one line
 
 pseudopotential strength for first ion, spin component:           1
 -0.270  -0.000  -0.000   0.000   0.000  -0.917  -0.000  -0.000
 -0.000  -0.269   0.000  -0.000  -0.000  -0.000  -0.916   0.000
 -0.000   0.000  -0.270  -0.000   0.000  -0.000   0.000  -0.917
  0.000  -0.000  -0.000  -0.269  -0.000   0.000  -0.000  -0.000
  0.000  -0.000   0.000  -0.000  -0.270   0.000  -0.000   0.000
 -0.917  -0.000  -0.000   0.000   0.000  -1.504  -0.000  -0.000
 -0.000  -0.916   0.000  -0.000  -0.000  -0.000  -1.503   0.000
 -0.000   0.000  -0.917  -0.000   0.000  -0.000   0.000  -1.504
  0.000  -0.000  -0.000  -0.916  -0.000   0.000  -0.000  -0.000
  0.000  -0.000   0.000  -0.000  -0.917   0.000  -0.000   0.000
  0.000  -0.000  -0.000   0.000   0.000   0.000  -0.000  -0.000
  0.000  -0.000  -0.000   0.000   0.000   0.000  -0.000  -0.000
 -0.000  -0.000  -0.000  -0.000   0.001  -0.000  -0.000  -0.000
 -0.000   0.000  -0.000  -0.000   0.000  -0.000   0.000  -0.000
  0.001  -0.000   0.000   0.000  -0.000   0.001  -0.000   0.000
 -0.000  -0.000  -0.000  -0.000   0.001  -0.000  -0.000  -0.000
 -0.000   0.000  -0.000  -0.000   0.000  -0.000   0.000  -0.000
  0.001  -0.000   0.000  -0.000  -0.000   0.001  -0.000   0.000
 pseudopotential strength for first ion, spin component:           2
  1.050  -0.000  -0.000   0.000   0.000   0.348  -0.000  -0.000
 -0.000   1.059   0.000  -0.000  -0.000  -0.000   0.357   0.000
 -0.000   0.000   1.044  -0.000   0.000  -0.000   0.000   0.342
  0.000  -0.000  -0.000   1.059  -0.000   0.000  -0.000  -0.000
  0.000  -0.000   0.000  -0.000   1.050   0.000  -0.000   0.000
  0.348  -0.000  -0.000   0.000   0.000  -0.293  -0.000  -0.000
 -0.000   0.357   0.000  -0.000  -0.000  -0.000  -0.284   0.000
 -0.000   0.000   0.342  -0.000   0.000  -0.000   0.000  -0.298
  0.000  -0.000  -0.000   0.357  -0.000   0.000  -0.000  -0.000
  0.000  -0.000   0.000  -0.000   0.348   0.000  -0.000   0.000
  0.000  -0.000  -0.000   0.000   0.000   0.000  -0.000  -0.000
  0.000  -0.000  -0.001   0.000   0.000   0.000  -0.000  -0.001
 -0.000  -0.000  -0.000  -0.000   0.001  -0.000  -0.000  -0.000
 -0.000   0.000  -0.000  -0.000   0.000  -0.000   0.000  -0.000
  0.001  -0.000   0.000   0.000  -0.000   0.001  -0.000   0.000
 -0.000  -0.000  -0.000  -0.000   0.000  -0.000  -0.000  -0.000
 -0.000   0.000  -0.000  -0.000   0.000  -0.000   0.000  -0.000
  0.000  -0.000   0.000  -0.000  -0.000   0.000  -0.000   0.000
 total augmentation occupancy for first ion, spin component:           1
  2.971  -0.000  -0.000  -0.000  -0.000  -1.682  -0.000  -0.000   0.000   0.000  -0.000   0.000  -0.000   0.000  -0.044  -0.000
  0.000   3.106   0.000   0.000  -0.000   0.000  -1.746   0.000   0.000   0.000   0.000  -0.000   0.000   0.000  -0.000   0.000
  0.000   0.000   2.843   0.000   0.000   0.000  -0.000  -1.648   0.000  -0.000  -0.022   0.001   0.000   0.000   0.000   0.000
  0.000  -0.000  -0.000   3.106   0.000   0.000   0.000  -0.000  -1.746  -0.000   0.000  -0.000  -0.000   0.000   0.000   0.000
  0.000   0.000   0.000  -0.000   2.971  -0.000  -0.000  -0.000   0.000  -1.682  -0.000   0.000  -0.044   0.000  -0.000   0.003
 -1.682  -0.000   0.000   0.000   0.000   1.945   0.000   0.000   0.000   0.000   0.000   0.000   0.000   0.000   0.062   0.000
 -0.000  -1.746  -0.000   0.000   0.000   0.000   1.944   0.000  -0.000  -0.000   0.000  -0.000   0.000   0.000   0.000  -0.000
  0.000  -0.000  -1.648  -0.000  -0.000   0.000  -0.000   2.001   0.000   0.000   0.025  -0.001   0.000   0.000   0.000   0.000
 -0.000   0.000  -0.000  -1.746   0.000   0.000  -0.000  -0.000   1.944  -0.000   0.000  -0.000   0.000   0.000  -0.000  -0.000
  0.000   0.000  -0.000  -0.000  -1.682   0.000   0.000   0.000  -0.000   1.945   0.000  -0.000   0.062   0.000   0.000  -0.005
 -0.000  -0.000  -0.022   0.000  -0.000   0.000   0.000   0.025   0.000   0.000   2.406  -0.291   0.000   0.000  -0.000   0.000
  0.000  -0.000   0.001  -0.000   0.000   0.000   0.000  -0.001   0.000  -0.000  -0.291   0.043   0.000   0.000  -0.000   0.000
  0.000  -0.000   0.000   0.000  -0.044   0.000   0.000   0.000   0.000   0.062   0.000  -0.000   0.333  -0.000   0.000  -0.032
  0.000   0.000  -0.000   0.000  -0.000   0.000  -0.000   0.000   0.000   0.000  -0.000   0.000   0.000   0.340   0.000  -0.000
 -0.044   0.000  -0.000  -0.000  -0.000   0.062  -0.000   0.000   0.000   0.000  -0.000   0.000   0.000   0.000   0.333   0.000
  0.000   0.000   0.000   0.000   0.003   0.000  -0.000  -0.000   0.000  -0.005   0.000  -0.000  -0.032  -0.000   0.000   0.003
 -0.000   0.000  -0.000   0.000   0.000   0.000   0.000  -0.000  -0.000   0.000   0.000   0.000  -0.000  -0.032   0.000   0.000
  0.003   0.000   0.000  -0.000   0.000  -0.005  -0.000   0.000  -0.000   0.000   0.000   0.000   0.000   0.000  -0.032   0.000
 total augmentation occupancy for first ion, spin component:           2
  2.086  -0.000   0.000   0.000  -0.000  -1.003  -0.000   0.000  -0.000   0.000   0.000  -0.000   0.000   0.000   0.004  -0.000
 -0.000   2.128   0.000  -0.000  -0.000  -0.000  -1.033  -0.000   0.000  -0.000  -0.000   0.000   0.000  -0.000  -0.000  -0.000
  0.000  -0.000   2.111   0.000   0.000  -0.000   0.000  -1.015   0.000  -0.000   0.001  -0.001  -0.000   0.000   0.000   0.000
 -0.000  -0.000   0.000   2.128  -0.000   0.000   0.000   0.000  -1.033   0.000   0.000   0.000   0.000  -0.000   0.000   0.000
  0.000   0.000   0.000   0.000   2.086  -0.000   0.000  -0.000  -0.000  -1.003  -0.000   0.000   0.004   0.000   0.000   0.000
 -1.003  -0.000   0.000  -0.000   0.000   0.286  -0.000   0.000   0.000   0.000  -0.000   0.000  -0.000  -0.000  -0.008   0.000
  0.000  -1.033   0.000  -0.000   0.000  -0.000   0.314  -0.000   0.000   0.000   0.000   0.000   0.000   0.000  -0.000   0.000
  0.000   0.000  -1.015   0.000  -0.000  -0.000   0.000   0.280  -0.000   0.000  -0.003   0.001  -0.000   0.000  -0.000   0.000
  0.000  -0.000   0.000  -1.033   0.000  -0.000   0.000   0.000   0.314  -0.000   0.000   0.000  -0.000   0.000   0.000  -0.000
  0.000   0.000  -0.000   0.000  -1.003   0.000   0.000   0.000  -0.000   0.286   0.000   0.000  -0.008  -0.000   0.000   0.000
  0.000  -0.000   0.001  -0.000   0.000   0.000  -0.000  -0.003   0.000   0.000  -0.308   0.093  -0.000   0.000   0.000  -0.000
  0.000  -0.000  -0.001  -0.000   0.000  -0.000   0.000   0.001   0.000   0.000   0.093  -0.017  -0.000   0.000   0.000   0.000
  0.000  -0.000  -0.000  -0.000   0.004   0.000  -0.000  -0.000   0.000  -0.008  -0.000  -0.000  -0.036   0.000   0.000   0.005
 -0.000  -0.000   0.000   0.000   0.000  -0.000   0.000  -0.000   0.000   0.000   0.000   0.000  -0.000  -0.040   0.000  -0.000
  0.004   0.000  -0.000   0.000  -0.000  -0.008  -0.000   0.000  -0.000   0.000   0.000   0.000   0.000   0.000  -0.036   0.000
  0.000  -0.000   0.000   0.000   0.000   0.000   0.000   0.000   0.000   0.000  -0.000  -0.000   0.005  -0.000   0.000  -0.001
 -0.000   0.000   0.000   0.000   0.000   0.000  -0.000  -0.000   0.000  -0.000   0.000   0.000  -0.000   0.005   0.000  -0.000
  0.000   0.000   0.000   0.000   0.000   0.000   0.000   0.000   0.000  -0.000   0.000   0.000   0.000   0.000   0.005   0.000


------------------------ aborting loop because EDIFF is reached ----------------------------------------





 total charge

# of ion       s       p       d       tot
------------------------------------------
    1        0.505   0.557   7.285   8.347
    2        0.505   0.557   7.285   8.347
--------------------------------------------------
tot          1.010   1.114  14.570  16.693



 magnetization (x)

# of ion       s       p       d       tot
------------------------------------------
    1       -0.015  -0.055   1.672   1.602
    2       -0.015  -0.055   1.672   1.602
--------------------------------------------------
tot         -0.031  -0.110   3.344   3.204
 
    CHARGE:  cpu time      0.0321: real time      0.0322
    FORLOC:  cpu time      0.0001: real time      0.0001
    FORNL :  cpu time      0.0260: real time      0.0261
    STRESS:  cpu time      0.1723: real time      0.1732
    FORCOR:  cpu time      0.0048: real time      0.0048
    FORHAR:  cpu time      0.0005: real time      0.0005
    MIXING:  cpu time      0.0003: real time      0.0003
    OFIELD:  cpu time      0.0000: real time      0.0000

  FORCE on cell =-STRESS in cart. coord.  units (eV):
  Direction    XX          YY          ZZ          XY          YZ          ZX
  --------------------------------------------------------------------------------------
  Alpha Z    81.04936    81.04936    81.04936
  Ewald    -516.51179  -516.51179  -507.66458    -0.00000     0.00000     0.00000
  Hartree    84.28443    84.28443    88.28561    -0.00000    -0.00000    -0.00000
  E(xc)     -92.78412   -92.78411   -92.79508     0.00000     0.00000    -0.00000
  Local     -10.21956   -10.21947   -22.85759    -0.00000     0.00000     0.00000
  n-local   -14.18432    -2.71293    -8.37142     3.34173    -0.62285     2.40907
  augment   310.59381   310.59373   310.52381     0.00000     0.00000    -0.00000
  Kinetic   155.87740   150.21428   152.82508    -3.24703    -0.60255     0.51080
  Fock        0.00000     0.00000     0.00000     0.00000     0.00000     0.00000
  -------------------------------------------------------------------------------------
  Total       1.00935     1.00935     0.99519     0.00000     0.00000    -0.00000
  in kB      77.35900    77.35900    76.27342     0.00000     0.00000    -0.00000
  external pressure =       77.00 kB  Pullay stress =        0.00 kB


 VOLUME and BASIS-vectors are now :
 -----------------------------------------------------------------------------
  energy-cutoff  :      425.00
  volume of cell :       20.90
      direct lattice vectors                 reciprocal lattice vectors
     1.232135071 -2.134120545  0.000000000     0.405799666 -0.234288546  0.000000000
     1.232135071  2.134120545  0.000000000     0.405799666  0.234288546  0.000000000
     0.000000000  0.000000000  3.974984285     0.000000000  0.000000000  0.251573322

  length of vectors
     2.464270143  2.464270143  3.974984285     0.468577092  0.468577092  0.251573322


 FORCES acting on ions
    electron-ion (+dipol)            ewald-force                    non-local-force                 convergence-correction
 -----------------------------------------------------------------------------------------------
   0.210E-12 -.108E-06 -.866E-12   -.659E-14 0.254E-11 -.219E-13   0.520E-17 0.243E-16 0.000E+00   -.417E-13 -.285E-08 -.591E-13
   0.778E-12 0.108E-06 -.516E-11   0.105E-13 -.254E-11 0.219E-13   -.104E-16 -.243E-16 0.000E+00   0.119E-13 0.285E-08 0.464E-13
 -----------------------------------------------------------------------------------------------
   0.988E-12 0.343E-10 -.602E-11   0.391E-14 -.845E-15 0.000E+00   -.520E-17 0.000E+00 0.000E+00   -.299E-13 -.323E-13 -.127E-13
 
 
 POSITION                                       TOTAL-FORCE (eV/Angst)
 -----------------------------------------------------------------------------------
      1.23214      0.71137      0.99375        -0.000000     -0.000000     -0.000000
      1.23214     -0.71137      2.98124         0.000000      0.000000      0.000000
 -----------------------------------------------------------------------------------
    total drift:                                0.000000      0.000000     -0.000000


--------------------------------------------------------------------------------------------------------



  FREE ENERGIE OF THE ION-ELECTRON SYSTEM (eV)
  ---------------------------------------------------
  free  energy   TOTEN  =       -14.04726446 eV

  energy  without entropy=      -14.04538513  energy(sigma->0) =      -14.04632479
 


--------------------------------------------------------------------------------------------------------


    POTLOK:  cpu time      0.0104: real time      0.0105


--------------------------------------------------------------------------------------------------------




--------------------------------------------------------------------------------------------------------


  
 reached required accuracy - stopping structural energy minimisation
     LOOP+:  cpu time     21.2932: real time     21.4095
    4ORBIT:  cpu time      0.0000: real time      0.0000



 total charge

# of ion       s       p       d       tot
------------------------------------------
    1        0.505   0.557   7.285   8.347
    2        0.505   0.557   7.285   8.347
--------------------------------------------------
tot          1.010   1.114  14.570  16.693



 magnetization (x)

# of ion       s       p       d       tot
------------------------------------------
    1       -0.015  -0.055   1.672   1.602
    2       -0.015  -0.055   1.672   1.602
--------------------------------------------------
tot         -0.031  -0.110   3.344   3.204
 

 total amount of memory used by VASP MPI-rank0    38650. kBytes
=======================================================================

   base      :      30000. kBytes
   nonl-proj :       5923. kBytes
   fftplans  :        172. kBytes
   grid      :       1034. kBytes
   one-center:         62. kBytes
   wavefun   :       1459. kBytes
 
  
  
 General timing and accounting informations for this job:
 ========================================================
  
                  Total CPU time used (sec):       22.340
                            User time (sec):       21.791
                          System time (sec):        0.549
                         Elapsed time (sec):       23.917
  
                   Maximum memory used (kb):      231488.
                   Average memory used (kb):          N/A
  
                          Minor page faults:        35760
                          Major page faults:           55
                 Voluntary context switches:         2148
