    1    1    1    2
  0.1081089E+02  0.2481945E-09  0.2481945E-09  0.2481945E-09  0.5000000E-15
  1.000000000000000E-004
  CAR 
 Co fcc                                  
      9     28     12
 
  0.8333333E-01  0.8333333E-01  0.8333333E-01  0.9259259E-02
      1          1.644017        1.659884   1.000000   1.000000
      2          7.587219        9.187778   1.000000   1.000000
      3          7.727312        9.358244   1.000000   1.000000
      4          7.727312        9.358244   1.000000   1.000000
      5          8.705997       10.681134   1.000000  -0.032251
      6          8.705997       10.681134   1.000000  -0.032251
      7         32.711368       32.586039   0.000000   0.000000
      8         35.442524       35.480958   0.000000   0.000000
      9         37.404105       37.627065   0.000000   0.000000
     10         37.404105       37.627065   0.000000   0.000000
     11         41.758458       41.926982   0.000000   0.000000
     12         41.758617       41.990389   0.000000   0.000000
 
  0.2500000E+00  0.8333333E-01  0.8333333E-01  0.2777778E-01
      1          3.016733        3.056385   1.000000   1.000000
      2          7.268692        8.762236   1.000000   1.000000
      3          7.878748        9.546736   1.000000   1.000000
      4          7.969426        9.647050   1.000000   1.000001
      5          8.504285       10.417082   1.000000   0.444002
      6          8.981773       10.919845   1.000000  -0.000803
      7         28.019217       28.346489   0.000000   0.000000
      8         31.477056       31.638359   0.000000   0.000000
      9         36.604881       36.602898   0.000000   0.000000
     10         39.030157       39.228322   0.000000   0.000000
     11         39.534561       39.515318   0.000000   0.000000
     12         41.079425       41.374086   0.000000   0.000000
 
  0.4166667E+00  0.8333333E-01  0.8333333E-01  0.2777778E-01
      1          5.050189        5.564913   1.000000   1.000000
      2          7.587437        8.750584   1.000000   1.000000
      3          7.754064        9.282413   1.000000   1.000000
      4          7.822177        9.494976   1.000000   1.000000
      5          9.148553       11.031538   1.000000  -0.000042
      6          9.950545       11.714346   1.003084  -0.000000
      7         20.261524       20.913937   0.000000   0.000000
      8         30.586852       30.693862   0.000000   0.000000
      9         34.379863       34.427909   0.000000   0.000000
     10         36.433860       36.778371   0.000000   0.000000
     11         38.943122       39.236498   0.000000   0.000000
     12         40.442894       40.602886   0.000000   0.000000
 
 -0.4166667E+00  0.8333333E-01  0.8333333E-01  0.2777778E-01
      1          5.317650        6.257250   1.000000   1.000000
      2          7.411458        9.026229   1.000000   1.000000
      3          7.662510        9.390083   1.000000   1.000000
      4          8.676869        9.574299   1.000000   1.000000
      5          9.626780       11.571254   1.000000  -0.000000
      6         11.118776       12.236684  -0.000003  -0.000000
      7         16.797958       17.778329   0.000000   0.000000
      8         30.995835       30.912977   0.000000   0.000000
      9         33.532571       33.865716   0.000000   0.000000
     10         33.920351       34.166893   0.000000   0.000000
     11         40.025669       40.248714   0.000000   0.000000
     12         40.050421       40.290584   0.000000   0.000000
 
 -0.2500000E+00  0.8333333E-01  0.8333333E-01  0.2777778E-01
      1          4.540114        4.778641   1.000000   1.000000
      2          7.314217        8.539577   1.000000   1.000000
      3          7.683383        9.395552   1.000000   1.000000
      4          7.885570        9.606915   1.000000   1.000000
      5          9.194680       10.970066   1.000000  -0.000233
      6          9.283944       11.225659   1.000000  -0.000000
      7         22.667760       23.196264   0.000000   0.000000
      8         32.292512       32.170435   0.000000   0.000000
      9         33.057335       33.416274   0.000000   0.000000
     10         36.316699       36.653875   0.000000   0.000000
     11         40.024150       40.178046   0.000000   0.000000
     12         42.552324       42.725223   0.000000   0.000000
 
 -0.8333333E-01  0.8333333E-01  0.8333333E-01  0.2777778E-01
      1          2.353863        2.376880   1.000000   1.000000
      2          7.347830        8.897423   1.000000   1.000000
      3          7.902292        9.551901   1.000000   1.000000
      4          7.912038        9.561911   1.000000   1.000000
      5          8.501388       10.420729   1.000000   0.428715
      6          8.836145       10.819459   1.000000  -0.006159
      7         30.734215       30.919205   0.000000   0.000000
      8         33.758553       33.700570   0.000000   0.000000
      9         34.501562       34.832517   0.000000   0.000000
     10         37.187806       37.244727   0.000000   0.000000
     11         41.344827       41.604021   0.000000   0.000000
     12         43.664628       44.228308   0.000000   0.000000
 
  0.2500000E+00  0.2500000E+00  0.8333333E-01  0.2777778E-01
      1          3.627188        3.698896   1.000000   1.000000
      2          6.916858        8.388081   1.000000   1.000000
      3          7.960983        9.691543   1.000000   1.000003
      4          8.263652        9.956452   1.000000   1.003458
      5          8.579018       10.311221   1.000000   0.849089
      6          9.063465       11.058044   1.000000  -0.000019
      7         28.500561       28.821209   0.000000   0.000000
      8         31.492022       31.837923   0.000000   0.000000
      9         31.997510       32.024753   0.000000   0.000000
     10         34.122623       34.281647   0.000000   0.000000
     11         39.079255       39.726381   0.000000   0.000000
     12         45.175744       45.188357   0.000000   0.000000
 
  0.4166667E+00  0.2500000E+00  0.8333333E-01  0.5555556E-01
      1          5.350219        5.762973   1.000000   1.000000
      2          6.621005        7.974395   1.000000   1.000000
      3          7.536764        9.097375   1.000000   1.000000
      4          8.546937       10.325632   1.000000   0.804461
      5          9.169098       10.985506   1.000000  -0.000154
      6         10.288296       11.943578   0.909707  -0.000000
      7         23.614577       24.072895   0.000000   0.000000
      8         27.101861       27.423261   0.000000   0.000000
      9         29.575033       29.890391   0.000000   0.000000
     10         34.897865       35.088475   0.000000   0.000000
     11         39.881999       40.241501   0.000000   0.000000
     12         44.118917       44.362728   0.000000   0.000000
 
 -0.4166667E+00  0.2500000E+00  0.8333333E-01  0.5555556E-01
      1          6.033386        7.114767   1.000000   1.000000
      2          6.732188        8.026388   1.000000   1.000000
      3          7.615081        8.915498   1.000000   1.000000
      4          8.253504       10.054221   1.000000   1.016509
      5          9.579839       11.486971   1.000000  -0.000000
      6         13.681036       14.564646  -0.000000  -0.000000
      7         17.237122       18.050029   0.000000   0.000000
      8         26.145756       26.502478   0.000000   0.000000
      9         28.095464       28.457573   0.000000   0.000000
     10         35.019688       35.153120   0.000000   0.000000
     11         41.455511       41.631062   0.000000   0.000000
     12         46.850595       47.176240   0.000000   0.000000
 
 -0.2500000E+00  0.2500000E+00  0.8333333E-01  0.5555556E-01
      1          5.936334        6.533408   1.000000   1.000000
      2          6.958284        8.233176   1.000000   1.000000
      3          7.160249        8.715510   1.000000   1.000000
      4          8.324966       10.137012   1.000000   1.033879
      5          9.057907       10.866135   1.000000  -0.002577
      6         11.484391       12.928938  -0.000000  -0.000000
      7         21.188511       21.757084   0.000000   0.000000
      8         25.006926       25.404324   0.000000   0.000000
      9         30.615157       30.898892   0.000000   0.000000
     10         36.864697       36.992240   0.000000   0.000000
     11         39.898190       40.013121   0.000000   0.000000
     12         45.216056       45.596480   0.000000   0.000000
 
 -0.8333333E-01  0.2500000E+00  0.8333333E-01  0.5555556E-01
      1          4.186929        4.299992   1.000000   1.000000
      2          6.995469        8.415206   1.000000   1.000000
      3          7.721403        9.416472   1.000000   1.000000
      4          8.176723        9.908706   1.000000   1.001291
      5          8.652359       10.459391   1.000000   0.274605
      6          9.439514       11.328159   1.000000  -0.000000
      7         25.622987       26.038285   0.000000   0.000000
      8         29.144502       29.413564   0.000000   0.000000
      9         34.185081       34.298611   0.000000   0.000000
     10         36.570134       36.725961   0.000000   0.000000
     11         40.937677       41.173723   0.000000   0.000000
     12         41.802340       42.100202   0.000000   0.000000
 
  0.4166667E+00  0.4166667E+00  0.8333333E-01  0.2777778E-01
      1          5.292336        6.223344   1.000000   1.000000
      2          6.038466        7.369841   1.000000   1.000000
      3          8.876721       10.147539   1.000000   1.035001
      4          9.162043       11.054148   1.000000  -0.000021
      5          9.605812       11.569233   1.000000  -0.000000
      6         10.835168       11.986602  -0.004664  -0.000000
      7         24.065959       24.553402   0.000000   0.000000
      8         24.979854       25.342417   0.000000   0.000000
      9         26.855002       27.100842   0.000000   0.000000
     10         31.478975       31.810016   0.000000   0.000000
     11         35.799136       36.240561   0.000000   0.000000
     12         47.521541       51.131899   0.000000   0.000000
 
 -0.4166667E+00  0.4166667E+00  0.8333333E-01  0.5555556E-01
      1          5.566055        6.787889   1.000000   1.000000
      2          6.084794        7.369739   1.000000   1.000000
      3          8.422919        9.760690   1.000000   1.000027
      4          9.126350       11.096873   1.000000  -0.000005
      5          9.783509       11.659551   1.000052  -0.000000
      6         14.505733       15.147996  -0.000000  -0.000000
      7         20.678836       21.300550   0.000000   0.000000
      8         21.549287       22.075900   0.000000   0.000000
      9         24.920514       25.230751   0.000000   0.000000
     10         33.614064       33.868654   0.000000   0.000000
     11         38.790091       39.175284   0.000000   0.000000
     12         47.419393       48.303760   0.000000   0.000000
 
 -0.2500000E+00  0.4166667E+00  0.8333333E-01  0.5555556E-01
      1          6.301520        7.605444   1.000000   1.000000
      2          6.513508        7.672157   1.000000   1.000000
      3          7.412794        8.709199   1.000000   1.000000
      4          8.563587       10.446044   1.000000   0.325657
      5          9.497627       11.346175   1.000000  -0.000000
      6         15.419280       16.195439  -0.000000   0.000000
      7         17.704341       18.378614   0.000000   0.000000
      8         22.312686       22.861112   0.000000   0.000000
      9         27.322247       27.678859   0.000000   0.000000
     10         34.929867       35.099740   0.000000   0.000000
     11         43.343454       43.431602   0.000000   0.000000
     12         46.568912       47.380071   0.000000   0.000000
 
 -0.8333333E-01  0.4166667E+00  0.8333333E-01  0.5555556E-01
      1          5.558411        6.396676   1.000000   1.000000
      2          7.219994        8.574805   1.000000   1.000000
      3          7.794958        9.080857   1.000000   1.000000
      4          7.955547        9.671997   1.000000   1.000001
      5          9.463976       11.362715   1.000000  -0.000000
      6         11.361747       12.667427  -0.000000  -0.000000
      7         18.422808       19.181758   0.000000   0.000000
      8         28.825395       29.032856   0.000000   0.000000
      9         31.180023       31.468837   0.000000   0.000000
     10         35.272411       35.414879   0.000000   0.000000
     11         39.976402       40.213477   0.000000   0.000000
     12         43.445326       43.576045   0.000000   0.000000
 
 -0.4166667E+00 -0.4166667E+00  0.8333333E-01  0.2777778E-01
      1          5.212345        6.386462   1.000000   1.000000
      2          5.815155        7.114280   1.000000   1.000000
      3          9.407576       10.933445   1.000000  -0.000582
      4          9.418443       11.435594   1.000000  -0.000000
      5          9.808346       11.701879   1.000106  -0.000000
      6         13.012636       13.477186  -0.000000  -0.000000
      7         20.682630       21.486558   0.000000   0.000000
      8         23.895898       24.170004   0.000000   0.000000
      9         25.759326       25.952538   0.000000   0.000000
     10         31.210630       31.585251   0.000000   0.000000
     11         35.431257       35.866982   0.000000   0.000000
     12         47.510165       51.231377   0.000000   0.000000
 
 -0.2500000E+00 -0.4166667E+00  0.8333333E-01  0.5555556E-01
      1          5.681400        6.668512   1.000000   1.000000
      2          6.274765        7.585413   1.000000   1.000000
      3          7.933244        9.246447   1.000000   1.000000
      4          8.954593       10.819789   1.000000  -0.006124
      5          9.560565       11.448550   1.000000  -0.000000
      6         12.096542       13.227774  -0.000000  -0.000000
      7         22.058267       22.510945   0.000000   0.000000
      8         24.623002       25.082986   0.000000   0.000000
      9         25.923397       26.280765   0.000000   0.000000
     10         34.006997       34.234265   0.000000   0.000000
     11         39.108483       39.477251   0.000000   0.000000
     12         46.132586       46.485264   0.000000   0.000000
 
 -0.2500000E+00 -0.2500000E+00  0.8333333E-01  0.2777778E-01
      1          4.908688        5.263299   1.000000   1.000000
      2          6.437603        7.829521   1.000000   1.000000
      3          8.068719        9.551053   1.000000   1.000000
      4          8.724173       10.493714   1.000000   0.158890
      5          9.313911       10.935675   1.000000  -0.000552
      6          9.336392       11.332870   1.000000  -0.000000
      7         26.406191       26.757487   0.000000   0.000000
      8         28.649937       28.932822   0.000000   0.000000
      9         28.852612       29.161609   0.000000   0.000000
     10         32.153163       32.413536   0.000000   0.000000
     11         36.831932       37.333125   0.000000   0.000000
     12         47.438524       48.777831   0.000000   0.000000
 
  0.2500000E+00  0.2500000E+00  0.2500000E+00  0.9259259E-02
      1          3.587786        3.673991   1.000000   1.000000
      2          7.345490        8.715772   1.000000   1.000000
      3          7.844945        9.546660   1.000000   1.000000
      4          7.844945        9.546660   1.000000   1.000000
      5          8.879474       10.794084   1.000000  -0.009326
      6          8.879474       10.794084   1.000000  -0.009326
      7         25.114998       25.549145   0.000000   0.000000
      8         33.709666       33.463994   0.000000   0.000000
      9         36.070255       36.426568   0.000000   0.000000
     10         36.070255       36.426568   0.000000   0.000000
     11         41.327062       41.510498   0.000000   0.000000
     12         41.327062       41.510498   0.000000   0.000000
 
  0.4166667E+00  0.2500000E+00  0.2500000E+00  0.2777778E-01
      1          5.100330        5.358019   1.000000   1.000000
      2          7.063718        8.391799   1.000000   1.000000
      3          7.518225        9.152955   1.000000   1.000000
      4          8.098133        9.903876   1.000000   1.001160
      5          8.682453       10.481257   1.000000   0.197966
      6         10.217710       11.975844   1.016334  -0.000000
      7         23.179973       23.686137   0.000000   0.000000
      8         26.840605       27.181827   0.000000   0.000000
      9         35.130093       35.121942   0.000000   0.000000
     10         36.079549       36.422746   0.000000   0.000000
     11         40.332599       40.299767   0.000000   0.000000
     12         41.848041       42.126904   0.000000   0.000000
 
 -0.4166667E+00  0.2500000E+00  0.2500000E+00  0.2777778E-01
      1          6.269179        7.185702   1.000000   1.000000
      2          6.807792        8.185676   1.000000   1.000000
      3          7.315479        8.613012   1.000000   1.000000
      4          8.302804       10.154287   1.000000   1.035380
      5          9.188584       11.013495   1.000000  -0.000071
      6         13.123062       14.230521  -0.000000  -0.000000
      7         19.188831       19.840119   0.000000   0.000000
      8         23.367977       23.842659   0.000000   0.000000
      9         31.484725       31.840665   0.000000   0.000000
     10         33.089982       33.194101   0.000000   0.000000
     11         44.238283       44.219051   0.000000   0.000000
     12         44.636243       44.807575   0.000000   0.000000
 
 -0.2500000E+00  0.2500000E+00  0.2500000E+00  0.2777778E-01
      1          5.855378        6.917018   1.000000   1.000000
      2          6.494207        7.738490   1.000000   1.000000
      3          7.764894        9.082870   1.000000   1.000000
      4          8.492114       10.321512   1.000000   0.817712
      5          9.684400       11.625597   1.000002  -0.000000
      6         12.784571       13.816673  -0.000000  -0.000000
      7         19.190880       19.790125   0.000000   0.000000
      8         25.219062       25.651356   0.000000   0.000000
      9         28.787628       29.090929   0.000000   0.000000
     10         32.379796       32.617773   0.000000   0.000000
     11         42.835981       43.166995   0.000000   0.000000
     12         46.411370       46.569931   0.000000   0.000000
 
  0.4166667E+00  0.4166667E+00  0.2500000E+00  0.2777778E-01
      1          5.442047        6.041521   1.000000   1.000000
      2          6.957029        8.184026   1.000000   1.000000
      3          7.561044        9.093297   1.000000   1.000000
      4          8.120387        9.881518   1.000000   1.000694
      5          9.580218       11.538673   1.000000  -0.000000
      6         10.503874       11.949024   0.129743  -0.000000
      7         20.686961       21.276639   0.000000   0.000000
      8         29.482719       29.652084   0.000000   0.000000
      9         30.567238       30.899807   0.000000   0.000000
     10         33.242058       33.507645   0.000000   0.000000
     11         43.323752       43.431924   0.000000   0.000000
     12         44.055860       44.384399   0.000000   0.000000
 
 -0.4166667E+00  0.4166667E+00  0.2500000E+00  0.5555556E-01
      1          6.233936        7.301706   1.000000   1.000000
      2          6.637232        7.936194   1.000000   1.000000
      3          7.182016        8.509705   1.000000   1.000000
      4          8.637059       10.498914   1.000000   0.143658
      5          9.484975       11.329318   1.000000  -0.000000
      6         13.648798       14.644789  -0.000000  -0.000000
      7         19.679795       20.261214   0.000000   0.000000
      8         23.677455       24.115612   0.000000   0.000000
      9         25.936002       26.354872   0.000000   0.000000
     10         37.717588       37.837650   0.000000   0.000000
     11         40.160018       40.291837   0.000000   0.000000
     12         44.763635       45.378130   0.000000   0.000000
 
 -0.2500000E+00  0.4166667E+00  0.2500000E+00  0.5555556E-01
      1          6.028771        7.312360   1.000000   1.000000
      2          6.599765        7.865447   1.000000   1.000000
      3          7.407675        8.694983   1.000000   1.000000
      4          8.732888       10.635915   1.000000  -0.034765
      5          9.774565       11.642960   1.000040  -0.000000
      6         16.450481       17.102989   0.000000   0.000000
      7         18.757702       19.322261   0.000000   0.000000
      8         21.665959       22.268462   0.000000   0.000000
      9         23.327024       23.768556   0.000000   0.000000
     10         37.652808       37.802417   0.000000   0.000000
     11         42.101367       42.250560   0.000000   0.000000
     12         43.899539       44.230951   0.000000   0.000000
 
 -0.4166667E+00 -0.4166667E+00  0.2500000E+00  0.2777778E-01
      1          5.853448        7.141340   1.000000   1.000000
      2          6.280019        7.492596   1.000000   1.000000
      3          8.030333        9.325615   1.000000   1.000000
      4          8.845791       10.771505   1.000000  -0.012998
      5          9.612266       11.487048   1.000000  -0.000000
      6         15.561530       16.247305  -0.000000   0.000000
      7         18.198287       18.777005   0.000000   0.000000
      8         21.509943       22.157099   0.000000   0.000000
      9         27.857643       28.142913   0.000000   0.000000
     10         32.151024       32.417541   0.000000   0.000000
     11         42.513086       42.888560   0.000000   0.000000
     12         47.404822       48.395954   0.000000   0.000000
 
  0.4166667E+00  0.4166667E+00  0.4166667E+00  0.9259259E-02
      1          5.090631        5.871128   1.000000   1.000000
      2          7.591434        9.309279   1.000000   1.000000
      3          7.591434        9.309279   1.000000   1.000000
      4          9.149373        9.462001   1.000000   1.000000
      5          9.504925       11.438508   1.000000  -0.000000
      6          9.504925       11.438508   1.000000  -0.000000
      7         18.070658       18.906213   0.000000   0.000000
      8         32.272541       31.975522   0.000000   0.000000
      9         35.438270       35.775951   0.000000   0.000000
     10         35.438270       35.775951   0.000000   0.000000
     11         38.426016       38.705161   0.000000   0.000000
     12         38.426016       38.705161   0.000000   0.000000
 
 -0.4166667E+00  0.4166667E+00  0.4166667E+00  0.2777778E-01
      1          5.744392        6.742905   1.000000   1.000000
      2          7.077132        8.484201   1.000000   1.000000
      3          7.942364        9.134369   1.000000   1.000000
      4          7.953346        9.713302   1.000000   1.000006
      5          9.483803       11.391146   1.000000  -0.000000
      6         12.673155       13.652031  -0.000000  -0.000000
      7         17.000562       17.904704   0.000000   0.000000
      8         27.303585       27.601236   0.000000   0.000000
      9         32.170748       32.515019   0.000000   0.000000
     10         33.104126       33.181885   0.000000   0.000000
     11         42.266968       42.504745   0.000000   0.000000
     12         42.578414       42.679897   0.000000   0.000000
