   2   2   0   0
  0.2137190E+02  0.2470000E-09  0.2470000E-09  0.8090000E-09  0.5000000E-15
  1.000000000000000E-004
  CAR 
 Co-hcc                                  
     21.64561002     -4.18712734  301      3.15001469      1.00000000
     -4.187  0.0000E+00  0.0000E+00  0.0000E+00  0.0000E+00
     -4.101  0.0000E+00  0.0000E+00  0.0000E+00  0.0000E+00
     -4.015  0.0000E+00  0.0000E+00  0.0000E+00  0.0000E+00
     -3.929  0.0000E+00  0.0000E+00  0.0000E+00  0.0000E+00
     -3.843  0.0000E+00  0.0000E+00  0.0000E+00  0.0000E+00
     -3.757  0.0000E+00  0.0000E+00  0.0000E+00  0.0000E+00
     -3.670  0.0000E+00  0.0000E+00  0.0000E+00  0.0000E+00
     -3.584  0.0000E+00  0.0000E+00  0.0000E+00  0.0000E+00
     -3.498  0.0000E+00  0.0000E+00  0.0000E+00  0.0000E+00
     -3.412  0.0000E+00  0.0000E+00  0.0000E+00  0.0000E+00
     -3.326  0.0000E+00  0.0000E+00  0.0000E+00  0.0000E+00
     -3.240  0.3023E-12  0.0000E+00  0.2603E-13  0.0000E+00
     -3.154  0.1859E-06  0.0000E+00  0.1601E-07  0.0000E+00
     -3.068  0.4677E-03  0.5808E-14  0.4029E-04  0.5001E-15
     -2.982  0.1105E-01  0.1301E-07  0.9917E-03  0.1120E-08
     -2.895  0.4903E-01  0.1108E-03  0.5214E-02  0.9543E-05
     -2.809  0.9843E-01  0.6558E-02  0.1369E-01  0.5743E-03
     -2.723  0.7247E-01  0.2928E-01  0.1993E-01  0.3095E-02
     -2.637  0.1336E+00  0.8697E-01  0.3143E-01  0.1058E-01
     -2.551  0.1937E+00  0.6266E-01  0.4811E-01  0.1598E-01
     -2.465  0.2262E+00  0.9081E-01  0.6759E-01  0.2380E-01
     -2.379  0.1703E+00  0.1403E+00  0.8225E-01  0.3588E-01
     -2.293  0.1272E+00  0.1712E+00  0.9321E-01  0.5062E-01
     -2.207  0.2904E+00  0.1419E+00  0.1182E+00  0.6284E-01
     -2.121  0.2666E+00  0.1375E+00  0.1412E+00  0.7468E-01
     -2.034  0.1933E+00  0.2049E+00  0.1578E+00  0.9232E-01
     -1.948  0.2071E+00  0.2448E+00  0.1756E+00  0.1134E+00
     -1.862  0.2129E+00  0.2070E+00  0.1940E+00  0.1312E+00
     -1.776  0.2222E+00  0.2504E+00  0.2131E+00  0.1528E+00
     -1.690  0.1891E+00  0.1994E+00  0.2294E+00  0.1700E+00
     -1.604  0.3471E+00  0.1254E+00  0.2593E+00  0.1808E+00
     -1.518  0.2348E+00  0.1412E+00  0.2795E+00  0.1929E+00
     -1.432  0.2374E+00  0.2606E+00  0.2999E+00  0.2154E+00
     -1.346  0.3718E+00  0.3561E+00  0.3320E+00  0.2460E+00
     -1.259  0.2936E+00  0.2104E+00  0.3572E+00  0.2641E+00
     -1.173  0.1188E+00  0.1949E+00  0.3675E+00  0.2809E+00
     -1.087  0.3203E+00  0.1956E+00  0.3950E+00  0.2978E+00
     -1.001  0.8581E+00  0.1856E+00  0.4689E+00  0.3137E+00
     -0.915  0.2074E+01  0.1850E+00  0.6475E+00  0.3297E+00
     -0.829  0.2321E+01  0.2433E+00  0.8474E+00  0.3506E+00
     -0.743  0.2254E+01  0.3258E+00  0.1041E+01  0.3787E+00
     -0.657  0.1295E+01  0.2457E+00  0.1153E+01  0.3998E+00
     -0.571  0.1157E+01  0.3121E+00  0.1253E+01  0.4267E+00
     -0.484  0.1543E+01  0.2476E+00  0.1386E+01  0.4480E+00
     -0.398  0.1126E+01  0.1962E+00  0.1482E+01  0.4649E+00
     -0.312  0.7622E+00  0.2702E+00  0.1548E+01  0.4882E+00
     -0.226  0.8360E+00  0.2954E+00  0.1620E+01  0.5136E+00
     -0.140  0.3128E+01  0.2622E+00  0.1889E+01  0.5362E+00
     -0.054  0.3635E+01  0.2887E+00  0.2202E+01  0.5611E+00
      0.032  0.3784E+01  0.4676E+00  0.2528E+01  0.6013E+00
      0.118  0.4535E+01  0.4643E+00  0.2919E+01  0.6413E+00
      0.204  0.4483E+01  0.4271E+00  0.3305E+01  0.6781E+00
      0.291  0.3319E+01  0.6028E+00  0.3591E+01  0.7300E+00
      0.377  0.3458E+01  0.2031E+01  0.3888E+01  0.9049E+00
      0.463  0.3887E+01  0.2026E+01  0.4223E+01  0.1079E+01
      0.549  0.3279E+01  0.8276E+00  0.4505E+01  0.1151E+01
      0.635  0.2018E+01  0.1665E+01  0.4679E+01  0.1294E+01
      0.721  0.3607E+01  0.9688E+00  0.4990E+01  0.1377E+01
      0.807  0.4424E+01  0.2405E+00  0.5371E+01  0.1398E+01
      0.893  0.3009E+01  0.9604E+00  0.5630E+01  0.1481E+01
      0.979  0.3441E+01  0.1328E+01  0.5926E+01  0.1595E+01
      1.066  0.4992E+01  0.6113E+00  0.6356E+01  0.1648E+01
      1.152  0.5938E+01  0.9431E-01  0.6867E+01  0.1656E+01
      1.238  0.8048E+01  0.6328E+00  0.7560E+01  0.1710E+01
      1.324  0.6008E+01  0.8774E+00  0.8078E+01  0.1786E+01
      1.410  0.6906E+01  0.7547E+00  0.8672E+01  0.1851E+01
      1.496  0.5506E+01  0.4843E+00  0.9146E+01  0.1893E+01
      1.582  0.4108E+01  0.2268E+01  0.9500E+01  0.2088E+01
      1.668  0.3428E+01  0.3414E+01  0.9795E+01  0.2382E+01
      1.754  0.1753E+01  0.4262E+01  0.9946E+01  0.2749E+01
      1.841  0.1499E+01  0.4528E+01  0.1008E+02  0.3139E+01
      1.927  0.9213E+00  0.5552E+01  0.1015E+02  0.3617E+01
      2.013  0.1052E+01  0.4620E+01  0.1025E+02  0.4015E+01
      2.099  0.9114E+00  0.3611E+01  0.1032E+02  0.4326E+01
      2.185  0.5562E+00  0.3696E+01  0.1037E+02  0.4644E+01
      2.271  0.1138E+01  0.3336E+01  0.1047E+02  0.4931E+01
      2.357  0.1028E+01  0.1862E+01  0.1056E+02  0.5092E+01
      2.443  0.1142E+01  0.1415E+01  0.1066E+02  0.5213E+01
      2.529  0.6740E+00  0.1220E+01  0.1071E+02  0.5319E+01
      2.615  0.6827E+00  0.1742E+01  0.1077E+02  0.5469E+01
      2.702  0.1673E+00  0.2205E+01  0.1079E+02  0.5658E+01
      2.788  0.4673E-01  0.2252E+01  0.1079E+02  0.5852E+01
      2.874  0.2022E+00  0.2694E+01  0.1081E+02  0.6084E+01
      2.960  0.4217E+00  0.3672E+01  0.1085E+02  0.6400E+01
      3.046  0.5094E+00  0.3687E+01  0.1089E+02  0.6718E+01
      3.132  0.4035E+00  0.3343E+01  0.1092E+02  0.7006E+01
      3.218  0.3454E+00  0.3996E+01  0.1095E+02  0.7350E+01
      3.304  0.2695E+00  0.4783E+01  0.1098E+02  0.7762E+01
      3.390  0.2715E+00  0.5994E+01  0.1100E+02  0.8278E+01
      3.477  0.3350E+00  0.6413E+01  0.1103E+02  0.8830E+01
      3.563  0.3845E+00  0.6281E+01  0.1106E+02  0.9371E+01
      3.649  0.1586E+00  0.4699E+01  0.1108E+02  0.9776E+01
      3.735  0.7103E-01  0.3149E+01  0.1108E+02  0.1005E+02
      3.821  0.1055E+00  0.2295E+01  0.1109E+02  0.1024E+02
      3.907  0.2008E+00  0.1712E+01  0.1111E+02  0.1039E+02
      3.993  0.5260E+00  0.1613E+01  0.1115E+02  0.1053E+02
      4.079  0.5469E+00  0.1366E+01  0.1120E+02  0.1065E+02
      4.165  0.3499E+00  0.7332E+00  0.1123E+02  0.1071E+02
      4.252  0.2981E+00  0.4430E+00  0.1126E+02  0.1075E+02
      4.338  0.3275E+00  0.5001E+00  0.1128E+02  0.1079E+02
      4.424  0.4758E+00  0.6028E+00  0.1133E+02  0.1084E+02
      4.510  0.3641E+00  0.8799E+00  0.1136E+02  0.1092E+02
      4.596  0.3516E+00  0.1261E+01  0.1139E+02  0.1103E+02
      4.682  0.4557E+00  0.6154E+00  0.1143E+02  0.1108E+02
      4.768  0.3446E+00  0.4022E+00  0.1146E+02  0.1112E+02
      4.854  0.2101E+00  0.3025E+00  0.1147E+02  0.1114E+02
      4.940  0.1225E+00  0.4207E+00  0.1148E+02  0.1118E+02
      5.027  0.8771E-01  0.2417E+00  0.1149E+02  0.1120E+02
      5.113  0.1939E+00  0.4930E+00  0.1151E+02  0.1124E+02
      5.199  0.5485E+00  0.6198E+00  0.1156E+02  0.1130E+02
      5.285  0.8644E+00  0.7535E+00  0.1163E+02  0.1136E+02
      5.371  0.5633E+00  0.4823E+00  0.1168E+02  0.1140E+02
      5.457  0.4230E+00  0.4065E+00  0.1172E+02  0.1144E+02
      5.543  0.5194E+00  0.5307E+00  0.1176E+02  0.1148E+02
      5.629  0.4153E+00  0.4740E+00  0.1180E+02  0.1152E+02
      5.715  0.4189E+00  0.4589E+00  0.1183E+02  0.1156E+02
      5.802  0.3658E+00  0.3367E+00  0.1186E+02  0.1159E+02
      5.888  0.4073E+00  0.4704E+00  0.1190E+02  0.1163E+02
      5.974  0.3379E+00  0.4067E+00  0.1193E+02  0.1167E+02
      6.060  0.4118E+00  0.2570E+00  0.1196E+02  0.1169E+02
      6.146  0.2621E+00  0.5126E+00  0.1199E+02  0.1173E+02
      6.232  0.2269E+00  0.5264E+00  0.1201E+02  0.1178E+02
      6.318  0.2898E+00  0.4569E+00  0.1203E+02  0.1182E+02
      6.404  0.2587E+00  0.3808E+00  0.1205E+02  0.1185E+02
      6.490  0.3119E+00  0.4314E+00  0.1208E+02  0.1189E+02
      6.577  0.4058E+00  0.5035E+00  0.1211E+02  0.1193E+02
      6.663  0.3649E+00  0.4073E+00  0.1215E+02  0.1197E+02
      6.749  0.4448E+00  0.4345E+00  0.1218E+02  0.1200E+02
      6.835  0.3922E+00  0.4008E+00  0.1222E+02  0.1204E+02
      6.921  0.3857E+00  0.2530E+00  0.1225E+02  0.1206E+02
      7.007  0.4016E+00  0.2928E+00  0.1229E+02  0.1209E+02
      7.093  0.3836E+00  0.2006E+00  0.1232E+02  0.1210E+02
      7.179  0.3595E+00  0.2848E+00  0.1235E+02  0.1213E+02
      7.265  0.3109E+00  0.3887E+00  0.1238E+02  0.1216E+02
      7.351  0.2199E+00  0.3724E+00  0.1240E+02  0.1219E+02
      7.438  0.3430E+00  0.5629E+00  0.1243E+02  0.1224E+02
      7.524  0.3262E+00  0.4494E+00  0.1245E+02  0.1228E+02
      7.610  0.2611E+00  0.5154E+00  0.1248E+02  0.1232E+02
      7.696  0.1926E+00  0.3227E+00  0.1249E+02  0.1235E+02
      7.782  0.2691E+00  0.2230E+00  0.1252E+02  0.1237E+02
      7.868  0.1956E+00  0.2856E+00  0.1253E+02  0.1240E+02
      7.954  0.3195E+00  0.4050E+00  0.1256E+02  0.1243E+02
      8.040  0.2931E+00  0.3354E+00  0.1259E+02  0.1246E+02
      8.126  0.2310E+00  0.2774E+00  0.1260E+02  0.1248E+02
      8.213  0.3805E+00  0.2065E+00  0.1264E+02  0.1250E+02
      8.299  0.3579E+00  0.2768E+00  0.1267E+02  0.1253E+02
      8.385  0.3691E+00  0.3661E+00  0.1270E+02  0.1256E+02
      8.471  0.3303E+00  0.2926E+00  0.1273E+02  0.1258E+02
      8.557  0.2277E+00  0.2707E+00  0.1275E+02  0.1261E+02
      8.643  0.2951E+00  0.3241E+00  0.1277E+02  0.1263E+02
      8.729  0.2679E+00  0.3058E+00  0.1280E+02  0.1266E+02
      8.815  0.2267E+00  0.3862E+00  0.1282E+02  0.1269E+02
      8.901  0.3413E+00  0.3692E+00  0.1285E+02  0.1272E+02
      8.988  0.3413E+00  0.3109E+00  0.1288E+02  0.1275E+02
      9.074  0.1412E+00  0.2347E+00  0.1289E+02  0.1277E+02
      9.160  0.2381E+00  0.3110E+00  0.1291E+02  0.1280E+02
      9.246  0.2316E+00  0.3015E+00  0.1293E+02  0.1282E+02
      9.332  0.2997E+00  0.2537E+00  0.1295E+02  0.1285E+02
      9.418  0.2645E+00  0.2265E+00  0.1298E+02  0.1287E+02
      9.504  0.4532E+00  0.3435E+00  0.1302E+02  0.1290E+02
      9.590  0.7103E+00  0.2498E+00  0.1308E+02  0.1292E+02
      9.676  0.3781E+00  0.2860E+00  0.1311E+02  0.1294E+02
      9.763  0.3706E+00  0.2132E+00  0.1314E+02  0.1296E+02
      9.849  0.4929E+00  0.3345E+00  0.1318E+02  0.1299E+02
      9.935  0.6164E+00  0.2743E+00  0.1324E+02  0.1301E+02
     10.021  0.7074E+00  0.2285E+00  0.1330E+02  0.1303E+02
     10.107  0.5883E+00  0.3444E+00  0.1335E+02  0.1306E+02
     10.193  0.6097E+00  0.4618E+00  0.1340E+02  0.1310E+02
     10.279  0.5407E+00  0.6452E+00  0.1345E+02  0.1316E+02
     10.365  0.3895E+00  0.4429E+00  0.1348E+02  0.1320E+02
     10.451  0.3826E+00  0.4788E+00  0.1351E+02  0.1324E+02
     10.538  0.4112E+00  0.6875E+00  0.1355E+02  0.1330E+02
     10.624  0.4331E+00  0.6577E+00  0.1359E+02  0.1335E+02
     10.710  0.4306E+00  0.5245E+00  0.1362E+02  0.1340E+02
     10.796  0.4085E+00  0.4679E+00  0.1366E+02  0.1344E+02
     10.882  0.5223E+00  0.4192E+00  0.1370E+02  0.1347E+02
     10.968  0.8147E+00  0.5809E+00  0.1377E+02  0.1352E+02
     11.054  0.3960E+00  0.4040E+00  0.1381E+02  0.1356E+02
     11.140  0.4422E+00  0.4390E+00  0.1385E+02  0.1360E+02
     11.226  0.6956E+00  0.7102E+00  0.1391E+02  0.1366E+02
     11.313  0.4786E+00  0.4727E+00  0.1395E+02  0.1370E+02
     11.399  0.6043E+00  0.3547E+00  0.1400E+02  0.1373E+02
     11.485  0.4183E+00  0.4867E+00  0.1404E+02  0.1377E+02
     11.571  0.3977E+00  0.6012E+00  0.1407E+02  0.1382E+02
     11.657  0.3132E+00  0.5809E+00  0.1410E+02  0.1387E+02
     11.743  0.3668E+00  0.6410E+00  0.1413E+02  0.1393E+02
     11.829  0.5643E+00  0.6507E+00  0.1418E+02  0.1398E+02
     11.915  0.6073E+00  0.5715E+00  0.1423E+02  0.1403E+02
     12.001  0.5769E+00  0.4256E+00  0.1428E+02  0.1407E+02
     12.087  0.4549E+00  0.3780E+00  0.1432E+02  0.1410E+02
     12.174  0.7211E+00  0.4361E+00  0.1438E+02  0.1414E+02
     12.260  0.6627E+00  0.5819E+00  0.1444E+02  0.1419E+02
     12.346  0.6741E+00  0.5849E+00  0.1449E+02  0.1424E+02
     12.432  0.7101E+00  0.6963E+00  0.1456E+02  0.1430E+02
     12.518  0.6768E+00  0.7240E+00  0.1461E+02  0.1436E+02
     12.604  0.6159E+00  0.6003E+00  0.1467E+02  0.1441E+02
     12.690  0.4400E+00  0.5564E+00  0.1471E+02  0.1446E+02
     12.776  0.6410E+00  0.5764E+00  0.1476E+02  0.1451E+02
     12.862  0.6642E+00  0.5665E+00  0.1482E+02  0.1456E+02
     12.949  0.5712E+00  0.5721E+00  0.1487E+02  0.1461E+02
     13.035  0.4646E+00  0.7223E+00  0.1491E+02  0.1467E+02
     13.121  0.4688E+00  0.7868E+00  0.1495E+02  0.1474E+02
     13.207  0.3382E+00  0.8722E+00  0.1498E+02  0.1481E+02
     13.293  0.3404E+00  0.7126E+00  0.1501E+02  0.1488E+02
     13.379  0.3550E+00  0.2839E+00  0.1504E+02  0.1490E+02
     13.465  0.3816E+00  0.2398E+00  0.1507E+02  0.1492E+02
     13.551  0.5375E+00  0.5058E+00  0.1512E+02  0.1496E+02
     13.637  0.5299E+00  0.3936E+00  0.1516E+02  0.1500E+02
     13.724  0.4341E+00  0.3489E+00  0.1520E+02  0.1503E+02
     13.810  0.3562E+00  0.3810E+00  0.1523E+02  0.1506E+02
     13.896  0.2451E+00  0.4578E+00  0.1525E+02  0.1510E+02
     13.982  0.2413E+00  0.5188E+00  0.1527E+02  0.1515E+02
     14.068  0.1954E+00  0.3485E+00  0.1529E+02  0.1518E+02
     14.154  0.1960E+00  0.3243E+00  0.1530E+02  0.1520E+02
     14.240  0.3432E+00  0.3800E+00  0.1533E+02  0.1524E+02
     14.326  0.3760E+00  0.3705E+00  0.1537E+02  0.1527E+02
     14.412  0.1459E+00  0.2616E+00  0.1538E+02  0.1529E+02
     14.499  0.2437E+00  0.3135E+00  0.1540E+02  0.1532E+02
     14.585  0.2618E+00  0.2211E+00  0.1542E+02  0.1534E+02
     14.671  0.2099E+00  0.2586E+00  0.1544E+02  0.1536E+02
     14.757  0.1964E+00  0.2724E+00  0.1546E+02  0.1538E+02
     14.843  0.1832E+00  0.1664E+00  0.1547E+02  0.1540E+02
     14.929  0.1766E+00  0.2115E+00  0.1549E+02  0.1541E+02
     15.015  0.1229E+00  0.2299E+00  0.1550E+02  0.1543E+02
     15.101  0.7927E-01  0.2478E+00  0.1551E+02  0.1546E+02
     15.187  0.1428E+00  0.2755E+00  0.1552E+02  0.1548E+02
     15.274  0.1891E+00  0.2201E+00  0.1553E+02  0.1550E+02
     15.360  0.1842E+00  0.1195E+00  0.1555E+02  0.1551E+02
     15.446  0.2763E+00  0.1016E+00  0.1557E+02  0.1552E+02
     15.532  0.3006E+00  0.1218E+00  0.1560E+02  0.1553E+02
     15.618  0.1776E+00  0.1309E+00  0.1562E+02  0.1554E+02
     15.704  0.8507E-01  0.2196E+00  0.1562E+02  0.1556E+02
     15.790  0.1187E+00  0.1953E+00  0.1563E+02  0.1558E+02
     15.876  0.7111E-01  0.1548E+00  0.1564E+02  0.1559E+02
     15.962  0.2243E+00  0.2706E+00  0.1566E+02  0.1561E+02
     16.049  0.2111E+00  0.2451E+00  0.1568E+02  0.1563E+02
     16.135  0.2506E+00  0.7491E-01  0.1570E+02  0.1564E+02
     16.221  0.8587E-01  0.9647E-01  0.1571E+02  0.1565E+02
     16.307  0.6329E-01  0.1831E+00  0.1571E+02  0.1566E+02
     16.393  0.1240E+00  0.2098E+00  0.1572E+02  0.1568E+02
     16.479  0.6575E-01  0.1720E+00  0.1573E+02  0.1570E+02
     16.565  0.8704E-01  0.2183E+00  0.1573E+02  0.1572E+02
     16.651  0.1564E+00  0.6838E-01  0.1575E+02  0.1572E+02
     16.737  0.8399E-01  0.6794E-01  0.1576E+02  0.1573E+02
     16.823  0.1480E+00  0.8225E-01  0.1577E+02  0.1573E+02
     16.910  0.3496E+00  0.8047E-01  0.1580E+02  0.1574E+02
     16.996  0.1032E+00  0.8661E-01  0.1581E+02  0.1575E+02
     17.082  0.2008E-01  0.2042E+00  0.1581E+02  0.1577E+02
     17.168  0.2425E-01  0.1260E+00  0.1581E+02  0.1578E+02
     17.254  0.8803E-01  0.2019E+00  0.1582E+02  0.1579E+02
     17.340  0.6520E-01  0.2057E+00  0.1582E+02  0.1581E+02
     17.426  0.4129E-01  0.1098E+00  0.1583E+02  0.1582E+02
     17.512  0.3524E-01  0.3423E-01  0.1583E+02  0.1582E+02
     17.598  0.8071E-01  0.7433E-02  0.1584E+02  0.1582E+02
     17.685  0.6186E-01  0.6283E-01  0.1584E+02  0.1583E+02
     17.771  0.6478E-01  0.6586E-01  0.1585E+02  0.1584E+02
     17.857  0.1149E+00  0.3755E-01  0.1586E+02  0.1584E+02
     17.943  0.2002E+00  0.1372E+00  0.1588E+02  0.1585E+02
     18.029  0.2656E-01  0.5330E-01  0.1588E+02  0.1586E+02
     18.115  0.8111E-01  0.6333E-02  0.1589E+02  0.1586E+02
     18.201  0.9387E-01  0.4680E-01  0.1589E+02  0.1586E+02
     18.287  0.6779E-01  0.2348E+00  0.1590E+02  0.1588E+02
     18.373  0.9783E-01  0.1416E+00  0.1591E+02  0.1589E+02
     18.460  0.3078E-01  0.3534E-01  0.1591E+02  0.1590E+02
     18.546  0.5943E-01  0.5402E-01  0.1592E+02  0.1590E+02
     18.632  0.8749E-01  0.1619E+00  0.1592E+02  0.1591E+02
     18.718  0.5152E-01  0.5871E-01  0.1593E+02  0.1592E+02
     18.804  0.2131E-01  0.3686E-01  0.1593E+02  0.1592E+02
     18.890  0.3203E-01  0.1066E+00  0.1593E+02  0.1593E+02
     18.976  0.6548E-01  0.3688E-01  0.1594E+02  0.1593E+02
     19.062  0.8299E-01  0.2193E-01  0.1594E+02  0.1594E+02
     19.148  0.9901E-01  0.3025E-01  0.1595E+02  0.1594E+02
     19.235  0.5566E-01  0.8106E-01  0.1596E+02  0.1595E+02
     19.321  0.9268E-01  0.7231E-01  0.1597E+02  0.1595E+02
     19.407  0.1373E+00  0.6538E-01  0.1598E+02  0.1596E+02
     19.493  0.1094E-01  0.4596E-01  0.1598E+02  0.1596E+02
     19.579  0.2638E-01  0.7209E-01  0.1598E+02  0.1597E+02
     19.665  0.8780E-02  0.7592E-01  0.1598E+02  0.1597E+02
     19.751  0.2465E-01  0.1048E+00  0.1598E+02  0.1598E+02
     19.837  0.1390E-01  0.7470E-02  0.1598E+02  0.1598E+02
     19.923  0.6006E-01  0.1399E-01  0.1599E+02  0.1599E+02
     20.010  0.5719E-01  0.5794E-01  0.1599E+02  0.1599E+02
     20.096  0.4367E-02  0.5129E-01  0.1600E+02  0.1600E+02
     20.182  0.9408E-05  0.2174E-02  0.1600E+02  0.1600E+02
     20.268  0.1481E-03  0.2333E-03  0.1600E+02  0.1600E+02
     20.354  0.9104E-02  0.1023E-01  0.1600E+02  0.1600E+02
     20.440  0.1528E-01  0.1495E-01  0.1600E+02  0.1600E+02
     20.526  0.2706E-01  0.2651E-01  0.1600E+02  0.1600E+02
     20.612  0.2170E-02  0.1835E-02  0.1600E+02  0.1600E+02
     20.698  0.1207E-05  0.8476E-06  0.1600E+02  0.1600E+02
     20.785  0.2427E-11  0.1400E-11  0.1600E+02  0.1600E+02
     20.871  0.0000E+00  0.0000E+00  0.1600E+02  0.1600E+02
     20.957  0.0000E+00  0.0000E+00  0.1600E+02  0.1600E+02
     21.043  0.0000E+00  0.0000E+00  0.1600E+02  0.1600E+02
     21.129  0.0000E+00  0.0000E+00  0.1600E+02  0.1600E+02
     21.215  0.0000E+00  0.0000E+00  0.1600E+02  0.1600E+02
     21.301  0.0000E+00  0.0000E+00  0.1600E+02  0.1600E+02
     21.387  0.0000E+00  0.0000E+00  0.1600E+02  0.1600E+02
     21.473  0.0000E+00  0.0000E+00  0.1600E+02  0.1600E+02
     21.560  0.0000E+00  0.0000E+00  0.1600E+02  0.1600E+02
     21.646  0.0000E+00  0.0000E+00  0.1600E+02  0.1600E+02
