 vasp.6.3.2 27Jun22 (build Aug 12 2022 00:53:59) complex                        
  
 executed on               tv2STD date 2024.11.30  15:37:06
 running   24 mpi-ranks, with    1 threads/rank
 distrk:  each k-point on   24 cores,    1 groups
 distr:  one band on NCORE=   6 cores,    4 groups


--------------------------------------------------------------------------------------------------------


 INCAR:
   SYSTEM = Co-hcc
   NWRITE = 2    write-flag
   ISTART = 0    job   : 0-new, 1-cont, 2-samecut
   ICHARG = 2    charge: 0-wave, 1-file, 2-atom, >10-const
   INIWAV = 1    electr: 0-lowe 1-rand  2-diag
   ENCUT = 400     energy cutoff in eV
   PREC = Accurate      normal | accurate
   ADDGRID = .FALSE.  (use fine grid)
   NELM = 100     number of ELM steps
   EDIFF = 1E-06    energy stopping-criterion for ELM
   LREAL = .F.      real-space projection (.FALSE., .TRUE., On, Auto)
   ALGO = Normal     Normal, Fast, Very_Fast
   LWAVE = .FALSE.
   LCHARG = .FALSE.
   NSW = 0       max number of geometry steps
   IBRION = -1     ionic relax: 0-MD, 1-quasi-Newton, 2-CG, 3-Damped MD
   EDIFFG = -0.02  force (eV/A) stopping-criterion for geometry steps
   ISIF = 2     (1:force\=y stress\=trace only ions\=y shape\=n volume\=n)
   ISYM = 1     (1-use symmetry, 0-no symmetry)
   ISMEAR = 0     (-1-Fermi, 1-Methfessel/Paxton)
   SIGMA = 0.05   broadening in eV
   NPAR = 4
   ISPIN = 2
   MAGMOM = 2*3

 POTCAR:    PAW_PBE Co 02Aug2007                  
 POTCAR:    PAW_PBE Co 02Aug2007                  
   SHA256 =  0e690c60710354995174544f52f9f2c30879afabeffe3b3fbd4001cb294e56d4 Co/POTCAR             
   COPYR  = (c) Copyright 02Aug2007 Georg Kresse                                                    
   COPYR  = This file is part of the software VASP. Any use, copying, and all other rights are regul
   COPYR  = If you do not have a valid VASP license, you may not use, copy or distribute this file. 
   VRHFIN =Co: d8 s1                                                                                
   LEXCH  = PE                                                                                      
   EATOM  =   813.3670 eV,   59.7808 Ry                                                             
                                                                                                    
   TITEL  = PAW_PBE Co 02Aug2007                                                                    
   LULTRA =        F    use ultrasoft PP ?                                                          
   IUNSCR =        1    unscreen: 0-lin 1-nonlin 2-no                                               
   RPACOR =    2.000    partial core radius                                                         
   POMASS =   58.933; ZVAL   =    9.000    mass and valenz                                          
   RCORE  =    2.300    outmost cutoff radius                                                       
   RWIGS  =    2.460; RWIGS  =    1.302    wigner-seitz radius (au A)                               
   ENMAX  =  267.968; ENMIN  =  200.976 eV                                                          
   RCLOC  =    1.203    cutoff for local pot                                                        
   LCOR   =        T    correct aug charges                                                         
   LPAW   =        T    paw PP                                                                      
   EAUG   =  477.818                                                                                
   DEXC   =    0.000                                                                                
   RMAX   =    2.360    core radius for proj-oper                                                   
   RAUG   =    1.300    factor for augmentation sphere                                              
   RDEP   =    2.393    radius for radial grids                                                     
   RDEPT  =    1.864    core radius for aug-charge                                                  
                                                                                                    
   Atomic configuration                                                                             
    9 entries                                                                                       
     n  l   j            E        occ.                                                              
     1  0  0.50     -7587.6674   2.0000                                                             
     2  0  0.50      -893.6084   2.0000                                                             
     2  1  1.50      -764.5805   6.0000                                                             
     3  0  0.50       -97.5973   2.0000                                                             
     3  1  1.50       -60.9648   6.0000                                                             
     3  2  2.50        -4.2382   8.0000                                                             
     4  0  0.50        -4.3746   1.0000                                                             
     4  1  1.50        -4.0817   0.0000                                                             
     4  3  2.50        -1.3606   0.0000                                                             
   Description                                                                                      
     l       E           TYP  RCUT    TYP  RCUT                                                     
     2     -4.2382362     23  2.300                                                                 
     2     -5.5988188     23  2.300                                                                 
     0     -4.3745797     23  2.300                                                                 
     0      5.7660125     23  2.300                                                                 
     1     -2.7211652     23  2.300                                                                 
     1     16.9860234     23  2.300                                                                 
  local pseudopotential read in
  partial core-charges read in
  partial kinetic energy density read in
  atomic valenz-charges read in
  non local Contribution for L=           2  read in
    real space projection operators read in
  non local Contribution for L=           2  read in
    real space projection operators read in
  non local Contribution for L=           0  read in
    real space projection operators read in
  non local Contribution for L=           0  read in
    real space projection operators read in
  non local Contribution for L=           1  read in
    real space projection operators read in
  non local Contribution for L=           1  read in
    real space projection operators read in
    PAW grid and wavefunctions read in
 
   number of l-projection  operators is LMAX  =           6
   number of lm-projection operators is LMMAX =          18
 
  PAW_PBE Co 02Aug2007                  :
 energy of atom  1       EATOM= -813.3670
 kinetic energy error for atom=    0.0093 (will be added to EATOM!!)
 
 
 POSCAR: Co
  positions in cartesian coordinates
  No initial velocities read in
 exchange correlation table for  LEXCH =        8
   RHO(1)=    0.500       N(1)  =     2000
   RHO(2)=  100.500       N(2)  =     4000
 


--------------------------------------------------------------------------------------------------------


 ion  position               nearest neighbor table
   1  0.000  0.000  0.000-
   2  0.333  0.667  0.500-
 
  LATTYP: Found a hexagonal cell.
 ALAT       =     2.4700000000
 C/A-ratio  =     3.2753036437
  
  Lattice vectors:
  
 A1 = (   2.4700000000,   0.0000000000,   0.0000000000)
 A2 = (  -1.2350000000,   2.1390827473,   0.0000000000)
 A3 = (   0.0000000000,   0.0000000000,   8.0900000000)


Analysis of symmetry for initial positions (statically):
=====================================================================
 Subroutine PRICEL returns:
 Original cell was already a primitive cell.
 

 Routine SETGRP: Setting up the symmetry group for a 
 hexagonal supercell.


 Subroutine GETGRP returns: Found 24 space group operations
 (whereof 12 operations were pure point group operations)
 out of a pool of 24 trial point group operations.


The static configuration has the point symmetry D_3h.
 The point group associated with its full space group is D_6h.


Analysis of symmetry for dynamics (positions and initial velocities):
=====================================================================
 Subroutine PRICEL returns:
 Original cell was already a primitive cell.
 

 Routine SETGRP: Setting up the symmetry group for a 
 hexagonal supercell.


 Subroutine GETGRP returns: Found 24 space group operations
 (whereof 12 operations were pure point group operations)
 out of a pool of 24 trial point group operations.


The dynamic configuration has the point symmetry D_3h.
 The point group associated with its full space group is D_6h.


Analysis of structural, dynamic, and magnetic symmetry:
=====================================================================
 Subroutine PRICEL returns:
 Original cell was already a primitive cell.
 

 Routine SETGRP: Setting up the symmetry group for a 
 hexagonal supercell.


 Subroutine GETGRP returns: Found 24 space group operations
 (whereof 12 operations were pure point group operations)
 out of a pool of 24 trial point group operations.


The overall configuration has the point symmetry D_3h.
 The point group associated with its full space group is D_6h.


 Subroutine INISYM returns: Found 24 space group operations
 (whereof 12 operations are pure point group operations),
 and found     1 'primitive' translations


----------------------------------------------------------------------------------------

                                     Primitive cell                                     

  volume of cell :      42.7438

  direct lattice vectors                    reciprocal lattice vectors
     2.470000000  0.000000000  0.000000000     0.404858300  0.233745048  0.000000000
    -1.235000000  2.139082747  0.000000000     0.000000000  0.467490097  0.000000000
     0.000000000  0.000000000  8.090000000     0.000000000  0.000000000  0.123609394

  length of vectors
     2.470000000  2.470000000  8.090000000     0.467490097  0.467490097  0.123609394

  position of ions in fractional coordinates (direct lattice)
     0.000000000  0.000000000  0.000000000
     0.333333333  0.666666667  0.500000000

  ion indices of the primitive-cell ions
   primitive index   ion index
                 1           1
                 2           2

----------------------------------------------------------------------------------------

 
 
 KPOINTS: Automatic mesh                          

Automatic generation of k-mesh.
 Grid dimensions read from file:
 generate k-points for:   18   18   12

 Generating k-lattice:

  Cartesian coordinates                     Fractional coordinates (reciprocal lattice)
     0.022492128  0.012985836  0.000000000     0.055555556  0.000000000  0.000000000
     0.000000000  0.025971672  0.000000000     0.000000000  0.055555556  0.000000000
     0.000000000  0.000000000  0.010300783     0.000000000  0.000000000  0.083333333

  Length of vectors
     0.025971672  0.025971672  0.010300783

  Shift w.r.t. Gamma in fractional coordinates (k-lattice)
     0.000000000  0.000000000  0.000000000

 
 Subroutine IBZKPT returns following result:
 ===========================================
 
 Found    259 irreducible k-points:
 
 Following reciprocal coordinates:
            Coordinates               Weight
  0.000000  0.000000  0.000000      1.000000
  0.055556 -0.000000  0.000000      6.000000
  0.111111 -0.000000  0.000000      6.000000
  0.166667  0.000000  0.000000      6.000000
  0.222222  0.000000  0.000000      6.000000
  0.277778  0.000000  0.000000      6.000000
  0.333333  0.000000  0.000000      6.000000
  0.388889  0.000000  0.000000      6.000000
  0.444444  0.000000  0.000000      6.000000
  0.500000  0.000000  0.000000      3.000000
  0.055556  0.055556  0.000000      6.000000
  0.111111  0.055556  0.000000     12.000000
  0.166667  0.055556  0.000000     12.000000
  0.222222  0.055556  0.000000     12.000000
  0.277778  0.055556  0.000000     12.000000
  0.333333  0.055556  0.000000     12.000000
  0.388889  0.055556  0.000000     12.000000
  0.444444  0.055556  0.000000     12.000000
  0.111111  0.111111  0.000000      6.000000
  0.166667  0.111111  0.000000     12.000000
  0.222222  0.111111  0.000000     12.000000
  0.277778  0.111111  0.000000     12.000000
  0.333333  0.111111  0.000000     12.000000
  0.388889  0.111111  0.000000     12.000000
  0.444444  0.111111  0.000000      6.000000
  0.166667  0.166667  0.000000      6.000000
  0.222222  0.166667  0.000000     12.000000
  0.277778  0.166667  0.000000     12.000000
  0.333333  0.166667  0.000000     12.000000
  0.388889  0.166667  0.000000     12.000000
  0.222222  0.222222  0.000000      6.000000
  0.277778  0.222222  0.000000     12.000000
  0.333333  0.222222  0.000000     12.000000
  0.388889  0.222222  0.000000      6.000000
  0.277778  0.277778  0.000000      6.000000
  0.333333  0.277778  0.000000     12.000000
  0.333333  0.333333  0.000000      2.000000
  0.000000  0.000000  0.083333      2.000000
  0.055556 -0.000000  0.083333     12.000000
  0.111111 -0.000000  0.083333     12.000000
  0.166667  0.000000  0.083333     12.000000
  0.222222  0.000000  0.083333     12.000000
  0.277778  0.000000  0.083333     12.000000
  0.333333  0.000000  0.083333     12.000000
  0.388889  0.000000  0.083333     12.000000
  0.444444  0.000000  0.083333     12.000000
  0.500000  0.000000  0.083333      6.000000
  0.055556  0.055556  0.083333     12.000000
  0.111111  0.055556  0.083333     24.000000
  0.166667  0.055556  0.083333     24.000000
  0.222222  0.055556  0.083333     24.000000
  0.277778  0.055556  0.083333     24.000000
  0.333333  0.055556  0.083333     24.000000
  0.388889  0.055556  0.083333     24.000000
  0.444444  0.055556  0.083333     24.000000
  0.111111  0.111111  0.083333     12.000000
  0.166667  0.111111  0.083333     24.000000
  0.222222  0.111111  0.083333     24.000000
  0.277778  0.111111  0.083333     24.000000
  0.333333  0.111111  0.083333     24.000000
  0.388889  0.111111  0.083333     24.000000
  0.444444  0.111111  0.083333     12.000000
  0.166667  0.166667  0.083333     12.000000
  0.222222  0.166667  0.083333     24.000000
  0.277778  0.166667  0.083333     24.000000
  0.333333  0.166667  0.083333     24.000000
  0.388889  0.166667  0.083333     24.000000
  0.222222  0.222222  0.083333     12.000000
  0.277778  0.222222  0.083333     24.000000
  0.333333  0.222222  0.083333     24.000000
  0.388889  0.222222  0.083333     12.000000
  0.277778  0.277778  0.083333     12.000000
  0.333333  0.277778  0.083333     24.000000
  0.333333  0.333333  0.083333      4.000000
  0.000000  0.000000  0.166667      2.000000
  0.055556 -0.000000  0.166667     12.000000
  0.111111 -0.000000  0.166667     12.000000
  0.166667  0.000000  0.166667     12.000000
  0.222222  0.000000  0.166667     12.000000
  0.277778  0.000000  0.166667     12.000000
  0.333333  0.000000  0.166667     12.000000
  0.388889  0.000000  0.166667     12.000000
  0.444444  0.000000  0.166667     12.000000
  0.500000  0.000000  0.166667      6.000000
  0.055556  0.055556  0.166667     12.000000
  0.111111  0.055556  0.166667     24.000000
  0.166667  0.055556  0.166667     24.000000
  0.222222  0.055556  0.166667     24.000000
  0.277778  0.055556  0.166667     24.000000
  0.333333  0.055556  0.166667     24.000000
  0.388889  0.055556  0.166667     24.000000
  0.444444  0.055556  0.166667     24.000000
  0.111111  0.111111  0.166667     12.000000
  0.166667  0.111111  0.166667     24.000000
  0.222222  0.111111  0.166667     24.000000
  0.277778  0.111111  0.166667     24.000000
  0.333333  0.111111  0.166667     24.000000
  0.388889  0.111111  0.166667     24.000000
  0.444444  0.111111  0.166667     12.000000
  0.166667  0.166667  0.166667     12.000000
  0.222222  0.166667  0.166667     24.000000
  0.277778  0.166667  0.166667     24.000000
  0.333333  0.166667  0.166667     24.000000
  0.388889  0.166667  0.166667     24.000000
  0.222222  0.222222  0.166667     12.000000
  0.277778  0.222222  0.166667     24.000000
  0.333333  0.222222  0.166667     24.000000
  0.388889  0.222222  0.166667     12.000000
  0.277778  0.277778  0.166667     12.000000
  0.333333  0.277778  0.166667     24.000000
  0.333333  0.333333  0.166667      4.000000
  0.000000  0.000000  0.250000      2.000000
  0.055556 -0.000000  0.250000     12.000000
  0.111111 -0.000000  0.250000     12.000000
  0.166667  0.000000  0.250000     12.000000
  0.222222  0.000000  0.250000     12.000000
  0.277778  0.000000  0.250000     12.000000
  0.333333  0.000000  0.250000     12.000000
  0.388889  0.000000  0.250000     12.000000
  0.444444  0.000000  0.250000     12.000000
  0.500000  0.000000  0.250000      6.000000
  0.055556  0.055556  0.250000     12.000000
  0.111111  0.055556  0.250000     24.000000
  0.166667  0.055556  0.250000     24.000000
  0.222222  0.055556  0.250000     24.000000
  0.277778  0.055556  0.250000     24.000000
  0.333333  0.055556  0.250000     24.000000
  0.388889  0.055556  0.250000     24.000000
  0.444444  0.055556  0.250000     24.000000
  0.111111  0.111111  0.250000     12.000000
  0.166667  0.111111  0.250000     24.000000
  0.222222  0.111111  0.250000     24.000000
  0.277778  0.111111  0.250000     24.000000
  0.333333  0.111111  0.250000     24.000000
  0.388889  0.111111  0.250000     24.000000
  0.444444  0.111111  0.250000     12.000000
  0.166667  0.166667  0.250000     12.000000
  0.222222  0.166667  0.250000     24.000000
  0.277778  0.166667  0.250000     24.000000
  0.333333  0.166667  0.250000     24.000000
  0.388889  0.166667  0.250000     24.000000
  0.222222  0.222222  0.250000     12.000000
  0.277778  0.222222  0.250000     24.000000
  0.333333  0.222222  0.250000     24.000000
  0.388889  0.222222  0.250000     12.000000
  0.277778  0.277778  0.250000     12.000000
  0.333333  0.277778  0.250000     24.000000
  0.333333  0.333333  0.250000      4.000000
  0.000000  0.000000  0.333333      2.000000
  0.055556 -0.000000  0.333333     12.000000
  0.111111 -0.000000  0.333333     12.000000
  0.166667  0.000000  0.333333     12.000000
  0.222222  0.000000  0.333333     12.000000
  0.277778  0.000000  0.333333     12.000000
  0.333333  0.000000  0.333333     12.000000
  0.388889  0.000000  0.333333     12.000000
  0.444444  0.000000  0.333333     12.000000
  0.500000  0.000000  0.333333      6.000000
  0.055556  0.055556  0.333333     12.000000
  0.111111  0.055556  0.333333     24.000000
  0.166667  0.055556  0.333333     24.000000
  0.222222  0.055556  0.333333     24.000000
  0.277778  0.055556  0.333333     24.000000
  0.333333  0.055556  0.333333     24.000000
  0.388889  0.055556  0.333333     24.000000
  0.444444  0.055556  0.333333     24.000000
  0.111111  0.111111  0.333333     12.000000
  0.166667  0.111111  0.333333     24.000000
  0.222222  0.111111  0.333333     24.000000
  0.277778  0.111111  0.333333     24.000000
  0.333333  0.111111  0.333333     24.000000
  0.388889  0.111111  0.333333     24.000000
  0.444444  0.111111  0.333333     12.000000
  0.166667  0.166667  0.333333     12.000000
  0.222222  0.166667  0.333333     24.000000
  0.277778  0.166667  0.333333     24.000000
  0.333333  0.166667  0.333333     24.000000
  0.388889  0.166667  0.333333     24.000000
  0.222222  0.222222  0.333333     12.000000
  0.277778  0.222222  0.333333     24.000000
  0.333333  0.222222  0.333333     24.000000
  0.388889  0.222222  0.333333     12.000000
  0.277778  0.277778  0.333333     12.000000
  0.333333  0.277778  0.333333     24.000000
  0.333333  0.333333  0.333333      4.000000
  0.000000  0.000000  0.416667      2.000000
  0.055556 -0.000000  0.416667     12.000000
  0.111111 -0.000000  0.416667     12.000000
  0.166667  0.000000  0.416667     12.000000
  0.222222  0.000000  0.416667     12.000000
  0.277778  0.000000  0.416667     12.000000
  0.333333  0.000000  0.416667     12.000000
  0.388889  0.000000  0.416667     12.000000
  0.444444  0.000000  0.416667     12.000000
  0.500000  0.000000  0.416667      6.000000
  0.055556  0.055556  0.416667     12.000000
  0.111111  0.055556  0.416667     24.000000
  0.166667  0.055556  0.416667     24.000000
  0.222222  0.055556  0.416667     24.000000
  0.277778  0.055556  0.416667     24.000000
  0.333333  0.055556  0.416667     24.000000
  0.388889  0.055556  0.416667     24.000000
  0.444444  0.055556  0.416667     24.000000
  0.111111  0.111111  0.416667     12.000000
  0.166667  0.111111  0.416667     24.000000
  0.222222  0.111111  0.416667     24.000000
  0.277778  0.111111  0.416667     24.000000
  0.333333  0.111111  0.416667     24.000000
  0.388889  0.111111  0.416667     24.000000
  0.444444  0.111111  0.416667     12.000000
  0.166667  0.166667  0.416667     12.000000
  0.222222  0.166667  0.416667     24.000000
  0.277778  0.166667  0.416667     24.000000
  0.333333  0.166667  0.416667     24.000000
  0.388889  0.166667  0.416667     24.000000
  0.222222  0.222222  0.416667     12.000000
  0.277778  0.222222  0.416667     24.000000
  0.333333  0.222222  0.416667     24.000000
  0.388889  0.222222  0.416667     12.000000
  0.277778  0.277778  0.416667     12.000000
  0.333333  0.277778  0.416667     24.000000
  0.333333  0.333333  0.416667      4.000000
  0.000000  0.000000  0.500000      1.000000
  0.055556 -0.000000  0.500000      6.000000
  0.111111 -0.000000  0.500000      6.000000
  0.166667  0.000000  0.500000      6.000000
  0.222222  0.000000  0.500000      6.000000
  0.277778  0.000000  0.500000      6.000000
  0.333333  0.000000  0.500000      6.000000
  0.388889  0.000000  0.500000      6.000000
  0.444444  0.000000  0.500000      6.000000
  0.500000  0.000000  0.500000      3.000000
  0.055556  0.055556  0.500000      6.000000
  0.111111  0.055556  0.500000     12.000000
  0.166667  0.055556  0.500000     12.000000
  0.222222  0.055556  0.500000     12.000000
  0.277778  0.055556  0.500000     12.000000
  0.333333  0.055556  0.500000     12.000000
  0.388889  0.055556  0.500000     12.000000
  0.444444  0.055556  0.500000     12.000000
  0.111111  0.111111  0.500000      6.000000
  0.166667  0.111111  0.500000     12.000000
  0.222222  0.111111  0.500000     12.000000
  0.277778  0.111111  0.500000     12.000000
  0.333333  0.111111  0.500000     12.000000
  0.388889  0.111111  0.500000     12.000000
  0.444444  0.111111  0.500000      6.000000
  0.166667  0.166667  0.500000      6.000000
  0.222222  0.166667  0.500000     12.000000
  0.277778  0.166667  0.500000     12.000000
  0.333333  0.166667  0.500000     12.000000
  0.388889  0.166667  0.500000     12.000000
  0.222222  0.222222  0.500000      6.000000
  0.277778  0.222222  0.500000     12.000000
  0.333333  0.222222  0.500000     12.000000
  0.388889  0.222222  0.500000      6.000000
  0.277778  0.277778  0.500000      6.000000
  0.333333  0.277778  0.500000     12.000000
  0.333333  0.333333  0.500000      2.000000
 
 Following cartesian coordinates:
            Coordinates               Weight
  0.000000  0.000000  0.000000      1.000000
  0.022492  0.012986  0.000000      6.000000
  0.044984  0.025972  0.000000      6.000000
  0.067476  0.038958  0.000000      6.000000
  0.089969  0.051943  0.000000      6.000000
  0.112461  0.064929  0.000000      6.000000
  0.134953  0.077915  0.000000      6.000000
  0.157445  0.090901  0.000000      6.000000
  0.179937  0.103887  0.000000      6.000000
  0.202429  0.116873  0.000000      3.000000
  0.022492  0.038958  0.000000      6.000000
  0.044984  0.051943  0.000000     12.000000
  0.067476  0.064929  0.000000     12.000000
  0.089969  0.077915  0.000000     12.000000
  0.112461  0.090901  0.000000     12.000000
  0.134953  0.103887  0.000000     12.000000
  0.157445  0.116873  0.000000     12.000000
  0.179937  0.129858  0.000000     12.000000
  0.044984  0.077915  0.000000      6.000000
  0.067476  0.090901  0.000000     12.000000
  0.089969  0.103887  0.000000     12.000000
  0.112461  0.116873  0.000000     12.000000
  0.134953  0.129858  0.000000     12.000000
  0.157445  0.142844  0.000000     12.000000
  0.179937  0.155830  0.000000      6.000000
  0.067476  0.116873  0.000000      6.000000
  0.089969  0.129858  0.000000     12.000000
  0.112461  0.142844  0.000000     12.000000
  0.134953  0.155830  0.000000     12.000000
  0.157445  0.168816  0.000000     12.000000
  0.089969  0.155830  0.000000      6.000000
  0.112461  0.168816  0.000000     12.000000
  0.134953  0.181802  0.000000     12.000000
  0.157445  0.194788  0.000000      6.000000
  0.112461  0.194788  0.000000      6.000000
  0.134953  0.207773  0.000000     12.000000
  0.134953  0.233745  0.000000      2.000000
  0.000000  0.000000  0.010301      2.000000
  0.022492  0.012986  0.010301     12.000000
  0.044984  0.025972  0.010301     12.000000
  0.067476  0.038958  0.010301     12.000000
  0.089969  0.051943  0.010301     12.000000
  0.112461  0.064929  0.010301     12.000000
  0.134953  0.077915  0.010301     12.000000
  0.157445  0.090901  0.010301     12.000000
  0.179937  0.103887  0.010301     12.000000
  0.202429  0.116873  0.010301      6.000000
  0.022492  0.038958  0.010301     12.000000
  0.044984  0.051943  0.010301     24.000000
  0.067476  0.064929  0.010301     24.000000
  0.089969  0.077915  0.010301     24.000000
  0.112461  0.090901  0.010301     24.000000
  0.134953  0.103887  0.010301     24.000000
  0.157445  0.116873  0.010301     24.000000
  0.179937  0.129858  0.010301     24.000000
  0.044984  0.077915  0.010301     12.000000
  0.067476  0.090901  0.010301     24.000000
  0.089969  0.103887  0.010301     24.000000
  0.112461  0.116873  0.010301     24.000000
  0.134953  0.129858  0.010301     24.000000
  0.157445  0.142844  0.010301     24.000000
  0.179937  0.155830  0.010301     12.000000
  0.067476  0.116873  0.010301     12.000000
  0.089969  0.129858  0.010301     24.000000
  0.112461  0.142844  0.010301     24.000000
  0.134953  0.155830  0.010301     24.000000
  0.157445  0.168816  0.010301     24.000000
  0.089969  0.155830  0.010301     12.000000
  0.112461  0.168816  0.010301     24.000000
  0.134953  0.181802  0.010301     24.000000
  0.157445  0.194788  0.010301     12.000000
  0.112461  0.194788  0.010301     12.000000
  0.134953  0.207773  0.010301     24.000000
  0.134953  0.233745  0.010301      4.000000
  0.000000  0.000000  0.020602      2.000000
  0.022492  0.012986  0.020602     12.000000
  0.044984  0.025972  0.020602     12.000000
  0.067476  0.038958  0.020602     12.000000
  0.089969  0.051943  0.020602     12.000000
  0.112461  0.064929  0.020602     12.000000
  0.134953  0.077915  0.020602     12.000000
  0.157445  0.090901  0.020602     12.000000
  0.179937  0.103887  0.020602     12.000000
  0.202429  0.116873  0.020602      6.000000
  0.022492  0.038958  0.020602     12.000000
  0.044984  0.051943  0.020602     24.000000
  0.067476  0.064929  0.020602     24.000000
  0.089969  0.077915  0.020602     24.000000
  0.112461  0.090901  0.020602     24.000000
  0.134953  0.103887  0.020602     24.000000
  0.157445  0.116873  0.020602     24.000000
  0.179937  0.129858  0.020602     24.000000
  0.044984  0.077915  0.020602     12.000000
  0.067476  0.090901  0.020602     24.000000
  0.089969  0.103887  0.020602     24.000000
  0.112461  0.116873  0.020602     24.000000
  0.134953  0.129858  0.020602     24.000000
  0.157445  0.142844  0.020602     24.000000
  0.179937  0.155830  0.020602     12.000000
  0.067476  0.116873  0.020602     12.000000
  0.089969  0.129858  0.020602     24.000000
  0.112461  0.142844  0.020602     24.000000
  0.134953  0.155830  0.020602     24.000000
  0.157445  0.168816  0.020602     24.000000
  0.089969  0.155830  0.020602     12.000000
  0.112461  0.168816  0.020602     24.000000
  0.134953  0.181802  0.020602     24.000000
  0.157445  0.194788  0.020602     12.000000
  0.112461  0.194788  0.020602     12.000000
  0.134953  0.207773  0.020602     24.000000
  0.134953  0.233745  0.020602      4.000000
  0.000000  0.000000  0.030902      2.000000
  0.022492  0.012986  0.030902     12.000000
  0.044984  0.025972  0.030902     12.000000
  0.067476  0.038958  0.030902     12.000000
  0.089969  0.051943  0.030902     12.000000
  0.112461  0.064929  0.030902     12.000000
  0.134953  0.077915  0.030902     12.000000
  0.157445  0.090901  0.030902     12.000000
  0.179937  0.103887  0.030902     12.000000
  0.202429  0.116873  0.030902      6.000000
  0.022492  0.038958  0.030902     12.000000
  0.044984  0.051943  0.030902     24.000000
  0.067476  0.064929  0.030902     24.000000
  0.089969  0.077915  0.030902     24.000000
  0.112461  0.090901  0.030902     24.000000
  0.134953  0.103887  0.030902     24.000000
  0.157445  0.116873  0.030902     24.000000
  0.179937  0.129858  0.030902     24.000000
  0.044984  0.077915  0.030902     12.000000
  0.067476  0.090901  0.030902     24.000000
  0.089969  0.103887  0.030902     24.000000
  0.112461  0.116873  0.030902     24.000000
  0.134953  0.129858  0.030902     24.000000
  0.157445  0.142844  0.030902     24.000000
  0.179937  0.155830  0.030902     12.000000
  0.067476  0.116873  0.030902     12.000000
  0.089969  0.129858  0.030902     24.000000
  0.112461  0.142844  0.030902     24.000000
  0.134953  0.155830  0.030902     24.000000
  0.157445  0.168816  0.030902     24.000000
  0.089969  0.155830  0.030902     12.000000
  0.112461  0.168816  0.030902     24.000000
  0.134953  0.181802  0.030902     24.000000
  0.157445  0.194788  0.030902     12.000000
  0.112461  0.194788  0.030902     12.000000
  0.134953  0.207773  0.030902     24.000000
  0.134953  0.233745  0.030902      4.000000
  0.000000  0.000000  0.041203      2.000000
  0.022492  0.012986  0.041203     12.000000
  0.044984  0.025972  0.041203     12.000000
  0.067476  0.038958  0.041203     12.000000
  0.089969  0.051943  0.041203     12.000000
  0.112461  0.064929  0.041203     12.000000
  0.134953  0.077915  0.041203     12.000000
  0.157445  0.090901  0.041203     12.000000
  0.179937  0.103887  0.041203     12.000000
  0.202429  0.116873  0.041203      6.000000
  0.022492  0.038958  0.041203     12.000000
  0.044984  0.051943  0.041203     24.000000
  0.067476  0.064929  0.041203     24.000000
  0.089969  0.077915  0.041203     24.000000
  0.112461  0.090901  0.041203     24.000000
  0.134953  0.103887  0.041203     24.000000
  0.157445  0.116873  0.041203     24.000000
  0.179937  0.129858  0.041203     24.000000
  0.044984  0.077915  0.041203     12.000000
  0.067476  0.090901  0.041203     24.000000
  0.089969  0.103887  0.041203     24.000000
  0.112461  0.116873  0.041203     24.000000
  0.134953  0.129858  0.041203     24.000000
  0.157445  0.142844  0.041203     24.000000
  0.179937  0.155830  0.041203     12.000000
  0.067476  0.116873  0.041203     12.000000
  0.089969  0.129858  0.041203     24.000000
  0.112461  0.142844  0.041203     24.000000
  0.134953  0.155830  0.041203     24.000000
  0.157445  0.168816  0.041203     24.000000
  0.089969  0.155830  0.041203     12.000000
  0.112461  0.168816  0.041203     24.000000
  0.134953  0.181802  0.041203     24.000000
  0.157445  0.194788  0.041203     12.000000
  0.112461  0.194788  0.041203     12.000000
  0.134953  0.207773  0.041203     24.000000
  0.134953  0.233745  0.041203      4.000000
  0.000000  0.000000  0.051504      2.000000
  0.022492  0.012986  0.051504     12.000000
  0.044984  0.025972  0.051504     12.000000
  0.067476  0.038958  0.051504     12.000000
  0.089969  0.051943  0.051504     12.000000
  0.112461  0.064929  0.051504     12.000000
  0.134953  0.077915  0.051504     12.000000
  0.157445  0.090901  0.051504     12.000000
  0.179937  0.103887  0.051504     12.000000
  0.202429  0.116873  0.051504      6.000000
  0.022492  0.038958  0.051504     12.000000
  0.044984  0.051943  0.051504     24.000000
  0.067476  0.064929  0.051504     24.000000
  0.089969  0.077915  0.051504     24.000000
  0.112461  0.090901  0.051504     24.000000
  0.134953  0.103887  0.051504     24.000000
  0.157445  0.116873  0.051504     24.000000
  0.179937  0.129858  0.051504     24.000000
  0.044984  0.077915  0.051504     12.000000
  0.067476  0.090901  0.051504     24.000000
  0.089969  0.103887  0.051504     24.000000
  0.112461  0.116873  0.051504     24.000000
  0.134953  0.129858  0.051504     24.000000
  0.157445  0.142844  0.051504     24.000000
  0.179937  0.155830  0.051504     12.000000
  0.067476  0.116873  0.051504     12.000000
  0.089969  0.129858  0.051504     24.000000
  0.112461  0.142844  0.051504     24.000000
  0.134953  0.155830  0.051504     24.000000
  0.157445  0.168816  0.051504     24.000000
  0.089969  0.155830  0.051504     12.000000
  0.112461  0.168816  0.051504     24.000000
  0.134953  0.181802  0.051504     24.000000
  0.157445  0.194788  0.051504     12.000000
  0.112461  0.194788  0.051504     12.000000
  0.134953  0.207773  0.051504     24.000000
  0.134953  0.233745  0.051504      4.000000
  0.000000  0.000000  0.061805      1.000000
  0.022492  0.012986  0.061805      6.000000
  0.044984  0.025972  0.061805      6.000000
  0.067476  0.038958  0.061805      6.000000
  0.089969  0.051943  0.061805      6.000000
  0.112461  0.064929  0.061805      6.000000
  0.134953  0.077915  0.061805      6.000000
  0.157445  0.090901  0.061805      6.000000
  0.179937  0.103887  0.061805      6.000000
  0.202429  0.116873  0.061805      3.000000
  0.022492  0.038958  0.061805      6.000000
  0.044984  0.051943  0.061805     12.000000
  0.067476  0.064929  0.061805     12.000000
  0.089969  0.077915  0.061805     12.000000
  0.112461  0.090901  0.061805     12.000000
  0.134953  0.103887  0.061805     12.000000
  0.157445  0.116873  0.061805     12.000000
  0.179937  0.129858  0.061805     12.000000
  0.044984  0.077915  0.061805      6.000000
  0.067476  0.090901  0.061805     12.000000
  0.089969  0.103887  0.061805     12.000000
  0.112461  0.116873  0.061805     12.000000
  0.134953  0.129858  0.061805     12.000000
  0.157445  0.142844  0.061805     12.000000
  0.179937  0.155830  0.061805      6.000000
  0.067476  0.116873  0.061805      6.000000
  0.089969  0.129858  0.061805     12.000000
  0.112461  0.142844  0.061805     12.000000
  0.134953  0.155830  0.061805     12.000000
  0.157445  0.168816  0.061805     12.000000
  0.089969  0.155830  0.061805      6.000000
  0.112461  0.168816  0.061805     12.000000
  0.134953  0.181802  0.061805     12.000000
  0.157445  0.194788  0.061805      6.000000
  0.112461  0.194788  0.061805      6.000000
  0.134953  0.207773  0.061805     12.000000
  0.134953  0.233745  0.061805      2.000000
 


--------------------------------------------------------------------------------------------------------




 Dimension of arrays:
   k-points           NKPTS =    259   k-points in BZ     NKDIM =    259   number of bands    NBANDS=     16
   number of dos      NEDOS =    301   number of ions     NIONS =      2
   non local maximal  LDIM  =      6   non local SUM 2l+1 LMDIM =     18
   total plane-waves  NPLWV =  13824
   max r-space proj   IRMAX =      1   max aug-charges    IRDMAX=  12953
   dimension x,y,z NGX =    16 NGY =   16 NGZ =   54
   dimension x,y,z NGXF=    32 NGYF=   32 NGZF=  108
   support grid    NGXF=    32 NGYF=   32 NGZF=  108
   ions per type =               2
   NGX,Y,Z   is equivalent  to a cutoff of  10.77, 10.77, 11.10 a.u.
   NGXF,Y,Z  is equivalent  to a cutoff of  21.54, 21.54, 22.19 a.u.

 SYSTEM =  Co-hcc                                  
 POSCAR =  Co                                      

 Startparameter for this run:
   NWRITE =      2    write-flag & timer
   PREC   = accura    normal or accurate (medium, high low for compatibility)
   ISTART =      0    job   : 0-new  1-cont  2-samecut
   ICHARG =      2    charge: 1-file 2-atom 10-const
   ISPIN  =      2    spin polarized calculation?
   LNONCOLLINEAR =      F non collinear calculations
   LSORBIT =      F    spin-orbit coupling
   INIWAV =      1    electr: 0-lowe 1-rand  2-diag
   LASPH  =      F    aspherical Exc in radial PAW
 Electronic Relaxation 1
   ENCUT  =  400.0 eV  29.40 Ry    5.42 a.u.   4.03  4.03 13.19*2*pi/ulx,y,z
   ENINI  =  400.0     initial cutoff
   ENAUG  =  477.8 eV  augmentation charge cutoff
   NELM   =    100;   NELMIN=  2; NELMDL= -5     # of ELM steps 
   EDIFF  = 0.1E-05   stopping-criterion for ELM
   LREAL  =      F    real-space projection
   NLSPLINE    = F    spline interpolate recip. space projectors
   LCOMPAT=      F    compatible to vasp.4.4
   GGA_COMPAT  = T    GGA compatible to vasp.4.4-vasp.4.6
   LMAXPAW     = -100 max onsite density
   LMAXMIX     =    2 max onsite mixed and CHGCAR
   VOSKOWN=      0    Vosko Wilk Nusair interpolation
   ROPT   =    0.00000
 Ionic relaxation
   EDIFFG = -.2E-01   stopping-criterion for IOM
   NSW    =      0    number of steps for IOM
   NBLOCK =      1;   KBLOCK =      1    inner block; outer block 
   IBRION =     -1    ionic relax: 0-MD 1-quasi-New 2-CG
   NFREE  =      0    steps in history (QN), initial steepest desc. (CG)
   ISIF   =      2    stress and relaxation
   IWAVPR =     10    prediction:  0-non 1-charg 2-wave 3-comb
   ISYM   =      1    0-nonsym 1-usesym 2-fastsym
   LCORR  =      T    Harris-Foulkes like correction to forces

   POTIM  = 0.5000    time-step for ionic-motion
   TEIN   =    0.0    initial temperature
   TEBEG  =    0.0;   TEEND  =   0.0 temperature during run
   SMASS  =  -3.00    Nose mass-parameter (am)
   estimated Nose-frequenzy (Omega)   =  0.10E-29 period in steps = 0.13E+47 mass=  -0.139E-27a.u.
   SCALEE = 1.0000    scale energy and forces
   NPACO  =    256;   APACO  = 10.0  distance and # of slots for P.C.
   PSTRESS=    0.0 pullay stress

  Mass of Ions in am
   POMASS =  58.93
  Ionic Valenz
   ZVAL   =   9.00
  Atomic Wigner-Seitz radii
   RWIGS  =  -1.00
  virtual crystal weights 
   VCA    =   1.00
   NELECT =      18.0000    total number of electrons
   NUPDOWN=      -1.0000    fix difference up-down

 DOS related values:
   EMIN   =  10.00;   EMAX   =-10.00  energy-range for DOS
   EFERMI =   0.00
   ISMEAR =     0;   SIGMA  =   0.05  broadening in eV -4-tet -1-fermi 0-gaus

 Electronic relaxation 2 (details)
   IALGO  =     38    algorithm
   LDIAG  =      T    sub-space diagonalisation (order eigenvalues)
   LSUBROT=      F    optimize rotation matrix (better conditioning)
   TURBO    =      0    0=normal 1=particle mesh
   IRESTART =      0    0=no restart 2=restart with 2 vectors
   NREBOOT  =      0    no. of reboots
   NMIN     =      0    reboot dimension
   EREF     =   0.00    reference energy to select bands
   IMIX   =      4    mixing-type and parameters
     AMIX     =   0.40;   BMIX     =  1.00
     AMIX_MAG =   1.60;   BMIX_MAG =  1.00
     AMIN     =   0.10
     WC   =   100.;   INIMIX=   1;  MIXPRE=   1;  MAXMIX= -45

 Intra band minimization:
   WEIMIN = 0.0000     energy-eigenvalue tresh-hold
   EBREAK =  0.16E-07  absolut break condition
   DEPER  =   0.30     relativ break condition  

   TIME   =   0.40     timestep for ELM

  volume/ion in A,a.u.               =      21.37       144.22
  Fermi-wavevector in a.u.,A,eV,Ry     =   1.227085  2.318854 20.486804  1.505738
  Thomas-Fermi vector in A             =   2.362062
 
 Write flags
   LWAVE        =      F    write WAVECAR
   LDOWNSAMPLE  =      F    k-point downsampling of WAVECAR
   LCHARG       =      F    write CHGCAR
   LVTOT        =      F    write LOCPOT, total local potential
   LVHAR        =      F    write LOCPOT, Hartree potential only
   LELF         =      F    write electronic localiz. function (ELF)
   LORBIT       =      0    0 simple, 1 ext, 2 COOP (PROOUT), +10 PAW based schemes


 Dipole corrections
   LMONO  =      F    monopole corrections only (constant potential shift)
   LDIPOL =      F    correct potential (dipole corrections)
   IDIPOL =      0    1-x, 2-y, 3-z, 4-all directions 
   EPSILON=  1.0000000 bulk dielectric constant

 Exchange correlation treatment:
   GGA     =    --    GGA type
   LEXCH   =     8    internal setting for exchange type
   LIBXC   =     F    Libxc                    
   VOSKOWN =     0    Vosko Wilk Nusair interpolation
   LHFCALC =     F    Hartree Fock is set to
   LHFONE  =     F    Hartree Fock one center treatment
   AEXX    =    0.0000 exact exchange contribution

 Linear response parameters
   LEPSILON=     F    determine dielectric tensor
   LRPA    =     F    only Hartree local field effects (RPA)
   LNABLA  =     F    use nabla operator in PAW spheres
   LVEL    =     F    velocity operator in full k-point grid
   CSHIFT  =0.1000    complex shift for real part using Kramers Kronig
   OMEGAMAX=  -1.0    maximum frequency
   DEG_THRESHOLD= 0.2000000E-02 threshold for treating states as degnerate
   RTIME   =   -0.100 relaxation time in fs
  (WPLASMAI=    0.000 imaginary part of plasma frequency in eV, 0.658/RTIME)
   DFIELD  = 0.0000000 0.0000000 0.0000000 field for delta impulse in time
 
  Optional k-point grid parameters
   LKPOINTS_OPT  =     F    use optional k-point grid
   KPOINTS_OPT_MODE=     1    mode for optional k-point grid
 
 Orbital magnetization related:
   ORBITALMAG=     F  switch on orbital magnetization
   LCHIMAG   =     F  perturbation theory with respect to B field
   DQ        =  0.001000  dq finite difference perturbation B field
   LLRAUG    =     F  two centre corrections for induced B field



--------------------------------------------------------------------------------------------------------


 Static calculation
 charge density and potential will be updated during run
 spin polarized calculation
 Variant of blocked Davidson
 Davidson routine will perform the subspace rotation
 perform sub-space diagonalisation
    after iterative eigenvector-optimisation
 modified Broyden-mixing scheme, WC =      100.0
 initial mixing is a Kerker type mixing with AMIX =  0.4000 and BMIX =      1.0000
 Hartree-type preconditioning will be used
 using additional bands            7
 reciprocal scheme for non local part
 use partial core corrections
 calculate Harris-corrections to forces 
   (improved forces if not selfconsistent)
 use gradient corrections 
 use of overlap-Matrix (Vanderbilt PP)
 Gauss-broadening in eV      SIGMA  =   0.05


--------------------------------------------------------------------------------------------------------


  energy-cutoff  :      400.00
  volume of cell :       42.74
      direct lattice vectors                 reciprocal lattice vectors
     2.470000000  0.000000000  0.000000000     0.404858300  0.233745048  0.000000000
    -1.235000000  2.139082747  0.000000000     0.000000000  0.467490097  0.000000000
     0.000000000  0.000000000  8.090000000     0.000000000  0.000000000  0.123609394

  length of vectors
     2.470000000  2.470000000  8.090000000     0.467490097  0.467490097  0.123609394


 
 k-points in units of 2pi/SCALE and weight: Automatic mesh                          
   0.00000000  0.00000000  0.00000000       0.000
   0.02249213  0.01298584  0.00000000       0.002
   0.04498426  0.02597167  0.00000000       0.002
   0.06747638  0.03895751  0.00000000       0.002
   0.08996851  0.05194334  0.00000000       0.002
   0.11246064  0.06492918  0.00000000       0.002
   0.13495277  0.07791502  0.00000000       0.002
   0.15744489  0.09090085  0.00000000       0.002
   0.17993702  0.10388669  0.00000000       0.002
   0.20242915  0.11687252  0.00000000       0.001
   0.02249213  0.03895751  0.00000000       0.002
   0.04498426  0.05194334  0.00000000       0.003
   0.06747638  0.06492918  0.00000000       0.003
   0.08996851  0.07791502  0.00000000       0.003
   0.11246064  0.09090085  0.00000000       0.003
   0.13495277  0.10388669  0.00000000       0.003
   0.15744489  0.11687252  0.00000000       0.003
   0.17993702  0.12985836  0.00000000       0.003
   0.04498426  0.07791502  0.00000000       0.002
   0.06747638  0.09090085  0.00000000       0.003
   0.08996851  0.10388669  0.00000000       0.003
   0.11246064  0.11687252  0.00000000       0.003
   0.13495277  0.12985836  0.00000000       0.003
   0.15744489  0.14284420  0.00000000       0.003
   0.17993702  0.15583003  0.00000000       0.002
   0.06747638  0.11687252  0.00000000       0.002
   0.08996851  0.12985836  0.00000000       0.003
   0.11246064  0.14284420  0.00000000       0.003
   0.13495277  0.15583003  0.00000000       0.003
   0.15744489  0.16881587  0.00000000       0.003
   0.08996851  0.15583003  0.00000000       0.002
   0.11246064  0.16881587  0.00000000       0.003
   0.13495277  0.18180170  0.00000000       0.003
   0.15744489  0.19478754  0.00000000       0.002
   0.11246064  0.19478754  0.00000000       0.002
   0.13495277  0.20777338  0.00000000       0.003
   0.13495277  0.23374505  0.00000000       0.001
   0.00000000  0.00000000  0.01030078       0.001
   0.02249213  0.01298584  0.01030078       0.003
   0.04498426  0.02597167  0.01030078       0.003
   0.06747638  0.03895751  0.01030078       0.003
   0.08996851  0.05194334  0.01030078       0.003
   0.11246064  0.06492918  0.01030078       0.003
   0.13495277  0.07791502  0.01030078       0.003
   0.15744489  0.09090085  0.01030078       0.003
   0.17993702  0.10388669  0.01030078       0.003
   0.20242915  0.11687252  0.01030078       0.002
   0.02249213  0.03895751  0.01030078       0.003
   0.04498426  0.05194334  0.01030078       0.006
   0.06747638  0.06492918  0.01030078       0.006
   0.08996851  0.07791502  0.01030078       0.006
   0.11246064  0.09090085  0.01030078       0.006
   0.13495277  0.10388669  0.01030078       0.006
   0.15744489  0.11687252  0.01030078       0.006
   0.17993702  0.12985836  0.01030078       0.006
   0.04498426  0.07791502  0.01030078       0.003
   0.06747638  0.09090085  0.01030078       0.006
   0.08996851  0.10388669  0.01030078       0.006
   0.11246064  0.11687252  0.01030078       0.006
   0.13495277  0.12985836  0.01030078       0.006
   0.15744489  0.14284420  0.01030078       0.006
   0.17993702  0.15583003  0.01030078       0.003
   0.06747638  0.11687252  0.01030078       0.003
   0.08996851  0.12985836  0.01030078       0.006
   0.11246064  0.14284420  0.01030078       0.006
   0.13495277  0.15583003  0.01030078       0.006
   0.15744489  0.16881587  0.01030078       0.006
   0.08996851  0.15583003  0.01030078       0.003
   0.11246064  0.16881587  0.01030078       0.006
   0.13495277  0.18180170  0.01030078       0.006
   0.15744489  0.19478754  0.01030078       0.003
   0.11246064  0.19478754  0.01030078       0.003
   0.13495277  0.20777338  0.01030078       0.006
   0.13495277  0.23374505  0.01030078       0.001
   0.00000000  0.00000000  0.02060157       0.001
   0.02249213  0.01298584  0.02060157       0.003
   0.04498426  0.02597167  0.02060157       0.003
   0.06747638  0.03895751  0.02060157       0.003
   0.08996851  0.05194334  0.02060157       0.003
   0.11246064  0.06492918  0.02060157       0.003
   0.13495277  0.07791502  0.02060157       0.003
   0.15744489  0.09090085  0.02060157       0.003
   0.17993702  0.10388669  0.02060157       0.003
   0.20242915  0.11687252  0.02060157       0.002
   0.02249213  0.03895751  0.02060157       0.003
   0.04498426  0.05194334  0.02060157       0.006
   0.06747638  0.06492918  0.02060157       0.006
   0.08996851  0.07791502  0.02060157       0.006
   0.11246064  0.09090085  0.02060157       0.006
   0.13495277  0.10388669  0.02060157       0.006
   0.15744489  0.11687252  0.02060157       0.006
   0.17993702  0.12985836  0.02060157       0.006
   0.04498426  0.07791502  0.02060157       0.003
   0.06747638  0.09090085  0.02060157       0.006
   0.08996851  0.10388669  0.02060157       0.006
   0.11246064  0.11687252  0.02060157       0.006
   0.13495277  0.12985836  0.02060157       0.006
   0.15744489  0.14284420  0.02060157       0.006
   0.17993702  0.15583003  0.02060157       0.003
   0.06747638  0.11687252  0.02060157       0.003
   0.08996851  0.12985836  0.02060157       0.006
   0.11246064  0.14284420  0.02060157       0.006
   0.13495277  0.15583003  0.02060157       0.006
   0.15744489  0.16881587  0.02060157       0.006
   0.08996851  0.15583003  0.02060157       0.003
   0.11246064  0.16881587  0.02060157       0.006
   0.13495277  0.18180170  0.02060157       0.006
   0.15744489  0.19478754  0.02060157       0.003
   0.11246064  0.19478754  0.02060157       0.003
   0.13495277  0.20777338  0.02060157       0.006
   0.13495277  0.23374505  0.02060157       0.001
   0.00000000  0.00000000  0.03090235       0.001
   0.02249213  0.01298584  0.03090235       0.003
   0.04498426  0.02597167  0.03090235       0.003
   0.06747638  0.03895751  0.03090235       0.003
   0.08996851  0.05194334  0.03090235       0.003
   0.11246064  0.06492918  0.03090235       0.003
   0.13495277  0.07791502  0.03090235       0.003
   0.15744489  0.09090085  0.03090235       0.003
   0.17993702  0.10388669  0.03090235       0.003
   0.20242915  0.11687252  0.03090235       0.002
   0.02249213  0.03895751  0.03090235       0.003
   0.04498426  0.05194334  0.03090235       0.006
   0.06747638  0.06492918  0.03090235       0.006
   0.08996851  0.07791502  0.03090235       0.006
   0.11246064  0.09090085  0.03090235       0.006
   0.13495277  0.10388669  0.03090235       0.006
   0.15744489  0.11687252  0.03090235       0.006
   0.17993702  0.12985836  0.03090235       0.006
   0.04498426  0.07791502  0.03090235       0.003
   0.06747638  0.09090085  0.03090235       0.006
   0.08996851  0.10388669  0.03090235       0.006
   0.11246064  0.11687252  0.03090235       0.006
   0.13495277  0.12985836  0.03090235       0.006
   0.15744489  0.14284420  0.03090235       0.006
   0.17993702  0.15583003  0.03090235       0.003
   0.06747638  0.11687252  0.03090235       0.003
   0.08996851  0.12985836  0.03090235       0.006
   0.11246064  0.14284420  0.03090235       0.006
   0.13495277  0.15583003  0.03090235       0.006
   0.15744489  0.16881587  0.03090235       0.006
   0.08996851  0.15583003  0.03090235       0.003
   0.11246064  0.16881587  0.03090235       0.006
   0.13495277  0.18180170  0.03090235       0.006
   0.15744489  0.19478754  0.03090235       0.003
   0.11246064  0.19478754  0.03090235       0.003
   0.13495277  0.20777338  0.03090235       0.006
   0.13495277  0.23374505  0.03090235       0.001
   0.00000000  0.00000000  0.04120313       0.001
   0.02249213  0.01298584  0.04120313       0.003
   0.04498426  0.02597167  0.04120313       0.003
   0.06747638  0.03895751  0.04120313       0.003
   0.08996851  0.05194334  0.04120313       0.003
   0.11246064  0.06492918  0.04120313       0.003
   0.13495277  0.07791502  0.04120313       0.003
   0.15744489  0.09090085  0.04120313       0.003
   0.17993702  0.10388669  0.04120313       0.003
   0.20242915  0.11687252  0.04120313       0.002
   0.02249213  0.03895751  0.04120313       0.003
   0.04498426  0.05194334  0.04120313       0.006
   0.06747638  0.06492918  0.04120313       0.006
   0.08996851  0.07791502  0.04120313       0.006
   0.11246064  0.09090085  0.04120313       0.006
   0.13495277  0.10388669  0.04120313       0.006
   0.15744489  0.11687252  0.04120313       0.006
   0.17993702  0.12985836  0.04120313       0.006
   0.04498426  0.07791502  0.04120313       0.003
   0.06747638  0.09090085  0.04120313       0.006
   0.08996851  0.10388669  0.04120313       0.006
   0.11246064  0.11687252  0.04120313       0.006
   0.13495277  0.12985836  0.04120313       0.006
   0.15744489  0.14284420  0.04120313       0.006
   0.17993702  0.15583003  0.04120313       0.003
   0.06747638  0.11687252  0.04120313       0.003
   0.08996851  0.12985836  0.04120313       0.006
   0.11246064  0.14284420  0.04120313       0.006
   0.13495277  0.15583003  0.04120313       0.006
   0.15744489  0.16881587  0.04120313       0.006
   0.08996851  0.15583003  0.04120313       0.003
   0.11246064  0.16881587  0.04120313       0.006
   0.13495277  0.18180170  0.04120313       0.006
   0.15744489  0.19478754  0.04120313       0.003
   0.11246064  0.19478754  0.04120313       0.003
   0.13495277  0.20777338  0.04120313       0.006
   0.13495277  0.23374505  0.04120313       0.001
   0.00000000  0.00000000  0.05150391       0.001
   0.02249213  0.01298584  0.05150391       0.003
   0.04498426  0.02597167  0.05150391       0.003
   0.06747638  0.03895751  0.05150391       0.003
   0.08996851  0.05194334  0.05150391       0.003
   0.11246064  0.06492918  0.05150391       0.003
   0.13495277  0.07791502  0.05150391       0.003
   0.15744489  0.09090085  0.05150391       0.003
   0.17993702  0.10388669  0.05150391       0.003
   0.20242915  0.11687252  0.05150391       0.002
   0.02249213  0.03895751  0.05150391       0.003
   0.04498426  0.05194334  0.05150391       0.006
   0.06747638  0.06492918  0.05150391       0.006
   0.08996851  0.07791502  0.05150391       0.006
   0.11246064  0.09090085  0.05150391       0.006
   0.13495277  0.10388669  0.05150391       0.006
   0.15744489  0.11687252  0.05150391       0.006
   0.17993702  0.12985836  0.05150391       0.006
   0.04498426  0.07791502  0.05150391       0.003
   0.06747638  0.09090085  0.05150391       0.006
   0.08996851  0.10388669  0.05150391       0.006
   0.11246064  0.11687252  0.05150391       0.006
   0.13495277  0.12985836  0.05150391       0.006
   0.15744489  0.14284420  0.05150391       0.006
   0.17993702  0.15583003  0.05150391       0.003
   0.06747638  0.11687252  0.05150391       0.003
   0.08996851  0.12985836  0.05150391       0.006
   0.11246064  0.14284420  0.05150391       0.006
   0.13495277  0.15583003  0.05150391       0.006
   0.15744489  0.16881587  0.05150391       0.006
   0.08996851  0.15583003  0.05150391       0.003
   0.11246064  0.16881587  0.05150391       0.006
   0.13495277  0.18180170  0.05150391       0.006
   0.15744489  0.19478754  0.05150391       0.003
   0.11246064  0.19478754  0.05150391       0.003
   0.13495277  0.20777338  0.05150391       0.006
   0.13495277  0.23374505  0.05150391       0.001
   0.00000000  0.00000000  0.06180470       0.000
   0.02249213  0.01298584  0.06180470       0.002
   0.04498426  0.02597167  0.06180470       0.002
   0.06747638  0.03895751  0.06180470       0.002
   0.08996851  0.05194334  0.06180470       0.002
   0.11246064  0.06492918  0.06180470       0.002
   0.13495277  0.07791502  0.06180470       0.002
   0.15744489  0.09090085  0.06180470       0.002
   0.17993702  0.10388669  0.06180470       0.002
   0.20242915  0.11687252  0.06180470       0.001
   0.02249213  0.03895751  0.06180470       0.002
   0.04498426  0.05194334  0.06180470       0.003
   0.06747638  0.06492918  0.06180470       0.003
   0.08996851  0.07791502  0.06180470       0.003
   0.11246064  0.09090085  0.06180470       0.003
   0.13495277  0.10388669  0.06180470       0.003
   0.15744489  0.11687252  0.06180470       0.003
   0.17993702  0.12985836  0.06180470       0.003
   0.04498426  0.07791502  0.06180470       0.002
   0.06747638  0.09090085  0.06180470       0.003
   0.08996851  0.10388669  0.06180470       0.003
   0.11246064  0.11687252  0.06180470       0.003
   0.13495277  0.12985836  0.06180470       0.003
   0.15744489  0.14284420  0.06180470       0.003
   0.17993702  0.15583003  0.06180470       0.002
   0.06747638  0.11687252  0.06180470       0.002
   0.08996851  0.12985836  0.06180470       0.003
   0.11246064  0.14284420  0.06180470       0.003
   0.13495277  0.15583003  0.06180470       0.003
   0.15744489  0.16881587  0.06180470       0.003
   0.08996851  0.15583003  0.06180470       0.002
   0.11246064  0.16881587  0.06180470       0.003
   0.13495277  0.18180170  0.06180470       0.003
   0.15744489  0.19478754  0.06180470       0.002
   0.11246064  0.19478754  0.06180470       0.002
   0.13495277  0.20777338  0.06180470       0.003
   0.13495277  0.23374505  0.06180470       0.001
 
 k-points in reciprocal lattice and weights: Automatic mesh                          
   0.00000000  0.00000000  0.00000000       0.000
   0.05555556 -0.00000000  0.00000000       0.002
   0.11111111 -0.00000000  0.00000000       0.002
   0.16666667  0.00000000  0.00000000       0.002
   0.22222222  0.00000000  0.00000000       0.002
   0.27777778  0.00000000  0.00000000       0.002
   0.33333333  0.00000000  0.00000000       0.002
   0.38888889  0.00000000  0.00000000       0.002
   0.44444444  0.00000000  0.00000000       0.002
   0.50000000  0.00000000  0.00000000       0.001
   0.05555556  0.05555556  0.00000000       0.002
   0.11111111  0.05555556  0.00000000       0.003
   0.16666667  0.05555556  0.00000000       0.003
   0.22222222  0.05555556  0.00000000       0.003
   0.27777778  0.05555556  0.00000000       0.003
   0.33333333  0.05555556  0.00000000       0.003
   0.38888889  0.05555556  0.00000000       0.003
   0.44444444  0.05555556  0.00000000       0.003
   0.11111111  0.11111111  0.00000000       0.002
   0.16666667  0.11111111  0.00000000       0.003
   0.22222222  0.11111111  0.00000000       0.003
   0.27777778  0.11111111  0.00000000       0.003
   0.33333333  0.11111111  0.00000000       0.003
   0.38888889  0.11111111  0.00000000       0.003
   0.44444444  0.11111111  0.00000000       0.002
   0.16666667  0.16666667  0.00000000       0.002
   0.22222222  0.16666667  0.00000000       0.003
   0.27777778  0.16666667  0.00000000       0.003
   0.33333333  0.16666667  0.00000000       0.003
   0.38888889  0.16666667  0.00000000       0.003
   0.22222222  0.22222222  0.00000000       0.002
   0.27777778  0.22222222  0.00000000       0.003
   0.33333333  0.22222222  0.00000000       0.003
   0.38888889  0.22222222  0.00000000       0.002
   0.27777778  0.27777778  0.00000000       0.002
   0.33333333  0.27777778  0.00000000       0.003
   0.33333333  0.33333333  0.00000000       0.001
   0.00000000  0.00000000  0.08333333       0.001
   0.05555556 -0.00000000  0.08333333       0.003
   0.11111111 -0.00000000  0.08333333       0.003
   0.16666667  0.00000000  0.08333333       0.003
   0.22222222  0.00000000  0.08333333       0.003
   0.27777778  0.00000000  0.08333333       0.003
   0.33333333  0.00000000  0.08333333       0.003
   0.38888889  0.00000000  0.08333333       0.003
   0.44444444  0.00000000  0.08333333       0.003
   0.50000000  0.00000000  0.08333333       0.002
   0.05555556  0.05555556  0.08333333       0.003
   0.11111111  0.05555556  0.08333333       0.006
   0.16666667  0.05555556  0.08333333       0.006
   0.22222222  0.05555556  0.08333333       0.006
   0.27777778  0.05555556  0.08333333       0.006
   0.33333333  0.05555556  0.08333333       0.006
   0.38888889  0.05555556  0.08333333       0.006
   0.44444444  0.05555556  0.08333333       0.006
   0.11111111  0.11111111  0.08333333       0.003
   0.16666667  0.11111111  0.08333333       0.006
   0.22222222  0.11111111  0.08333333       0.006
   0.27777778  0.11111111  0.08333333       0.006
   0.33333333  0.11111111  0.08333333       0.006
   0.38888889  0.11111111  0.08333333       0.006
   0.44444444  0.11111111  0.08333333       0.003
   0.16666667  0.16666667  0.08333333       0.003
   0.22222222  0.16666667  0.08333333       0.006
   0.27777778  0.16666667  0.08333333       0.006
   0.33333333  0.16666667  0.08333333       0.006
   0.38888889  0.16666667  0.08333333       0.006
   0.22222222  0.22222222  0.08333333       0.003
   0.27777778  0.22222222  0.08333333       0.006
   0.33333333  0.22222222  0.08333333       0.006
   0.38888889  0.22222222  0.08333333       0.003
   0.27777778  0.27777778  0.08333333       0.003
   0.33333333  0.27777778  0.08333333       0.006
   0.33333333  0.33333333  0.08333333       0.001
   0.00000000  0.00000000  0.16666667       0.001
   0.05555556 -0.00000000  0.16666667       0.003
   0.11111111 -0.00000000  0.16666667       0.003
   0.16666667  0.00000000  0.16666667       0.003
   0.22222222  0.00000000  0.16666667       0.003
   0.27777778  0.00000000  0.16666667       0.003
   0.33333333  0.00000000  0.16666667       0.003
   0.38888889  0.00000000  0.16666667       0.003
   0.44444444  0.00000000  0.16666667       0.003
   0.50000000  0.00000000  0.16666667       0.002
   0.05555556  0.05555556  0.16666667       0.003
   0.11111111  0.05555556  0.16666667       0.006
   0.16666667  0.05555556  0.16666667       0.006
   0.22222222  0.05555556  0.16666667       0.006
   0.27777778  0.05555556  0.16666667       0.006
   0.33333333  0.05555556  0.16666667       0.006
   0.38888889  0.05555556  0.16666667       0.006
   0.44444444  0.05555556  0.16666667       0.006
   0.11111111  0.11111111  0.16666667       0.003
   0.16666667  0.11111111  0.16666667       0.006
   0.22222222  0.11111111  0.16666667       0.006
   0.27777778  0.11111111  0.16666667       0.006
   0.33333333  0.11111111  0.16666667       0.006
   0.38888889  0.11111111  0.16666667       0.006
   0.44444444  0.11111111  0.16666667       0.003
   0.16666667  0.16666667  0.16666667       0.003
   0.22222222  0.16666667  0.16666667       0.006
   0.27777778  0.16666667  0.16666667       0.006
   0.33333333  0.16666667  0.16666667       0.006
   0.38888889  0.16666667  0.16666667       0.006
   0.22222222  0.22222222  0.16666667       0.003
   0.27777778  0.22222222  0.16666667       0.006
   0.33333333  0.22222222  0.16666667       0.006
   0.38888889  0.22222222  0.16666667       0.003
   0.27777778  0.27777778  0.16666667       0.003
   0.33333333  0.27777778  0.16666667       0.006
   0.33333333  0.33333333  0.16666667       0.001
   0.00000000  0.00000000  0.25000000       0.001
   0.05555556 -0.00000000  0.25000000       0.003
   0.11111111 -0.00000000  0.25000000       0.003
   0.16666667  0.00000000  0.25000000       0.003
   0.22222222  0.00000000  0.25000000       0.003
   0.27777778  0.00000000  0.25000000       0.003
   0.33333333  0.00000000  0.25000000       0.003
   0.38888889  0.00000000  0.25000000       0.003
   0.44444444  0.00000000  0.25000000       0.003
   0.50000000  0.00000000  0.25000000       0.002
   0.05555556  0.05555556  0.25000000       0.003
   0.11111111  0.05555556  0.25000000       0.006
   0.16666667  0.05555556  0.25000000       0.006
   0.22222222  0.05555556  0.25000000       0.006
   0.27777778  0.05555556  0.25000000       0.006
   0.33333333  0.05555556  0.25000000       0.006
   0.38888889  0.05555556  0.25000000       0.006
   0.44444444  0.05555556  0.25000000       0.006
   0.11111111  0.11111111  0.25000000       0.003
   0.16666667  0.11111111  0.25000000       0.006
   0.22222222  0.11111111  0.25000000       0.006
   0.27777778  0.11111111  0.25000000       0.006
   0.33333333  0.11111111  0.25000000       0.006
   0.38888889  0.11111111  0.25000000       0.006
   0.44444444  0.11111111  0.25000000       0.003
   0.16666667  0.16666667  0.25000000       0.003
   0.22222222  0.16666667  0.25000000       0.006
   0.27777778  0.16666667  0.25000000       0.006
   0.33333333  0.16666667  0.25000000       0.006
   0.38888889  0.16666667  0.25000000       0.006
   0.22222222  0.22222222  0.25000000       0.003
   0.27777778  0.22222222  0.25000000       0.006
   0.33333333  0.22222222  0.25000000       0.006
   0.38888889  0.22222222  0.25000000       0.003
   0.27777778  0.27777778  0.25000000       0.003
   0.33333333  0.27777778  0.25000000       0.006
   0.33333333  0.33333333  0.25000000       0.001
   0.00000000  0.00000000  0.33333333       0.001
   0.05555556 -0.00000000  0.33333333       0.003
   0.11111111 -0.00000000  0.33333333       0.003
   0.16666667  0.00000000  0.33333333       0.003
   0.22222222  0.00000000  0.33333333       0.003
   0.27777778  0.00000000  0.33333333       0.003
   0.33333333  0.00000000  0.33333333       0.003
   0.38888889  0.00000000  0.33333333       0.003
   0.44444444  0.00000000  0.33333333       0.003
   0.50000000  0.00000000  0.33333333       0.002
   0.05555556  0.05555556  0.33333333       0.003
   0.11111111  0.05555556  0.33333333       0.006
   0.16666667  0.05555556  0.33333333       0.006
   0.22222222  0.05555556  0.33333333       0.006
   0.27777778  0.05555556  0.33333333       0.006
   0.33333333  0.05555556  0.33333333       0.006
   0.38888889  0.05555556  0.33333333       0.006
   0.44444444  0.05555556  0.33333333       0.006
   0.11111111  0.11111111  0.33333333       0.003
   0.16666667  0.11111111  0.33333333       0.006
   0.22222222  0.11111111  0.33333333       0.006
   0.27777778  0.11111111  0.33333333       0.006
   0.33333333  0.11111111  0.33333333       0.006
   0.38888889  0.11111111  0.33333333       0.006
   0.44444444  0.11111111  0.33333333       0.003
   0.16666667  0.16666667  0.33333333       0.003
   0.22222222  0.16666667  0.33333333       0.006
   0.27777778  0.16666667  0.33333333       0.006
   0.33333333  0.16666667  0.33333333       0.006
   0.38888889  0.16666667  0.33333333       0.006
   0.22222222  0.22222222  0.33333333       0.003
   0.27777778  0.22222222  0.33333333       0.006
   0.33333333  0.22222222  0.33333333       0.006
   0.38888889  0.22222222  0.33333333       0.003
   0.27777778  0.27777778  0.33333333       0.003
   0.33333333  0.27777778  0.33333333       0.006
   0.33333333  0.33333333  0.33333333       0.001
   0.00000000  0.00000000  0.41666667       0.001
   0.05555556 -0.00000000  0.41666667       0.003
   0.11111111 -0.00000000  0.41666667       0.003
   0.16666667  0.00000000  0.41666667       0.003
   0.22222222  0.00000000  0.41666667       0.003
   0.27777778  0.00000000  0.41666667       0.003
   0.33333333  0.00000000  0.41666667       0.003
   0.38888889  0.00000000  0.41666667       0.003
   0.44444444  0.00000000  0.41666667       0.003
   0.50000000  0.00000000  0.41666667       0.002
   0.05555556  0.05555556  0.41666667       0.003
   0.11111111  0.05555556  0.41666667       0.006
   0.16666667  0.05555556  0.41666667       0.006
   0.22222222  0.05555556  0.41666667       0.006
   0.27777778  0.05555556  0.41666667       0.006
   0.33333333  0.05555556  0.41666667       0.006
   0.38888889  0.05555556  0.41666667       0.006
   0.44444444  0.05555556  0.41666667       0.006
   0.11111111  0.11111111  0.41666667       0.003
   0.16666667  0.11111111  0.41666667       0.006
   0.22222222  0.11111111  0.41666667       0.006
   0.27777778  0.11111111  0.41666667       0.006
   0.33333333  0.11111111  0.41666667       0.006
   0.38888889  0.11111111  0.41666667       0.006
   0.44444444  0.11111111  0.41666667       0.003
   0.16666667  0.16666667  0.41666667       0.003
   0.22222222  0.16666667  0.41666667       0.006
   0.27777778  0.16666667  0.41666667       0.006
   0.33333333  0.16666667  0.41666667       0.006
   0.38888889  0.16666667  0.41666667       0.006
   0.22222222  0.22222222  0.41666667       0.003
   0.27777778  0.22222222  0.41666667       0.006
   0.33333333  0.22222222  0.41666667       0.006
   0.38888889  0.22222222  0.41666667       0.003
   0.27777778  0.27777778  0.41666667       0.003
   0.33333333  0.27777778  0.41666667       0.006
   0.33333333  0.33333333  0.41666667       0.001
   0.00000000  0.00000000  0.50000000       0.000
   0.05555556 -0.00000000  0.50000000       0.002
   0.11111111 -0.00000000  0.50000000       0.002
   0.16666667  0.00000000  0.50000000       0.002
   0.22222222  0.00000000  0.50000000       0.002
   0.27777778  0.00000000  0.50000000       0.002
   0.33333333  0.00000000  0.50000000       0.002
   0.38888889  0.00000000  0.50000000       0.002
   0.44444444  0.00000000  0.50000000       0.002
   0.50000000  0.00000000  0.50000000       0.001
   0.05555556  0.05555556  0.50000000       0.002
   0.11111111  0.05555556  0.50000000       0.003
   0.16666667  0.05555556  0.50000000       0.003
   0.22222222  0.05555556  0.50000000       0.003
   0.27777778  0.05555556  0.50000000       0.003
   0.33333333  0.05555556  0.50000000       0.003
   0.38888889  0.05555556  0.50000000       0.003
   0.44444444  0.05555556  0.50000000       0.003
   0.11111111  0.11111111  0.50000000       0.002
   0.16666667  0.11111111  0.50000000       0.003
   0.22222222  0.11111111  0.50000000       0.003
   0.27777778  0.11111111  0.50000000       0.003
   0.33333333  0.11111111  0.50000000       0.003
   0.38888889  0.11111111  0.50000000       0.003
   0.44444444  0.11111111  0.50000000       0.002
   0.16666667  0.16666667  0.50000000       0.002
   0.22222222  0.16666667  0.50000000       0.003
   0.27777778  0.16666667  0.50000000       0.003
   0.33333333  0.16666667  0.50000000       0.003
   0.38888889  0.16666667  0.50000000       0.003
   0.22222222  0.22222222  0.50000000       0.002
   0.27777778  0.22222222  0.50000000       0.003
   0.33333333  0.22222222  0.50000000       0.003
   0.38888889  0.22222222  0.50000000       0.002
   0.27777778  0.27777778  0.50000000       0.002
   0.33333333  0.27777778  0.50000000       0.003
   0.33333333  0.33333333  0.50000000       0.001
 
 position of ions in fractional coordinates (direct lattice) 
   0.00000000  0.00000000  0.00000000
   0.33333333  0.66666667  0.50000000
 
 position of ions in cartesian coordinates  (Angst):
   0.00000000  0.00000000  0.00000000
   0.00000000  1.42605516  4.04500000
 


--------------------------------------------------------------------------------------------------------


 k-point   1 :   0.0000 0.0000 0.0000  plane waves:     741
 k-point   2 :   0.0556-0.0000 0.0000  plane waves:     741
 k-point   3 :   0.1111-0.0000 0.0000  plane waves:     753
 k-point   4 :   0.1667 0.0000 0.0000  plane waves:     767
 k-point   5 :   0.2222 0.0000 0.0000  plane waves:     769
 k-point   6 :   0.2778 0.0000 0.0000  plane waves:     775
 k-point   7 :   0.3333 0.0000 0.0000  plane waves:     773
 k-point   8 :   0.3889 0.0000 0.0000  plane waves:     777
 k-point   9 :   0.4444 0.0000 0.0000  plane waves:     783
 k-point  10 :   0.5000 0.0000 0.0000  plane waves:     766
 k-point  11 :   0.0556 0.0556 0.0000  plane waves:     748
 k-point  12 :   0.1111 0.0556 0.0000  plane waves:     757
 k-point  13 :   0.1667 0.0556 0.0000  plane waves:     769
 k-point  14 :   0.2222 0.0556 0.0000  plane waves:     772
 k-point  15 :   0.2778 0.0556 0.0000  plane waves:     781
 k-point  16 :   0.3333 0.0556 0.0000  plane waves:     773
 k-point  17 :   0.3889 0.0556 0.0000  plane waves:     791
 k-point  18 :   0.4444 0.0556 0.0000  plane waves:     787
 k-point  19 :   0.1111 0.1111 0.0000  plane waves:     766
 k-point  20 :   0.1667 0.1111 0.0000  plane waves:     774
 k-point  21 :   0.2222 0.1111 0.0000  plane waves:     778
 k-point  22 :   0.2778 0.1111 0.0000  plane waves:     781
 k-point  23 :   0.3333 0.1111 0.0000  plane waves:     785
 k-point  24 :   0.3889 0.1111 0.0000  plane waves:     795
 k-point  25 :   0.4444 0.1111 0.0000  plane waves:     790
 k-point  26 :   0.1667 0.1667 0.0000  plane waves:     776
 k-point  27 :   0.2222 0.1667 0.0000  plane waves:     776
 k-point  28 :   0.2778 0.1667 0.0000  plane waves:     785
 k-point  29 :   0.3333 0.1667 0.0000  plane waves:     787
 k-point  30 :   0.3889 0.1667 0.0000  plane waves:     789
 k-point  31 :   0.2222 0.2222 0.0000  plane waves:     778
 k-point  32 :   0.2778 0.2222 0.0000  plane waves:     780
 k-point  33 :   0.3333 0.2222 0.0000  plane waves:     777
 k-point  34 :   0.3889 0.2222 0.0000  plane waves:     780
 k-point  35 :   0.2778 0.2778 0.0000  plane waves:     774
 k-point  36 :   0.3333 0.2778 0.0000  plane waves:     776
 k-point  37 :   0.3333 0.3333 0.0000  plane waves:     780
 k-point  38 :   0.0000 0.0000 0.0833  plane waves:     741
 k-point  39 :   0.0556-0.0000 0.0833  plane waves:     741
 k-point  40 :   0.1111-0.0000 0.0833  plane waves:     754
 k-point  41 :   0.1667 0.0000 0.0833  plane waves:     765
 k-point  42 :   0.2222 0.0000 0.0833  plane waves:     771
 k-point  43 :   0.2778 0.0000 0.0833  plane waves:     774
 k-point  44 :   0.3333 0.0000 0.0833  plane waves:     778
 k-point  45 :   0.3889 0.0000 0.0833  plane waves:     778
 k-point  46 :   0.4444 0.0000 0.0833  plane waves:     778
 k-point  47 :   0.5000 0.0000 0.0833  plane waves:     772
 k-point  48 :   0.0556 0.0556 0.0833  plane waves:     748
 k-point  49 :   0.1111 0.0556 0.0833  plane waves:     756
 k-point  50 :   0.1667 0.0556 0.0833  plane waves:     766
 k-point  51 :   0.2222 0.0556 0.0833  plane waves:     775
 k-point  52 :   0.2778 0.0556 0.0833  plane waves:     779
 k-point  53 :   0.3333 0.0556 0.0833  plane waves:     780
 k-point  54 :   0.3889 0.0556 0.0833  plane waves:     785
 k-point  55 :   0.4444 0.0556 0.0833  plane waves:     785
 k-point  56 :   0.1111 0.1111 0.0833  plane waves:     767
 k-point  57 :   0.1667 0.1111 0.0833  plane waves:     774
 k-point  58 :   0.2222 0.1111 0.0833  plane waves:     780
 k-point  59 :   0.2778 0.1111 0.0833  plane waves:     783
 k-point  60 :   0.3333 0.1111 0.0833  plane waves:     790
 k-point  61 :   0.3889 0.1111 0.0833  plane waves:     787
 k-point  62 :   0.4444 0.1111 0.0833  plane waves:     782
 k-point  63 :   0.1667 0.1667 0.0833  plane waves:     777
 k-point  64 :   0.2222 0.1667 0.0833  plane waves:     778
 k-point  65 :   0.2778 0.1667 0.0833  plane waves:     783
 k-point  66 :   0.3333 0.1667 0.0833  plane waves:     787
 k-point  67 :   0.3889 0.1667 0.0833  plane waves:     786
 k-point  68 :   0.2222 0.2222 0.0833  plane waves:     778
 k-point  69 :   0.2778 0.2222 0.0833  plane waves:     783
 k-point  70 :   0.3333 0.2222 0.0833  plane waves:     780
 k-point  71 :   0.3889 0.2222 0.0833  plane waves:     781
 k-point  72 :   0.2778 0.2778 0.0833  plane waves:     773
 k-point  73 :   0.3333 0.2778 0.0833  plane waves:     774
 k-point  74 :   0.3333 0.3333 0.0833  plane waves:     777
 k-point  75 :   0.0000 0.0000 0.1667  plane waves:     741
 k-point  76 :   0.0556-0.0000 0.1667  plane waves:     745
 k-point  77 :   0.1111-0.0000 0.1667  plane waves:     751
 k-point  78 :   0.1667 0.0000 0.1667  plane waves:     759
 k-point  79 :   0.2222 0.0000 0.1667  plane waves:     769
 k-point  80 :   0.2778 0.0000 0.1667  plane waves:     776
 k-point  81 :   0.3333 0.0000 0.1667  plane waves:     780
 k-point  82 :   0.3889 0.0000 0.1667  plane waves:     771
 k-point  83 :   0.4444 0.0000 0.1667  plane waves:     772
 k-point  84 :   0.5000 0.0000 0.1667  plane waves:     778
 k-point  85 :   0.0556 0.0556 0.1667  plane waves:     748
 k-point  86 :   0.1111 0.0556 0.1667  plane waves:     756
 k-point  87 :   0.1667 0.0556 0.1667  plane waves:     768
 k-point  88 :   0.2222 0.0556 0.1667  plane waves:     773
 k-point  89 :   0.2778 0.0556 0.1667  plane waves:     782
 k-point  90 :   0.3333 0.0556 0.1667  plane waves:     779
 k-point  91 :   0.3889 0.0556 0.1667  plane waves:     782
 k-point  92 :   0.4444 0.0556 0.1667  plane waves:     782
 k-point  93 :   0.1111 0.1111 0.1667  plane waves:     768
 k-point  94 :   0.1667 0.1111 0.1667  plane waves:     774
 k-point  95 :   0.2222 0.1111 0.1667  plane waves:     778
 k-point  96 :   0.2778 0.1111 0.1667  plane waves:     783
 k-point  97 :   0.3333 0.1111 0.1667  plane waves:     785
 k-point  98 :   0.3889 0.1111 0.1667  plane waves:     786
 k-point  99 :   0.4444 0.1111 0.1667  plane waves:     785
 k-point 100 :   0.1667 0.1667 0.1667  plane waves:     774
 k-point 101 :   0.2222 0.1667 0.1667  plane waves:     783
 k-point 102 :   0.2778 0.1667 0.1667  plane waves:     784
 k-point 103 :   0.3333 0.1667 0.1667  plane waves:     785
 k-point 104 :   0.3889 0.1667 0.1667  plane waves:     785
 k-point 105 :   0.2222 0.2222 0.1667  plane waves:     781
 k-point 106 :   0.2778 0.2222 0.1667  plane waves:     783
 k-point 107 :   0.3333 0.2222 0.1667  plane waves:     785
 k-point 108 :   0.3889 0.2222 0.1667  plane waves:     786
 k-point 109 :   0.2778 0.2778 0.1667  plane waves:     776
 k-point 110 :   0.3333 0.2778 0.1667  plane waves:     776
 k-point 111 :   0.3333 0.3333 0.1667  plane waves:     774
 k-point 112 :   0.0000 0.0000 0.2500  plane waves:     746
 k-point 113 :   0.0556-0.0000 0.2500  plane waves:     748
 k-point 114 :   0.1111-0.0000 0.2500  plane waves:     747
 k-point 115 :   0.1667 0.0000 0.2500  plane waves:     754
 k-point 116 :   0.2222 0.0000 0.2500  plane waves:     774
 k-point 117 :   0.2778 0.0000 0.2500  plane waves:     779
 k-point 118 :   0.3333 0.0000 0.2500  plane waves:     780
 k-point 119 :   0.3889 0.0000 0.2500  plane waves:     773
 k-point 120 :   0.4444 0.0000 0.2500  plane waves:     781
 k-point 121 :   0.5000 0.0000 0.2500  plane waves:     776
 k-point 122 :   0.0556 0.0556 0.2500  plane waves:     744
 k-point 123 :   0.1111 0.0556 0.2500  plane waves:     754
 k-point 124 :   0.1667 0.0556 0.2500  plane waves:     767
 k-point 125 :   0.2222 0.0556 0.2500  plane waves:     773
 k-point 126 :   0.2778 0.0556 0.2500  plane waves:     779
 k-point 127 :   0.3333 0.0556 0.2500  plane waves:     783
 k-point 128 :   0.3889 0.0556 0.2500  plane waves:     782
 k-point 129 :   0.4444 0.0556 0.2500  plane waves:     782
 k-point 130 :   0.1111 0.1111 0.2500  plane waves:     767
 k-point 131 :   0.1667 0.1111 0.2500  plane waves:     775
 k-point 132 :   0.2222 0.1111 0.2500  plane waves:     777
 k-point 133 :   0.2778 0.1111 0.2500  plane waves:     783
 k-point 134 :   0.3333 0.1111 0.2500  plane waves:     781
 k-point 135 :   0.3889 0.1111 0.2500  plane waves:     784
 k-point 136 :   0.4444 0.1111 0.2500  plane waves:     778
 k-point 137 :   0.1667 0.1667 0.2500  plane waves:     779
 k-point 138 :   0.2222 0.1667 0.2500  plane waves:     783
 k-point 139 :   0.2778 0.1667 0.2500  plane waves:     782
 k-point 140 :   0.3333 0.1667 0.2500  plane waves:     783
 k-point 141 :   0.3889 0.1667 0.2500  plane waves:     785
 k-point 142 :   0.2222 0.2222 0.2500  plane waves:     785
 k-point 143 :   0.2778 0.2222 0.2500  plane waves:     780
 k-point 144 :   0.3333 0.2222 0.2500  plane waves:     788
 k-point 145 :   0.3889 0.2222 0.2500  plane waves:     782
 k-point 146 :   0.2778 0.2778 0.2500  plane waves:     783
 k-point 147 :   0.3333 0.2778 0.2500  plane waves:     777
 k-point 148 :   0.3333 0.3333 0.2500  plane waves:     774
 k-point 149 :   0.0000 0.0000 0.3333  plane waves:     752
 k-point 150 :   0.0556-0.0000 0.3333  plane waves:     755
 k-point 151 :   0.1111-0.0000 0.3333  plane waves:     751
 k-point 152 :   0.1667 0.0000 0.3333  plane waves:     761
 k-point 153 :   0.2222 0.0000 0.3333  plane waves:     774
 k-point 154 :   0.2778 0.0000 0.3333  plane waves:     776
 k-point 155 :   0.3333 0.0000 0.3333  plane waves:     778
 k-point 156 :   0.3889 0.0000 0.3333  plane waves:     779
 k-point 157 :   0.4444 0.0000 0.3333  plane waves:     773
 k-point 158 :   0.5000 0.0000 0.3333  plane waves:     768
 k-point 159 :   0.0556 0.0556 0.3333  plane waves:     748
 k-point 160 :   0.1111 0.0556 0.3333  plane waves:     759
 k-point 161 :   0.1667 0.0556 0.3333  plane waves:     764
 k-point 162 :   0.2222 0.0556 0.3333  plane waves:     770
 k-point 163 :   0.2778 0.0556 0.3333  plane waves:     776
 k-point 164 :   0.3333 0.0556 0.3333  plane waves:     782
 k-point 165 :   0.3889 0.0556 0.3333  plane waves:     782
 k-point 166 :   0.4444 0.0556 0.3333  plane waves:     779
 k-point 167 :   0.1111 0.1111 0.3333  plane waves:     769
 k-point 168 :   0.1667 0.1111 0.3333  plane waves:     774
 k-point 169 :   0.2222 0.1111 0.3333  plane waves:     776
[...]
      2       0.8104      1.00000
      3       1.6655      1.00000
      4       1.6655      1.00000
      5       1.9400      1.00000
      6       1.9400      1.00000
      7       3.0928      0.94714
      8       3.0928      0.94713
      9       3.3965      0.00000
     10       3.3965      0.00000
     11       4.5935      0.00000
     12       4.5936      0.00000
     13       9.0094      0.00000
     14       9.0094      0.00000
     15      16.5393      0.00000
     16      16.5393      0.00000

 k-point   250 :       0.2778    0.1667    0.5000
  band No.  band energies     occupation 
      1       0.9913      1.00000
      2       0.9913      1.00000
      3       1.8074      1.00000
      4       1.8074      1.00000
      5       2.1556      1.00000
      6       2.1556      1.00000
      7       3.2377      0.00659
      8       3.2377      0.00659
      9       3.2888      0.00004
     10       3.2888      0.00004
     11       5.3518      0.00000
     12       5.3518      0.00000
     13      10.1247      0.00000
     14      10.1247      0.00000
     15      14.4180      0.00000
     16      14.4180      0.00000

 k-point   251 :       0.3333    0.1667    0.5000
  band No.  band energies     occupation 
      1       0.9235      1.00000
      2       0.9235      1.00000
      3       1.7923      1.00000
      4       1.7923      1.00000
      5       2.6812      1.00000
      6       2.6812      1.00000
      7       3.1627      0.35960
      8       3.1627      0.35960
      9       3.3765      0.00000
     10       3.3765      0.00000
     11       6.3184      0.00000
     12       6.3184      0.00000
     13      11.2300      0.00000
     14      11.2300      0.00000
     15      12.5611      0.00000
     16      12.5611      0.00000

 k-point   252 :       0.3889    0.1667    0.5000
  band No.  band energies     occupation 
      1       0.8663      1.00000
      2       0.8663      1.00000
      3       1.7784      1.00000
      4       1.7784      1.00000
      5       3.0080      0.99997
      6       3.0080      0.99997
      7       3.1137      0.84813
      8       3.1137      0.84812
      9       3.4109      0.00000
     10       3.4109      0.00000
     11       7.2920      0.00000
     12       7.2920      0.00000
     13      10.6995      0.00000
     14      10.6995      0.00000
     15      12.7794      0.00000
     16      12.7794      0.00000

 k-point   253 :       0.2222    0.2222    0.5000
  band No.  band energies     occupation 
      1       1.4462      1.00000
      2       1.4462      1.00000
      3       1.5054      1.00000
      4       1.5054      1.00000
      5       1.9200      1.00000
      6       1.9200      1.00000
      7       3.2057      0.05779
      8       3.2057      0.05779
      9       3.2564      0.00132
     10       3.2564      0.00132
     11       5.3947      0.00000
     12       5.3947      0.00000
     13      10.0713      0.00000
     14      10.0713      0.00000
     15      15.7572      0.00000
     16      15.7572      0.00000

 k-point   254 :       0.2778    0.2222    0.5000
  band No.  band energies     occupation 
      1       1.3473      1.00000
      2       1.3473      1.00000
      3       1.8619      1.00000
      4       1.8619      1.00000
      5       2.0895      1.00000
      6       2.0895      1.00000
      7       3.0348      0.99944
      8       3.0348      0.99944
      9       3.3645      0.00000
     10       3.3645      0.00000
     11       6.4206      0.00000
     12       6.4206      0.00000
     13      11.2663      0.00000
     14      11.2663      0.00000
     15      13.7895      0.00000
     16      13.7895      0.00000

 k-point   255 :       0.3333    0.2222    0.5000
  band No.  band energies     occupation 
      1       1.2482      1.00000
      2       1.2482      1.00000
      3       1.9209      1.00000
      4       1.9209      1.00000
      5       2.4513      1.00000
      6       2.4513      1.00000
      7       2.9012      1.00000
      8       2.9012      1.00000
      9       3.4155      0.00000
     10       3.4155      0.00000
     11       7.6199      0.00000
     12       7.6199      0.00000
     13      11.6556      0.00000
     14      11.6556      0.00000
     15      12.8366      0.00000
     16      12.8366      0.00000

 k-point   256 :       0.3889    0.2222    0.5000
  band No.  band energies     occupation 
      1       1.2136      1.00000
      2       1.2136      1.00000
      3       1.9395      1.00000
      4       1.9395      1.00000
      5       2.5921      1.00000
      6       2.5921      1.00000
      7       2.8508      1.00000
      8       2.8508      1.00000
      9       3.4237      0.00000
     10       3.4237      0.00000
     11       8.4363      0.00000
     12       8.4363      0.00000
     13      10.7062      0.00000
     14      10.7062      0.00000
     15      13.6519      0.00000
     16      13.6519      0.00000

 k-point   257 :       0.2778    0.2778    0.5000
  band No.  band energies     occupation 
      1       1.5404      1.00000
      2       1.5404      1.00000
      3       1.9714      1.00000
      4       1.9714      1.00000
      5       2.1219      1.00000
      6       2.1219      1.00000
      7       2.8019      1.00000
      8       2.8019      1.00000
      9       3.4167      0.00000
     10       3.4167      0.00000
     11       7.7041      0.00000
     12       7.7041      0.00000
     13      12.4602      0.00000
     14      12.4602      0.00000
     15      13.0231      0.00000
     16      13.0231      0.00000

 k-point   258 :       0.3333    0.2778    0.5000
  band No.  band energies     occupation 
      1       1.5802      1.00000
      2       1.5802      1.00000
      3       2.1004      1.00000
      4       2.1004      1.00000
      5       2.2003      1.00000
      6       2.2003      1.00000
      7       2.6219      1.00000
      8       2.6219      1.00000
      9       3.4307      0.00000
     10       3.4307      0.00000
     11       9.0779      0.00000
     12       9.0779      0.00000
     13      11.3701      0.00000
     14      11.3701      0.00000
     15      13.1316      0.00000
     16      13.1316      0.00000

 k-point   259 :       0.3333    0.3333    0.5000
  band No.  band energies     occupation 
      1       1.8946      1.00000
      2       1.8946      1.00000
      3       1.8977      1.00000
      4       1.8978      1.00000
      5       2.3472      1.00000
      6       2.3472      1.00000
      7       2.3588      1.00000
      8       2.3588      1.00000
      9       3.4337      0.00000
     10       3.4337      0.00000
     11      10.5077      0.00000
     12      10.5077      0.00000
     13      10.5866      0.00000
     14      10.5866      0.00000
     15      12.2712      0.00000
     16      12.2712      0.00000


--------------------------------------------------------------------------------------------------------


 soft charge-density along one line, spin component           1
         0         1         2         3         4         5         6         7         8         9
 total charge-density along one line
 
 soft charge-density along one line, spin component           2
         0         1         2         3         4         5         6         7         8         9
 total charge-density along one line
 
 pseudopotential strength for first ion, spin component:           1
 -5.457   0.000   0.000  -0.000   0.000  -5.916   0.000   0.000
  0.000  -5.628   0.000  -0.000   0.000   0.000  -6.081   0.000
  0.000   0.000  -5.694   0.000  -0.000   0.000   0.000  -6.145
 -0.000  -0.000   0.000  -5.628  -0.000  -0.000  -0.000   0.000
  0.000   0.000  -0.000  -0.000  -5.457   0.000   0.000  -0.000
 -5.916   0.000   0.000  -0.000   0.000  -6.322   0.000   0.000
  0.000  -6.081   0.000  -0.000   0.000   0.000  -6.482   0.000
  0.000   0.000  -6.145   0.000  -0.000   0.000   0.000  -6.544
 -0.000  -0.000   0.000  -6.081  -0.000  -0.000  -0.000   0.000
  0.000   0.000  -0.000  -0.000  -5.916   0.000   0.000  -0.000
  0.000   0.000   0.025   0.000  -0.000   0.000   0.000   0.025
  0.000   0.000   0.044   0.000  -0.000   0.000   0.000   0.044
 -0.000  -0.000  -0.000   0.000  -0.000  -0.000  -0.000  -0.000
  0.000   0.000  -0.000  -0.000   0.000   0.000   0.000  -0.000
 -0.000   0.000   0.000   0.000  -0.000  -0.000   0.000   0.000
 -0.000  -0.000  -0.000   0.000  -0.000  -0.000  -0.000  -0.000
  0.000   0.000  -0.000  -0.000   0.000   0.000   0.000  -0.000
 -0.000   0.000   0.000   0.000  -0.000  -0.000   0.000   0.000
 pseudopotential strength for first ion, spin component:           2
 -4.050  -0.000   0.000   0.000   0.000  -4.569  -0.000   0.000
 -0.000  -4.048  -0.000  -0.000  -0.000  -0.000  -4.567  -0.000
  0.000  -0.000  -4.061  -0.000  -0.000   0.000  -0.000  -4.580
  0.000  -0.000  -0.000  -4.048   0.000   0.000  -0.000  -0.000
  0.000  -0.000  -0.000   0.000  -4.050   0.000  -0.000  -0.000
 -4.569  -0.000   0.000   0.000   0.000  -5.033  -0.000   0.000
 -0.000  -4.567  -0.000  -0.000  -0.000  -0.000  -5.031  -0.000
  0.000  -0.000  -4.580  -0.000  -0.000   0.000  -0.000  -5.043
  0.000  -0.000  -0.000  -4.567   0.000   0.000  -0.000  -0.000
  0.000  -0.000  -0.000   0.000  -4.569   0.000  -0.000  -0.000
  0.000  -0.000  -0.001  -0.000  -0.000   0.000  -0.000  -0.002
  0.000  -0.000  -0.003  -0.000  -0.000   0.000  -0.000  -0.004
  0.000  -0.000   0.000   0.000   0.000   0.000  -0.000   0.000
  0.000  -0.000  -0.000   0.000   0.000   0.000  -0.000  -0.000
  0.000   0.000  -0.000   0.000   0.000   0.000   0.000  -0.000
  0.000  -0.000   0.000   0.000   0.000   0.000  -0.000   0.000
  0.000  -0.000  -0.000   0.000   0.000   0.000  -0.000  -0.000
  0.000   0.000  -0.000   0.000   0.000   0.000   0.000  -0.000
 total augmentation occupancy for first ion, spin component:           1
  2.420  -0.000   0.000   0.000   0.000  -1.042  -0.000  -0.000  -0.000  -0.000   0.000  -0.000   0.000   0.000   0.000  -0.000
 -0.000   2.667   0.000  -0.000   0.000   0.000  -0.880   0.000   0.000  -0.000  -0.000   0.000   0.000  -0.000  -0.000   0.000
  0.000   0.000   3.051   0.000  -0.000  -0.000   0.000  -1.246   0.000   0.000   0.719   0.047   0.000   0.000   0.000  -0.000
 -0.000  -0.000   0.000   2.667   0.000   0.000   0.000   0.000  -0.880   0.000   0.000  -0.000   0.000   0.000  -0.000   0.000
  0.000  -0.000  -0.000   0.000   2.420  -0.000  -0.000   0.000   0.000  -1.042  -0.000   0.000   0.000  -0.000  -0.000  -0.000
 -1.042  -0.000  -0.000   0.000  -0.000   1.250   0.000   0.000  -0.000   0.000  -0.000   0.000  -0.000   0.000  -0.000   0.000
 -0.000  -0.880  -0.000   0.000   0.000   0.000   0.614  -0.000  -0.000   0.000   0.000  -0.000  -0.000   0.000  -0.000   0.000
 -0.000   0.000  -1.246   0.000   0.000   0.000  -0.000   0.925   0.000  -0.000  -0.938   0.036   0.000   0.000  -0.000  -0.000
  0.000   0.000   0.000  -0.880   0.000   0.000  -0.000   0.000   0.614   0.000   0.000   0.000   0.000   0.000   0.000   0.000
 -0.000   0.000   0.000   0.000  -1.042   0.000   0.000  -0.000  -0.000   1.250   0.000  -0.000  -0.000   0.000  -0.000   0.000
  0.000   0.000   0.719  -0.000  -0.000  -0.000  -0.000  -0.938   0.000   0.000   1.776  -0.104   0.000   0.000   0.000   0.000
 -0.000   0.000   0.047  -0.000   0.000   0.000   0.000   0.036   0.000  -0.000  -0.104   0.018   0.000   0.000   0.000   0.000
  0.000   0.000   0.000   0.000   0.000   0.000  -0.000   0.000   0.000  -0.000   0.000   0.000   0.229  -0.000   0.000  -0.017
  0.000   0.000   0.000   0.000   0.000   0.000   0.000   0.000   0.000  -0.000   0.000   0.000  -0.000   0.062   0.000   0.000
  0.000   0.000   0.000  -0.000   0.000  -0.000  -0.000  -0.000   0.000  -0.000   0.000   0.000   0.000   0.000   0.229  -0.000
 -0.000   0.000   0.000   0.000  -0.000   0.000   0.000  -0.000   0.000   0.000   0.000  -0.000  -0.017   0.000   0.000   0.001
  0.000  -0.000   0.000  -0.000  -0.000   0.000   0.000   0.000   0.000   0.000   0.000   0.000   0.000  -0.004   0.000  -0.000
 -0.000   0.000  -0.000   0.000  -0.000   0.000   0.000   0.000   0.000   0.000   0.000   0.000   0.000   0.000  -0.017   0.000
 total augmentation occupancy for first ion, spin component:           2
  1.815   0.000   0.000   0.000   0.000  -0.826  -0.000   0.000  -0.000  -0.000  -0.000   0.000  -0.000   0.000  -0.000   0.000
 -0.000   2.128  -0.000  -0.000   0.000  -0.000  -0.969   0.000   0.000   0.000  -0.000   0.000   0.000   0.000  -0.000  -0.000
  0.000   0.000   2.008   0.000  -0.000   0.000   0.000  -0.857  -0.000   0.000   0.007   0.109  -0.000   0.000   0.000  -0.000
  0.000  -0.000   0.000   2.128   0.000   0.000   0.000   0.000  -0.969  -0.000   0.000  -0.000   0.000   0.000  -0.000  -0.000
  0.000   0.000  -0.000   0.000   1.815  -0.000   0.000   0.000  -0.000  -0.826   0.000  -0.000  -0.000  -0.000   0.000   0.000
 -0.826  -0.000   0.000   0.000  -0.000   0.165   0.000  -0.000   0.000  -0.000   0.000  -0.000   0.000   0.000   0.000  -0.000
  0.000  -0.969   0.000   0.000   0.000   0.000   0.303   0.000  -0.000   0.000   0.000   0.000   0.000   0.000   0.000   0.000
  0.000  -0.000  -0.857  -0.000   0.000  -0.000   0.000   0.247  -0.000   0.000   0.090  -0.065  -0.000   0.000   0.000  -0.000
  0.000   0.000   0.000  -0.969  -0.000  -0.000  -0.000  -0.000   0.303  -0.000  -0.000   0.000  -0.000   0.000   0.000   0.000
 -0.000   0.000   0.000   0.000  -0.826   0.000   0.000   0.000   0.000   0.165   0.000   0.000   0.000   0.000   0.000  -0.000
 -0.000   0.000   0.007   0.000   0.000   0.000   0.000   0.090   0.000   0.000  -0.214   0.075   0.000   0.000  -0.000   0.000
  0.000   0.000   0.109   0.000  -0.000  -0.000  -0.000  -0.065   0.000   0.000   0.075  -0.002   0.000   0.000  -0.000   0.000
 -0.000   0.000   0.000  -0.000  -0.000   0.000   0.000   0.000   0.000   0.000   0.000   0.000  -0.020  -0.000  -0.000   0.003
  0.000  -0.000   0.000   0.000  -0.000  -0.000   0.000   0.000  -0.000   0.000   0.000   0.000  -0.000  -0.017   0.000   0.000
 -0.000   0.000  -0.000  -0.000   0.000   0.000   0.000   0.000   0.000   0.000   0.000  -0.000   0.000   0.000  -0.020  -0.000
  0.000   0.000  -0.000   0.000   0.000  -0.000   0.000  -0.000   0.000  -0.000   0.000   0.000   0.003  -0.000  -0.000  -0.000
  0.000  -0.000   0.000   0.000   0.000   0.000   0.000   0.000   0.000   0.000   0.000   0.000   0.000   0.001   0.000   0.000
  0.000  -0.000   0.000   0.000  -0.000  -0.000   0.000   0.000   0.000  -0.000   0.000   0.000   0.000   0.000   0.003  -0.000


------------------------ aborting loop because EDIFF is reached ----------------------------------------


    CHARGE:  cpu time      0.0712: real time      0.0715
    FORLOC:  cpu time      0.0001: real time      0.0001
    FORNL :  cpu time      0.0846: real time      0.0849
    STRESS:  cpu time      0.2385: real time      0.2392
    FORCOR:  cpu time      0.0073: real time      0.0073
    FORHAR:  cpu time      0.0007: real time      0.0007
    MIXING:  cpu time      0.0004: real time      0.0004
    OFIELD:  cpu time      0.0000: real time      0.0000

  FORCE on cell =-STRESS in cart. coord.  units (eV):
  Direction    XX          YY          ZZ          XY          YZ          ZX
  --------------------------------------------------------------------------------------
  Alpha Z    39.63868    39.63868    39.63868
  Ewald     -59.61202   -59.61202  -935.34508    -0.00000     0.00000     0.00000
  Hartree   383.98432   383.98432  -199.86435    -0.00000    -0.00000    -0.00000
  E(xc)     -90.95982   -90.95981   -91.22197     0.00000    -0.00000    -0.00000
  Local    -723.37489  -723.37500   739.88570    -0.00010     0.00000     0.00000
  n-local   -10.92838   -11.59155   -15.87666   -10.60790    -0.03361    -0.01189
  augment   313.11131   313.11142   310.90279     0.00010    -0.00000    -0.00000
  Kinetic   147.43538   142.66447   150.49079     9.00029     0.06688     0.10325
  Fock        0.00000     0.00000     0.00000     0.00000     0.00000     0.00000
  -------------------------------------------------------------------------------------
  Total      -3.42245    -3.42245    -1.39009     0.00000    -0.00000     0.00000
  in kB    -128.28475  -128.28475   -52.10503     0.00000    -0.00000     0.00000
  external pressure =     -102.89 kB  Pullay stress =        0.00 kB


 VOLUME and BASIS-vectors are now :
 -----------------------------------------------------------------------------
  energy-cutoff  :      400.00
  volume of cell :       42.74
      direct lattice vectors                 reciprocal lattice vectors
     2.470000000  0.000000000  0.000000000     0.404858300  0.233745048  0.000000000
    -1.235000000  2.139082747  0.000000000     0.000000000  0.467490097  0.000000000
     0.000000000  0.000000000  8.090000000     0.000000000  0.000000000  0.123609394

  length of vectors
     2.470000000  2.470000000  8.090000000     0.467490097  0.467490097  0.123609394


 FORCES acting on ions
    electron-ion (+dipol)            ewald-force                    non-local-force                 convergence-correction
 -----------------------------------------------------------------------------------------------
   -.476E-05 0.275E-05 -.582E-15   -.208E-13 0.254E-14 -.503E-13   0.271E-19 0.217E-18 0.000E+00   0.226E-10 -.130E-10 -.109E-12
   -.380E-05 0.219E-05 -.696E-12   -.268E-13 0.108E-13 0.503E-13   -.108E-18 -.217E-18 0.000E+00   -.116E-09 0.667E-10 0.171E-12
 -----------------------------------------------------------------------------------------------
   -.856E-05 0.494E-05 -.697E-12   -.476E-13 0.133E-13 0.000E+00   -.813E-19 0.000E+00 0.000E+00   -.930E-10 0.537E-10 0.623E-13
 
 
 POSITION                                       TOTAL-FORCE (eV/Angst)
 -----------------------------------------------------------------------------------
      0.00000      0.00000      0.00000        -0.000000      0.000000      0.000000
      0.00000      1.42606      4.04500         0.000000     -0.000000      0.000000
 -----------------------------------------------------------------------------------
    total drift:                               -0.000009      0.000005     -0.000000


--------------------------------------------------------------------------------------------------------



  FREE ENERGIE OF THE ION-ELECTRON SYSTEM (eV)
  ---------------------------------------------------
  free  energy   TOTEN  =       -11.23908451 eV

  energy  without entropy=      -11.23405558  energy(sigma->0) =      -11.23657005
 


--------------------------------------------------------------------------------------------------------


    POTLOK:  cpu time      0.0125: real time      0.0126


--------------------------------------------------------------------------------------------------------


     LOOP+:  cpu time     28.9702: real time     29.1215
    4ORBIT:  cpu time      0.0000: real time      0.0000

 total amount of memory used by VASP MPI-rank0    41002. kBytes
=======================================================================

   base      :      30000. kBytes
   nonl-proj :       4927. kBytes
   fftplans  :        292. kBytes
   grid      :        713. kBytes
   one-center:         31. kBytes
   wavefun   :       5039. kBytes
 
  
  
 General timing and accounting informations for this job:
 ========================================================
  
                  Total CPU time used (sec):       30.124
                            User time (sec):       29.600
                          System time (sec):        0.524
                         Elapsed time (sec):       31.596
  
                   Maximum memory used (kb):      235564.
                   Average memory used (kb):          N/A
  
                          Minor page faults:        42860
                          Major page faults:           73
                 Voluntary context switches:         2192
