<?xml version="1.0" encoding="ISO-8859-1"?>
<modeling>
 <generator>
  <i name="program" type="string">vasp </i>
  <i name="version" type="string">6.3.2  </i>
  <i name="subversion" type="string">27Jun22 (build Aug 12 2022 00:53:59) complex                          parallel </i>
  <i name="platform" type="string">tv2STD </i>
  <i name="date" type="string">2024 11 30 </i>
  <i name="time" type="string">15:37:06 </i>
 </generator>
 <incar>
  <i type="string" name="SYSTEM">Co-hcc</i>
  <i type="int" name="ISTART">     0</i>
  <i type="string" name="PREC">Accurate      normal | accurate</i>
  <i type="string" name="ALGO">Normal     Normal, Fast, Very_Fast</i>
  <i type="logical" name="ADDGRID"> F  </i>
  <i type="int" name="ISPIN">     2</i>
  <i type="int" name="ICHARG">     2</i>
  <i type="int" name="INIWAV">     1</i>
  <i type="int" name="NELM">   100</i>
  <i type="int" name="IBRION">    -1</i>
  <i name="EDIFF">      0.00000100</i>
  <i name="EDIFFG">     -0.02000000</i>
  <i type="int" name="NSW">     0</i>
  <i type="int" name="ISIF">     2</i>
  <i type="int" name="ISYM">     1</i>
  <i name="ENCUT">    400.00000000</i>
  <v name="MAGMOM">      3.00000000      3.00000000</v>
  <i type="logical" name="LREAL"> F  </i>
  <i type="int" name="ISMEAR">     0</i>
  <i name="SIGMA">      0.05000000</i>
  <i type="int" name="NWRITE">     2</i>
  <i type="logical" name="LWAVE"> F  </i>
  <i type="logical" name="LCHARG"> F  </i>
 </incar>
 <primitive_cell>
  <structure name="primitive_cell" >
   <crystal>
    <varray name="basis" >
     <v>       2.47000000       0.00000000       0.00000000 </v>
     <v>      -1.23500000       2.13908275       0.00000000 </v>
     <v>       0.00000000       0.00000000       8.09000000 </v>
    </varray>
    <i name="volume">     42.74379318 </i>
    <varray name="rec_basis" >
     <v>       0.40485830       0.23374505       0.00000000 </v>
     <v>       0.00000000       0.46749010       0.00000000 </v>
     <v>       0.00000000       0.00000000       0.12360939 </v>
    </varray>
   </crystal>
   <varray name="positions" >
    <v>       0.00000000       0.00000000       0.00000000 </v>
    <v>       0.33333333       0.66666667       0.50000000 </v>
   </varray>
  </structure>
  <varray name="primitive_index" >
   <v type="int" >        1 </v>
   <v type="int" >        2 </v>
  </varray>
 </primitive_cell>
 <kpoints>
  <generation param="Gamma">
   <v type="int" name="divisions">      18       18       12 </v>
   <v name="usershift">      0.00000000       0.00000000       0.00000000 </v>
   <v name="genvec1">      0.05555556       0.00000000       0.00000000 </v>
   <v name="genvec2">      0.00000000       0.05555556       0.00000000 </v>
   <v name="genvec3">      0.00000000       0.00000000       0.08333333 </v>
   <v name="shift">      0.00000000       0.00000000       0.00000000 </v>
  </generation>
  <varray name="kpointlist" >
   <v>       0.00000000       0.00000000       0.00000000 </v>
   <v>       0.05555556      -0.00000000       0.00000000 </v>
   <v>       0.11111111      -0.00000000       0.00000000 </v>
   <v>       0.16666667       0.00000000       0.00000000 </v>
   <v>       0.22222222       0.00000000       0.00000000 </v>
   <v>       0.27777778       0.00000000       0.00000000 </v>
   <v>       0.33333333       0.00000000       0.00000000 </v>
   <v>       0.38888889       0.00000000       0.00000000 </v>
   <v>       0.44444444       0.00000000       0.00000000 </v>
   <v>       0.50000000       0.00000000       0.00000000 </v>
   <v>       0.05555556       0.05555556       0.00000000 </v>
   <v>       0.11111111       0.05555556       0.00000000 </v>
   <v>       0.16666667       0.05555556       0.00000000 </v>
   <v>       0.22222222       0.05555556       0.00000000 </v>
   <v>       0.27777778       0.05555556       0.00000000 </v>
   <v>       0.33333333       0.05555556       0.00000000 </v>
   <v>       0.38888889       0.05555556       0.00000000 </v>
   <v>       0.44444444       0.05555556       0.00000000 </v>
   <v>       0.11111111       0.11111111       0.00000000 </v>
   <v>       0.16666667       0.11111111       0.00000000 </v>
   <v>       0.22222222       0.11111111       0.00000000 </v>
   <v>       0.27777778       0.11111111       0.00000000 </v>
   <v>       0.33333333       0.11111111       0.00000000 </v>
   <v>       0.38888889       0.11111111       0.00000000 </v>
   <v>       0.44444444       0.11111111       0.00000000 </v>
   <v>       0.16666667       0.16666667       0.00000000 </v>
   <v>       0.22222222       0.16666667       0.00000000 </v>
   <v>       0.27777778       0.16666667       0.00000000 </v>
   <v>       0.33333333       0.16666667       0.00000000 </v>
   <v>       0.38888889       0.16666667       0.00000000 </v>
   <v>       0.22222222       0.22222222       0.00000000 </v>
   <v>       0.27777778       0.22222222       0.00000000 </v>
   <v>       0.33333333       0.22222222       0.00000000 </v>
   <v>       0.38888889       0.22222222       0.00000000 </v>
   <v>       0.27777778       0.27777778       0.00000000 </v>
   <v>       0.33333333       0.27777778       0.00000000 </v>
   <v>       0.33333333       0.33333333       0.00000000 </v>
   <v>       0.00000000       0.00000000       0.08333333 </v>
   <v>       0.05555556      -0.00000000       0.08333333 </v>
   <v>       0.11111111      -0.00000000       0.08333333 </v>
   <v>       0.16666667       0.00000000       0.08333333 </v>
   <v>       0.22222222       0.00000000       0.08333333 </v>
   <v>       0.27777778       0.00000000       0.08333333 </v>
   <v>       0.33333333       0.00000000       0.08333333 </v>
   <v>       0.38888889       0.00000000       0.08333333 </v>
   <v>       0.44444444       0.00000000       0.08333333 </v>
   <v>       0.50000000       0.00000000       0.08333333 </v>
   <v>       0.05555556       0.05555556       0.08333333 </v>
   <v>       0.11111111       0.05555556       0.08333333 </v>
   <v>       0.16666667       0.05555556       0.08333333 </v>
   <v>       0.22222222       0.05555556       0.08333333 </v>
   <v>       0.27777778       0.05555556       0.08333333 </v>
   <v>       0.33333333       0.05555556       0.08333333 </v>
   <v>       0.38888889       0.05555556       0.08333333 </v>
   <v>       0.44444444       0.05555556       0.08333333 </v>
   <v>       0.11111111       0.11111111       0.08333333 </v>
   <v>       0.16666667       0.11111111       0.08333333 </v>
   <v>       0.22222222       0.11111111       0.08333333 </v>
   <v>       0.27777778       0.11111111       0.08333333 </v>
   <v>       0.33333333       0.11111111       0.08333333 </v>
   <v>       0.38888889       0.11111111       0.08333333 </v>
   <v>       0.44444444       0.11111111       0.08333333 </v>
   <v>       0.16666667       0.16666667       0.08333333 </v>
   <v>       0.22222222       0.16666667       0.08333333 </v>
   <v>       0.27777778       0.16666667       0.08333333 </v>
   <v>       0.33333333       0.16666667       0.08333333 </v>
   <v>       0.38888889       0.16666667       0.08333333 </v>
   <v>       0.22222222       0.22222222       0.08333333 </v>
   <v>       0.27777778       0.22222222       0.08333333 </v>
   <v>       0.33333333       0.22222222       0.08333333 </v>
   <v>       0.38888889       0.22222222       0.08333333 </v>
   <v>       0.27777778       0.27777778       0.08333333 </v>
   <v>       0.33333333       0.27777778       0.08333333 </v>
   <v>       0.33333333       0.33333333       0.08333333 </v>
   <v>       0.00000000       0.00000000       0.16666667 </v>
   <v>       0.05555556      -0.00000000       0.16666667 </v>
   <v>       0.11111111      -0.00000000       0.16666667 </v>
   <v>       0.16666667       0.00000000       0.16666667 </v>
   <v>       0.22222222       0.00000000       0.16666667 </v>
   <v>       0.27777778       0.00000000       0.16666667 </v>
   <v>       0.33333333       0.00000000       0.16666667 </v>
   <v>       0.38888889       0.00000000       0.16666667 </v>
   <v>       0.44444444       0.00000000       0.16666667 </v>
   <v>       0.50000000       0.00000000       0.16666667 </v>
   <v>       0.05555556       0.05555556       0.16666667 </v>
   <v>       0.11111111       0.05555556       0.16666667 </v>
   <v>       0.16666667       0.05555556       0.16666667 </v>
   <v>       0.22222222       0.05555556       0.16666667 </v>
   <v>       0.27777778       0.05555556       0.16666667 </v>
   <v>       0.33333333       0.05555556       0.16666667 </v>
   <v>       0.38888889       0.05555556       0.16666667 </v>
   <v>       0.44444444       0.05555556       0.16666667 </v>
   <v>       0.11111111       0.11111111       0.16666667 </v>
   <v>       0.16666667       0.11111111       0.16666667 </v>
   <v>       0.22222222       0.11111111       0.16666667 </v>
   <v>       0.27777778       0.11111111       0.16666667 </v>
   <v>       0.33333333       0.11111111       0.16666667 </v>
   <v>       0.38888889       0.11111111       0.16666667 </v>
   <v>       0.44444444       0.11111111       0.16666667 </v>
   <v>       0.16666667       0.16666667       0.16666667 </v>
   <v>       0.22222222       0.16666667       0.16666667 </v>
   <v>       0.27777778       0.16666667       0.16666667 </v>
   <v>       0.33333333       0.16666667       0.16666667 </v>
   <v>       0.38888889       0.16666667       0.16666667 </v>
   <v>       0.22222222       0.22222222       0.16666667 </v>
   <v>       0.27777778       0.22222222       0.16666667 </v>
   <v>       0.33333333       0.22222222       0.16666667 </v>
   <v>       0.38888889       0.22222222       0.16666667 </v>
   <v>       0.27777778       0.27777778       0.16666667 </v>
   <v>       0.33333333       0.27777778       0.16666667 </v>
   <v>       0.33333333       0.33333333       0.16666667 </v>
   <v>       0.00000000       0.00000000       0.25000000 </v>
   <v>       0.05555556      -0.00000000       0.25000000 </v>
   <v>       0.11111111      -0.00000000       0.25000000 </v>
   <v>       0.16666667       0.00000000       0.25000000 </v>
   <v>       0.22222222       0.00000000       0.25000000 </v>
   <v>       0.27777778       0.00000000       0.25000000 </v>
   <v>       0.33333333       0.00000000       0.25000000 </v>
   <v>       0.38888889       0.00000000       0.25000000 </v>
   <v>       0.44444444       0.00000000       0.25000000 </v>
   <v>       0.50000000       0.00000000       0.25000000 </v>
   <v>       0.05555556       0.05555556       0.25000000 </v>
   <v>       0.11111111       0.05555556       0.25000000 </v>
   <v>       0.16666667       0.05555556       0.25000000 </v>
   <v>       0.22222222       0.05555556       0.25000000 </v>
   <v>       0.27777778       0.05555556       0.25000000 </v>
   <v>       0.33333333       0.05555556       0.25000000 </v>
   <v>       0.38888889       0.05555556       0.25000000 </v>
   <v>       0.44444444       0.05555556       0.25000000 </v>
   <v>       0.11111111       0.11111111       0.25000000 </v>
   <v>       0.16666667       0.11111111       0.25000000 </v>
   <v>       0.22222222       0.11111111       0.25000000 </v>
   <v>       0.27777778       0.11111111       0.25000000 </v>
   <v>       0.33333333       0.11111111       0.25000000 </v>
   <v>       0.38888889       0.11111111       0.25000000 </v>
   <v>       0.44444444       0.11111111       0.25000000 </v>
   <v>       0.16666667       0.16666667       0.25000000 </v>
   <v>       0.22222222       0.16666667       0.25000000 </v>
   <v>       0.27777778       0.16666667       0.25000000 </v>
   <v>       0.33333333       0.16666667       0.25000000 </v>
   <v>       0.38888889       0.16666667       0.25000000 </v>
   <v>       0.22222222       0.22222222       0.25000000 </v>
   <v>       0.27777778       0.22222222       0.25000000 </v>
   <v>       0.33333333       0.22222222       0.25000000 </v>
   <v>       0.38888889       0.22222222       0.25000000 </v>
   <v>       0.27777778       0.27777778       0.25000000 </v>
   <v>       0.33333333       0.27777778       0.25000000 </v>
   <v>       0.33333333       0.33333333       0.25000000 </v>
   <v>       0.00000000       0.00000000       0.33333333 </v>
   <v>       0.05555556      -0.00000000       0.33333333 </v>
   <v>       0.11111111      -0.00000000       0.33333333 </v>
   <v>       0.16666667       0.00000000       0.33333333 </v>
   <v>       0.22222222       0.00000000       0.33333333 </v>
   <v>       0.27777778       0.00000000       0.33333333 </v>
   <v>       0.33333333       0.00000000       0.33333333 </v>
   <v>       0.38888889       0.00000000       0.33333333 </v>
   <v>       0.44444444       0.00000000       0.33333333 </v>
   <v>       0.50000000       0.00000000       0.33333333 </v>
   <v>       0.05555556       0.05555556       0.33333333 </v>
   <v>       0.11111111       0.05555556       0.33333333 </v>
   <v>       0.16666667       0.05555556       0.33333333 </v>
   <v>       0.22222222       0.05555556       0.33333333 </v>
   <v>       0.27777778       0.05555556       0.33333333 </v>
   <v>       0.33333333       0.05555556       0.33333333 </v>
   <v>       0.38888889       0.05555556       0.33333333 </v>
   <v>       0.44444444       0.05555556       0.33333333 </v>
   <v>       0.11111111       0.11111111       0.33333333 </v>
   <v>       0.16666667       0.11111111       0.33333333 </v>
   <v>       0.22222222       0.11111111       0.33333333 </v>
   <v>       0.27777778       0.11111111       0.33333333 </v>
   <v>       0.33333333       0.11111111       0.33333333 </v>
   <v>       0.38888889       0.11111111       0.33333333 </v>
   <v>       0.44444444       0.11111111       0.33333333 </v>
   <v>       0.16666667       0.16666667       0.33333333 </v>
   <v>       0.22222222       0.16666667       0.33333333 </v>
   <v>       0.27777778       0.16666667       0.33333333 </v>
   <v>       0.33333333       0.16666667       0.33333333 </v>
   <v>       0.38888889       0.16666667       0.33333333 </v>
   <v>       0.22222222       0.22222222       0.33333333 </v>
   <v>       0.27777778       0.22222222       0.33333333 </v>
   <v>       0.33333333       0.22222222       0.33333333 </v>
   <v>       0.38888889       0.22222222       0.33333333 </v>
   <v>       0.27777778       0.27777778       0.33333333 </v>
   <v>       0.33333333       0.27777778       0.33333333 </v>
   <v>       0.33333333       0.33333333       0.33333333 </v>
   <v>       0.00000000       0.00000000       0.41666667 </v>
   <v>       0.05555556      -0.00000000       0.41666667 </v>
   <v>       0.11111111      -0.00000000       0.41666667 </v>
   <v>       0.16666667       0.00000000       0.41666667 </v>
   <v>       0.22222222       0.00000000       0.41666667 </v>
   <v>       0.27777778       0.00000000       0.41666667 </v>
   <v>       0.33333333       0.00000000       0.41666667 </v>
   <v>       0.38888889       0.00000000       0.41666667 </v>
   <v>       0.44444444       0.00000000       0.41666667 </v>
   <v>       0.50000000       0.00000000       0.41666667 </v>
   <v>       0.05555556       0.05555556       0.41666667 </v>
   <v>       0.11111111       0.05555556       0.41666667 </v>
   <v>       0.16666667       0.05555556       0.41666667 </v>
   <v>       0.22222222       0.05555556       0.41666667 </v>
   <v>       0.27777778       0.05555556       0.41666667 </v>
   <v>       0.33333333       0.05555556       0.41666667 </v>
   <v>       0.38888889       0.05555556       0.41666667 </v>
   <v>       0.44444444       0.05555556       0.41666667 </v>
   <v>       0.11111111       0.11111111       0.41666667 </v>
   <v>       0.16666667       0.11111111       0.41666667 </v>
   <v>       0.22222222       0.11111111       0.41666667 </v>
   <v>       0.27777778       0.11111111       0.41666667 </v>
   <v>       0.33333333       0.11111111       0.41666667 </v>
   <v>       0.38888889       0.11111111       0.41666667 </v>
   <v>       0.44444444       0.11111111       0.41666667 </v>
   <v>       0.16666667       0.16666667       0.41666667 </v>
   <v>       0.22222222       0.16666667       0.41666667 </v>
   <v>       0.27777778       0.16666667       0.41666667 </v>
   <v>       0.33333333       0.16666667       0.41666667 </v>
   <v>       0.38888889       0.16666667       0.41666667 </v>
   <v>       0.22222222       0.22222222       0.41666667 </v>
   <v>       0.27777778       0.22222222       0.41666667 </v>
   <v>       0.33333333       0.22222222       0.41666667 </v>
   <v>       0.38888889       0.22222222       0.41666667 </v>
   <v>       0.27777778       0.27777778       0.41666667 </v>
   <v>       0.33333333       0.27777778       0.41666667 </v>
   <v>       0.33333333       0.33333333       0.41666667 </v>
   <v>       0.00000000       0.00000000       0.50000000 </v>
   <v>       0.05555556      -0.00000000       0.50000000 </v>
   <v>       0.11111111      -0.00000000       0.50000000 </v>
   <v>       0.16666667       0.00000000       0.50000000 </v>
   <v>       0.22222222       0.00000000       0.50000000 </v>
   <v>       0.27777778       0.00000000       0.50000000 </v>
   <v>       0.33333333       0.00000000       0.50000000 </v>
   <v>       0.38888889       0.00000000       0.50000000 </v>
   <v>       0.44444444       0.00000000       0.50000000 </v>
   <v>       0.50000000       0.00000000       0.50000000 </v>
   <v>       0.05555556       0.05555556       0.50000000 </v>
   <v>       0.11111111       0.05555556       0.50000000 </v>
   <v>       0.16666667       0.05555556       0.50000000 </v>
   <v>       0.22222222       0.05555556       0.50000000 </v>
   <v>       0.27777778       0.05555556       0.50000000 </v>
   <v>       0.33333333       0.05555556       0.50000000 </v>
   <v>       0.38888889       0.05555556       0.50000000 </v>
   <v>       0.44444444       0.05555556       0.50000000 </v>
   <v>       0.11111111       0.11111111       0.50000000 </v>
   <v>       0.16666667       0.11111111       0.50000000 </v>
   <v>       0.22222222       0.11111111       0.50000000 </v>
   <v>       0.27777778       0.11111111       0.50000000 </v>
   <v>       0.33333333       0.11111111       0.50000000 </v>
   <v>       0.38888889       0.11111111       0.50000000 </v>
   <v>       0.44444444       0.11111111       0.50000000 </v>
   <v>       0.16666667       0.16666667       0.50000000 </v>
   <v>       0.22222222       0.16666667       0.50000000 </v>
   <v>       0.27777778       0.16666667       0.50000000 </v>
   <v>       0.33333333       0.16666667       0.50000000 </v>
   <v>       0.38888889       0.16666667       0.50000000 </v>
   <v>       0.22222222       0.22222222       0.50000000 </v>
   <v>       0.27777778       0.22222222       0.50000000 </v>
   <v>       0.33333333       0.22222222       0.50000000 </v>
   <v>       0.38888889       0.22222222       0.50000000 </v>
   <v>       0.27777778       0.27777778       0.50000000 </v>
   <v>       0.33333333       0.27777778       0.50000000 </v>
   <v>       0.33333333       0.33333333       0.50000000 </v>
  </varray>
  <varray name="weights" >
   <v>       0.00025720 </v>
   <v>       0.00154321 </v>
   <v>       0.00154321 </v>
   <v>       0.00154321 </v>
   <v>       0.00154321 </v>
   <v>       0.00154321 </v>
   <v>       0.00154321 </v>
   <v>       0.00154321 </v>
   <v>       0.00154321 </v>
   <v>       0.00077160 </v>
   <v>       0.00154321 </v>
   <v>       0.00308642 </v>
   <v>       0.00308642 </v>
   <v>       0.00308642 </v>
   <v>       0.00308642 </v>
   <v>       0.00308642 </v>
   <v>       0.00308642 </v>
   <v>       0.00308642 </v>
   <v>       0.00154321 </v>
   <v>       0.00308642 </v>
   <v>       0.00308642 </v>
   <v>       0.00308642 </v>
   <v>       0.00308642 </v>
   <v>       0.00308642 </v>
   <v>       0.00154321 </v>
   <v>       0.00154321 </v>
   <v>       0.00308642 </v>
   <v>       0.00308642 </v>
   <v>       0.00308642 </v>
   <v>       0.00308642 </v>
   <v>       0.00154321 </v>
   <v>       0.00308642 </v>
   <v>       0.00308642 </v>
   <v>       0.00154321 </v>
   <v>       0.00154321 </v>
   <v>       0.00308642 </v>
   <v>       0.00051440 </v>
   <v>       0.00051440 </v>
   <v>       0.00308642 </v>
   <v>       0.00308642 </v>
   <v>       0.00308642 </v>
   <v>       0.00308642 </v>
   <v>       0.00308642 </v>
   <v>       0.00308642 </v>
   <v>       0.00308642 </v>
   <v>       0.00308642 </v>
   <v>       0.00154321 </v>
   <v>       0.00308642 </v>
   <v>       0.00617284 </v>
   <v>       0.00617284 </v>
   <v>       0.00617284 </v>
   <v>       0.00617284 </v>
   <v>       0.00617284 </v>
   <v>       0.00617284 </v>
   <v>       0.00617284 </v>
   <v>       0.00308642 </v>
   <v>       0.00617284 </v>
   <v>       0.00617284 </v>
   <v>       0.00617284 </v>
   <v>       0.00617284 </v>
   <v>       0.00617284 </v>
   <v>       0.00308642 </v>
   <v>       0.00308642 </v>
   <v>       0.00617284 </v>
   <v>       0.00617284 </v>
   <v>       0.00617284 </v>
   <v>       0.00617284 </v>
   <v>       0.00308642 </v>
   <v>       0.00617284 </v>
   <v>       0.00617284 </v>
   <v>       0.00308642 </v>
   <v>       0.00308642 </v>
   <v>       0.00617284 </v>
   <v>       0.00102881 </v>
   <v>       0.00051440 </v>
   <v>       0.00308642 </v>
   <v>       0.00308642 </v>
   <v>       0.00308642 </v>
   <v>       0.00308642 </v>
   <v>       0.00308642 </v>
   <v>       0.00308642 </v>
   <v>       0.00308642 </v>
   <v>       0.00308642 </v>
   <v>       0.00154321 </v>
   <v>       0.00308642 </v>
   <v>       0.00617284 </v>
   <v>       0.00617284 </v>
   <v>       0.00617284 </v>
   <v>       0.00617284 </v>
   <v>       0.00617284 </v>
   <v>       0.00617284 </v>
   <v>       0.00617284 </v>
   <v>       0.00308642 </v>
   <v>       0.00617284 </v>
   <v>       0.00617284 </v>
   <v>       0.00617284 </v>
   <v>       0.00617284 </v>
   <v>       0.00617284 </v>
   <v>       0.00308642 </v>
   <v>       0.00308642 </v>
   <v>       0.00617284 </v>
   <v>       0.00617284 </v>
   <v>       0.00617284 </v>
   <v>       0.00617284 </v>
   <v>       0.00308642 </v>
   <v>       0.00617284 </v>
   <v>       0.00617284 </v>
   <v>       0.00308642 </v>
   <v>       0.00308642 </v>
   <v>       0.00617284 </v>
   <v>       0.00102881 </v>
   <v>       0.00051440 </v>
   <v>       0.00308642 </v>
   <v>       0.00308642 </v>
   <v>       0.00308642 </v>
   <v>       0.00308642 </v>
   <v>       0.00308642 </v>
   <v>       0.00308642 </v>
   <v>       0.00308642 </v>
   <v>       0.00308642 </v>
   <v>       0.00154321 </v>
   <v>       0.00308642 </v>
   <v>       0.00617284 </v>
   <v>       0.00617284 </v>
   <v>       0.00617284 </v>
   <v>       0.00617284 </v>
   <v>       0.00617284 </v>
   <v>       0.00617284 </v>
   <v>       0.00617284 </v>
   <v>       0.00308642 </v>
   <v>       0.00617284 </v>
   <v>       0.00617284 </v>
   <v>       0.00617284 </v>
   <v>       0.00617284 </v>
   <v>       0.00617284 </v>
   <v>       0.00308642 </v>
   <v>       0.00308642 </v>
   <v>       0.00617284 </v>
   <v>       0.00617284 </v>
   <v>       0.00617284 </v>
   <v>       0.00617284 </v>
   <v>       0.00308642 </v>
   <v>       0.00617284 </v>
   <v>       0.00617284 </v>
   <v>       0.00308642 </v>
   <v>       0.00308642 </v>
   <v>       0.00617284 </v>
   <v>       0.00102881 </v>
   <v>       0.00051440 </v>
   <v>       0.00308642 </v>
   <v>       0.00308642 </v>
   <v>       0.00308642 </v>
   <v>       0.00308642 </v>
   <v>       0.00308642 </v>
   <v>       0.00308642 </v>
   <v>       0.00308642 </v>
   <v>       0.00308642 </v>
   <v>       0.00154321 </v>
   <v>       0.00308642 </v>
   <v>       0.00617284 </v>
   <v>       0.00617284 </v>
   <v>       0.00617284 </v>
   <v>       0.00617284 </v>
   <v>       0.00617284 </v>
   <v>       0.00617284 </v>
   <v>       0.00617284 </v>
   <v>       0.00308642 </v>
   <v>       0.00617284 </v>
   <v>       0.00617284 </v>
   <v>       0.00617284 </v>
   <v>       0.00617284 </v>
   <v>       0.00617284 </v>
   <v>       0.00308642 </v>
   <v>       0.00308642 </v>
   <v>       0.00617284 </v>
   <v>       0.00617284 </v>
   <v>       0.00617284 </v>
   <v>       0.00617284 </v>
   <v>       0.00308642 </v>
   <v>       0.00617284 </v>
   <v>       0.00617284 </v>
   <v>       0.00308642 </v>
   <v>       0.00308642 </v>
   <v>       0.00617284 </v>
   <v>       0.00102881 </v>
   <v>       0.00051440 </v>
   <v>       0.00308642 </v>
   <v>       0.00308642 </v>
   <v>       0.00308642 </v>
   <v>       0.00308642 </v>
   <v>       0.00308642 </v>
   <v>       0.00308642 </v>
   <v>       0.00308642 </v>
   <v>       0.00308642 </v>
   <v>       0.00154321 </v>
   <v>       0.00308642 </v>
   <v>       0.00617284 </v>
   <v>       0.00617284 </v>
   <v>       0.00617284 </v>
   <v>       0.00617284 </v>
   <v>       0.00617284 </v>
   <v>       0.00617284 </v>
   <v>       0.00617284 </v>
   <v>       0.00308642 </v>
   <v>       0.00617284 </v>
   <v>       0.00617284 </v>
   <v>       0.00617284 </v>
   <v>       0.00617284 </v>
   <v>       0.00617284 </v>
   <v>       0.00308642 </v>
   <v>       0.00308642 </v>
   <v>       0.00617284 </v>
   <v>       0.00617284 </v>
   <v>       0.00617284 </v>
   <v>       0.00617284 </v>
   <v>       0.00308642 </v>
   <v>       0.00617284 </v>
   <v>       0.00617284 </v>
   <v>       0.00308642 </v>
   <v>       0.00308642 </v>
   <v>       0.00617284 </v>
   <v>       0.00102881 </v>
   <v>       0.00025720 </v>
   <v>       0.00154321 </v>
   <v>       0.00154321 </v>
   <v>       0.00154321 </v>
   <v>       0.00154321 </v>
   <v>       0.00154321 </v>
   <v>       0.00154321 </v>
   <v>       0.00154321 </v>
   <v>       0.00154321 </v>
   <v>       0.00077160 </v>
   <v>       0.00154321 </v>
   <v>       0.00308642 </v>
   <v>       0.00308642 </v>
   <v>       0.00308642 </v>
   <v>       0.00308642 </v>
   <v>       0.00308642 </v>
   <v>       0.00308642 </v>
   <v>       0.00308642 </v>
   <v>       0.00154321 </v>
   <v>       0.00308642 </v>
   <v>       0.00308642 </v>
   <v>       0.00308642 </v>
   <v>       0.00308642 </v>
   <v>       0.00308642 </v>
   <v>       0.00154321 </v>
   <v>       0.00154321 </v>
   <v>       0.00308642 </v>
   <v>       0.00308642 </v>
   <v>       0.00308642 </v>
   <v>       0.00308642 </v>
   <v>       0.00154321 </v>
   <v>       0.00308642 </v>
   <v>       0.00308642 </v>
   <v>       0.00154321 </v>
   <v>       0.00154321 </v>
   <v>       0.00308642 </v>
   <v>       0.00051440 </v>
  </varray>
 </kpoints>
 <parameters>
  <separator name="general" >
   <i type="string" name="SYSTEM">Co-hcc</i>
   <i type="logical" name="LCOMPAT"> F  </i>
  </separator>
  <separator name="electronic" >
   <i type="string" name="PREC">accura</i>
   <i name="ENMAX">    400.00000000</i>
   <i name="ENAUG">    477.81800000</i>
   <i name="EDIFF">      0.00000100</i>
   <i type="int" name="IALGO">    38</i>
   <i type="int" name="IWAVPR">    10</i>
   <i type="int" name="NBANDS">    16</i>
   <i type="int" name="NBANDSLOW">    -1</i>
   <i type="int" name="NBANDSHIGH">    -1</i>
   <i name="NELECT">     18.00000000</i>
   <i type="int" name="TURBO">     0</i>
   <i type="int" name="IRESTART">     0</i>
   <i type="int" name="NREBOOT">     0</i>
   <i type="int" name="NMIN">     0</i>
   <i name="EREF">      0.00000000</i>
   <separator name="electronic smearing" >
    <i type="int" name="ISMEAR">     0</i>
    <i name="SIGMA">      0.05000000</i>
    <i name="KSPACING">      0.50000000</i>
    <i type="logical" name="KGAMMA"> T  </i>
    <i type="logical" name="KBLOWUP"> T  </i>
   </separator>
   <separator name="electronic projectors" >
    <i type="logical" name="LREAL"> F  </i>
    <v name="ROPT">      0.00000000</v>
    <i type="int" name="LMAXPAW">  -100</i>
    <i type="int" name="LMAXMIX">     2</i>
    <i type="logical" name="NLSPLINE"> F  </i>
   </separator>
   <separator name="electronic startup" >
    <i type="int" name="ISTART">     0</i>
    <i type="int" name="ICHARG">     2</i>
    <i type="int" name="INIWAV">     1</i>
   </separator>
   <separator name="electronic spin" >
    <i type="int" name="ISPIN">     2</i>
    <i type="logical" name="LNONCOLLINEAR"> F  </i>
    <v name="MAGMOM">      3.00000000      3.00000000</v>
    <i name="NUPDOWN">     -1.00000000</i>
    <i type="logical" name="LSORBIT"> F  </i>
    <v name="SAXIS">      0.00000000      0.00000000      1.00000000</v>
    <i type="logical" name="LSPIRAL"> F  </i>
    <v name="QSPIRAL">      0.00000000      0.00000000      0.00000000</v>
    <i type="logical" name="LZEROZ"> F  </i>
   </separator>
   <separator name="electronic exchange-correlation" >
    <i type="logical" name="LASPH"> F  </i>
    <i type="logical" name="LMETAGGA"> F  </i>
   </separator>
   <separator name="electronic convergence" >
    <i type="int" name="NELM">   100</i>
    <i type="int" name="NELMDL">    -5</i>
    <i type="int" name="NELMIN">     2</i>
    <i name="ENINI">    400.00000000</i>
    <separator name="electronic convergence detail" >
     <i type="logical" name="LDIAG"> T  </i>
     <i type="logical" name="LSUBROT"> F  </i>
     <i name="WEIMIN">      0.00000000</i>
     <i name="EBREAK">      0.00000002</i>
     <i name="DEPER">      0.30000000</i>
     <i type="int" name="NRMM">     4</i>
     <i name="TIME">      0.40000000</i>
    </separator>
   </separator>
   <separator name="electronic mixer" >
    <i name="AMIX">      0.40000000</i>
    <i name="BMIX">      1.00000000</i>
    <i name="AMIN">      0.10000000</i>
    <i name="AMIX_MAG">      1.60000000</i>
    <i name="BMIX_MAG">      1.00000000</i>
    <separator name="electronic mixer details" >
     <i type="int" name="IMIX">     4</i>
     <i type="logical" name="MIXFIRST"> F  </i>
     <i type="int" name="MAXMIX">   -45</i>
     <i name="WC">    100.00000000</i>
     <i type="int" name="INIMIX">     1</i>
     <i type="int" name="MIXPRE">     1</i>
     <i type="int" name="MREMOVE">     5</i>
    </separator>
   </separator>
   <separator name="electronic dipolcorrection" >
    <i type="logical" name="LDIPOL"> F  </i>
    <i type="logical" name="LMONO"> F  </i>
    <i type="int" name="IDIPOL">     0</i>
    <i name="EPSILON">      1.00000000</i>
    <v name="DIPOL">   -100.00000000   -100.00000000   -100.00000000</v>
    <i name="EFIELD">      0.00000000</i>
   </separator>
  </separator>
  <separator name="grids" >
   <i type="int" name="NGX">    16</i>
   <i type="int" name="NGY">    16</i>
   <i type="int" name="NGZ">    54</i>
   <i type="int" name="NGXF">    32</i>
   <i type="int" name="NGYF">    32</i>
   <i type="int" name="NGZF">   108</i>
   <i type="logical" name="ADDGRID"> F  </i>
  </separator>
  <separator name="ionic" >
   <i type="int" name="NSW">     0</i>
   <i type="int" name="IBRION">    -1</i>
   <i type="int" name="MDALGO">     0</i>
   <i type="int" name="ISIF">     2</i>
   <i name="PSTRESS">      0.00000000</i>
   <i name="EDIFFG">     -0.02000000</i>
   <i type="int" name="NFREE">     0</i>
   <i name="POTIM">      0.50000000</i>
   <i name="SMASS">     -3.00000000</i>
   <i name="SCALEE">      1.00000000</i>
  </separator>
  <separator name="ionic md" >
   <i name="TEBEG">      0.00010000</i>
   <i name="TEEND">      0.00010000</i>
   <i type="int" name="NBLOCK">     1</i>
   <i type="int" name="KBLOCK">     1</i>
   <i type="int" name="NPACO">   256</i>
   <i name="APACO">     10.00000000</i>
  </separator>
  <separator name="symmetry" >
   <i type="int" name="ISYM">     1</i>
   <i name="SYMPREC">      0.00001000</i>
  </separator>
  <separator name="dos" >
   <i type="int" name="LORBIT">     0</i>
   <v name="RWIGS">     -1.00000000</v>
   <i type="int" name="NEDOS">   301</i>
   <i name="EMIN">     10.00000000</i>
   <i name="EMAX">    -10.00000000</i>
   <i name="EFERMI">      0.00000000</i>
  </separator>
  <separator name="writing" >
   <i type="int" name="NWRITE">     2</i>
   <i type="logical" name="LWAVE"> F  </i>
   <i type="logical" name="LDOWNSAMPLE"> F  </i>
   <i type="logical" name="LCHARG"> F  </i>
   <i type="logical" name="LPARD"> F  </i>
   <i type="logical" name="LVTOT"> F  </i>
   <i type="logical" name="LVHAR"> F  </i>
   <i type="logical" name="LELF"> F  </i>
   <i type="logical" name="LOPTICS"> F  </i>
   <v name="STM">      0.00000000      0.00000000      0.00000000      0.00000000      0.00000000      0.00000000      0.00000000</v>
  </separator>
  <separator name="performance" >
   <i type="int" name="NPAR">     4</i>
   <i type="int" name="NSIM">     4</i>
   <i type="int" name="NBLK">    -1</i>
   <i type="logical" name="LPLANE"> T  </i>
   <i type="logical" name="LSCALAPACK"> T  </i>
   <i type="logical" name="LSCAAWARE"> F  </i>
   <i type="logical" name="LSCALU"> F  </i>
   <i type="logical" name="LASYNC"> F  </i>
   <i type="logical" name="LORBITALREAL"> F  </i>
  </separator>
  <separator name="miscellaneous" >
   <i type="int" name="IDIOT">     3</i>
   <i type="int" name="PHON_NSTRUCT">    -1</i>
   <i type="logical" name="LMUSIC"> F  </i>
   <v name="POMASS">     58.93300000</v>
   <v name="DARWINR">      0.00000000</v>
   <v name="DARWINV">      1.00000000</v>
   <i type="logical" name="LCORR"> T  </i>
  </separator>
  <i type="logical" name="GGA_COMPAT"> T  </i>
  <i type="logical" name="LBERRY"> F  </i>
  <i type="int" name="ICORELEVEL">     0</i>
  <i type="logical" name="LDAU"> F  </i>
  <i type="int" name="I_CONSTRAINED_M">     0</i>
  <separator name="electronic exchange-correlation" >
   <i type="string" name="GGA">--</i>
   <i type="int" name="VOSKOWN">     0</i>
   <i type="logical" name="LHFCALC"> F  </i>
   <i type="string" name="PRECFOCK"></i>
   <i type="logical" name="LSYMGRAD"> F  </i>
   <i type="logical" name="LHFONE"> F  </i>
   <i type="logical" name="LRHFCALC"> F  </i>
   <i type="logical" name="LTHOMAS"> F  </i>
   <i type="logical" name="LMODELHF"> F  </i>
   <i type="logical" name="LFOCKACE"> F  </i>
   <i name="ENCUT4O">     -1.00000000</i>
   <i type="int" name="EXXOEP">     0</i>
   <i type="int" name="FOURORBIT">     0</i>
   <i name="AEXX">      0.00000000</i>
   <i name="HFALPHA">      0.00000000</i>
   <i name="MCALPHA">      0.00000000</i>
   <i name="ALDAX">      1.00000000</i>
   <i name="AGGAX">      1.00000000</i>
   <i name="ALDAC">      1.00000000</i>
   <i name="AGGAC">      1.00000000</i>
   <i type="int" name="NKREDX">     1</i>
   <i type="int" name="NKREDY">     1</i>
   <i type="int" name="NKREDZ">     1</i>
   <i type="logical" name="SHIFTRED"> F  </i>
   <i type="logical" name="ODDONLY"> F  </i>
   <i type="logical" name="EVENONLY"> F  </i>
   <i type="int" name="LMAXFOCK">     0</i>
   <i type="int" name="NMAXFOCKAE">     0</i>
   <i type="logical" name="LFOCKAEDFT"> F  </i>
   <i name="HFSCREEN">      0.00000000</i>
   <i name="HFSCREENC">      0.00000000</i>
   <i type="int" name="NBANDSGWLOW">     0</i>
  </separator>
  <separator name="vdW DFT" >
   <i type="logical" name="LUSE_VDW"> F  </i>
   <i name="Zab_VDW">     -0.84910000</i>
   <i name="PARAM1">      0.12340000</i>
   <i name="PARAM2">      1.00000000</i>
   <i name="PARAM3">      0.00000000</i>
  </separator>
  <separator name="model GW" >
   <i type="int" name="MODEL_GW">     0</i>
   <i name="MODEL_EPS0">     12.82313795</i>
   <i name="MODEL_ALPHA">      1.00000000</i>
  </separator>
  <separator name="linear response parameters" >
   <i type="logical" name="LEPSILON"> F  </i>
   <i type="logical" name="LRPA"> F  </i>
   <i type="logical" name="LNABLA"> F  </i>
   <i type="logical" name="LVEL"> F  </i>
   <i name="CSHIFT">      0.10000000</i>
   <i name="OMEGAMAX">     -1.00000000</i>
   <i name="DEG_THRESHOLD">      0.00200000</i>
   <i name="RTIME">     -0.10000000</i>
   <i name="WPLASMAI">      0.00000000</i>
   <v name="DFIELD">      0.00000000      0.00000000      0.00000000</v>
   <v name="WPLASMA">      0.00000000      0.00000000      0.00000000      0.00000000      0.00000000      0.00000000      0.00000000      0.00000000      0.00000000</v>
  </separator>
  <separator name="orbital magnetization" >
   <i type="logical" name="NUCIND"> F  </i>
   <v name="MAGPOS">      0.00000000      0.00000000      0.00000000</v>
   <i type="logical" name="LNICSALL"> T  </i>
   <i type="logical" name="ORBITALMAG"> F  </i>
   <i type="logical" name="LMAGBLOCH"> F  </i>
   <i type="logical" name="LCHIMAG"> F  </i>
   <i type="logical" name="LGAUGE"> T  </i>
   <i type="int" name="MAGATOM">     0</i>
   <v name="MAGDIPOL">      0.00000000      0.00000000      0.00000000</v>
   <v name="AVECCONST">      0.00000000      0.00000000      0.00000000</v>
  </separator>
  <separator name="response functions" >
   <i type="logical" name="LFINITE_TEMPERATURE"> F  </i>
   <i type="logical" name="LADDER"> F  </i>
   <i type="logical" name="LRPAFORCE"> F  </i>
   <i type="logical" name="LFXC"> F  </i>
   <i type="logical" name="LHARTREE"> T  </i>
   <i type="int" name="IBSE">     0</i>
   <v type="int" name="KPOINT">    -1     0     0     0</v>
   <i type="logical" name="LTCTC"> F  </i>
   <i type="logical" name="LTCTE"> F  </i>
   <i type="logical" name="LTETE"> F  </i>
   <i type="logical" name="LTRIPLET"> F  </i>
   <i type="logical" name="LFXCEPS"> F  </i>
   <i type="logical" name="LFXHEG"> F  </i>
   <i type="int" name="NATURALO">     2</i>
   <i type="logical" name="LHOLEGF"> F  </i>
   <i type="logical" name="L2ORDER"> F  </i>
   <i type="logical" name="LDMP1"> F  </i>
   <i type="logical" name="LMP2LT"> F  </i>
   <i type="logical" name="LSMP2LT"> F  </i>
   <i type="logical" name="LGWLF"> F  </i>
   <i name="ENCUTGW">     -2.00000000</i>
   <i name="ENCUTGWSOFT">     -2.00000000</i>
   <i name="ENCUTLF">     -1.00000000</i>
   <i type="logical" name="LESF_SPLINES"> F  </i>
   <i type="int" name="LMAXMP2">    -1</i>
   <i name="SCISSOR">      0.00000000</i>
   <i type="int" name="NOMEGA">     0</i>
   <i type="int" name="NOMEGAR">     0</i>
   <i type="int" name="NBANDSGW">    -1</i>
   <i type="int" name="NBANDSO">    -1</i>
   <i type="int" name="NBANDSV">    -1</i>
   <i type="int" name="NELMGW">     1</i>
   <i type="int" name="NELMHF">     1</i>
   <i type="int" name="DIM">     3</i>
   <i type="int" name="IESPILON">     4</i>
   <i type="int" name="ANTIRES">     0</i>
   <i name="OMEGAMAX">    -30.00000000</i>
   <i name="OMEGAMIN">    -30.00000000</i>
   <i name="OMEGATL">   -200.00000000</i>
   <i type="int" name="OMEGAGRID">     0</i>
   <i name="CSHIFT">     -0.10000000</i>
   <i type="logical" name="LSELFENERGY"> F  </i>
   <i type="logical" name="LSPECTRAL"> F  </i>
   <i type="logical" name="LSPECTRALGW"> F  </i>
   <i type="logical" name="LSINGLES"> F  </i>
   <i type="logical" name="LFERMIGW"> F  </i>
   <i type="logical" name="ODDONLYGW"> F  </i>
   <i type="logical" name="EVENONLYGW"> F  </i>
   <i type="int" name="NKREDLFX">     1</i>
   <i type="int" name="NKREDLFY">     1</i>
   <i type="int" name="NKREDLFZ">     1</i>
   <i type="int" name="MAXMEM">  2800</i>
   <i type="int" name="TELESCOPE">     0</i>
   <i type="int" name="NTAUPAR">    -1</i>
   <i type="int" name="NOMEGAPAR">    -1</i>
   <i name="DAMP_NEWTON">      0.80000001</i>
   <i name="LAMBDA">      1.00000000</i>
  </separator>
  <separator name="External order field" >
   <i name="OFIELD_KAPPA">      0.00000000</i>
   <v name="OFIELD_K">      0.00000000      0.00000000      0.00000000</v>
   <i name="OFIELD_Q6_NEAR">      0.00000000</i>
   <i name="OFIELD_Q6_FAR">      0.00000000</i>
   <i name="OFIELD_A">      0.00000000</i>
  </separator>
  <separator name="optional k-points parameters" >
   <i type="int" name="KPOINTS_OPT_MODE">     1</i>
   <i type="logical" name="LKPOINTS_OPT"> F  </i>
  </separator>
 </parameters>
 <atominfo>
  <atoms>       2 </atoms>
  <types>       1 </types>
  <array name="atoms" >
   <dimension dim="1">ion</dimension>
   <field type="string">element</field>
   <field type="int">atomtype</field>
   <set>
    <rc><c>Co</c><c>   1</c></rc>
    <rc><c>Co</c><c>   1</c></rc>
   </set>
  </array>
  <array name="atomtypes" >
   <dimension dim="1">type</dimension>
   <field type="int">atomspertype</field>
   <field type="string">element</field>
   <field>mass</field>
   <field>valence</field>
   <field type="string">pseudopotential</field>
   <set>
    <rc><c>   2</c><c>Co</c><c>     58.93300000</c><c>      9.00000000</c><c>  PAW_PBE Co 02Aug2007                  </c></rc>
   </set>
  </array>
 </atominfo>
 <structure name="initialpos" >
  <crystal>
   <varray name="basis" >
    <v>       2.47000000       0.00000000       0.00000000 </v>
    <v>      -1.23500000       2.13908275       0.00000000 </v>
    <v>       0.00000000       0.00000000       8.09000000 </v>
   </varray>
   <i name="volume">     42.74379318 </i>
   <varray name="rec_basis" >
    <v>       0.40485830       0.23374505       0.00000000 </v>
    <v>       0.00000000       0.46749010       0.00000000 </v>
    <v>       0.00000000       0.00000000       0.12360939 </v>
   </varray>
  </crystal>
  <varray name="positions" >
   <v>       0.00000000       0.00000000       0.00000000 </v>
   <v>       0.33333333       0.66666667       0.50000000 </v>
  </varray>
 </structure>
 <calculation>
  <scstep>
   <time name="dav">    1.66    1.67</time>
   <time name="total">    1.68    1.69</time>
   <energy>
    <i name="alphaZ">     39.63868225 </i>
    <i name="ewald">  -1054.56880693 </i>
    <i name="hartreedc">   -595.60964206 </i>
    <i name="XCdc">     33.36921587 </i>
    <i name="pawpsdc">   1439.98163886 </i>
    <i name="pawaedc">  -1545.88690193 </i>
    <i name="eentropy">     -0.00374307 </i>
    <i name="bandstr">    133.65499384 </i>
    <i name="atom">   1626.71546820 </i>
    <i name="e_fr_energy">     77.29090503 </i>
    <i name="e_wo_entrp">     77.29464811 </i>
    <i name="e_0_energy">     77.29277657 </i>
   </energy>
  </scstep>
  <scstep>
   <time name="dav">    1.65    1.66</time>
   <time name="total">    1.65    1.66</time>
   <energy>
    <i name="e_fr_energy">    -10.53934023 </i>
    <i name="e_wo_entrp">    -10.53474949 </i>
    <i name="e_0_energy">    -10.53704486 </i>
   </energy>
  </scstep>
  <scstep>
   <time name="dav">    1.94    1.95</time>
   <time name="total">    1.95    1.96</time>
   <energy>
    <i name="e_fr_energy">    -12.67881954 </i>
    <i name="e_wo_entrp">    -12.67368054 </i>
    <i name="e_0_energy">    -12.67625004 </i>
   </energy>
  </scstep>
  <scstep>
   <time name="dav">    2.10    2.11</time>
   <time name="total">    2.10    2.11</time>
   <energy>
    <i name="e_fr_energy">    -12.71429280 </i>
    <i name="e_wo_entrp">    -12.70915489 </i>
    <i name="e_0_energy">    -12.71172384 </i>
   </energy>
  </scstep>
  <scstep>
   <time name="dav">    1.95    1.96</time>
   <time name="total">    2.02    2.03</time>
   <energy>
    <i name="e_fr_energy">    -12.71463384 </i>
    <i name="e_wo_entrp">    -12.70949405 </i>
    <i name="e_0_energy">    -12.71206394 </i>
   </energy>
  </scstep>
  <scstep>
   <time name="dav">    1.82    1.83</time>
   <time name="total">    1.91    1.92</time>
   <energy>
    <i name="e_fr_energy">    -12.53670121 </i>
    <i name="e_wo_entrp">    -12.53056311 </i>
    <i name="e_0_energy">    -12.53363216 </i>
   </energy>
  </scstep>
  <scstep>
   <time name="dav">    1.86    1.87</time>
   <time name="total">    1.95    1.96</time>
   <energy>
    <i name="e_fr_energy">    -11.12120896 </i>
    <i name="e_wo_entrp">    -11.11652606 </i>
    <i name="e_0_energy">    -11.11886751 </i>
   </energy>
  </scstep>
  <scstep>
   <time name="dav">    1.92    1.93</time>
   <time name="total">    2.01    2.02</time>
   <energy>
    <i name="e_fr_energy">    -11.19302833 </i>
    <i name="e_wo_entrp">    -11.18777268 </i>
    <i name="e_0_energy">    -11.19040051 </i>
   </energy>
  </scstep>
  <scstep>
   <time name="dav">    1.89    1.90</time>
   <time name="total">    1.98    1.99</time>
   <energy>
    <i name="e_fr_energy">    -11.23199411 </i>
    <i name="e_wo_entrp">    -11.22778732 </i>
    <i name="e_0_energy">    -11.22989072 </i>
   </energy>
  </scstep>
  <scstep>
   <time name="dav">    1.88    1.89</time>
   <time name="total">    1.97    1.98</time>
   <energy>
    <i name="e_fr_energy">    -11.23887983 </i>
    <i name="e_wo_entrp">    -11.23437475 </i>
    <i name="e_0_energy">    -11.23662729 </i>
   </energy>
  </scstep>
  <scstep>
   <time name="dav">    1.91    1.92</time>
   <time name="total">    2.00    2.01</time>
   <energy>
    <i name="e_fr_energy">    -11.23897016 </i>
    <i name="e_wo_entrp">    -11.23398605 </i>
    <i name="e_0_energy">    -11.23647810 </i>
   </energy>
  </scstep>
  <scstep>
   <time name="dav">    1.76    1.77</time>
   <time name="total">    1.85    1.86</time>
   <energy>
    <i name="e_fr_energy">    -11.23903135 </i>
    <i name="e_wo_entrp">    -11.23399511 </i>
    <i name="e_0_energy">    -11.23651323 </i>
   </energy>
  </scstep>
  <scstep>
   <time name="dav">    1.88    1.89</time>
   <time name="total">    1.96    1.97</time>
   <energy>
    <i name="e_fr_energy">    -11.23906900 </i>
    <i name="e_wo_entrp">    -11.23406052 </i>
    <i name="e_0_energy">    -11.23656476 </i>
   </energy>
  </scstep>
  <scstep>
   <time name="dav">    1.85    1.86</time>
   <time name="total">    1.94    1.95</time>
   <energy>
    <i name="e_fr_energy">    -11.23908432 </i>
    <i name="e_wo_entrp">    -11.23406797 </i>
    <i name="e_0_energy">    -11.23657614 </i>
   </energy>
  </scstep>
  <scstep>
   <time name="dav">    1.54    1.55</time>
   <time name="total">    1.56    1.57</time>
   <energy>
    <i name="alphaZ">     39.63868225 </i>
    <i name="ewald">  -1054.56880693 </i>
    <i name="hartreedc">   -568.09286187 </i>
    <i name="XCdc">     31.34751970 </i>
    <i name="pawpsdc">   1614.23795948 </i>
    <i name="pawaedc">  -1719.93054846 </i>
    <i name="eentropy">     -0.00502893 </i>
    <i name="bandstr">     19.41853204 </i>
    <i name="atom">   1626.71546820 </i>
    <i name="e_fr_energy">    -11.23908451 </i>
    <i name="e_wo_entrp">    -11.23405558 </i>
    <i name="e_0_energy">    -11.23657005 </i>
   </energy>
  </scstep>
  <structure>
   <crystal>
    <varray name="basis" >
     <v>       2.47000000       0.00000000       0.00000000 </v>
     <v>      -1.23500000       2.13908275       0.00000000 </v>
     <v>       0.00000000       0.00000000       8.09000000 </v>
    </varray>
    <i name="volume">     42.74379318 </i>
    <varray name="rec_basis" >
     <v>       0.40485830       0.23374505       0.00000000 </v>
     <v>       0.00000000       0.46749010       0.00000000 </v>
     <v>       0.00000000       0.00000000       0.12360939 </v>
    </varray>
   </crystal>
   <varray name="positions" >
    <v>       0.00000000       0.00000000       0.00000000 </v>
    <v>       0.33333333       0.66666667       0.50000000 </v>
   </varray>
  </structure>
  <varray name="forces" >
   <v>      -0.00000000       0.00000000       0.00000000 </v>
   <v>       0.00000000      -0.00000000       0.00000000 </v>
  </varray>
  <varray name="stress" >
   <v>    -128.28475366       0.00000000       0.00000000 </v>
   <v>       0.00000000    -128.28475366       0.00000000 </v>
   <v>      -0.00000000      -0.00000000     -52.10503483 </v>
  </varray>
  <energy>
   <i name="e_fr_energy">    -11.23908451 </i>
   <i name="e_wo_entrp">    -11.23405558 </i>
   <i name="e_0_energy">    -11.23657005 </i>
  </energy>
  <time name="totalsc">   28.97   29.12</time>
  <eigenvalues>
   <array>
    <dimension dim="1">band</dimension>
    <dimension dim="2">kpoint</dimension>
    <dimension dim="3">spin</dimension>
    <field>eigene</field>
    <field>occ</field>
    <set>
     <set comment="spin 1">
      <set comment="kpoint 1">
       <r>   -3.0129    1.0000 </r>
       <r>   -2.5464    1.0000 </r>
       <r>   -0.1046    1.0000 </r>
       <r>    0.7646    1.0000 </r>
       <r>    0.7646    1.0000 </r>
       <r>    0.7655    1.0000 </r>
       <r>    0.7655    1.0000 </r>
       <r>    0.9204    1.0000 </r>
       <r>    1.6714    1.0000 </r>
       <r>    1.6714    1.0000 </r>
       <r>    1.6743    1.0000 </r>
       <r>    1.6743    1.0000 </r>
       <r>    2.2018    1.0000 </r>
       <r>    6.4795    0.0000 </r>
       <r>   10.9005    0.0000 </r>
       <r>   18.8327    0.0000 </r>
      </set>
      <set comment="kpoint 2">
       <r>   -2.8993    1.0000 </r>
       <r>   -2.4363    1.0000 </r>
       <r>   -0.0693    1.0000 </r>
       <r>    0.7296    1.0000 </r>
       <r>    0.7307    1.0000 </r>
       <r>    0.8134    1.0000 </r>
       <r>    0.8142    1.0000 </r>
       <r>    0.9463    1.0000 </r>
       <r>    1.4157    1.0000 </r>
       <r>    1.5790    1.0000 </r>
       <r>    1.6614    1.0000 </r>
       <r>    1.6648    1.0000 </r>
       <r>    2.5340    1.0000 </r>
       <r>    6.6621    0.0000 </r>
       <r>   10.9680    0.0000 </r>
       <r>   18.9632    0.0000 </r>
      </set>
      <set comment="kpoint 3">
       <r>   -2.5661    1.0000 </r>
       <r>   -2.1176    1.0000 </r>
       <r>    0.0325    1.0000 </r>
       <r>    0.6363    1.0000 </r>
       <r>    0.6386    1.0000 </r>
       <r>    0.9553    1.0000 </r>
       <r>    0.9562    1.0000 </r>
       <r>    1.0256    1.0000 </r>
       <r>    1.0521    1.0000 </r>
       <r>    1.3398    1.0000 </r>
       <r>    1.6327    1.0000 </r>
       <r>    1.6373    1.0000 </r>
       <r>    3.1220    0.7857 </r>
       <r>    7.1719    0.0000 </r>
       <r>   11.1724    0.0000 </r>
       <r>   19.3500    0.0000 </r>
      </set>
      <set comment="kpoint 4">
       <r>   -2.0437    1.0000 </r>
       <r>   -1.6356    1.0000 </r>
       <r>    0.1897    1.0000 </r>
       <r>    0.5282    1.0000 </r>
       <r>    0.5322    1.0000 </r>
       <r>    0.7209    1.0000 </r>
       <r>    1.0292    1.0000 </r>
       <r>    1.1657    1.0000 </r>
       <r>    1.1784    1.0000 </r>
       <r>    1.1792    1.0000 </r>
       <r>    1.5891    1.0000 </r>
       <r>    1.5954    1.0000 </r>
       <r>    3.8378    0.0000 </r>
       <r>    7.9335    0.0000 </r>
       <r>   11.5180    0.0000 </r>
       <r>   19.9797    0.0000 </r>
      </set>
      <set comment="kpoint 5">
       <r>   -1.4279    1.0000 </r>
       <r>   -1.1222    1.0000 </r>
       <r>    0.3935    1.0000 </r>
       <r>    0.4330    1.0000 </r>
       <r>    0.5066    1.0000 </r>
       <r>    0.5157    1.0000 </r>
       <r>    0.7085    1.0000 </r>
       <r>    1.4013    1.0000 </r>
       <r>    1.4617    1.0000 </r>
       <r>    1.4626    1.0000 </r>
       <r>    1.5363    1.0000 </r>
       <r>    1.5441    1.0000 </r>
       <r>    4.6828    0.0000 </r>
       <r>    8.8839    0.0000 </r>
       <r>   12.0050    0.0000 </r>
       <r>   19.1145    0.0000 </r>
      </set>
      <set comment="kpoint 6">
       <r>   -0.9795    1.0000 </r>
       <r>   -0.8329    1.0000 </r>
       <r>    0.1920    1.0000 </r>
       <r>    0.4154    1.0000 </r>
       <r>    0.6265    1.0000 </r>
       <r>    0.7041    1.0000 </r>
       <r>    0.8540    1.0000 </r>
       <r>    1.4804    1.0000 </r>
       <r>    1.4898    1.0000 </r>
       <r>    1.7764    1.0000 </r>
       <r>    1.7772    1.0000 </r>
       <r>    1.8571    1.0000 </r>
       <r>    5.6666    0.0000 </r>
       <r>    9.9784    0.0000 </r>
       <r>   12.6038    0.0000 </r>
       <r>   16.5686    0.0000 </r>
      </set>
      <set comment="kpoint 7">
       <r>   -0.8781    1.0000 </r>
       <r>   -0.8215    1.0000 </r>
       <r>    0.0018    1.0000 </r>
       <r>    0.1711    1.0000 </r>
       <r>    0.8234    1.0000 </r>
       <r>    0.9675    1.0000 </r>
       <r>    1.4282    1.0000 </r>
       <r>    1.4390    1.0000 </r>
       <r>    1.7776    1.0000 </r>
       <r>    2.0861    1.0000 </r>
       <r>    2.0868    1.0000 </r>
       <r>    2.7143    1.0000 </r>
       <r>    6.7961    0.0000 </r>
       <r>   11.1691    0.0000 </r>
       <r>   13.0382    0.0000 </r>
       <r>   14.2543    0.0000 </r>
      </set>
      <set comment="kpoint 8">
       <r>   -0.9306    1.0000 </r>
       <r>   -0.9061    1.0000 </r>
       <r>   -0.1340    1.0000 </r>
       <r>   -0.0128    1.0000 </r>
       <r>    0.9924    1.0000 </r>
       <r>    1.1365    1.0000 </r>
       <r>    1.3859    1.0000 </r>
       <r>    1.3978    1.0000 </r>
       <r>    2.3499    1.0000 </r>
       <r>    2.3503    1.0000 </r>
       <r>    3.0360    0.9994 </r>
       <r>    3.8932    0.0000 </r>
       <r>    8.0697    0.0000 </r>
       <r>   11.7598    0.0000 </r>
       <r>   12.3089    0.0000 </r>
       <r>   12.6357    0.0000 </r>
      </set>
      <set comment="kpoint 9">
       <r>   -0.9932    1.0000 </r>
       <r>   -0.9827    1.0000 </r>
       <r>   -0.2132    1.0000 </r>
       <r>   -0.1289    1.0000 </r>
       <r>    1.1090    1.0000 </r>
       <r>    1.2225    1.0000 </r>
       <r>    1.3584    1.0000 </r>
       <r>    1.3711    1.0000 </r>
       <r>    2.5281    1.0000 </r>
       <r>    2.5282    1.0000 </r>
       <r>    4.3798    0.0000 </r>
       <r>    5.0713    0.0000 </r>
       <r>    9.4567    0.0000 </r>
       <r>   10.0361    0.0000 </r>
       <r>   10.9714    0.0000 </r>
       <r>   12.5247    0.0000 </r>
      </set>
      <set comment="kpoint 10">
       <r>   -1.0168    1.0000 </r>
       <r>   -1.0126    1.0000 </r>
       <r>   -0.2382    1.0000 </r>
       <r>   -0.1693    1.0000 </r>
       <r>    1.1520    1.0000 </r>
       <r>    1.2478    1.0000 </r>
       <r>    1.3490    1.0000 </r>
       <r>    1.3620    1.0000 </r>
       <r>    2.5911    1.0000 </r>
       <r>    2.5913    1.0000 </r>
       <r>    5.2074    0.0000 </r>
       <r>    5.5541    0.0000 </r>
       <r>    9.2797    0.0000 </r>
       <r>   10.0907    0.0000 </r>
       <r>   10.5266    0.0000 </r>
       <r>   11.6629    0.0000 </r>
      </set>
      <set comment="kpoint 11">
       <r>   -2.6756    1.0000 </r>
       <r>   -2.2214    1.0000 </r>
       <r>   -0.0007    1.0000 </r>
       <r>    0.6620    1.0000 </r>
       <r>    0.6631    1.0000 </r>
       <r>    0.9076    1.0000 </r>
       <r>    0.9131    1.0000 </r>
       <r>    1.0031    1.0000 </r>
       <r>    1.1485    1.0000 </r>
       <r>    1.4154    1.0000 </r>
       <r>    1.6411    1.0000 </r>
       <r>    1.6444    1.0000 </r>
       <r>    2.9518    1.0000 </r>
       <r>    7.0075    0.0000 </r>
       <r>   11.1041    0.0000 </r>
       <r>   19.2219    0.0000 </r>
      </set>
      <set comment="kpoint 12">
       <r>   -2.2442    1.0000 </r>
       <r>   -1.8157    1.0000 </r>
       <r>    0.1297    1.0000 </r>
       <r>    0.5468    1.0000 </r>
       <r>    0.5489    1.0000 </r>
       <r>    0.8371    1.0000 </r>
       <r>    1.0513    1.0000 </r>
       <r>    1.1062    1.0000 </r>
       <r>    1.1478    1.0000 </r>
       <r>    1.1614    1.0000 </r>
       <r>    1.6012    1.0000 </r>
       <r>    1.6056    1.0000 </r>
       <r>    3.5715    0.0000 </r>
       <r>    7.6401    0.0000 </r>
       <r>   11.3798    0.0000 </r>
       <r>   19.7307    0.0000 </r>
      </set>
      <set comment="kpoint 13">
       <r>   -1.6563    1.0000 </r>
       <r>   -1.2936    1.0000 </r>
       <r>    0.3083    1.0000 </r>
       <r>    0.4463    1.0000 </r>
       <r>    0.4512    1.0000 </r>
       <r>    0.5484    1.0000 </r>
       <r>    0.8424    1.0000 </r>
       <r>    1.2084    1.0000 </r>
       <r>    1.3794    1.0000 </r>
       <r>    1.4582    1.0000 </r>
       <r>    1.5472    1.0000 </r>
       <r>    1.5535    1.0000 </r>
       <r>    4.3367    0.0000 </r>
       <r>    8.4922    0.0000 </r>
       <r>   11.7993    0.0000 </r>
       <r>   20.4714    0.0000 </r>
      </set>
      <set comment="kpoint 14">
       <r>   -1.0765    1.0000 </r>
       <r>   -0.8553    1.0000 </r>
       <r>    0.2983    1.0000 </r>
       <r>    0.4998    1.0000 </r>
       <r>    0.5112    1.0000 </r>
       <r>    0.5436    1.0000 </r>
       <r>    0.5463    1.0000 </r>
       <r>    1.4209    1.0000 </r>
       <r>    1.4861    1.0000 </r>
       <r>    1.4943    1.0000 </r>
       <r>    1.7193    1.0000 </r>
       <r>    1.8887    1.0000 </r>
       <r>    5.2437    0.0000 </r>
       <r>    9.5125    0.0000 </r>
       <r>   12.3551    0.0000 </r>
       <r>   17.8897    0.0000 </r>
      </set>
      <set comment="kpoint 15">
       <r>   -0.8146    1.0000 </r>
       <r>   -0.7288    1.0000 </r>
       <r>    0.0935    1.0000 </r>
       <r>    0.2875    1.0000 </r>
       <r>    0.7212    1.0000 </r>
       <r>    0.7832    1.0000 </r>
       <r>    1.0829    1.0000 </r>
       <r>    1.4252    1.0000 </r>
       <r>    1.4350    1.0000 </r>
       <r>    1.7137    1.0000 </r>
       <r>    2.1418    1.0000 </r>
       <r>    2.5463    1.0000 </r>
       <r>    6.2972    0.0000 </r>
       <r>   10.6595    0.0000 </r>
       <r>   12.9622    0.0000 </r>
       <r>   15.4239    0.0000 </r>
      </set>
      <set comment="kpoint 16">
       <r>   -0.8285    1.0000 </r>
       <r>   -0.7940    1.0000 </r>
       <r>   -0.0613    1.0000 </r>
       <r>    0.0816    1.0000 </r>
       <r>    0.9134    1.0000 </r>
       <r>    1.0380    1.0000 </r>
       <r>    1.3720    1.0000 </r>
       <r>    1.3830    1.0000 </r>
       <r>    1.8111    1.0000 </r>
       <r>    2.0323    1.0000 </r>
       <r>    2.8311    1.0000 </r>
       <r>    3.5403    0.0000 </r>
       <r>    7.4993    0.0000 </r>
       <r>   11.8614    0.0000 </r>
       <r>   12.7272    0.0000 </r>
       <r>   13.4686    0.0000 </r>
      </set>
      <set comment="kpoint 17">
       <r>   -0.9023    1.0000 </r>
       <r>   -0.8870    1.0000 </r>
       <r>   -0.1629    1.0000 </r>
       <r>   -0.0631    1.0000 </r>
       <r>    1.0608    1.0000 </r>
       <r>    1.1805    1.0000 </r>
       <r>    1.3323    1.0000 </r>
       <r>    1.3445    1.0000 </r>
       <r>    2.2247    1.0000 </r>
       <r>    2.2817    1.0000 </r>
       <r>    3.9843    0.0000 </r>
       <r>    4.7445    0.0000 </r>
       <r>    8.8391    0.0000 </r>
       <r>   10.8939    0.0000 </r>
       <r>   11.8461    0.0000 </r>
       <r>   12.7469    0.0000 </r>
      </set>
      <set comment="kpoint 18">
       <r>   -0.9507    1.0000 </r>
       <r>   -0.9451    1.0000 </r>
       <r>   -0.2113    1.0000 </r>
       <r>   -0.1393    1.0000 </r>
       <r>    1.1436    1.0000 </r>
       <r>    1.2408    1.0000 </r>
       <r>    1.3113    1.0000 </r>
       <r>    1.3240    1.0000 </r>
       <r>    2.3989    1.0000 </r>
       <r>    2.4141    1.0000 </r>
       <r>    5.1778    0.0000 </r>
       <r>    5.6806    0.0000 </r>
       <r>    9.5205    0.0000 </r>
       <r>   10.2236    0.0000 </r>
       <r>   10.3874    0.0000 </r>
       <r>   12.1124    0.0000 </r>
      </set>
      <set comment="kpoint 19">
       <r>   -1.7352    1.0000 </r>
       <r>   -1.3528    1.0000 </r>
       <r>    0.2840    1.0000 </r>
       <r>    0.4096    1.0000 </r>
       <r>    0.4117    1.0000 </r>
       <r>    0.5960    1.0000 </r>
       <r>    0.8970    1.0000 </r>
       <r>    1.1508    1.0000 </r>
       <r>    1.3663    1.0000 </r>
       <r>    1.4687    1.0000 </r>
       <r>    1.5449    1.0000 </r>
       <r>    1.5495    1.0000 </r>
       <r>    4.2196    0.0000 </r>
       <r>    8.3588    0.0000 </r>
       <r>   11.7316    0.0000 </r>
       <r>   20.3526    0.0000 </r>
      </set>
      <set comment="kpoint 20">
       <r>   -1.1160    1.0000 </r>
       <r>   -0.8313    1.0000 </r>
       <r>    0.2983    1.0000 </r>
       <r>    0.3006    1.0000 </r>
       <r>    0.3711    1.0000 </r>
       <r>    0.4860    1.0000 </r>
       <r>    0.6350    1.0000 </r>
       <r>    1.2798    1.0000 </r>
       <r>    1.4712    1.0000 </r>
       <r>    1.4775    1.0000 </r>
       <r>    1.7289    1.0000 </r>
       <r>    1.9329    1.0000 </r>
       <r>    5.0325    0.0000 </r>
       <r>    9.2760    0.0000 </r>
       <r>   12.2304    0.0000 </r>
       <r>   19.3587    0.0000 </r>
      </set>
      <set comment="kpoint 21">
       <r>   -0.6482    1.0000 </r>
       <r>   -0.5215    1.0000 </r>
       <r>    0.1797    1.0000 </r>
       <r>    0.3938    1.0000 </r>
       <r>    0.4099    1.0000 </r>
       <r>    0.4208    1.0000 </r>
       <r>    0.7370    1.0000 </r>
       <r>    1.3907    1.0000 </r>
       <r>    1.3992    1.0000 </r>
       <r>    1.4383    1.0000 </r>
       <r>    2.2141    1.0000 </r>
       <r>    2.5953    1.0000 </r>
       <r>    6.0018    0.0000 </r>
       <r>   10.3501    0.0000 </r>
       <r>   12.8525    0.0000 </r>
       <r>   16.8184    0.0000 </r>
      </set>
      <set comment="kpoint 22">
       <r>   -0.5891    1.0000 </r>
       <r>   -0.5467    1.0000 </r>
       <r>    0.0293    1.0000 </r>
       <r>    0.1924    1.0000 </r>
       <r>    0.7583    1.0000 </r>
       <r>    0.7819    1.0000 </r>
       <r>    1.1437    1.0000 </r>
       <r>    1.3139    1.0000 </r>
       <r>    1.3241    1.0000 </r>
       <r>    1.6284    1.0000 </r>
       <r>    2.9087    1.0000 </r>
       <r>    3.5126    0.0000 </r>
       <r>    7.1263    0.0000 </r>
       <r>   11.5346    0.0000 </r>
       <r>   13.3424    0.0000 </r>
       <r>   14.4971    0.0000 </r>
      </set>
      <set comment="kpoint 23">
       <r>   -0.6767    1.0000 </r>
       <r>   -0.6588    1.0000 </r>
       <r>   -0.0762    1.0000 </r>
       <r>    0.0405    1.0000 </r>
       <r>    0.9858    1.0000 </r>
       <r>    1.0601    1.0000 </r>
       <r>    1.2507    1.0000 </r>
       <r>    1.2623    1.0000 </r>
       <r>    1.6260    1.0000 </r>
       <r>    1.8358    1.0000 </r>
       <r>    3.9236    0.0000 </r>
       <r>    4.6705    0.0000 </r>
       <r>    8.4014    0.0000 </r>
       <r>   12.0198    0.0000 </r>
       <r>   12.6892    0.0000 </r>
       <r>   12.9190    0.0000 </r>
      </set>
      <set comment="kpoint 24">
       <r>   -0.7546    1.0000 </r>
       <r>   -0.7472    1.0000 </r>
       <r>   -0.1362    1.0000 </r>
       <r>   -0.0557    1.0000 </r>
       <r>    1.1158    1.0000 </r>
       <r>    1.2046    1.0000 </r>
       <r>    1.2090    1.0000 </r>
       <r>    1.2215    1.0000 </r>
       <r>    1.9284    1.0000 </r>
       <r>    1.9992    1.0000 </r>
       <r>    5.1706    0.0000 </r>
       <r>    5.8646    0.0000 </r>
       <r>    9.7981    0.0000 </r>
       <r>   10.2386    0.0000 </r>
       <r>   11.1967    0.0000 </r>
       <r>   12.9021    0.0000 </r>
      </set>
      <set comment="kpoint 25">
       <r>   -0.7822    1.0000 </r>
       <r>   -0.7806    1.0000 </r>
       <r>   -0.1546    1.0000 </r>
       <r>   -0.0896    1.0000 </r>
       <r>    1.1613    1.0000 </r>
       <r>    1.1945    1.0000 </r>
       <r>    1.2072    1.0000 </r>
       <r>    1.2465    1.0000 </r>
       <r>    2.0332    1.0000 </r>
       <r>    2.0546    1.0000 </r>
       <r>    6.0350    0.0000 </r>
       <r>    6.3713    0.0000 </r>
       <r>    9.4430    0.0000 </r>
       <r>   10.2366    0.0000 </r>
       <r>   10.8984    0.0000 </r>
       <r>   11.9823    0.0000 </r>
      </set>
      <set comment="kpoint 26">
       <r>   -0.5076    1.0000 </r>
       <r>   -0.3319    1.0000 </r>
       <r>    0.1407    1.0000 </r>
       <r>    0.1448    1.0000 </r>
       <r>    0.2162    1.0000 </r>
       <r>    0.4388    1.0000 </r>
       <r>    0.7003    1.0000 </r>
       <r>    1.3702    1.0000 </r>
       <r>    1.3718    1.0000 </r>
       <r>    1.3782    1.0000 </r>
       <r>    2.2397    1.0000 </r>
       <r>    2.6191    1.0000 </r>
       <r>    5.9044    0.0000 </r>
       <r>   10.2465    0.0000 </r>
       <r>   12.8099    0.0000 </r>
       <r>   18.2829    0.0000 </r>
      </set>
      <set comment="kpoint 27">
       <r>   -0.2129    1.0000 </r>
       <r>   -0.1704    1.0000 </r>
       <r>    0.0957    1.0000 </r>
       <r>    0.2730    1.0000 </r>
       <r>    0.2889    1.0000 </r>
       <r>    0.3073    1.0000 </r>
       <r>    0.9401    1.0000 </r>
       <r>    1.2593    1.0000 </r>
       <r>    1.2700    1.0000 </r>
       <r>    1.4670    1.0000 </r>
       <r>    2.9590    1.0000 </r>
       <r>    3.5372    0.0000 </r>
       <r>    6.9431    0.0000 </r>
       <r>   11.3664    0.0000 </r>
       <r>   13.4772    0.0000 </r>
       <r>   15.9102    0.0000 </r>
      </set>
      <set comment="kpoint 28">
       <r>   -0.3278    1.0000 </r>
       <r>   -0.3131    1.0000 </r>
       <r>    0.0128    1.0000 </r>
       <r>    0.1454    1.0000 </r>
       <r>    0.7152    1.0000 </r>
       <r>    0.7422    1.0000 </r>
       <r>    1.1552    1.0000 </r>
       <r>    1.1681    1.0000 </r>
       <r>    1.1886    1.0000 </r>
       <r>    1.5494    1.0000 </r>
       <r>    3.9444    0.0000 </r>
       <r>    4.6824    0.0000 </r>
       <r>    8.1433    0.0000 </r>
       <r>   12.5712    0.0000 </r>
       <r>   13.3113    0.0000 </r>
       <r>   14.0169    0.0000 </r>
      </set>
      <set comment="kpoint 29">
       <r>   -0.4428    1.0000 </r>
       <r>   -0.4356    1.0000 </r>
       <r>   -0.0343    1.0000 </r>
       <r>    0.0583    1.0000 </r>
       <r>    1.0139    1.0000 </r>
       <r>    1.0551    1.0000 </r>
       <r>    1.0743    1.0000 </r>
       <r>    1.0882    1.0000 </r>
       <r>    1.4157    1.0000 </r>
       <r>    1.6052    1.0000 </r>
       <r>    5.1826    0.0000 </r>
       <r>    5.9806    0.0000 </r>
       <r>    9.4927    0.0000 </r>
       <r>   11.3683    0.0000 </r>
       <r>   12.3727    0.0000 </r>
       <r>   13.5025    0.0000 </r>
      </set>
      <set comment="kpoint 30">
       <r>   -0.5055    1.0000 </r>
       <r>   -0.5026    1.0000 </r>
       <r>   -0.0524    1.0000 </r>
       <r>    0.0121    1.0000 </r>
       <r>    1.0299    1.0000 </r>
       <r>    1.0442    1.0000 </r>
       <r>    1.1517    1.0000 </r>
       <r>    1.2191    1.0000 </r>
       <r>    1.5633    1.0000 </r>
       <r>    1.6215    1.0000 </r>
       <r>    6.4775    0.0000 </r>
       <r>    7.0539    0.0000 </r>
       <r>    9.8727    0.0000 </r>
       <r>   10.7549    0.0000 </r>
       <r>   10.9127    0.0000 </r>
       <r>   12.7809    0.0000 </r>
      </set>
      <set comment="kpoint 31">
       <r>   -0.0005    1.0000 </r>
       <r>    0.0064    1.0000 </r>
       <r>    0.0527    1.0000 </r>
       <r>    0.1930    1.0000 </r>
       <r>    0.3562    1.0000 </r>
       <r>    0.3724    1.0000 </r>
       <r>    1.1100    1.0000 </r>
       <r>    1.1130    1.0000 </r>
       <r>    1.1249    1.0000 </r>
       <r>    1.4835    1.0000 </r>
       <r>    3.9567    0.0000 </r>
       <r>    4.6933    0.0000 </r>
       <r>    8.0583    0.0000 </r>
       <r>   12.5220    0.0000 </r>
       <r>   14.0670    0.0000 </r>
       <r>   15.1422    0.0000 </r>
      </set>
      <set comment="kpoint 32">
       <r>   -0.0785    1.0000 </r>
       <r>   -0.0715    1.0000 </r>
       <r>    0.0474    1.0000 </r>
       <r>    0.1520    1.0000 </r>
       <r>    0.6741    1.0000 </r>
       <r>    0.6939    1.0000 </r>
       <r>    0.9675    1.0000 </r>
       <r>    0.9859    1.0000 </r>
       <r>    1.2206    1.0000 </r>
       <r>    1.4632    1.0000 </r>
       <r>    5.1911    0.0000 </r>
       <r>    6.0309    0.0000 </r>
       <r>    9.3384    0.0000 </r>
       <r>   12.8011    0.0000 </r>
       <r>   13.6977    0.0000 </r>
       <r>   13.7699    0.0000 </r>
      </set>
      <set comment="kpoint 33">
       <r>   -0.1547    1.0000 </r>
       <r>   -0.1473    1.0000 </r>
       <r>    0.0655    1.0000 </r>
       <r>    0.1368    1.0000 </r>
       <r>    0.8612    1.0000 </r>
       <r>    0.8807    1.0000 </r>
       <r>    0.9537    1.0000 </r>
       <r>    0.9985    1.0000 </r>
       <r>    1.2374    1.0000 </r>
       <r>    1.3854    1.0000 </r>
       <r>    6.6013    0.0000 </r>
       <r>    7.4325    0.0000 </r>
       <r>   10.7592    0.0000 </r>
       <r>   10.8805    0.0000 </r>
       <r>   11.9010    0.0000 </r>
       <r>   13.9278    0.0000 </r>
      </set>
      <set comment="kpoint 34">
       <r>   -0.1825    1.0000 </r>
       <r>   -0.1751    1.0000 </r>
       <r>    0.0785    1.0000 </r>
       <r>    0.1325    1.0000 </r>
       <r>    0.8213    1.0000 </r>
       <r>    0.8402    1.0000 </r>
       <r>    1.1448    1.0000 </r>
       <r>    1.1449    1.0000 </r>
       <r>    1.2196    1.0000 </r>
       <r>    1.2504    1.0000 </r>
       <r>    7.7230    0.0000 </r>
       <r>    8.0724    0.0000 </r>
       <r>    9.9743    0.0000 </r>
       <r>   10.6858    0.0000 </r>
       <r>   11.9429    0.0000 </r>
       <r>   12.8694    0.0000 </r>
      </set>
      <set comment="kpoint 35">
       <r>    0.0944    1.0000 </r>
       <r>    0.1061    1.0000 </r>
       <r>    0.1263    1.0000 </r>
       <r>    0.2050    1.0000 </r>
       <r>    0.7002    1.0000 </r>
       <r>    0.7051    1.0000 </r>
       <r>    0.7773    1.0000 </r>
       <r>    0.8028    1.0000 </r>
       <r>    1.2122    1.0000 </r>
       <r>    1.3566    1.0000 </r>
       <r>    6.6229    0.0000 </r>
       <r>    7.5259    0.0000 </r>
       <r>   10.6985    0.0000 </r>
       <r>   12.2009    0.0000 </r>
       <r>   12.4595    0.0000 </r>
       <r>   13.5174    0.0000 </r>
      </set>
      <set comment="kpoint 36">
       <r>    0.1618    1.0000 </r>
       <r>    0.1756    1.0000 </r>
       <r>    0.2171    1.0000 </r>
       <r>    0.2708    1.0000 </r>
       <r>    0.6336    1.0000 </r>
       <r>    0.6619    1.0000 </r>
       <r>    0.7701    1.0000 </r>
       <r>    0.7890    1.0000 </r>
       <r>    1.1846    1.0000 </r>
       <r>    1.2446    1.0000 </r>
       <r>    8.1698    0.0000 </r>
       <r>    8.9473    0.0000 </r>
       <r>   10.5716    0.0000 </r>
       <r>   11.3641    0.0000 </r>
       <r>   12.1667    0.0000 </r>
       <r>   12.4476    0.0000 </r>
      </set>
      <set comment="kpoint 37">
       <r>    0.3929    1.0000 </r>
       <r>    0.4312    1.0000 </r>
       <r>    0.4312    1.0000 </r>
       <r>    0.4718    1.0000 </r>
       <r>    0.4732    1.0000 </r>
       <r>    0.4893    1.0000 </r>
       <r>    0.4893    1.0000 </r>
       <r>    0.5101    1.0000 </r>
       <r>    1.1919    1.0000 </r>
       <r>    1.1919    1.0000 </r>
       <r>    9.6958    0.0000 </r>
       <r>    9.9543    0.0000 </r>
       <r>    9.9543    0.0000 </r>
       <r>   10.5850    0.0000 </r>
       <r>   12.0929    0.0000 </r>
       <r>   12.0929    0.0000 </r>
      </set>
      <set comment="kpoint 38">
       <r>   -3.0054    1.0000 </r>
       <r>   -2.5547    1.0000 </r>
       <r>   -0.0976    1.0000 </r>
       <r>    0.7646    1.0000 </r>
       <r>    0.7646    1.0000 </r>
       <r>    0.7655    1.0000 </r>
       <r>    0.7655    1.0000 </r>
       <r>    0.8625    1.0000 </r>
       <r>    1.6714    1.0000 </r>
       <r>    1.6714    1.0000 </r>
       <r>    1.6742    1.0000 </r>
       <r>    1.6742    1.0000 </r>
       <r>    2.2970    1.0000 </r>
       <r>    6.3671    0.0000 </r>
       <r>   11.0427    0.0000 </r>
       <r>   18.4971    0.0000 </r>
      </set>
      <set comment="kpoint 39">
       <r>   -2.8919    1.0000 </r>
       <r>   -2.4446    1.0000 </r>
       <r>   -0.0625    1.0000 </r>
       <r>    0.7296    1.0000 </r>
       <r>    0.7306    1.0000 </r>
       <r>    0.8135    1.0000 </r>
       <r>    0.8141    1.0000 </r>
       <r>    0.8837    1.0000 </r>
       <r>    1.4435    1.0000 </r>
       <r>    1.5787    1.0000 </r>
       <r>    1.6614    1.0000 </r>
       <r>    1.6647    1.0000 </r>
       <r>    2.6061    1.0000 </r>
       <r>    6.5475    0.0000 </r>
       <r>   11.1129    0.0000 </r>
       <r>   18.6196    0.0000 </r>
      </set>
      <set comment="kpoint 40">
       <r>   -2.5588    1.0000 </r>
       <r>   -2.1254    1.0000 </r>
       <r>    0.0389    1.0000 </r>
       <r>    0.6362    1.0000 </r>
       <r>    0.6385    1.0000 </r>
       <r>    0.9137    1.0000 </r>
       <r>    0.9553    1.0000 </r>
       <r>    0.9562    1.0000 </r>
       <r>    1.1387    1.0000 </r>
       <r>    1.3394    1.0000 </r>
       <r>    1.6327    1.0000 </r>
       <r>    1.6373    1.0000 </r>
       <r>    3.1845    0.1648 </r>
       <r>    7.0501    0.0000 </r>
       <r>   11.3254    0.0000 </r>
       <r>   18.9801    0.0000 </r>
      </set>
      <set comment="kpoint 41">
       <r>   -2.0369    1.0000 </r>
       <r>   -1.6425    1.0000 </r>
       <r>    0.1951    1.0000 </r>
       <r>    0.5282    1.0000 </r>
       <r>    0.5322    1.0000 </r>
       <r>    0.7080    1.0000 </r>
       <r>    1.0297    1.0000 </r>
       <r>    1.1562    1.0000 </r>
       <r>    1.1784    1.0000 </r>
       <r>    1.1793    1.0000 </r>
       <r>    1.5893    1.0000 </r>
       <r>    1.5953    1.0000 </r>
       <r>    3.8968    0.0000 </r>
       <r>    7.7991    0.0000 </r>
       <r>   11.6843    0.0000 </r>
       <r>   19.5510    0.0000 </r>
      </set>
      <set comment="kpoint 42">
       <r>   -1.4225    1.0000 </r>
       <r>   -1.1270    1.0000 </r>
       <r>    0.3944    1.0000 </r>
       <r>    0.4324    1.0000 </r>
       <r>    0.5068    1.0000 </r>
       <r>    0.5155    1.0000 </r>
       <r>    0.7148    1.0000 </r>
       <r>    1.3794    1.0000 </r>
       <r>    1.4617    1.0000 </r>
       <r>    1.4626    1.0000 </r>
       <r>    1.5364    1.0000 </r>
       <r>    1.5440    1.0000 </r>
       <r>    4.7401    0.0000 </r>
       <r>    8.7314    0.0000 </r>
       <r>   12.1893    0.0000 </r>
       <r>   19.0978    0.0000 </r>
      </set>
      <set comment="kpoint 43">
       <r>   -0.9768    1.0000 </r>
       <r>   -0.8352    1.0000 </r>
       <r>    0.1938    1.0000 </r>
       <r>    0.4040    1.0000 </r>
       <r>    0.6367    1.0000 </r>
       <r>    0.7044    1.0000 </r>
       <r>    0.8647    1.0000 </r>
       <r>    1.4805    1.0000 </r>
       <r>    1.4896    1.0000 </r>
       <r>    1.7765    1.0000 </r>
       <r>    1.7772    1.0000 </r>
       <r>    1.8319    1.0000 </r>
       <r>    5.7225    0.0000 </r>
       <r>    9.8031    0.0000 </r>
       <r>   12.8079    0.0000 </r>
       <r>   16.5775    0.0000 </r>
      </set>
      <set comment="kpoint 44">
       <r>   -0.8771    1.0000 </r>
       <r>   -0.8224    1.0000 </r>
       <r>    0.0038    1.0000 </r>
       <r>    0.1667    1.0000 </r>
       <r>    0.8283    1.0000 </r>
       <r>    0.9666    1.0000 </r>
       <r>    1.4284    1.0000 </r>
       <r>    1.4388    1.0000 </r>
       <r>    1.7881    1.0000 </r>
       <r>    2.0861    1.0000 </r>
       <r>    2.0868    1.0000 </r>
       <r>    2.6901    1.0000 </r>
       <r>    6.8504    0.0000 </r>
       <r>   10.9656    0.0000 </r>
       <r>   13.2282    0.0000 </r>
       <r>   14.2735    0.0000 </r>
      </set>
      <set comment="kpoint 45">
       <r>   -0.9302    1.0000 </r>
       <r>   -0.9066    1.0000 </r>
       <r>   -0.1323    1.0000 </r>
       <r>   -0.0154    1.0000 </r>
       <r>    0.9959    1.0000 </r>
       <r>    1.1349    1.0000 </r>
       <r>    1.3862    1.0000 </r>
       <r>    1.3977    1.0000 </r>
       <r>    2.3499    1.0000 </r>
       <r>    2.3503    1.0000 </r>
       <r>    3.0461    0.9984 </r>
       <r>    3.8715    0.0000 </r>
       <r>    8.1208    0.0000 </r>
       <r>   11.6970    0.0000 </r>
       <r>   12.1910    0.0000 </r>
       <r>   12.6853    0.0000 </r>
      </set>
      <set comment="kpoint 46">
       <r>   -0.9930    1.0000 </r>
       <r>   -0.9829    1.0000 </r>
       <r>   -0.2120    1.0000 </r>
       <r>   -0.1306    1.0000 </r>
       <r>    1.1115    1.0000 </r>
       <r>    1.2212    1.0000 </r>
       <r>    1.3587    1.0000 </r>
       <r>    1.3710    1.0000 </r>
       <r>    2.5281    1.0000 </r>
       <r>    2.5282    1.0000 </r>
       <r>    4.3884    0.0000 </r>
       <r>    5.0549    0.0000 </r>
       <r>    9.4895    0.0000 </r>
       <r>   10.0457    0.0000 </r>
       <r>   10.9561    0.0000 </r>
       <r>   12.4965    0.0000 </r>
      </set>
      <set comment="kpoint 47">
       <r>   -1.0168    1.0000 </r>
       <r>   -1.0127    1.0000 </r>
       <r>   -0.2373    1.0000 </r>
       <r>   -0.1707    1.0000 </r>
       <r>    1.1540    1.0000 </r>
       <r>    1.2467    1.0000 </r>
       <r>    1.3491    1.0000 </r>
       <r>    1.3616    1.0000 </r>
       <r>    2.5911    1.0000 </r>
       <r>    2.5913    1.0000 </r>
       <r>    5.2121    0.0000 </r>
       <r>    5.5469    0.0000 </r>
       <r>    9.2792    0.0000 </r>
       <r>   10.0004    0.0000 </r>
       <r>   10.6432    0.0000 </r>
       <r>   11.6888    0.0000 </r>
      </set>
      <set comment="kpoint 48">
       <r>   -2.6682    1.0000 </r>
       <r>   -2.2294    1.0000 </r>
       <r>    0.0059    1.0000 </r>
       <r>    0.6620    1.0000 </r>
       <r>    0.6631    1.0000 </r>
       <r>    0.8949    1.0000 </r>
       <r>    0.9130    1.0000 </r>
       <r>    0.9309    1.0000 </r>
       <r>    1.2066    1.0000 </r>
       <r>    1.4150    1.0000 </r>
       <r>    1.6412    1.0000 </r>
       <r>    1.6443    1.0000 </r>
       <r>    3.0158    0.9999 </r>
       <r>    6.8882    0.0000 </r>
       <r>   11.2544    0.0000 </r>
       <r>   18.8612    0.0000 </r>
      </set>
      <set comment="kpoint 49">
       <r>   -2.2371    1.0000 </r>
       <r>   -1.8231    1.0000 </r>
       <r>    0.1355    1.0000 </r>
       <r>    0.5468    1.0000 </r>
       <r>    0.5489    1.0000 </r>
       <r>    0.8076    1.0000 </r>
       <r>    1.0583    1.0000 </r>
       <r>    1.1060    1.0000 </r>
       <r>    1.1479    1.0000 </r>
       <r>    1.1610    1.0000 </r>
       <r>    1.6013    1.0000 </r>
       <r>    1.6056    1.0000 </r>
       <r>    3.6314    0.0000 </r>
       <r>    7.5108    0.0000 </r>
       <r>   11.5408    0.0000 </r>
       <r>   19.3302    0.0000 </r>
      </set>
      <set comment="kpoint 50">
       <r>   -1.6500    1.0000 </r>
       <r>   -1.2996    1.0000 </r>
       <r>    0.3122    1.0000 </r>
       <r>    0.4464    1.0000 </r>
       <r>    0.4511    1.0000 </r>
       <r>    0.5450    1.0000 </r>
       <r>    0.8448    1.0000 </r>
       <r>    1.1975    1.0000 </r>
       <r>    1.3796    1.0000 </r>
       <r>    1.4505    1.0000 </r>
       <r>    1.5473    1.0000 </r>
       <r>    1.5534    1.0000 </r>
       <r>    4.3945    0.0000 </r>
       <r>    8.3474    0.0000 </r>
       <r>   11.9760    0.0000 </r>
       <r>   19.9287    0.0000 </r>
      </set>
      <set comment="kpoint 51">
       <r>   -1.0724    1.0000 </r>
       <r>   -0.8587    1.0000 </r>
       <r>    0.2995    1.0000 </r>
       <r>    0.4957    1.0000 </r>
       <r>    0.5000    1.0000 </r>
       <r>    0.5121    1.0000 </r>
       <r>    0.6010    1.0000 </r>
       <r>    1.4085    1.0000 </r>
       <r>    1.4862    1.0000 </r>
       <r>    1.4941    1.0000 </r>
       <r>    1.7198    1.0000 </r>
       <r>    1.8770    1.0000 </r>
       <r>    5.3002    0.0000 </r>
       <r>    9.3473    0.0000 </r>
       <r>   12.5515    0.0000 </r>
       <r>   17.8945    0.0000 </r>
      </set>
      <set comment="kpoint 52">
       <r>   -0.8131    1.0000 </r>
       <r>   -0.7301    1.0000 </r>
       <r>    0.0955    1.0000 </r>
       <r>    0.2815    1.0000 </r>
       <r>    0.7255    1.0000 </r>
       <r>    0.7833    1.0000 </r>
[...]
       <r>    14.0680     0.1954    15.2876 </r>
       <r>    14.1541     0.1960    15.3045 </r>
       <r>    14.2402     0.3432    15.3341 </r>
       <r>    14.3263     0.3760    15.3664 </r>
       <r>    14.4124     0.1459    15.3790 </r>
       <r>    14.4986     0.2437    15.4000 </r>
       <r>    14.5847     0.2618    15.4225 </r>
       <r>    14.6708     0.2099    15.4406 </r>
       <r>    14.7569     0.1964    15.4575 </r>
       <r>    14.8430     0.1832    15.4733 </r>
       <r>    14.9291     0.1766    15.4885 </r>
       <r>    15.0152     0.1229    15.4991 </r>
       <r>    15.1013     0.0793    15.5059 </r>
       <r>    15.1874     0.1428    15.5182 </r>
       <r>    15.2735     0.1891    15.5345 </r>
       <r>    15.3596     0.1842    15.5503 </r>
       <r>    15.4458     0.2763    15.5741 </r>
       <r>    15.5319     0.3006    15.6000 </r>
       <r>    15.6180     0.1776    15.6153 </r>
       <r>    15.7041     0.0851    15.6226 </r>
       <r>    15.7902     0.1187    15.6329 </r>
       <r>    15.8763     0.0711    15.6390 </r>
       <r>    15.9624     0.2243    15.6583 </r>
       <r>    16.0485     0.2111    15.6765 </r>
       <r>    16.1346     0.2506    15.6981 </r>
       <r>    16.2207     0.0859    15.7054 </r>
       <r>    16.3068     0.0633    15.7109 </r>
       <r>    16.3930     0.1240    15.7216 </r>
       <r>    16.4791     0.0657    15.7272 </r>
       <r>    16.5652     0.0870    15.7347 </r>
       <r>    16.6513     0.1564    15.7482 </r>
       <r>    16.7374     0.0840    15.7554 </r>
       <r>    16.8235     0.1480    15.7682 </r>
       <r>    16.9096     0.3496    15.7983 </r>
       <r>    16.9957     0.1032    15.8072 </r>
       <r>    17.0818     0.0201    15.8089 </r>
       <r>    17.1679     0.0242    15.8110 </r>
       <r>    17.2540     0.0880    15.8186 </r>
       <r>    17.3402     0.0652    15.8242 </r>
       <r>    17.4263     0.0413    15.8277 </r>
       <r>    17.5124     0.0352    15.8308 </r>
       <r>    17.5985     0.0807    15.8377 </r>
       <r>    17.6846     0.0619    15.8430 </r>
       <r>    17.7707     0.0648    15.8486 </r>
       <r>    17.8568     0.1149    15.8585 </r>
       <r>    17.9429     0.2002    15.8758 </r>
       <r>    18.0290     0.0266    15.8780 </r>
       <r>    18.1151     0.0811    15.8850 </r>
       <r>    18.2012     0.0939    15.8931 </r>
       <r>    18.2874     0.0678    15.8989 </r>
       <r>    18.3735     0.0978    15.9074 </r>
       <r>    18.4596     0.0308    15.9100 </r>
       <r>    18.5457     0.0594    15.9151 </r>
       <r>    18.6318     0.0875    15.9227 </r>
       <r>    18.7179     0.0515    15.9271 </r>
       <r>    18.8040     0.0213    15.9289 </r>
       <r>    18.8901     0.0320    15.9317 </r>
       <r>    18.9762     0.0655    15.9373 </r>
       <r>    19.0623     0.0830    15.9445 </r>
       <r>    19.1484     0.0990    15.9530 </r>
       <r>    19.2346     0.0557    15.9578 </r>
       <r>    19.3207     0.0927    15.9658 </r>
       <r>    19.4068     0.1373    15.9776 </r>
       <r>    19.4929     0.0109    15.9785 </r>
       <r>    19.5790     0.0264    15.9808 </r>
       <r>    19.6651     0.0088    15.9816 </r>
       <r>    19.7512     0.0246    15.9837 </r>
       <r>    19.8373     0.0139    15.9849 </r>
       <r>    19.9234     0.0601    15.9901 </r>
       <r>    20.0095     0.0572    15.9950 </r>
       <r>    20.0956     0.0044    15.9954 </r>
       <r>    20.1818     0.0000    15.9954 </r>
       <r>    20.2679     0.0001    15.9954 </r>
       <r>    20.3540     0.0091    15.9962 </r>
       <r>    20.4401     0.0153    15.9975 </r>
       <r>    20.5262     0.0271    15.9998 </r>
       <r>    20.6123     0.0022    16.0000 </r>
       <r>    20.6984     0.0000    16.0000 </r>
       <r>    20.7845     0.0000    16.0000 </r>
       <r>    20.8706     0.0000    16.0000 </r>
       <r>    20.9567     0.0000    16.0000 </r>
       <r>    21.0428     0.0000    16.0000 </r>
       <r>    21.1290     0.0000    16.0000 </r>
       <r>    21.2151     0.0000    16.0000 </r>
       <r>    21.3012     0.0000    16.0000 </r>
       <r>    21.3873     0.0000    16.0000 </r>
       <r>    21.4734     0.0000    16.0000 </r>
       <r>    21.5595     0.0000    16.0000 </r>
       <r>    21.6456     0.0000    16.0000 </r>
      </set>
      <set comment="spin 2">
       <r>    -4.1871     0.0000     0.0000 </r>
       <r>    -4.1010     0.0000     0.0000 </r>
       <r>    -4.0149     0.0000     0.0000 </r>
       <r>    -3.9288     0.0000     0.0000 </r>
       <r>    -3.8427     0.0000     0.0000 </r>
       <r>    -3.7566     0.0000     0.0000 </r>
       <r>    -3.6705     0.0000     0.0000 </r>
       <r>    -3.5844     0.0000     0.0000 </r>
       <r>    -3.4983     0.0000     0.0000 </r>
       <r>    -3.4121     0.0000     0.0000 </r>
       <r>    -3.3260     0.0000     0.0000 </r>
       <r>    -3.2399     0.0000     0.0000 </r>
       <r>    -3.1538     0.0000     0.0000 </r>
       <r>    -3.0677     0.0000     0.0000 </r>
       <r>    -2.9816     0.0000     0.0000 </r>
       <r>    -2.8955     0.0001     0.0000 </r>
       <r>    -2.8094     0.0066     0.0006 </r>
       <r>    -2.7233     0.0293     0.0031 </r>
       <r>    -2.6372     0.0870     0.0106 </r>
       <r>    -2.5511     0.0627     0.0160 </r>
       <r>    -2.4649     0.0908     0.0238 </r>
       <r>    -2.3788     0.1403     0.0359 </r>
       <r>    -2.2927     0.1712     0.0506 </r>
       <r>    -2.2066     0.1419     0.0628 </r>
       <r>    -2.1205     0.1375     0.0747 </r>
       <r>    -2.0344     0.2049     0.0923 </r>
       <r>    -1.9483     0.2448     0.1134 </r>
       <r>    -1.8622     0.2070     0.1312 </r>
       <r>    -1.7761     0.2504     0.1528 </r>
       <r>    -1.6900     0.1994     0.1700 </r>
       <r>    -1.6039     0.1254     0.1808 </r>
       <r>    -1.5177     0.1412     0.1929 </r>
       <r>    -1.4316     0.2606     0.2154 </r>
       <r>    -1.3455     0.3561     0.2460 </r>
       <r>    -1.2594     0.2104     0.2641 </r>
       <r>    -1.1733     0.1949     0.2809 </r>
       <r>    -1.0872     0.1956     0.2978 </r>
       <r>    -1.0011     0.1856     0.3137 </r>
       <r>    -0.9150     0.1850     0.3297 </r>
       <r>    -0.8289     0.2433     0.3506 </r>
       <r>    -0.7428     0.3258     0.3787 </r>
       <r>    -0.6567     0.2457     0.3998 </r>
       <r>    -0.5705     0.3121     0.4267 </r>
       <r>    -0.4844     0.2476     0.4480 </r>
       <r>    -0.3983     0.1962     0.4649 </r>
       <r>    -0.3122     0.2702     0.4882 </r>
       <r>    -0.2261     0.2954     0.5136 </r>
       <r>    -0.1400     0.2622     0.5362 </r>
       <r>    -0.0539     0.2887     0.5611 </r>
       <r>     0.0322     0.4676     0.6013 </r>
       <r>     0.1183     0.4643     0.6413 </r>
       <r>     0.2044     0.4271     0.6781 </r>
       <r>     0.2905     0.6028     0.7300 </r>
       <r>     0.3767     2.0312     0.9049 </r>
       <r>     0.4628     2.0260     1.0793 </r>
       <r>     0.5489     0.8276     1.1506 </r>
       <r>     0.6350     1.6653     1.2940 </r>
       <r>     0.7211     0.9688     1.3774 </r>
       <r>     0.8072     0.2405     1.3981 </r>
       <r>     0.8933     0.9604     1.4808 </r>
       <r>     0.9794     1.3284     1.5952 </r>
       <r>     1.0655     0.6113     1.6479 </r>
       <r>     1.1516     0.0943     1.6560 </r>
       <r>     1.2377     0.6328     1.7105 </r>
       <r>     1.3239     0.8774     1.7860 </r>
       <r>     1.4100     0.7547     1.8510 </r>
       <r>     1.4961     0.4843     1.8927 </r>
       <r>     1.5822     2.2679     2.0880 </r>
       <r>     1.6683     3.4140     2.3820 </r>
       <r>     1.7544     4.2621     2.7490 </r>
       <r>     1.8405     4.5278     3.1389 </r>
       <r>     1.9266     5.5520     3.6169 </r>
       <r>     2.0127     4.6202     4.0148 </r>
       <r>     2.0988     3.6110     4.3257 </r>
       <r>     2.1849     3.6962     4.6440 </r>
       <r>     2.2711     3.3364     4.9313 </r>
       <r>     2.3572     1.8621     5.0917 </r>
       <r>     2.4433     1.4146     5.2135 </r>
       <r>     2.5294     1.2199     5.3185 </r>
       <r>     2.6155     1.7423     5.4685 </r>
       <r>     2.7016     2.2050     5.6584 </r>
       <r>     2.7877     2.2521     5.8523 </r>
       <r>     2.8738     2.6939     6.0843 </r>
       <r>     2.9599     3.6720     6.4005 </r>
       <r>     3.0460     3.6869     6.7180 </r>
       <r>     3.1321     3.3434     7.0059 </r>
       <r>     3.2183     3.9960     7.3499 </r>
       <r>     3.3044     4.7832     7.7618 </r>
       <r>     3.3905     5.9945     8.2780 </r>
       <r>     3.4766     6.4129     8.8302 </r>
       <r>     3.5627     6.2805     9.3710 </r>
       <r>     3.6488     4.6992     9.7757 </r>
       <r>     3.7349     3.1485    10.0468 </r>
       <r>     3.8210     2.2949    10.2444 </r>
       <r>     3.9071     1.7125    10.3919 </r>
       <r>     3.9932     1.6129    10.5307 </r>
       <r>     4.0793     1.3656    10.6483 </r>
       <r>     4.1655     0.7332    10.7115 </r>
       <r>     4.2516     0.4430    10.7496 </r>
       <r>     4.3377     0.5001    10.7927 </r>
       <r>     4.4238     0.6028    10.8446 </r>
       <r>     4.5099     0.8799    10.9204 </r>
       <r>     4.5960     1.2614    11.0290 </r>
       <r>     4.6821     0.6154    11.0820 </r>
       <r>     4.7682     0.4022    11.1166 </r>
       <r>     4.8543     0.3025    11.1426 </r>
       <r>     4.9404     0.4207    11.1789 </r>
       <r>     5.0265     0.2417    11.1997 </r>
       <r>     5.1127     0.4930    11.2421 </r>
       <r>     5.1988     0.6198    11.2955 </r>
       <r>     5.2849     0.7535    11.3604 </r>
       <r>     5.3710     0.4823    11.4019 </r>
       <r>     5.4571     0.4065    11.4369 </r>
       <r>     5.5432     0.5307    11.4826 </r>
       <r>     5.6293     0.4740    11.5234 </r>
       <r>     5.7154     0.4589    11.5629 </r>
       <r>     5.8015     0.3367    11.5919 </r>
       <r>     5.8876     0.4704    11.6324 </r>
       <r>     5.9737     0.4067    11.6675 </r>
       <r>     6.0599     0.2570    11.6896 </r>
       <r>     6.1460     0.5126    11.7337 </r>
       <r>     6.2321     0.5264    11.7791 </r>
       <r>     6.3182     0.4569    11.8184 </r>
       <r>     6.4043     0.3808    11.8512 </r>
       <r>     6.4904     0.4314    11.8883 </r>
       <r>     6.5765     0.5035    11.9317 </r>
       <r>     6.6626     0.4073    11.9668 </r>
       <r>     6.7487     0.4345    12.0042 </r>
       <r>     6.8348     0.4008    12.0387 </r>
       <r>     6.9209     0.2530    12.0605 </r>
       <r>     7.0071     0.2928    12.0857 </r>
       <r>     7.0932     0.2006    12.1030 </r>
       <r>     7.1793     0.2848    12.1275 </r>
       <r>     7.2654     0.3887    12.1610 </r>
       <r>     7.3515     0.3724    12.1930 </r>
       <r>     7.4376     0.5629    12.2415 </r>
       <r>     7.5237     0.4494    12.2802 </r>
       <r>     7.6098     0.5154    12.3246 </r>
       <r>     7.6959     0.3227    12.3524 </r>
       <r>     7.7820     0.2230    12.3716 </r>
       <r>     7.8682     0.2856    12.3962 </r>
       <r>     7.9543     0.4050    12.4310 </r>
       <r>     8.0404     0.3354    12.4599 </r>
       <r>     8.1265     0.2774    12.4838 </r>
       <r>     8.2126     0.2065    12.5016 </r>
       <r>     8.2987     0.2768    12.5254 </r>
       <r>     8.3848     0.3661    12.5569 </r>
       <r>     8.4709     0.2926    12.5821 </r>
       <r>     8.5570     0.2707    12.6054 </r>
       <r>     8.6431     0.3241    12.6334 </r>
       <r>     8.7292     0.3058    12.6597 </r>
       <r>     8.8154     0.3862    12.6929 </r>
       <r>     8.9015     0.3692    12.7247 </r>
       <r>     8.9876     0.3109    12.7515 </r>
       <r>     9.0737     0.2347    12.7717 </r>
       <r>     9.1598     0.3110    12.7985 </r>
       <r>     9.2459     0.3015    12.8244 </r>
       <r>     9.3320     0.2537    12.8463 </r>
       <r>     9.4181     0.2265    12.8658 </r>
       <r>     9.5042     0.3435    12.8954 </r>
       <r>     9.5903     0.2498    12.9169 </r>
       <r>     9.6764     0.2860    12.9415 </r>
       <r>     9.7626     0.2132    12.9599 </r>
       <r>     9.8487     0.3345    12.9887 </r>
       <r>     9.9348     0.2743    13.0123 </r>
       <r>    10.0209     0.2285    13.0320 </r>
       <r>    10.1070     0.3444    13.0616 </r>
       <r>    10.1931     0.4618    13.1014 </r>
       <r>    10.2792     0.6452    13.1569 </r>
       <r>    10.3653     0.4429    13.1951 </r>
       <r>    10.4514     0.4788    13.2363 </r>
       <r>    10.5375     0.6875    13.2955 </r>
       <r>    10.6236     0.6577    13.3521 </r>
       <r>    10.7098     0.5245    13.3973 </r>
       <r>    10.7959     0.4679    13.4376 </r>
       <r>    10.8820     0.4192    13.4737 </r>
       <r>    10.9681     0.5809    13.5237 </r>
       <r>    11.0542     0.4040    13.5585 </r>
       <r>    11.1403     0.4390    13.5963 </r>
       <r>    11.2264     0.7102    13.6574 </r>
       <r>    11.3125     0.4727    13.6981 </r>
       <r>    11.3986     0.3547    13.7287 </r>
       <r>    11.4847     0.4867    13.7706 </r>
       <r>    11.5708     0.6012    13.8224 </r>
       <r>    11.6570     0.5809    13.8724 </r>
       <r>    11.7431     0.6410    13.9276 </r>
       <r>    11.8292     0.6507    13.9836 </r>
       <r>    11.9153     0.5715    14.0328 </r>
       <r>    12.0014     0.4256    14.0695 </r>
       <r>    12.0875     0.3780    14.1020 </r>
       <r>    12.1736     0.4361    14.1396 </r>
       <r>    12.2597     0.5819    14.1897 </r>
       <r>    12.3458     0.5849    14.2400 </r>
       <r>    12.4319     0.6963    14.3000 </r>
       <r>    12.5180     0.7240    14.3623 </r>
       <r>    12.6042     0.6003    14.4140 </r>
       <r>    12.6903     0.5564    14.4619 </r>
       <r>    12.7764     0.5764    14.5116 </r>
       <r>    12.8625     0.5665    14.5604 </r>
       <r>    12.9486     0.5721    14.6096 </r>
       <r>    13.0347     0.7223    14.6718 </r>
       <r>    13.1208     0.7868    14.7396 </r>
       <r>    13.2069     0.8722    14.8147 </r>
       <r>    13.2930     0.7126    14.8760 </r>
       <r>    13.3791     0.2839    14.9005 </r>
       <r>    13.4652     0.2398    14.9211 </r>
       <r>    13.5514     0.5058    14.9647 </r>
       <r>    13.6375     0.3936    14.9986 </r>
       <r>    13.7236     0.3489    15.0286 </r>
       <r>    13.8097     0.3810    15.0614 </r>
       <r>    13.8958     0.4578    15.1009 </r>
       <r>    13.9819     0.5188    15.1455 </r>
       <r>    14.0680     0.3485    15.1755 </r>
       <r>    14.1541     0.3243    15.2035 </r>
       <r>    14.2402     0.3800    15.2362 </r>
       <r>    14.3263     0.3705    15.2681 </r>
       <r>    14.4124     0.2616    15.2906 </r>
       <r>    14.4986     0.3135    15.3176 </r>
       <r>    14.5847     0.2211    15.3366 </r>
       <r>    14.6708     0.2586    15.3589 </r>
       <r>    14.7569     0.2724    15.3824 </r>
       <r>    14.8430     0.1664    15.3967 </r>
       <r>    14.9291     0.2115    15.4149 </r>
       <r>    15.0152     0.2299    15.4347 </r>
       <r>    15.1013     0.2478    15.4561 </r>
       <r>    15.1874     0.2755    15.4798 </r>
       <r>    15.2735     0.2201    15.4987 </r>
       <r>    15.3596     0.1195    15.5090 </r>
       <r>    15.4458     0.1016    15.5178 </r>
       <r>    15.5319     0.1218    15.5283 </r>
       <r>    15.6180     0.1309    15.5395 </r>
       <r>    15.7041     0.2196    15.5584 </r>
       <r>    15.7902     0.1953    15.5753 </r>
       <r>    15.8763     0.1548    15.5886 </r>
       <r>    15.9624     0.2706    15.6119 </r>
       <r>    16.0485     0.2451    15.6330 </r>
       <r>    16.1346     0.0749    15.6394 </r>
       <r>    16.2207     0.0965    15.6477 </r>
       <r>    16.3068     0.1831    15.6635 </r>
       <r>    16.3930     0.2098    15.6816 </r>
       <r>    16.4791     0.1720    15.6964 </r>
       <r>    16.5652     0.2183    15.7152 </r>
       <r>    16.6513     0.0684    15.7211 </r>
       <r>    16.7374     0.0679    15.7269 </r>
       <r>    16.8235     0.0823    15.7340 </r>
       <r>    16.9096     0.0805    15.7409 </r>
       <r>    16.9957     0.0866    15.7484 </r>
       <r>    17.0818     0.2042    15.7660 </r>
       <r>    17.1679     0.1260    15.7768 </r>
       <r>    17.2540     0.2019    15.7942 </r>
       <r>    17.3402     0.2057    15.8119 </r>
       <r>    17.4263     0.1098    15.8214 </r>
       <r>    17.5124     0.0342    15.8243 </r>
       <r>    17.5985     0.0074    15.8250 </r>
       <r>    17.6846     0.0628    15.8304 </r>
       <r>    17.7707     0.0659    15.8360 </r>
       <r>    17.8568     0.0375    15.8393 </r>
       <r>    17.9429     0.1372    15.8511 </r>
       <r>    18.0290     0.0533    15.8557 </r>
       <r>    18.1151     0.0063    15.8562 </r>
       <r>    18.2012     0.0468    15.8602 </r>
       <r>    18.2874     0.2348    15.8805 </r>
       <r>    18.3735     0.1416    15.8927 </r>
       <r>    18.4596     0.0353    15.8957 </r>
       <r>    18.5457     0.0540    15.9004 </r>
       <r>    18.6318     0.1619    15.9143 </r>
       <r>    18.7179     0.0587    15.9193 </r>
       <r>    18.8040     0.0369    15.9225 </r>
       <r>    18.8901     0.1066    15.9317 </r>
       <r>    18.9762     0.0369    15.9349 </r>
       <r>    19.0623     0.0219    15.9368 </r>
       <r>    19.1484     0.0302    15.9394 </r>
       <r>    19.2346     0.0811    15.9464 </r>
       <r>    19.3207     0.0723    15.9526 </r>
       <r>    19.4068     0.0654    15.9582 </r>
       <r>    19.4929     0.0460    15.9622 </r>
       <r>    19.5790     0.0721    15.9684 </r>
       <r>    19.6651     0.0759    15.9749 </r>
       <r>    19.7512     0.1048    15.9839 </r>
       <r>    19.8373     0.0075    15.9846 </r>
       <r>    19.9234     0.0140    15.9858 </r>
       <r>    20.0095     0.0579    15.9908 </r>
       <r>    20.0956     0.0513    15.9952 </r>
       <r>    20.1818     0.0022    15.9954 </r>
       <r>    20.2679     0.0002    15.9954 </r>
       <r>    20.3540     0.0102    15.9963 </r>
       <r>    20.4401     0.0150    15.9976 </r>
       <r>    20.5262     0.0265    15.9998 </r>
       <r>    20.6123     0.0018    16.0000 </r>
       <r>    20.6984     0.0000    16.0000 </r>
       <r>    20.7845     0.0000    16.0000 </r>
       <r>    20.8706     0.0000    16.0000 </r>
       <r>    20.9567     0.0000    16.0000 </r>
       <r>    21.0428     0.0000    16.0000 </r>
       <r>    21.1290     0.0000    16.0000 </r>
       <r>    21.2151     0.0000    16.0000 </r>
       <r>    21.3012     0.0000    16.0000 </r>
       <r>    21.3873     0.0000    16.0000 </r>
       <r>    21.4734     0.0000    16.0000 </r>
       <r>    21.5595     0.0000    16.0000 </r>
       <r>    21.6456     0.0000    16.0000 </r>
      </set>
     </set>
    </array>
   </total>
  </dos>
 </calculation>
 <structure name="finalpos" >
  <crystal>
   <varray name="basis" >
    <v>       2.47000000       0.00000000       0.00000000 </v>
    <v>      -1.23500000       2.13908275       0.00000000 </v>
    <v>       0.00000000       0.00000000       8.09000000 </v>
   </varray>
   <i name="volume">     42.74379318 </i>
   <varray name="rec_basis" >
    <v>       0.40485830       0.23374505       0.00000000 </v>
    <v>       0.00000000       0.46749010       0.00000000 </v>
    <v>       0.00000000       0.00000000       0.12360939 </v>
   </varray>
  </crystal>
  <varray name="positions" >
   <v>       0.00000000       0.00000000       0.00000000 </v>
   <v>       0.33333333       0.66666667       0.50000000 </v>
  </varray>
 </structure>
</modeling>
