    2    2    1    1
  0.1579990E+02  0.2760000E-09  0.2760000E-09  0.4790000E-09  0.5000000E-15
  1.000000000000000E-004
  CAR 
 Pt-hcc                                  
     32     70     24
 
  0.0000000E+00  0.0000000E+00  0.0000000E+00  0.1250000E-02
      1        -41.473982   1.000000
      2        -41.305809   1.000000
      3        -41.305808   1.000000
      4        -41.265702   1.000000
      5        -41.265701   1.000000
      6        -41.145287   1.000000
      7          1.420574   1.000000
      8          4.066652   1.000000
      9          7.202922   1.000000
     10          7.710119   1.000000
     11          7.710119   1.000000
     12          8.074807   1.000000
     13          8.074808   1.000000
     14          9.344654   1.000000
     15          9.344655   1.000000
     16         10.420675   1.000000
     17         10.920741   1.000000
     18         10.920741   1.000000
     19         15.807076   0.000000
     20         26.226651   0.000000
     21         26.806644   0.000000
     22         28.376050   0.000000
     23         32.169949   0.000000
     24         32.169949   0.000000
 
  0.1000000E+00 -0.1387779E-16  0.0000000E+00  0.7500000E-02
      1        -41.461772   1.000000
      2        -41.341331   1.000000
      3        -41.315556   1.000000
      4        -41.302357   1.000000
      5        -41.272873   1.000000
      6        -41.147715   1.000000
      7          1.781941   1.000000
      8          4.394418   1.000000
      9          7.140030   1.000000
     10          7.717073   1.000000
     11          7.926346   1.000000
     12          7.986439   1.000000
     13          8.337320   1.000000
     14          8.760135   1.000000
     15          9.174762   1.000000
     16          9.319571   1.000000
     17         10.983306   0.999966
     18         12.679050   0.000000
     19         15.771198   0.000000
     20         26.659433   0.000000
     21         27.335118   0.000000
     22         28.704025   0.000000
     23         30.544295   0.000000
     24         30.663408   0.000000
 
  0.2000000E+00 -0.2775558E-16  0.0000000E+00  0.7500000E-02
      1        -41.435993   1.000000
      2        -41.429202   1.000000
      3        -41.397718   1.000000
      4        -41.342675   1.000000
      5        -41.292574   1.000000
      6        -41.156192   1.000000
      7          2.767070   1.000000
      8          5.115203   1.000000
      9          6.915852   1.000000
     10          7.398708   1.000000
     11          7.435136   1.000000
     12          8.336044   1.000000
     13          8.767181   1.000000
     14          8.797378   1.000000
     15          8.807008   1.000000
     16          9.074535   1.000000
     17         11.081863   0.883790
     18         14.848488   0.000000
     19         15.703762   0.000000
     20         25.158775   0.000000
     21         27.956597   0.000000
     22         28.236087   0.000000
     23         29.111025   0.000000
     24         29.310507   0.000000
 
  0.3000000E+00  0.0000000E+00  0.0000000E+00  0.7500000E-02
      1        -41.552286   1.000000
      2        -41.513057   1.000000
      3        -41.383229   1.000000
      4        -41.375110   1.000000
      5        -41.317272   1.000000
      6        -41.171766   1.000000
      7          3.971986   1.000000
      8          5.241159   1.000000
      9          6.346678   1.000000
     10          7.178150   1.000000
     11          7.536213   1.000000
     12          8.296429   1.000000
     13          8.408077   1.000000
     14          9.484351   1.000000
     15          9.888704   1.000000
     16         10.118666   1.000000
     17         11.134827   0.380605
     18         15.826543   0.000000
     19         17.058145   0.000000
     20         21.436036   0.000000
     21         25.854491   0.000000
     22         26.400575   0.000000
     23         27.994042   0.000000
     24         29.101495   0.000000
 
  0.4000000E+00 -0.2775558E-16  0.0000000E+00  0.7500000E-02
      1        -41.647195   1.000000
      2        -41.604923   1.000000
      3        -41.401142   1.000000
      4        -41.338473   1.000000
      5        -41.337597   1.000000
      6        -41.193821   1.000000
      7          4.630987   1.000000
      8          4.927435   1.000000
      9          5.694953   1.000000
     10          7.695628   1.000000
     11          7.921999   1.000000
     12          8.130613   1.000000
     13          8.348030   1.000000
     14         10.969301   0.999994
     15         11.145462   0.272694
     16         11.145866   0.268903
     17         11.354405   0.000000
     18         16.632710   0.000000
     19         17.799236   0.000000
     20         19.021505   0.000000
     21         23.534095   0.000000
     22         23.946813   0.000000
     23         25.047703   0.000000
     24         27.826063   0.000000
 
  0.5000000E+00 -0.2775558E-16  0.0000000E+00  0.3750000E-02
      1        -41.682830   1.000000
      2        -41.640086   1.000000
      3        -41.411293   1.000000
      4        -41.346450   1.000000
      5        -41.315053   1.000000
      6        -41.207787   1.000000
      7          4.721991   1.000000
      8          4.799003   1.000000
      9          5.474271   1.000000
     10          7.786570   1.000000
     11          8.031240   1.000000
     12          8.217014   1.000000
     13          8.552331   1.000000
     14         11.144665   0.280231
     15         11.424331   0.000000
     16         11.624036   0.000000
     17         13.399188   0.000000
     18         14.874119   0.000000
     19         18.393570   0.000000
     20         19.970061   0.000000
     21         20.630579   0.000000
     22         23.167485   0.000000
     23         24.401320   0.000000
     24         27.252024   0.000000
 
  0.1000000E+00  0.1000000E+00  0.0000000E+00  0.7500000E-02
      1        -41.439646   1.000000
      2        -41.400603   1.000000
      3        -41.374869   1.000000
      4        -41.328889   1.000000
      5        -41.291646   1.000000
      6        -41.153222   1.000000
      7          2.463563   1.000000
      8          4.966742   1.000000
      9          6.875084   1.000000
     10          7.631591   1.000000
     11          7.800323   1.000000
     12          7.935058   1.000000
     13          8.569307   1.000000
     14          8.593455   1.000000
     15          8.924425   1.000000
     16          9.234708   1.000000
     17         11.003836   0.999664
     18         14.275992   0.000000
     19         15.721469   0.000000
     20         26.577565   0.000000
     21         27.185528   0.000000
     22         28.240562   0.000000
     23         29.263405   0.000000
     24         30.010233   0.000000
 
  0.2000000E+00  0.1000000E+00  0.0000000E+00  0.1500000E-01
      1        -41.498383   1.000000
      2        -41.472904   1.000000
      3        -41.399933   1.000000
      4        -41.366433   1.000000
      5        -41.321249   1.000000
      6        -41.165590   1.000000
      7          3.633106   1.000000
      8          5.578869   1.000000
      9          6.698999   1.000000
     10          6.755473   1.000000
     11          7.360425   1.000000
     12          8.099141   1.000000
     13          8.545496   1.000000
     14          8.868837   1.000000
     15          9.624847   1.000000
     16         10.025605   1.000000
     17         11.003614   0.999672
     18         15.769142   0.000000
     19         16.359383   0.000000
     20         23.337256   0.000000
     21         25.243637   0.000000
     22         27.394741   0.000000
     23         29.292183   0.000000
     24         29.940487   0.000000
 
  0.3000000E+00  0.1000000E+00  0.0000000E+00  0.1500000E-01
      1        -41.600268   1.000000
      2        -41.564897   1.000000
      3        -41.405239   1.000000
      4        -41.353234   1.000000
      5        -41.349777   1.000000
      6        -41.185483   1.000000
      7          4.689269   1.000000
      8          5.340619   1.000000
      9          5.985273   1.000000
     10          7.194003   1.000000
     11          7.801737   1.000000
     12          7.811316   1.000000
     13          8.380173   1.000000
     14          9.643352   1.000000
     15         10.704919   1.000000
     16         10.989702   0.999928
     17         11.447926   0.000000
     18         16.365370   0.000000
     19         18.488233   0.000000
     20         19.511743   0.000000
     21         23.136327   0.000000
     22         25.937338   0.000000
     23         26.241414   0.000000
     24         28.242572   0.000000
 
  0.4000000E+00  0.1000000E+00  0.0000000E+00  0.1500000E-01
      1        -41.662892   1.000000
      2        -41.621040   1.000000
      3        -41.429106   1.000000
      4        -41.367319   1.000000
      5        -41.315021   1.000000
      6        -41.207423   1.000000
      7          4.995452   1.000000
      8          5.085237   1.000000
      9          5.584496   1.000000
     10          7.743903   1.000000
     11          7.981792   1.000000
     12          7.981991   1.000000
     13          8.311297   1.000000
     14         10.876251   1.000000
     15         10.972047   0.999991
     16         11.256694   0.000088
     17         13.150480   0.000000
     18         16.103771   0.000000
     19         18.050433   0.000000
     20         20.154978   0.000000
     21         20.928660   0.000000
     22         23.275064   0.000000
     23         24.869371   0.000000
     24         27.173543   0.000000
 
  0.2000000E+00  0.2000000E+00  0.0000000E+00  0.7500000E-02
      1        -41.556076   1.000000
      2        -41.554849   1.000000
      3        -41.410225   1.000000
      4        -41.370893   1.000000
      5        -41.358771   1.000000
      6        -41.182647   1.000000
      7          4.843101   1.000000
      8          6.184458   1.000000
      9          6.187742   1.000000
     10          6.248795   1.000000
     11          7.575133   1.000000
     12          7.612987   1.000000
     13          8.571857   1.000000
     14          8.905698   1.000000
     15         10.689349   1.000000
     16         10.822302   1.000000
     17         11.529237   0.000000
     18         16.340906   0.000000
     19         18.365176   0.000000
     20         20.965641   0.000000
     21         21.879550   0.000000
     22         26.687414   0.000000
     23         27.887765   0.000000
     24         28.382306   0.000000
 
  0.3000000E+00  0.2000000E+00  0.0000000E+00  0.1500000E-01
      1        -41.617360   1.000000
      2        -41.588770   1.000000
      3        -41.461929   1.000000
      4        -41.413868   1.000000
      5        -41.315342   1.000000
      6        -41.206897   1.000000
      7          5.625425   1.000000
      8          5.805225   1.000000
      9          5.837995   1.000000
     10          6.983972   1.000000
     11          7.467386   1.000000
     12          8.085779   1.000000
     13          8.124340   1.000000
     14          9.696114   1.000000
     15         10.683486   1.000000
     16         11.124567   0.494538
     17         13.203037   0.000000
     18         17.362296   0.000000
     19         18.285752   0.000000
     20         19.924297   0.000000
     21         20.447350   0.000000
     22         24.850558   0.000000
     23         25.900782   0.000000
     24         26.892303   0.000000
 
  0.4000000E+00  0.2000000E+00  0.0000000E+00  0.7500000E-02
      1        -41.639933   1.000000
      2        -41.597616   1.000000
      3        -41.486511   1.000000
      4        -41.430042   1.000000
      5        -41.290692   1.000000
      6        -41.224242   1.000000
      7          5.670711   1.000000
      8          5.686366   1.000000
      9          5.741119   1.000000
     10          7.557765   1.000000
     11          7.607317   1.000000
     12          7.707284   1.000000
     13          8.391138   1.000000
     14         10.456927   1.000000
     15         10.632821   1.000000
     16         10.930053   1.000000
     17         14.798494   0.000000
     18         15.313622   0.000000
     19         18.624102   0.000000
     20         20.187033   0.000000
     21         21.656279   0.000000
     22         22.682363   0.000000
     23         25.099579   0.000000
     24         26.391282   0.000000
 
  0.3000000E+00  0.3000000E+00  0.0000000E+00  0.7500000E-02
      1        -41.603793   1.000000
      2        -41.571718   1.000000
      3        -41.524360   1.000000
      4        -41.483451   1.000000
      5        -41.276561   1.000000
      6        -41.235464   1.000000
      7          5.765117   1.000000
      8          6.176110   1.000000
      9          6.431390   1.000000
     10          6.867555   1.000000
     11          7.418776   1.000000
     12          7.685594   1.000000
     13          8.479131   1.000000
     14         10.055789   1.000000
     15         10.465835   1.000000
     16         10.769468   1.000000
     17         14.809740   0.000000
     18         16.076997   0.000000
     19         17.500323   0.000000
     20         21.017894   0.000000
     21         22.580495   0.000000
     22         23.803115   0.000000
     23         24.619936   0.000000
     24         25.003911   0.000000
 
  0.0000000E+00  0.0000000E+00  0.1250000E+00  0.2500000E-02
      1        -41.460888   1.000000
      2        -41.303481   1.000000
      3        -41.303480   1.000000
      4        -41.266930   1.000000
      5        -41.266929   1.000000
      6        -41.157662   1.000000
      7          1.554103   1.000000
      8          4.047091   1.000000
      9          7.170262   1.000000
     10          7.691692   1.000000
     11          7.691693   1.000000
     12          8.036712   1.000000
     13          8.036713   1.000000
     14          9.442084   1.000000
     15          9.442085   1.000000
     16          9.805499   1.000000
     17         10.893986   1.000000
     18         10.893987   1.000000
     19         16.672402   0.000000
     20         25.765642   0.000000
     21         27.314481   0.000000
     22         28.092402   0.000000
     23         31.619544   0.000000
     24         31.619545   0.000000
 
  0.1000000E+00 -0.1387779E-16  0.1250000E+00  0.1500000E-01
      1        -41.450684   1.000000
      2        -41.338890   1.000000
      3        -41.314098   1.000000
      4        -41.304501   1.000000
      5        -41.274506   1.000000
      6        -41.159077   1.000000
      7          1.912875   1.000000
      8          4.381066   1.000000
      9          7.142796   1.000000
     10          7.632337   1.000000
     11          7.824679   1.000000
     12          7.958589   1.000000
     13          8.294765   1.000000
     14          8.705850   1.000000
     15          9.289530   1.000000
     16          9.320461   1.000000
     17         10.944855   1.000000
     18         12.142154   0.000000
     19         16.759879   0.000000
     20         26.266119   0.000000
     21         27.740200   0.000000
     22         28.476054   0.000000
     23         29.941346   0.000000
     24         30.585259   0.000000
 
  0.2000000E+00 -0.2775558E-16  0.1250000E+00  0.1500000E-01
      1        -41.446645   1.000000
      2        -41.408373   1.000000
      3        -41.398672   1.000000
      4        -41.340580   1.000000
      5        -41.294486   1.000000
      6        -41.165184   1.000000
      7          2.882766   1.000000
      8          5.124583   1.000000
      9          6.947441   1.000000
     10          7.142303   1.000000
     11          7.443202   1.000000
     12          8.224447   1.000000
     13          8.609979   1.000000
     14          8.951477   1.000000
     15          9.016383   1.000000
     16          9.126522   1.000000
     17         11.022031   0.998052
     18         13.661858   0.000000
     19         17.171020   0.000000
     20         25.255758   0.000000
     21         27.739498   0.000000
     22         28.392551   0.000000
     23         28.597631   0.000000
     24         29.729344   0.000000
 
  0.3000000E+00  0.0000000E+00  0.1250000E+00  0.1500000E-01
      1        -41.554598   1.000000
      2        -41.516839   1.000000
      3        -41.372949   1.000000
      4        -41.371684   1.000000
      5        -41.319806   1.000000
      6        -41.178129   1.000000
      7          4.025319   1.000000
      8          5.269064   1.000000
      9          6.327027   1.000000
     10          7.013118   1.000000
     11          7.563738   1.000000
     12          8.402064   1.000000
     13          8.469237   1.000000
     14          9.538492   1.000000
     15          9.909858   1.000000
     16         10.070726   1.000000
     17         11.064922   0.952868
     18         14.750748   0.000000
     19         18.166049   0.000000
     20         21.705882   0.000000
     21         26.093676   0.000000
     22         26.129675   0.000000
     23         27.695034   0.000000
     24         29.561144   0.000000
 
  0.4000000E+00 -0.2775558E-16  0.1250000E+00  0.1500000E-01
      1        -41.648221   1.000000
      2        -41.608817   1.000000
      3        -41.398800   1.000000
      4        -41.340899   1.000000
      5        -41.329350   1.000000
      6        -41.197336   1.000000
      7          4.567031   1.000000
      8          4.935011   1.000000
      9          5.848450   1.000000
     10          7.065303   1.000000
     11          8.141456   1.000000
     12          8.214999   1.000000
     13          8.893314   1.000000
     14         10.887826   1.000000
     15         10.984493   0.999961
     16         11.243574   0.000363
     17         11.267133   0.000026
     18         15.780250   0.000000
     19         17.841072   0.000000
     20         19.837776   0.000000
     21         23.259157   0.000000
     22         24.222727   0.000000
     23         25.370624   0.000000
     24         28.047715   0.000000
 
  0.5000000E+00 -0.2775558E-16  0.1250000E+00  0.7500000E-02
      1        -41.683749   1.000000
      2        -41.643757   1.000000
      3        -41.408639   1.000000
      4        -41.348973   1.000000
      5        -41.307645   1.000000
      6        -41.209739   1.000000
      7          4.644323   1.000000
      8          4.751457   1.000000
      9          5.695480   1.000000
     10          7.128533   1.000000
     11          8.120704   1.000000
     12          8.291578   1.000000
     13          9.343306   1.000000
     14         10.968831   0.999994
     15         11.444089   0.000000
     16         11.617857   0.000000
     17         13.162999   0.000000
     18         14.762370   0.000000
     19         18.254526   0.000000
     20         18.999329   0.000000
     21         21.856229   0.000000
     22         23.457035   0.000000
     23         24.533845   0.000000
     24         27.531898   0.000000
 
  0.1000000E+00  0.1000000E+00  0.1250000E+00  0.1500000E-01
      1        -41.436098   1.000000
      2        -41.391633   1.000000
      3        -41.376295   1.000000
      4        -41.328347   1.000000
      5        -41.293307   1.000000
      6        -41.162778   1.000000
      7          2.586444   1.000000
      8          4.968610   1.000000
      9          6.906403   1.000000
     10          7.355595   1.000000
     11          7.712802   1.000000
     12          7.940772   1.000000
     13          8.502526   1.000000
     14          8.724242   1.000000
     15          9.014417   1.000000
     16          9.305133   1.000000
     17         10.952778   0.999999
     18         13.310361   0.000000
     19         17.015986   0.000000
     20         26.532007   0.000000
     21         27.253601   0.000000
     22         28.138590   0.000000
     23         28.811447   0.000000
     24         30.265203   0.000000
 
  0.2000000E+00  0.1000000E+00  0.1250000E+00  0.3000000E-01
      1        -41.501917   1.000000
      2        -41.475812   1.000000
      3        -41.386522   1.000000
      4        -41.365118   1.000000
      5        -41.323085   1.000000
      6        -41.172647   1.000000
      7          3.723829   1.000000
      8          5.612724   1.000000
      9          6.576970   1.000000
     10          6.765026   1.000000
     11          7.331691   1.000000
     12          7.993162   1.000000
     13          8.707027   1.000000
     14          8.849490   1.000000
     15          9.735037   1.000000
     16          9.973383   1.000000
     17         10.952831   0.999999
     18         14.478084   0.000000
     19         17.817412   0.000000
     20         23.516642   0.000000
     21         25.372881   0.000000
     22         27.312777   0.000000
     23         28.691862   0.000000
     24         30.519152   0.000000
 
  0.3000000E+00  0.1000000E+00  0.1250000E+00  0.3000000E-01
      1        -41.601565   1.000000
      2        -41.568421   1.000000
      3        -41.403980   1.000000
      4        -41.353262   1.000000
      5        -41.342163   1.000000
      6        -41.189615   1.000000
      7          4.673234   1.000000
      8          5.374831   1.000000
      9          6.049093   1.000000
     10          6.917826   1.000000
     11          7.771844   1.000000
     12          8.150902   1.000000
     13          8.394482   1.000000
     14          9.660087   1.000000
     15         10.746980   1.000000
     16         10.807321   1.000000
     17         11.506444   0.000000
     18         15.569006   0.000000
     19         18.752643   0.000000
     20         20.262675   0.000000
     21         23.247999   0.000000
     22         25.413120   0.000000
     23         26.591695   0.000000
     24         28.439038   0.000000
 
  0.4000000E+00  0.1000000E+00  0.1250000E+00  0.3000000E-01
      1        -41.663889   1.000000
      2        -41.624849   1.000000
      3        -41.427466   1.000000
      4        -41.370098   1.000000
      5        -41.307556   1.000000
      6        -41.208985   1.000000
      7          4.873399   1.000000
      8          5.072441   1.000000
      9          5.838517   1.000000
     10          7.070952   1.000000
     11          7.858419   1.000000
     12          8.417164   1.000000
     13          8.820386   1.000000
     14         10.763573   1.000000
     15         10.879882   1.000000
     16         11.298604   0.000000
     17         13.103726   0.000000
     18         15.908627   0.000000
     19         17.699961   0.000000
     20         20.050998   0.000000
     21         21.425236   0.000000
     22         23.537454   0.000000
     23         25.083593   0.000000
     24         27.256632   0.000000
 
  0.2000000E+00  0.2000000E+00  0.1250000E+00  0.1500000E-01
      1        -41.558473   1.000000
      2        -41.557396   1.000000
      3        -41.410621   1.000000
      4        -41.375172   1.000000
      5        -41.346786   1.000000
      6        -41.187094   1.000000
      7          4.877042   1.000000
      8          6.024977   1.000000
      9          6.267393   1.000000
     10          6.349067   1.000000
     11          7.584959   1.000000
     12          7.593710   1.000000
     13          8.454631   1.000000
     14          9.059246   1.000000
     15         10.610679   1.000000
     16         10.799276   1.000000
     17         11.599908   0.000000
     18         15.565830   0.000000
     19         18.981286   0.000000
     20         21.405916   0.000000
     21         22.041895   0.000000
     22         26.527909   0.000000
     23         27.045174   0.000000
     24         29.034652   0.000000
 
  0.3000000E+00  0.2000000E+00  0.1250000E+00  0.3000000E-01
      1        -41.617853   1.000000
      2        -41.591806   1.000000
      3        -41.461969   1.000000
      4        -41.416968   1.000000
      5        -41.307247   1.000000
      6        -41.208053   1.000000
      7          5.467132   1.000000
      8          5.851860   1.000000
      9          6.022129   1.000000
     10          6.783209   1.000000
     11          7.606686   1.000000
     12          7.979464   1.000000
     13          8.266820   1.000000
     14          9.758198   1.000000
     15         10.482726   1.000000
     16         11.226866   0.001824
     17         13.246249   0.000000
     18         17.364439   0.000000
     19         17.639864   0.000000
     20         20.003351   0.000000
     21         21.265109   0.000000
     22         24.350384   0.000000
     23         25.904956   0.000000
     24         26.947015   0.000000
 
  0.4000000E+00  0.2000000E+00  0.1250000E+00  0.1500000E-01
      1        -41.640229   1.000000
      2        -41.601137   1.000000
      3        -41.486069   1.000000
      4        -41.433327   1.000000
      5        -41.284446   1.000000
      6        -41.223532   1.000000
      7          5.413233   1.000000
      8          5.732267   1.000000
      9          6.113868   1.000000
     10          7.003542   1.000000
     11          7.467349   1.000000
     12          8.171990   1.000000
     13          8.559560   1.000000
     14         10.424644   1.000000
     15         10.482671   1.000000
     16         11.005522   0.999601
     17         14.877882   0.000000
     18         15.347506   0.000000
     19         18.698537   0.000000
     20         19.867991   0.000000
     21         20.842099   0.000000
     22         23.785525   0.000000
     23         25.360821   0.000000
     24         25.628762   0.000000
 
  0.3000000E+00  0.3000000E+00  0.1250000E+00  0.1500000E-01
      1        -41.602528   1.000000
      2        -41.574911   1.000000
      3        -41.526096   1.000000
      4        -41.486552   1.000000
      5        -41.271485   1.000000
      6        -41.233474   1.000000
      7          5.799144   1.000000
      8          6.156055   1.000000
      9          6.465612   1.000000
     10          6.752539   1.000000
     11          7.544537   1.000000
     12          7.585484   1.000000
     13          8.489111   1.000000
     14         10.148906   1.000000
     15         10.255964   1.000000
     16         10.863799   1.000000
     17         14.905107   0.000000
     18         16.220331   0.000000
     19         17.751338   0.000000
     20         20.146896   0.000000
     21         22.778357   0.000000
     22         22.876036   0.000000
     23         24.731408   0.000000
     24         26.027552   0.000000
 
  0.0000000E+00  0.0000000E+00  0.2500000E+00  0.2500000E-02
      1        -41.425998   1.000000
      2        -41.299230   1.000000
      3        -41.299229   1.000000
      4        -41.271197   1.000000
      5        -41.271196   1.000000
      6        -41.193637   1.000000
      7          1.938036   1.000000
      8          3.949835   1.000000
      9          7.095825   1.000000
     10          7.661629   1.000000
     11          7.661630   1.000000
     12          7.938475   1.000000
     13          7.938475   1.000000
     14          8.661375   1.000000
     15          9.694176   1.000000
     16          9.694176   1.000000
     17         10.799734   1.000000
     18         10.799735   1.000000
     19         18.582656   0.000000
     20         25.239355   0.000000
     21         27.481862   0.000000
     22         27.607175   0.000000
     23         31.112459   0.000000
     24         31.112459   0.000000
 
  0.1000000E+00 -0.1387779E-16  0.2500000E+00  0.1500000E-01
      1        -41.420239   1.000000
      2        -41.331565   1.000000
      3        -41.310666   1.000000
      4        -41.309467   1.000000
      5        -41.279028   1.000000
      6        -41.191015   1.000000
      7          2.290318   1.000000
      8          4.298419   1.000000
      9          7.126827   1.000000
     10          7.483564   1.000000
     11          7.560301   1.000000
     12          7.914817   1.000000
     13          8.190607   1.000000
     14          8.302894   1.000000
     15          9.574500   1.000000
     16          9.575869   1.000000
     17         10.821872   1.000000
     18         11.427242   0.000000
     19         18.737562   0.000000
     20         25.741680   0.000000
     21         27.874265   0.000000
     22         27.990339   0.000000
     23         29.660646   0.000000
     24         30.541091   0.000000
 
  0.2000000E+00 -0.2775558E-16  0.2500000E+00  0.1500000E-01
      1        -41.449760   1.000000
      2        -41.409806   1.000000
      3        -41.368863   1.000000
      4        -41.335273   1.000000
      5        -41.299750   1.000000
      6        -41.190632   1.000000
      7          3.217768   1.000000
      8          5.097232   1.000000
      9          6.767812   1.000000
     10          7.055064   1.000000
     11          7.217687   1.000000
     12          8.027334   1.000000
     13          8.527517   1.000000
     14          8.878672   1.000000
     15          9.431712   1.000000
     16          9.453061   1.000000
     17         10.844883   1.000000
     18         12.439152   0.000000
     19         19.196172   0.000000
     20         25.538066   0.000000
     21         27.160308   0.000000
     22         27.930169   0.000000
     23         28.864228   0.000000
     24         29.875037   0.000000
 
  0.3000000E+00  0.0000000E+00  0.2500000E+00  0.1500000E-01
      1        -41.557181   1.000000
      2        -41.526610   1.000000
      3        -41.366641   1.000000
      4        -41.341663   1.000000
      5        -41.325892   1.000000
      6        -41.196204   1.000000
      7          4.186920   1.000000