 vasp.6.3.2 27Jun22 (build Aug 12 2022 00:53:59) complex                        
  
 executed on               tv2STD date 2024.11.30  16:03:01
 running   24 mpi-ranks, with    1 threads/rank
 distrk:  each k-point on   24 cores,    1 groups
 distr:  one band on NCORE=   1 cores,   24 groups


--------------------------------------------------------------------------------------------------------


 INCAR:
   SYSTEM = Pt-hcc
   NWRITE = 2    write-flag
   ISTART = 0    job   : 0-new, 1-cont, 2-samecut
   ICHARG = 2    charge: 0-wave, 1-file, 2-atom, >10-const
   INIWAV = 1    electr: 0-lowe 1-rand  2-diag
   ENCUT = 450.0     energy cutoff in eV
   PREC = Accurate      normal | accurate
   ADDGRID = .FALSE.  (use fine grid)
   NELM = 100     number of ELM steps
   EDIFF = 1E-06    energy stopping-criterion for ELM
   LREAL = .FALSE.      real-space projection (.FALSE., .TRUE., On, Auto)
   ALGO = Normal     Normal, Fast, Very_Fast
   LWAVE = .FALSE.
   LCHARG = .FALSE.
   NSW = 0       max number of geometry steps
   IBRION = -1     ionic relax: 0-MD, 1-quasi-Newton, 2-CG, 3-Damped MD
   EDIFFG = -0.02  force (eV/A) stopping-criterion for geometry steps
   ISIF = 2     (1:force\=y stress\=trace only ions\=y shape\=n volume\=n)
   ISYM = 1     (1-use symmetry, 0-no symmetry)
   ISMEAR = 0     (-1-Fermi, 1-Methfessel/Paxton)
   SIGMA = 0.05   broadening in eV

 POTCAR:    PAW_PBE Pt_pv 12Dec2005               
 POTCAR:    PAW_PBE Pt_pv 12Dec2005               
   SHA256 =  e5abf7e8cd8db70d0153315afc5ad66b6e3eeee29cc2d5b91b16730957c1d208 Pt_pv/POTCAR          
   COPYR  = (c) Copyright 12Dec2005 Georg Kresse                                                    
   COPYR  = This file is part of the software VASP. Any use, copying, and all other rights are regul
   COPYR  = If you do not have a valid VASP license, you may not use, copy or distribute this file. 
   VRHFIN =Pt: 5ps1d9                                                                               
   LEXCH  = PE                                                                                      
   EATOM  =  2428.2504 eV,  178.4714 Ry                                                             
                                                                                                    
   TITEL  = PAW_PBE Pt_pv 12Dec2005                                                                 
   LULTRA =        F    use ultrasoft PP ?                                                          
   IUNSCR =        1    unscreen: 0-lin 1-nonlin 2-no                                               
   RPACOR =    2.000    partial core radius                                                         
   POMASS =  195.080; ZVAL   =   16.000    mass and valenz                                          
   RCORE  =    2.200    outmost cutoff radius                                                       
   RWIGS  =    2.200; RWIGS  =    1.164    wigner-seitz radius (au A)                               
   ENMAX  =  294.607; ENMIN  =  220.955 eV                                                          
   ICORE  =        3    local potential                                                             
   LCOR   =        T    correct aug charges                                                         
   LPAW   =        T    paw PP                                                                      
   EAUG   =  527.014                                                                                
   DEXC   =    0.000                                                                                
   RMAX   =    2.247    core radius for proj-oper                                                   
   RAUG   =    1.300    factor for augmentation sphere                                              
   RDEP   =    2.279    radius for radial grids                                                     
   RDEPT  =    1.878    core radius for aug-charge                                                  
                                                                                                    
   Atomic configuration                                                                             
   16 entries                                                                                       
     n  l   j            E        occ.                                                              
     1  0  0.50    -78401.1885   2.0000                                                             
     2  0  0.50    -13770.7750   2.0000                                                             
     2  1  1.50    -11931.0468   6.0000                                                             
     3  0  0.50     -3234.7234   2.0000                                                             
     3  1  1.50     -2699.2216   6.0000                                                             
     3  2  2.50     -2119.5714  10.0000                                                             
     4  0  0.50      -695.1528   2.0000                                                             
     4  1  1.50      -519.6034   6.0000                                                             
     4  2  2.50      -306.6786  10.0000                                                             
     4  3  3.50       -70.1041  14.0000                                                             
     5  0  0.50      -101.7747   2.0000                                                             
     5  1  1.50       -55.9873   6.0000                                                             
     6  1  1.50        -6.8029   0.0000                                                             
     5  2  2.50        -6.1423   9.0000                                                             
     6  0  0.50        -5.6573   1.0000                                                             
     5  3  2.50        -1.3606   0.0000                                                             
   Description                                                                                      
     l       E           TYP  RCUT    TYP  RCUT                                                     
     1    -55.9873477     23  2.000                                                                 
     1     27.2116520     23  2.000                                                                 
     2     -6.1423404     23  2.200                                                                 
     2     -4.6754623     23  2.200                                                                 
     0     -5.6573207     23  2.200                                                                 
     0     47.6203910     23  2.200                                                                 
     3      6.8029130     23  2.200                                                                 
  local pseudopotential read in
  partial core-charges read in
  partial kinetic energy density read in
  atomic valenz-charges read in
  non local Contribution for L=           1  read in
    real space projection operators read in
  non local Contribution for L=           1  read in
    real space projection operators read in
  non local Contribution for L=           2  read in
    real space projection operators read in
  non local Contribution for L=           2  read in
    real space projection operators read in
  non local Contribution for L=           0  read in
    real space projection operators read in
  non local Contribution for L=           0  read in
    real space projection operators read in
    PAW grid and wavefunctions read in
 
   number of l-projection  operators is LMAX  =           6
   number of lm-projection operators is LMMAX =          18
 
  PAW_PBE Pt_pv 12Dec2005               :
 energy of atom  1       EATOM=-2428.2504
 kinetic energy error for atom=    0.0356 (will be added to EATOM!!)
 
 
 POSCAR: Pt
  positions in cartesian coordinates
  No initial velocities read in
 exchange correlation table for  LEXCH =        8
   RHO(1)=    0.500       N(1)  =     2000
   RHO(2)=  100.500       N(2)  =     4000
 


--------------------------------------------------------------------------------------------------------


 ion  position               nearest neighbor table
   1  0.000  0.000  0.000-
   2  0.333  0.667  0.500-
 
  LATTYP: Found a hexagonal cell.
 ALAT       =     2.7600000000
 C/A-ratio  =     1.7355072464
  
  Lattice vectors:
  
 A1 = (   2.7600000000,   0.0000000000,   0.0000000000)
 A2 = (  -1.3800000000,   2.3902301144,   0.0000000000)
 A3 = (   0.0000000000,   0.0000000000,   4.7900000000)


Analysis of symmetry for initial positions (statically):
=====================================================================
 Subroutine PRICEL returns:
 Original cell was already a primitive cell.
 

 Routine SETGRP: Setting up the symmetry group for a 
 hexagonal supercell.


 Subroutine GETGRP returns: Found 24 space group operations
 (whereof 12 operations were pure point group operations)
 out of a pool of 24 trial point group operations.


The static configuration has the point symmetry D_3h.
 The point group associated with its full space group is D_6h.


Analysis of symmetry for dynamics (positions and initial velocities):
=====================================================================
 Subroutine PRICEL returns:
 Original cell was already a primitive cell.
 

 Routine SETGRP: Setting up the symmetry group for a 
 hexagonal supercell.


 Subroutine GETGRP returns: Found 24 space group operations
 (whereof 12 operations were pure point group operations)
 out of a pool of 24 trial point group operations.


The dynamic configuration has the point symmetry D_3h.
 The point group associated with its full space group is D_6h.


 Subroutine INISYM returns: Found 24 space group operations
 (whereof 12 operations are pure point group operations),
 and found     1 'primitive' translations


----------------------------------------------------------------------------------------

                                     Primitive cell                                     

  volume of cell :      31.5998

  direct lattice vectors                    reciprocal lattice vectors
     2.760000000  0.000000000  0.000000000     0.362318841  0.209184880  0.000000000
    -1.380000000  2.390230114  0.000000000     0.000000000  0.418369760  0.000000000
     0.000000000  0.000000000  4.790000000     0.000000000  0.000000000  0.208768267

  length of vectors
     2.760000000  2.760000000  4.790000000     0.418369760  0.418369760  0.208768267

  position of ions in fractional coordinates (direct lattice)
     0.000000000  0.000000000  0.000000000
     0.333333333  0.666666667  0.500000000

  ion indices of the primitive-cell ions
   primitive index   ion index
                 1           1
                 2           2

----------------------------------------------------------------------------------------

 
 
 KPOINTS: Automatic mesh                          

Automatic generation of k-mesh.
 Grid dimensions read from file:
 generate k-points for:   10   10    8

 Generating k-lattice:

  Cartesian coordinates                     Fractional coordinates (reciprocal lattice)
     0.036231884  0.020918488  0.000000000     0.100000000  0.000000000  0.000000000
     0.000000000  0.041836976  0.000000000     0.000000000  0.100000000  0.000000000
     0.000000000  0.000000000  0.026096033     0.000000000  0.000000000  0.125000000

  Length of vectors
     0.041836976  0.041836976  0.026096033

  Shift w.r.t. Gamma in fractional coordinates (k-lattice)
     0.000000000  0.000000000  0.000000000

 
 Subroutine IBZKPT returns following result:
 ===========================================
 
 Found     70 irreducible k-points:
 
 Following reciprocal coordinates:
            Coordinates               Weight
  0.000000  0.000000  0.000000      1.000000
  0.100000 -0.000000  0.000000      6.000000
  0.200000 -0.000000  0.000000      6.000000
  0.300000  0.000000  0.000000      6.000000
  0.400000 -0.000000  0.000000      6.000000
  0.500000 -0.000000  0.000000      3.000000
  0.100000  0.100000  0.000000      6.000000
  0.200000  0.100000  0.000000     12.000000
  0.300000  0.100000  0.000000     12.000000
  0.400000  0.100000  0.000000     12.000000
  0.200000  0.200000  0.000000      6.000000
  0.300000  0.200000  0.000000     12.000000
  0.400000  0.200000  0.000000      6.000000
  0.300000  0.300000  0.000000      6.000000
  0.000000  0.000000  0.125000      2.000000
  0.100000 -0.000000  0.125000     12.000000
  0.200000 -0.000000  0.125000     12.000000
  0.300000  0.000000  0.125000     12.000000
  0.400000 -0.000000  0.125000     12.000000
  0.500000 -0.000000  0.125000      6.000000
  0.100000  0.100000  0.125000     12.000000
  0.200000  0.100000  0.125000     24.000000
  0.300000  0.100000  0.125000     24.000000
  0.400000  0.100000  0.125000     24.000000
  0.200000  0.200000  0.125000     12.000000
  0.300000  0.200000  0.125000     24.000000
  0.400000  0.200000  0.125000     12.000000
  0.300000  0.300000  0.125000     12.000000
  0.000000  0.000000  0.250000      2.000000
  0.100000 -0.000000  0.250000     12.000000
  0.200000 -0.000000  0.250000     12.000000
  0.300000  0.000000  0.250000     12.000000
  0.400000 -0.000000  0.250000     12.000000
  0.500000 -0.000000  0.250000      6.000000
  0.100000  0.100000  0.250000     12.000000
  0.200000  0.100000  0.250000     24.000000
  0.300000  0.100000  0.250000     24.000000
  0.400000  0.100000  0.250000     24.000000
  0.200000  0.200000  0.250000     12.000000
  0.300000  0.200000  0.250000     24.000000
  0.400000  0.200000  0.250000     12.000000
  0.300000  0.300000  0.250000     12.000000
  0.000000  0.000000  0.375000      2.000000
  0.100000 -0.000000  0.375000     12.000000
  0.200000 -0.000000  0.375000     12.000000
  0.300000  0.000000  0.375000     12.000000
  0.400000 -0.000000  0.375000     12.000000
  0.500000 -0.000000  0.375000      6.000000
  0.100000  0.100000  0.375000     12.000000
  0.200000  0.100000  0.375000     24.000000
  0.300000  0.100000  0.375000     24.000000
  0.400000  0.100000  0.375000     24.000000
  0.200000  0.200000  0.375000     12.000000
  0.300000  0.200000  0.375000     24.000000
  0.400000  0.200000  0.375000     12.000000
  0.300000  0.300000  0.375000     12.000000
  0.000000  0.000000  0.500000      1.000000
  0.100000 -0.000000  0.500000      6.000000
  0.200000 -0.000000  0.500000      6.000000
  0.300000  0.000000  0.500000      6.000000
  0.400000 -0.000000  0.500000      6.000000
  0.500000 -0.000000  0.500000      3.000000
  0.100000  0.100000  0.500000      6.000000
  0.200000  0.100000  0.500000     12.000000
  0.300000  0.100000  0.500000     12.000000
  0.400000  0.100000  0.500000     12.000000
  0.200000  0.200000  0.500000      6.000000
  0.300000  0.200000  0.500000     12.000000
  0.400000  0.200000  0.500000      6.000000
  0.300000  0.300000  0.500000      6.000000
 
 Following cartesian coordinates:
            Coordinates               Weight
  0.000000  0.000000  0.000000      1.000000
  0.036232  0.020918  0.000000      6.000000
  0.072464  0.041837  0.000000      6.000000
  0.108696  0.062755  0.000000      6.000000
  0.144928  0.083674  0.000000      6.000000
  0.181159  0.104592  0.000000      3.000000
  0.036232  0.062755  0.000000      6.000000
  0.072464  0.083674  0.000000     12.000000
  0.108696  0.104592  0.000000     12.000000
  0.144928  0.125511  0.000000     12.000000
  0.072464  0.125511  0.000000      6.000000
  0.108696  0.146429  0.000000     12.000000
  0.144928  0.167348  0.000000      6.000000
  0.108696  0.188266  0.000000      6.000000
  0.000000  0.000000  0.026096      2.000000
  0.036232  0.020918  0.026096     12.000000
  0.072464  0.041837  0.026096     12.000000
  0.108696  0.062755  0.026096     12.000000
  0.144928  0.083674  0.026096     12.000000
  0.181159  0.104592  0.026096      6.000000
  0.036232  0.062755  0.026096     12.000000
  0.072464  0.083674  0.026096     24.000000
  0.108696  0.104592  0.026096     24.000000
  0.144928  0.125511  0.026096     24.000000
  0.072464  0.125511  0.026096     12.000000
  0.108696  0.146429  0.026096     24.000000
  0.144928  0.167348  0.026096     12.000000
  0.108696  0.188266  0.026096     12.000000
  0.000000  0.000000  0.052192      2.000000
  0.036232  0.020918  0.052192     12.000000
  0.072464  0.041837  0.052192     12.000000
  0.108696  0.062755  0.052192     12.000000
  0.144928  0.083674  0.052192     12.000000
  0.181159  0.104592  0.052192      6.000000
  0.036232  0.062755  0.052192     12.000000
  0.072464  0.083674  0.052192     24.000000
  0.108696  0.104592  0.052192     24.000000
  0.144928  0.125511  0.052192     24.000000
  0.072464  0.125511  0.052192     12.000000
  0.108696  0.146429  0.052192     24.000000
  0.144928  0.167348  0.052192     12.000000
  0.108696  0.188266  0.052192     12.000000
  0.000000  0.000000  0.078288      2.000000
  0.036232  0.020918  0.078288     12.000000
  0.072464  0.041837  0.078288     12.000000
  0.108696  0.062755  0.078288     12.000000
  0.144928  0.083674  0.078288     12.000000
  0.181159  0.104592  0.078288      6.000000
  0.036232  0.062755  0.078288     12.000000
  0.072464  0.083674  0.078288     24.000000
  0.108696  0.104592  0.078288     24.000000
  0.144928  0.125511  0.078288     24.000000
  0.072464  0.125511  0.078288     12.000000
  0.108696  0.146429  0.078288     24.000000
  0.144928  0.167348  0.078288     12.000000
  0.108696  0.188266  0.078288     12.000000
  0.000000  0.000000  0.104384      1.000000
  0.036232  0.020918  0.104384      6.000000
  0.072464  0.041837  0.104384      6.000000
  0.108696  0.062755  0.104384      6.000000
  0.144928  0.083674  0.104384      6.000000
  0.181159  0.104592  0.104384      3.000000
  0.036232  0.062755  0.104384      6.000000
  0.072464  0.083674  0.104384     12.000000
  0.108696  0.104592  0.104384     12.000000
  0.144928  0.125511  0.104384     12.000000
  0.072464  0.125511  0.104384      6.000000
  0.108696  0.146429  0.104384     12.000000
  0.144928  0.167348  0.104384      6.000000
  0.108696  0.188266  0.104384      6.000000
 


--------------------------------------------------------------------------------------------------------




 Dimension of arrays:
   k-points           NKPTS =     70   k-points in BZ     NKDIM =     70   number of bands    NBANDS=     24
   number of dos      NEDOS =    301   number of ions     NIONS =      2
   non local maximal  LDIM  =      6   non local SUM 2l+1 LMDIM =     18
   total plane-waves  NPLWV =  14400
   max r-space proj   IRMAX =      1   max aug-charges    IRDMAX=  15713
   dimension x,y,z NGX =    20 NGY =   20 NGZ =   36
   dimension x,y,z NGXF=    40 NGYF=   40 NGZF=   72
   support grid    NGXF=    40 NGYF=   40 NGZF=   72
   ions per type =               2
   NGX,Y,Z   is equivalent  to a cutoff of  12.05, 12.05, 12.49 a.u.
   NGXF,Y,Z  is equivalent  to a cutoff of  24.09, 24.09, 24.99 a.u.

 SYSTEM =  Pt-hcc                                  
 POSCAR =  Pt                                      

 Startparameter for this run:
   NWRITE =      2    write-flag & timer
   PREC   = accura    normal or accurate (medium, high low for compatibility)
   ISTART =      0    job   : 0-new  1-cont  2-samecut
   ICHARG =      2    charge: 1-file 2-atom 10-const
   ISPIN  =      1    spin polarized calculation?
   LNONCOLLINEAR =      F non collinear calculations
   LSORBIT =      F    spin-orbit coupling
   INIWAV =      1    electr: 0-lowe 1-rand  2-diag
   LASPH  =      F    aspherical Exc in radial PAW
 Electronic Relaxation 1
   ENCUT  =  450.0 eV  33.07 Ry    5.75 a.u.   4.77  4.77  8.29*2*pi/ulx,y,z
   ENINI  =  450.0     initial cutoff
   ENAUG  =  527.0 eV  augmentation charge cutoff
   NELM   =    100;   NELMIN=  2; NELMDL= -5     # of ELM steps 
   EDIFF  = 0.1E-05   stopping-criterion for ELM
   LREAL  =      F    real-space projection
   NLSPLINE    = F    spline interpolate recip. space projectors
   LCOMPAT=      F    compatible to vasp.4.4
   GGA_COMPAT  = T    GGA compatible to vasp.4.4-vasp.4.6
   LMAXPAW     = -100 max onsite density
   LMAXMIX     =    2 max onsite mixed and CHGCAR
   VOSKOWN=      0    Vosko Wilk Nusair interpolation
   ROPT   =    0.00000
 Ionic relaxation
   EDIFFG = -.2E-01   stopping-criterion for IOM
   NSW    =      0    number of steps for IOM
   NBLOCK =      1;   KBLOCK =      1    inner block; outer block 
   IBRION =     -1    ionic relax: 0-MD 1-quasi-New 2-CG
   NFREE  =      0    steps in history (QN), initial steepest desc. (CG)
   ISIF   =      2    stress and relaxation
   IWAVPR =     10    prediction:  0-non 1-charg 2-wave 3-comb
   ISYM   =      1    0-nonsym 1-usesym 2-fastsym
   LCORR  =      T    Harris-Foulkes like correction to forces

   POTIM  = 0.5000    time-step for ionic-motion
   TEIN   =    0.0    initial temperature
   TEBEG  =    0.0;   TEEND  =   0.0 temperature during run
   SMASS  =  -3.00    Nose mass-parameter (am)
   estimated Nose-frequenzy (Omega)   =  0.10E-29 period in steps = 0.13E+47 mass=  -0.174E-27a.u.
   SCALEE = 1.0000    scale energy and forces
   NPACO  =    256;   APACO  = 10.0  distance and # of slots for P.C.
   PSTRESS=    0.0 pullay stress

  Mass of Ions in am
   POMASS = 195.08
  Ionic Valenz
   ZVAL   =  16.00
  Atomic Wigner-Seitz radii
   RWIGS  =  -1.00
  virtual crystal weights 
   VCA    =   1.00
   NELECT =      32.0000    total number of electrons
   NUPDOWN=      -1.0000    fix difference up-down

 DOS related values:
   EMIN   =  10.00;   EMAX   =-10.00  energy-range for DOS
   EFERMI =   0.00
   ISMEAR =     0;   SIGMA  =   0.05  broadening in eV -4-tet -1-fermi 0-gaus

 Electronic relaxation 2 (details)
   IALGO  =     38    algorithm
   LDIAG  =      T    sub-space diagonalisation (order eigenvalues)
   LSUBROT=      F    optimize rotation matrix (better conditioning)
   TURBO    =      0    0=normal 1=particle mesh
   IRESTART =      0    0=no restart 2=restart with 2 vectors
   NREBOOT  =      0    no. of reboots
   NMIN     =      0    reboot dimension
   EREF     =   0.00    reference energy to select bands
   IMIX   =      4    mixing-type and parameters
     AMIX     =   0.40;   BMIX     =  1.00
     AMIX_MAG =   1.60;   BMIX_MAG =  1.00
     AMIN     =   0.10
     WC   =   100.;   INIMIX=   1;  MIXPRE=   1;  MAXMIX= -45

 Intra band minimization:
   WEIMIN = 0.0000     energy-eigenvalue tresh-hold
   EBREAK =  0.10E-07  absolut break condition
   DEPER  =   0.30     relativ break condition  

   TIME   =   0.40     timestep for ELM

  volume/ion in A,a.u.               =      15.80       106.62
  Fermi-wavevector in a.u.,A,eV,Ry     =   1.643981  3.106673 36.772093  2.702673
  Thomas-Fermi vector in A             =   2.734024
 
 Write flags
   LWAVE        =      F    write WAVECAR
   LDOWNSAMPLE  =      F    k-point downsampling of WAVECAR
   LCHARG       =      F    write CHGCAR
   LVTOT        =      F    write LOCPOT, total local potential
   LVHAR        =      F    write LOCPOT, Hartree potential only
   LELF         =      F    write electronic localiz. function (ELF)
   LORBIT       =      0    0 simple, 1 ext, 2 COOP (PROOUT), +10 PAW based schemes


 Dipole corrections
   LMONO  =      F    monopole corrections only (constant potential shift)
   LDIPOL =      F    correct potential (dipole corrections)
   IDIPOL =      0    1-x, 2-y, 3-z, 4-all directions 
   EPSILON=  1.0000000 bulk dielectric constant

 Exchange correlation treatment:
   GGA     =    --    GGA type
   LEXCH   =     8    internal setting for exchange type
   LIBXC   =     F    Libxc                    
   VOSKOWN =     0    Vosko Wilk Nusair interpolation
   LHFCALC =     F    Hartree Fock is set to
   LHFONE  =     F    Hartree Fock one center treatment
   AEXX    =    0.0000 exact exchange contribution

 Linear response parameters
   LEPSILON=     F    determine dielectric tensor
   LRPA    =     F    only Hartree local field effects (RPA)
   LNABLA  =     F    use nabla operator in PAW spheres
   LVEL    =     F    velocity operator in full k-point grid
   CSHIFT  =0.1000    complex shift for real part using Kramers Kronig
   OMEGAMAX=  -1.0    maximum frequency
   DEG_THRESHOLD= 0.2000000E-02 threshold for treating states as degnerate
   RTIME   =   -0.100 relaxation time in fs
  (WPLASMAI=    0.000 imaginary part of plasma frequency in eV, 0.658/RTIME)
   DFIELD  = 0.0000000 0.0000000 0.0000000 field for delta impulse in time
 
  Optional k-point grid parameters
   LKPOINTS_OPT  =     F    use optional k-point grid
   KPOINTS_OPT_MODE=     1    mode for optional k-point grid
 
 Orbital magnetization related:
   ORBITALMAG=     F  switch on orbital magnetization
   LCHIMAG   =     F  perturbation theory with respect to B field
   DQ        =  0.001000  dq finite difference perturbation B field
   LLRAUG    =     F  two centre corrections for induced B field



--------------------------------------------------------------------------------------------------------


 Static calculation
 charge density and potential will be updated during run
 non-spin polarized calculation
 Variant of blocked Davidson
 Davidson routine will perform the subspace rotation
 perform sub-space diagonalisation
    after iterative eigenvector-optimisation
 modified Broyden-mixing scheme, WC =      100.0
 initial mixing is a Kerker type mixing with AMIX =  0.4000 and BMIX =      1.0000
 Hartree-type preconditioning will be used
 using additional bands            8
 reciprocal scheme for non local part
 use partial core corrections
 calculate Harris-corrections to forces 
   (improved forces if not selfconsistent)
 use gradient corrections 
 use of overlap-Matrix (Vanderbilt PP)
 Gauss-broadening in eV      SIGMA  =   0.05


--------------------------------------------------------------------------------------------------------


  energy-cutoff  :      450.00
  volume of cell :       31.60
      direct lattice vectors                 reciprocal lattice vectors
     2.760000000  0.000000000  0.000000000     0.362318841  0.209184880  0.000000000
    -1.380000000  2.390230114  0.000000000     0.000000000  0.418369760  0.000000000
     0.000000000  0.000000000  4.790000000     0.000000000  0.000000000  0.208768267

  length of vectors
     2.760000000  2.760000000  4.790000000     0.418369760  0.418369760  0.208768267


 
 k-points in units of 2pi/SCALE and weight: Automatic mesh                          
   0.00000000  0.00000000  0.00000000       0.001
   0.03623188  0.02091849  0.00000000       0.007
   0.07246377  0.04183698  0.00000000       0.007
   0.10869565  0.06275546  0.00000000       0.007
   0.14492754  0.08367395  0.00000000       0.007
   0.18115942  0.10459244  0.00000000       0.004
   0.03623188  0.06275546  0.00000000       0.007
   0.07246377  0.08367395  0.00000000       0.015
   0.10869565  0.10459244  0.00000000       0.015
   0.14492754  0.12551093  0.00000000       0.015
   0.07246377  0.12551093  0.00000000       0.007
   0.10869565  0.14642942  0.00000000       0.015
   0.14492754  0.16734790  0.00000000       0.007
   0.10869565  0.18826639  0.00000000       0.007
   0.00000000  0.00000000  0.02609603       0.003
   0.03623188  0.02091849  0.02609603       0.015
   0.07246377  0.04183698  0.02609603       0.015
   0.10869565  0.06275546  0.02609603       0.015
   0.14492754  0.08367395  0.02609603       0.015
   0.18115942  0.10459244  0.02609603       0.007
   0.03623188  0.06275546  0.02609603       0.015
   0.07246377  0.08367395  0.02609603       0.030
   0.10869565  0.10459244  0.02609603       0.030
   0.14492754  0.12551093  0.02609603       0.030
   0.07246377  0.12551093  0.02609603       0.015
   0.10869565  0.14642942  0.02609603       0.030
   0.14492754  0.16734790  0.02609603       0.015
   0.10869565  0.18826639  0.02609603       0.015
   0.00000000  0.00000000  0.05219207       0.003
   0.03623188  0.02091849  0.05219207       0.015
   0.07246377  0.04183698  0.05219207       0.015
   0.10869565  0.06275546  0.05219207       0.015
   0.14492754  0.08367395  0.05219207       0.015
   0.18115942  0.10459244  0.05219207       0.007
   0.03623188  0.06275546  0.05219207       0.015
   0.07246377  0.08367395  0.05219207       0.030
   0.10869565  0.10459244  0.05219207       0.030
   0.14492754  0.12551093  0.05219207       0.030
   0.07246377  0.12551093  0.05219207       0.015
   0.10869565  0.14642942  0.05219207       0.030
   0.14492754  0.16734790  0.05219207       0.015
   0.10869565  0.18826639  0.05219207       0.015
   0.00000000  0.00000000  0.07828810       0.003
   0.03623188  0.02091849  0.07828810       0.015
   0.07246377  0.04183698  0.07828810       0.015
   0.10869565  0.06275546  0.07828810       0.015
   0.14492754  0.08367395  0.07828810       0.015
   0.18115942  0.10459244  0.07828810       0.007
   0.03623188  0.06275546  0.07828810       0.015
   0.07246377  0.08367395  0.07828810       0.030
   0.10869565  0.10459244  0.07828810       0.030
   0.14492754  0.12551093  0.07828810       0.030
   0.07246377  0.12551093  0.07828810       0.015
   0.10869565  0.14642942  0.07828810       0.030
   0.14492754  0.16734790  0.07828810       0.015
   0.10869565  0.18826639  0.07828810       0.015
   0.00000000  0.00000000  0.10438413       0.001
   0.03623188  0.02091849  0.10438413       0.007
   0.07246377  0.04183698  0.10438413       0.007
   0.10869565  0.06275546  0.10438413       0.007
   0.14492754  0.08367395  0.10438413       0.007
   0.18115942  0.10459244  0.10438413       0.004
   0.03623188  0.06275546  0.10438413       0.007
   0.07246377  0.08367395  0.10438413       0.015
   0.10869565  0.10459244  0.10438413       0.015
   0.14492754  0.12551093  0.10438413       0.015
   0.07246377  0.12551093  0.10438413       0.007
   0.10869565  0.14642942  0.10438413       0.015
   0.14492754  0.16734790  0.10438413       0.007
   0.10869565  0.18826639  0.10438413       0.007
 
 k-points in reciprocal lattice and weights: Automatic mesh                          
   0.00000000  0.00000000  0.00000000       0.001
   0.10000000 -0.00000000  0.00000000       0.007
   0.20000000 -0.00000000  0.00000000       0.007
   0.30000000  0.00000000  0.00000000       0.007
   0.40000000 -0.00000000  0.00000000       0.007
   0.50000000 -0.00000000  0.00000000       0.004
   0.10000000  0.10000000  0.00000000       0.007
   0.20000000  0.10000000  0.00000000       0.015
   0.30000000  0.10000000  0.00000000       0.015
   0.40000000  0.10000000  0.00000000       0.015
   0.20000000  0.20000000  0.00000000       0.007
   0.30000000  0.20000000  0.00000000       0.015
   0.40000000  0.20000000  0.00000000       0.007
   0.30000000  0.30000000  0.00000000       0.007
   0.00000000  0.00000000  0.12500000       0.003
   0.10000000 -0.00000000  0.12500000       0.015
   0.20000000 -0.00000000  0.12500000       0.015
   0.30000000  0.00000000  0.12500000       0.015
   0.40000000 -0.00000000  0.12500000       0.015
   0.50000000 -0.00000000  0.12500000       0.007
   0.10000000  0.10000000  0.12500000       0.015
   0.20000000  0.10000000  0.12500000       0.030
   0.30000000  0.10000000  0.12500000       0.030
   0.40000000  0.10000000  0.12500000       0.030
   0.20000000  0.20000000  0.12500000       0.015
   0.30000000  0.20000000  0.12500000       0.030
   0.40000000  0.20000000  0.12500000       0.015
   0.30000000  0.30000000  0.12500000       0.015
   0.00000000  0.00000000  0.25000000       0.003
   0.10000000 -0.00000000  0.25000000       0.015
   0.20000000 -0.00000000  0.25000000       0.015
   0.30000000  0.00000000  0.25000000       0.015
   0.40000000 -0.00000000  0.25000000       0.015
   0.50000000 -0.00000000  0.25000000       0.007
   0.10000000  0.10000000  0.25000000       0.015
   0.20000000  0.10000000  0.25000000       0.030
   0.30000000  0.10000000  0.25000000       0.030
   0.40000000  0.10000000  0.25000000       0.030
   0.20000000  0.20000000  0.25000000       0.015
   0.30000000  0.20000000  0.25000000       0.030
   0.40000000  0.20000000  0.25000000       0.015
   0.30000000  0.30000000  0.25000000       0.015
   0.00000000  0.00000000  0.37500000       0.003
   0.10000000 -0.00000000  0.37500000       0.015
   0.20000000 -0.00000000  0.37500000       0.015
   0.30000000  0.00000000  0.37500000       0.015
   0.40000000 -0.00000000  0.37500000       0.015
   0.50000000 -0.00000000  0.37500000       0.007
   0.10000000  0.10000000  0.37500000       0.015
   0.20000000  0.10000000  0.37500000       0.030
   0.30000000  0.10000000  0.37500000       0.030
   0.40000000  0.10000000  0.37500000       0.030
   0.20000000  0.20000000  0.37500000       0.015
   0.30000000  0.20000000  0.37500000       0.030
   0.40000000  0.20000000  0.37500000       0.015
   0.30000000  0.30000000  0.37500000       0.015
   0.00000000  0.00000000  0.50000000       0.001
   0.10000000 -0.00000000  0.50000000       0.007
   0.20000000 -0.00000000  0.50000000       0.007
   0.30000000  0.00000000  0.50000000       0.007
   0.40000000 -0.00000000  0.50000000       0.007
   0.50000000 -0.00000000  0.50000000       0.004
   0.10000000  0.10000000  0.50000000       0.007
   0.20000000  0.10000000  0.50000000       0.015
   0.30000000  0.10000000  0.50000000       0.015
   0.40000000  0.10000000  0.50000000       0.015
   0.20000000  0.20000000  0.50000000       0.007
   0.30000000  0.20000000  0.50000000       0.015
   0.40000000  0.20000000  0.50000000       0.007
   0.30000000  0.30000000  0.50000000       0.007
 
 position of ions in fractional coordinates (direct lattice) 
   0.00000000  0.00000000  0.00000000
   0.33333333  0.66666667  0.50000000
 
 position of ions in cartesian coordinates  (Angst):
   0.00000000  0.00000000  0.00000000
   0.00000000  1.59348674  2.39500000
 


--------------------------------------------------------------------------------------------------------


 k-point   1 :   0.0000 0.0000 0.0000  plane waves:     713
 k-point   2 :   0.1000-0.0000 0.0000  plane waves:     693
 k-point   3 :   0.2000-0.0000 0.0000  plane waves:     690
 k-point   4 :   0.3000 0.0000 0.0000  plane waves:     676
 k-point   5 :   0.4000-0.0000 0.0000  plane waves:     690
 k-point   6 :   0.5000-0.0000 0.0000  plane waves:     700
 k-point   7 :   0.1000 0.1000 0.0000  plane waves:     691
 k-point   8 :   0.2000 0.1000 0.0000  plane waves:     683
 k-point   9 :   0.3000 0.1000 0.0000  plane waves:     684
 k-point  10 :   0.4000 0.1000 0.0000  plane waves:     687
 k-point  11 :   0.2000 0.2000 0.0000  plane waves:     673
 k-point  12 :   0.3000 0.2000 0.0000  plane waves:     682
 k-point  13 :   0.4000 0.2000 0.0000  plane waves:     686
 k-point  14 :   0.3000 0.3000 0.0000  plane waves:     689
 k-point  15 :   0.0000 0.0000 0.1250  plane waves:     689
 k-point  16 :   0.1000-0.0000 0.1250  plane waves:     691
 k-point  17 :   0.2000-0.0000 0.1250  plane waves:     685
 k-point  18 :   0.3000 0.0000 0.1250  plane waves:     684
 k-point  19 :   0.4000-0.0000 0.1250  plane waves:     693
 k-point  20 :   0.5000-0.0000 0.1250  plane waves:     694
 k-point  21 :   0.1000 0.1000 0.1250  plane waves:     685
 k-point  22 :   0.2000 0.1000 0.1250  plane waves:     686
 k-point  23 :   0.3000 0.1000 0.1250  plane waves:     685
 k-point  24 :   0.4000 0.1000 0.1250  plane waves:     688
 k-point  25 :   0.2000 0.2000 0.1250  plane waves:     687
 k-point  26 :   0.3000 0.2000 0.1250  plane waves:     681
 k-point  27 :   0.4000 0.2000 0.1250  plane waves:     685
 k-point  28 :   0.3000 0.3000 0.1250  plane waves:     689
 k-point  29 :   0.0000 0.0000 0.2500  plane waves:     689
 k-point  30 :   0.1000-0.0000 0.2500  plane waves:     686
 k-point  31 :   0.2000-0.0000 0.2500  plane waves:     681
 k-point  32 :   0.3000 0.0000 0.2500  plane waves:     684
 k-point  33 :   0.4000-0.0000 0.2500  plane waves:     684
 k-point  34 :   0.5000-0.0000 0.2500  plane waves:     688
 k-point  35 :   0.1000 0.1000 0.2500  plane waves:     679
 k-point  36 :   0.2000 0.1000 0.2500  plane waves:     683
 k-point  37 :   0.3000 0.1000 0.2500  plane waves:     687
 k-point  38 :   0.4000 0.1000 0.2500  plane waves:     686
 k-point  39 :   0.2000 0.2000 0.2500  plane waves:     684
 k-point  40 :   0.3000 0.2000 0.2500  plane waves:     685
 k-point  41 :   0.4000 0.2000 0.2500  plane waves:     683
 k-point  42 :   0.3000 0.3000 0.2500  plane waves:     680
 k-point  43 :   0.0000 0.0000 0.3750  plane waves:     676
 k-point  44 :   0.1000-0.0000 0.3750  plane waves:     683
 k-point  45 :   0.2000-0.0000 0.3750  plane waves:     679
 k-point  46 :   0.3000 0.0000 0.3750  plane waves:     685
 k-point  47 :   0.4000-0.0000 0.3750  plane waves:     689
 k-point  48 :   0.5000-0.0000 0.3750  plane waves:     690
 k-point  49 :   0.1000 0.1000 0.3750  plane waves:     678
 k-point  50 :   0.2000 0.1000 0.3750  plane waves:     682
 k-point  51 :   0.3000 0.1000 0.3750  plane waves:     684
 k-point  52 :   0.4000 0.1000 0.3750  plane waves:     688
 k-point  53 :   0.2000 0.2000 0.3750  plane waves:     689
 k-point  54 :   0.3000 0.2000 0.3750  plane waves:     687
 k-point  55 :   0.4000 0.2000 0.3750  plane waves:     684
 k-point  56 :   0.3000 0.3000 0.3750  plane waves:     686
 k-point  57 :   0.0000 0.0000 0.5000  plane waves:     688
 k-point  58 :   0.1000-0.0000 0.5000  plane waves:     682
 k-point  59 :   0.2000-0.0000 0.5000  plane waves:     684
 k-point  60 :   0.3000 0.0000 0.5000  plane waves:     680
 k-point  61 :   0.4000-0.0000 0.5000  plane waves:     680
 k-point  62 :   0.5000-0.0000 0.5000  plane waves:     676
 k-point  63 :   0.1000 0.1000 0.5000  plane waves:     676
 k-point  64 :   0.2000 0.1000 0.5000  plane waves:     684
 k-point  65 :   0.3000 0.1000 0.5000  plane waves:     686
 k-point  66 :   0.4000 0.1000 0.5000  plane waves:     694
 k-point  67 :   0.2000 0.2000 0.5000  plane waves:     694
 k-point  68 :   0.3000 0.2000 0.5000  plane waves:     690
 k-point  69 :   0.4000 0.2000 0.5000  plane waves:     686
 k-point  70 :   0.3000 0.3000 0.5000  plane waves:     686

 maximum and minimum number of plane-waves per node :       713      673

 maximum number of plane-waves:       713
 maximum index in each direction: 
   IXMAX=    4   IYMAX=    4   IZMAX=    8
   IXMIN=   -5   IYMIN=   -5   IZMIN=   -8


 serial   3D FFT for wavefunctions
 parallel 3D FFT for charge:
    minimum data exchange during FFTs selected (reduces bandwidth)


 total amount of memory used by VASP MPI-rank0    39289. kBytes
=======================================================================

   base      :      30000. kBytes
   nonl-proj :       7280. kBytes
   fftplans  :        254. kBytes
   grid      :        864. kBytes
   one-center:         31. kBytes
   wavefun   :        860. kBytes
 
     INWAV:  cpu time      0.0000: real time      0.0004
 Broyden mixing: mesh for mixing (old mesh)
   NGX =  9   NGY =  9   NGZ = 17
  (NGX  = 40   NGY  = 40   NGZ  = 72)
  gives a total of   1377 points

 initial charge density was supplied:
 charge density of overlapping atoms calculated
 number of electron      32.0000000 magnetization 
 keeping initial charge density in first step


--------------------------------------------------------------------------------------------------------


 Maximum index for augmentation-charges          730 (set IRDMAX)


--------------------------------------------------------------------------------------------------------


 First call to EWALD:  gamma=   0.561
 Maximum number of real-space cells 3x 3x 2
 Maximum number of reciprocal cells 2x 2x 4

    FEWALD:  cpu time      0.0015: real time      0.0015


--------------------------------------- Iteration      1(   1)  ---------------------------------------


    POTLOK:  cpu time      0.0038: real time      0.0039
    SETDIJ:  cpu time      0.0023: real time      0.0023
     EDDAV:  cpu time      0.3174: real time      0.3191
       DOS:  cpu time      0.0005: real time      0.0005
    --------------------------------------------
      LOOP:  cpu time      0.3240: real time      0.3258

 eigenvalue-minimisations  :  3384
 total energy-change (2. order) : 0.1415187E+03  (-0.2323620E+04)
 number of electron      32.0000000 magnetization 
 augmentation part       32.0000000 magnetization 

 Free energy of the ion-electron system (eV)
  ---------------------------------------------------
  alpha Z        PSCENC =       303.71314961
  Ewald energy   TEWEN  =     -4240.69024974
  -Hartree energ DENC   =      -819.48907223
  -exchange      EXHF   =         0.00000000
  -V(xc)+E(xc)   XCENC  =       127.32804754
  PAW double counting   =      4131.50523274    -4061.67189606
  entropy T*S    EENTRO =        -0.00105780
  eigenvalues    EBANDS =      -155.60515051
  atomic energy  EATOM  =      4856.42966544
  Solvation  Ediel_sol  =         0.00000000
  ---------------------------------------------------
  free energy    TOTEN  =       141.51866900 eV

  energy without entropy =      141.51972680  energy(sigma->0) =      141.51919790


--------------------------------------------------------------------------------------------------------




--------------------------------------- Iteration      1(   2)  ---------------------------------------


     EDDAV:  cpu time      0.3426: real time      0.3448
       DOS:  cpu time      0.0004: real time      0.0004
    --------------------------------------------
      LOOP:  cpu time      0.3430: real time      0.3452

 eigenvalue-minimisations  :  3576
 total energy-change (2. order) :-0.1528670E+03  (-0.1520691E+03)
 number of electron      32.0000000 magnetization 
 augmentation part       32.0000000 magnetization 

 Free energy of the ion-electron system (eV)
  ---------------------------------------------------
  alpha Z        PSCENC =       303.71314961
  Ewald energy   TEWEN  =     -4240.69024974
  -Hartree energ DENC   =      -819.48907223
  -exchange      EXHF   =         0.00000000
  -V(xc)+E(xc)   XCENC  =       127.32804754
  PAW double counting   =      4131.50523274    -4061.67189606
  entropy T*S    EENTRO =        -0.00361551
  eigenvalues    EBANDS =      -308.46956302
  atomic energy  EATOM  =      4856.42966544
  Solvation  Ediel_sol  =         0.00000000
  ---------------------------------------------------
  free energy    TOTEN  =       -11.34830122 eV

  energy without entropy =      -11.34468571  energy(sigma->0) =      -11.34649346


--------------------------------------------------------------------------------------------------------




--------------------------------------- Iteration      1(   3)  ---------------------------------------


     EDDAV:  cpu time      0.4565: real time      0.4589
       DOS:  cpu time      0.0004: real time      0.0004
    --------------------------------------------
      LOOP:  cpu time      0.4569: real time      0.4592

 eigenvalue-minimisations  :  4248
 total energy-change (2. order) :-0.1396563E+01  (-0.1391927E+01)
 number of electron      32.0000000 magnetization 
 augmentation part       32.0000000 magnetization 

 Free energy of the ion-electron system (eV)
  ---------------------------------------------------
  alpha Z        PSCENC =       303.71314961
  Ewald energy   TEWEN  =     -4240.69024974
  -Hartree energ DENC   =      -819.48907223
  -exchange      EXHF   =         0.00000000
  -V(xc)+E(xc)   XCENC  =       127.32804754
  PAW double counting   =      4131.50523274    -4061.67189606
  entropy T*S    EENTRO =        -0.00439897
  eigenvalues    EBANDS =      -309.86534282
  atomic energy  EATOM  =      4856.42966544
  Solvation  Ediel_sol  =         0.00000000
  ---------------------------------------------------
  free energy    TOTEN  =       -12.74486448 eV

  energy without entropy =      -12.74046551  energy(sigma->0) =      -12.74266499


--------------------------------------------------------------------------------------------------------




--------------------------------------- Iteration      1(   4)  ---------------------------------------


     EDDAV:  cpu time      0.6064: real time      0.6093
       DOS:  cpu time      0.0004: real time      0.0004
    --------------------------------------------
      LOOP:  cpu time      0.6068: real time      0.6097

 eigenvalue-minimisations  :  5040
 total energy-change (2. order) :-0.4911879E-02  (-0.4910871E-02)
 number of electron      32.0000000 magnetization 
 augmentation part       32.0000000 magnetization 

 Free energy of the ion-electron system (eV)
  ---------------------------------------------------
  alpha Z        PSCENC =       303.71314961
  Ewald energy   TEWEN  =     -4240.69024974
  -Hartree energ DENC   =      -819.48907223
  -exchange      EXHF   =         0.00000000
  -V(xc)+E(xc)   XCENC  =       127.32804754
  PAW double counting   =      4131.50523274    -4061.67189606
  entropy T*S    EENTRO =        -0.00441235
  eigenvalues    EBANDS =      -309.87024131
  atomic energy  EATOM  =      4856.42966544
  Solvation  Ediel_sol  =         0.00000000
  ---------------------------------------------------
  free energy    TOTEN  =       -12.74977636 eV

  energy without entropy =      -12.74536400  energy(sigma->0) =      -12.74757018


--------------------------------------------------------------------------------------------------------




--------------------------------------- Iteration      1(   5)  ---------------------------------------


     EDDAV:  cpu time      0.5155: real time      0.5180
       DOS:  cpu time      0.0004: real time      0.0004
    CHARGE:  cpu time      0.0237: real time      0.0238
    MIXING:  cpu time      0.0004: real time      0.0004
    --------------------------------------------
      LOOP:  cpu time      0.5400: real time      0.5425

 eigenvalue-minimisations  :  4512
 total energy-change (2. order) :-0.1102600E-05  (-0.1103216E-05)
 number of electron      31.9999996 magnetization 
 augmentation part        7.9531445 magnetization 

 Broyden mixing:
  rms(total) = 0.19706E+01    rms(broyden)= 0.19705E+01
  rms(prec ) = 0.21889E+01
  weight for this iteration     100.00

 Free energy of the ion-electron system (eV)
  ---------------------------------------------------
  alpha Z        PSCENC =       303.71314961
  Ewald energy   TEWEN  =     -4240.69024974
  -Hartree energ DENC   =      -819.48907223
  -exchange      EXHF   =         0.00000000
  -V(xc)+E(xc)   XCENC  =       127.32804754
  PAW double counting   =      4131.50523274    -4061.67189606
  entropy T*S    EENTRO =        -0.00441236
  eigenvalues    EBANDS =      -309.87024241
  atomic energy  EATOM  =      4856.42966544
  Solvation  Ediel_sol  =         0.00000000
  ---------------------------------------------------
  free energy    TOTEN  =       -12.74977746 eV

  energy without entropy =      -12.74536510  energy(sigma->0) =      -12.74757128


--------------------------------------------------------------------------------------------------------




--------------------------------------- Iteration      1(   6)  ---------------------------------------


    POTLOK:  cpu time      0.0035: real time      0.0037
    SETDIJ:  cpu time      0.0022: real time      0.0022
     EDDAV:  cpu time      0.3293: real time      0.3309
       DOS:  cpu time      0.0004: real time      0.0004
    CHARGE:  cpu time      0.0229: real time      0.0230
    MIXING:  cpu time      0.0003: real time      0.0003
    --------------------------------------------
      LOOP:  cpu time      0.3585: real time      0.3603

 eigenvalue-minimisations  :  3480
 total energy-change (2. order) : 0.6744689E+00  (-0.2647062E+00)
 number of electron      31.9999996 magnetization 
 augmentation part        8.1858996 magnetization 

 Broyden mixing:
  rms(total) = 0.59856E+00    rms(broyden)= 0.59854E+00
  rms(prec ) = 0.63800E+00
  weight for this iteration     100.00

 eigenvalues of (default mixing * dielectric matrix)
  average eigenvalue GAMMA=   1.4084
  1.4084

 Free energy of the ion-electron system (eV)
  ---------------------------------------------------
  alpha Z        PSCENC =       303.71314961
  Ewald energy   TEWEN  =     -4240.69024974
  -Hartree energ DENC   =      -788.34300993
  -exchange      EXHF   =         0.00000000
  -V(xc)+E(xc)   XCENC  =       125.99432640
  PAW double counting   =      4438.64883999    -4372.85199405
  entropy T*S    EENTRO =        -0.00446581
  eigenvalues    EBANDS =      -334.97157050
  atomic energy  EATOM  =      4856.42966544
  Solvation  Ediel_sol  =         0.00000000
  ---------------------------------------------------
  free energy    TOTEN  =       -12.07530859 eV

  energy without entropy =      -12.07084278  energy(sigma->0) =      -12.07307568


--------------------------------------------------------------------------------------------------------




--------------------------------------- Iteration      1(   7)  ---------------------------------------


    POTLOK:  cpu time      0.0034: real time      0.0036
    SETDIJ:  cpu time      0.0020: real time      0.0020
     EDDAV:  cpu time      0.4978: real time      0.5001
       DOS:  cpu time      0.0004: real time      0.0004
    CHARGE:  cpu time      0.0227: real time      0.0228
    MIXING:  cpu time      0.0004: real time      0.0004
    --------------------------------------------
      LOOP:  cpu time      0.5266: real time      0.5292

 eigenvalue-minimisations  :  4608
 total energy-change (2. order) : 0.3298082E-01  (-0.1448208E-01)
 number of electron      31.9999996 magnetization 
 augmentation part        8.2352933 magnetization 

 Broyden mixing:
  rms(total) = 0.18480E+00    rms(broyden)= 0.18480E+00
  rms(prec ) = 0.19647E+00
  weight for this iteration     100.00

 eigenvalues of (default mixing * dielectric matrix)
  average eigenvalue GAMMA=   1.9222
  1.1651  2.6794

 Free energy of the ion-electron system (eV)
  ---------------------------------------------------
  alpha Z        PSCENC =       303.71314961
  Ewald energy   TEWEN  =     -4240.69024974
  -Hartree energ DENC   =      -780.74258224
  -exchange      EXHF   =         0.00000000
  -V(xc)+E(xc)   XCENC  =       125.64822759
  PAW double counting   =      4560.73146068    -4495.96289039
  entropy T*S    EENTRO =        -0.00469245
  eigenvalues    EBANDS =      -341.16441627
  atomic energy  EATOM  =      4856.42966544
  Solvation  Ediel_sol  =         0.00000000
  ---------------------------------------------------
  free energy    TOTEN  =       -12.04232777 eV

  energy without entropy =      -12.03763531  energy(sigma->0) =      -12.03998154


--------------------------------------------------------------------------------------------------------




--------------------------------------- Iteration      1(   8)  ---------------------------------------


    POTLOK:  cpu time      0.0034: real time      0.0036
    SETDIJ:  cpu time      0.0020: real time      0.0020
     EDDAV:  cpu time      0.3438: real time      0.3455
       DOS:  cpu time      0.0004: real time      0.0004
    CHARGE:  cpu time      0.0225: real time      0.0226
    MIXING:  cpu time      0.0003: real time      0.0003
    --------------------------------------------
      LOOP:  cpu time      0.3724: real time      0.3743

 eigenvalue-minimisations  :  3600
 total energy-change (2. order) : 0.2272610E-02  (-0.7256995E-03)
 number of electron      31.9999996 magnetization 
 augmentation part        8.2282518 magnetization 

 Broyden mixing:
  rms(total) = 0.25442E-01    rms(broyden)= 0.25431E-01
  rms(prec ) = 0.27507E-01
  weight for this iteration     100.00

 eigenvalues of (default mixing * dielectric matrix)
  average eigenvalue GAMMA=   1.5839
  1.0909  1.2528  2.4080

 Free energy of the ion-electron system (eV)
  ---------------------------------------------------
  alpha Z        PSCENC =       303.71314961
  Ewald energy   TEWEN  =     -4240.69024974
  -Hartree energ DENC   =      -780.47971986
  -exchange      EXHF   =         0.00000000
  -V(xc)+E(xc)   XCENC  =       125.61148060
  PAW double counting   =      4633.01625369    -4568.29086593
  entropy T*S    EENTRO =        -0.00474427
  eigenvalues    EBANDS =      -341.34502471
  atomic energy  EATOM  =      4856.42966544
  Solvation  Ediel_sol  =         0.00000000
  ---------------------------------------------------
  free energy    TOTEN  =       -12.04005516 eV

  energy without entropy =      -12.03531089  energy(sigma->0) =      -12.03768302


--------------------------------------------------------------------------------------------------------




--------------------------------------- Iteration      1(   9)  ---------------------------------------


    POTLOK:  cpu time      0.0033: real time      0.0034
    SETDIJ:  cpu time      0.0019: real time      0.0019
     EDDAV:  cpu time      0.5396: real time      0.5420
       DOS:  cpu time      0.0004: real time      0.0004
    CHARGE:  cpu time      0.0231: real time      0.0232
    MIXING:  cpu time      0.0004: real time      0.0004
    --------------------------------------------
      LOOP:  cpu time      0.5686: real time      0.5713

 eigenvalue-minimisations  :  4632
 total energy-change (2. order) : 0.1721506E-03  (-0.2412512E-04)
 number of electron      31.9999996 magnetization 
 augmentation part        8.2274024 magnetization 

 Broyden mixing:
  rms(total) = 0.30590E-02    rms(broyden)= 0.30577E-02
  rms(prec ) = 0.36366E-02
  weight for this iteration     100.00

 eigenvalues of (default mixing * dielectric matrix)
  average eigenvalue GAMMA=   1.6709
  2.5276  1.0317  1.1968  1.9275

 Free energy of the ion-electron system (eV)
  ---------------------------------------------------
  alpha Z        PSCENC =       303.71314961
  Ewald energy   TEWEN  =     -4240.69024974
  -Hartree energ DENC   =      -780.76776523
  -exchange      EXHF   =         0.00000000
  -V(xc)+E(xc)   XCENC  =       125.62588985
  PAW double counting   =      4625.93853511    -4561.13958605
  entropy T*S    EENTRO =        -0.00471856
  eigenvalues    EBANDS =      -341.14480344
  atomic energy  EATOM  =      4856.42966544
  Solvation  Ediel_sol  =         0.00000000
  ---------------------------------------------------
  free energy    TOTEN  =       -12.03988301 eV

  energy without entropy =      -12.03516444  energy(sigma->0) =      -12.03752372


--------------------------------------------------------------------------------------------------------




--------------------------------------- Iteration      1(  10)  ---------------------------------------


    POTLOK:  cpu time      0.0034: real time      0.0036
    SETDIJ:  cpu time      0.0020: real time      0.0020
     EDDAV:  cpu time      0.4138: real time      0.4158
       DOS:  cpu time      0.0004: real time      0.0004
    CHARGE:  cpu time      0.0226: real time      0.0227
    MIXING:  cpu time      0.0003: real time      0.0003
    --------------------------------------------
      LOOP:  cpu time      0.4426: real time      0.4448

 eigenvalue-minimisations  :  3984
 total energy-change (2. order) :-0.1427288E-04  (-0.1054791E-05)
 number of electron      31.9999996 magnetization 
 augmentation part        8.2275591 magnetization 

 Broyden mixing:
  rms(total) = 0.10314E-02    rms(broyden)= 0.10311E-02
  rms(prec ) = 0.12061E-02
  weight for this iteration     100.00

 eigenvalues of (default mixing * dielectric matrix)
  average eigenvalue GAMMA=   1.7222
  2.6465  2.2771  0.9899  1.1943  1.5032

 Free energy of the ion-electron system (eV)
  ---------------------------------------------------
  alpha Z        PSCENC =       303.71314961
  Ewald energy   TEWEN  =     -4240.69024974
  -Hartree energ DENC   =      -780.78253254
  -exchange      EXHF   =         0.00000000
  -V(xc)+E(xc)   XCENC  =       125.62614614
  PAW double counting   =      4628.73817780    -4563.90692874
  entropy T*S    EENTRO =        -0.00471462
  eigenvalues    EBANDS =      -341.16261063
  atomic energy  EATOM  =      4856.42966544
  Solvation  Ediel_sol  =         0.00000000
  ---------------------------------------------------
  free energy    TOTEN  =       -12.03989728 eV

  energy without entropy =      -12.03518266  energy(sigma->0) =      -12.03753997


--------------------------------------------------------------------------------------------------------




--------------------------------------- Iteration      1(  11)  ---------------------------------------


    POTLOK:  cpu time      0.0033: real time      0.0035
    SETDIJ:  cpu time      0.0020: real time      0.0020
     EDDAV:  cpu time      0.4043: real time      0.4063
       DOS:  cpu time      0.0004: real time      0.0004
    --------------------------------------------
      LOOP:  cpu time      0.4100: real time      0.4122

 eigenvalue-minimisations  :  3840
 total energy-change (2. order) : 0.3812220E-06  (-0.1200186E-06)
 number of electron      31.9999996 magnetization 
 augmentation part        8.2275591 magnetization 

 Free energy of the ion-electron system (eV)
  ---------------------------------------------------
  alpha Z        PSCENC =       303.71314961
  Ewald energy   TEWEN  =     -4240.69024974
  -Hartree energ DENC   =      -780.79758060
  -exchange      EXHF   =         0.00000000
  -V(xc)+E(xc)   XCENC  =       125.62675198
  PAW double counting   =      4629.23015991    -4564.38366634
  entropy T*S    EENTRO =        -0.00471536
  eigenvalues    EBANDS =      -341.16341180
  atomic energy  EATOM  =      4856.42966544
  Solvation  Ediel_sol  =         0.00000000
  ---------------------------------------------------
  free energy    TOTEN  =       -12.03989690 eV

  energy without entropy =      -12.03518153  energy(sigma->0) =      -12.03753922


--------------------------------------------------------------------------------------------------------




 average (electrostatic) potential at core
  the test charge radii are     0.9952
  (the norm of the test charge is              1.0000)
       1 -89.4835       2 -89.4835
 
 
 
 E-fermi :  11.1241     XC(G=0): -13.6991     alpha+bet :-16.6031

 Fermi energy:        11.1240827259

 k-point     1 :       0.0000    0.0000    0.0000
  band No.  band energies     occupation 
      1     -41.4740      2.00000
      2     -41.3058      2.00000
      3     -41.3058      2.00000
      4     -41.2657      2.00000
      5     -41.2657      2.00000
      6     -41.1453      2.00000
      7       1.4206      2.00000
      8       4.0667      2.00000
      9       7.2029      2.00000
     10       7.7101      2.00000
     11       7.7101      2.00000
     12       8.0748      2.00000
     13       8.0748      2.00000
     14       9.3447      2.00000
     15       9.3447      2.00000
     16      10.4207      2.00000
     17      10.9207      2.00000
     18      10.9207      2.00000
     19      15.8071      0.00000
     20      26.2267      0.00000
     21      26.8066      0.00000
     22      28.3761      0.00000
     23      32.1699      0.00000
     24      32.1699      0.00000

 k-point     2 :       0.1000   -0.0000    0.0000
  band No.  band energies     occupation 
      1     -41.4618      2.00000
      2     -41.3413      2.00000
      3     -41.3156      2.00000
      4     -41.3024      2.00000
      5     -41.2729      2.00000
      6     -41.1477      2.00000
      7       1.7819      2.00000
      8       4.3944      2.00000
      9       7.1400      2.00000
     10       7.7171      2.00000
     11       7.9263      2.00000
     12       7.9864      2.00000
     13       8.3373      2.00000
     14       8.7601      2.00000
     15       9.1748      2.00000
     16       9.3196      2.00000
     17      10.9833      1.99993
     18      12.6791      0.00000
     19      15.7712      0.00000
     20      26.6594      0.00000
     21      27.3351      0.00000
     22      28.7040      0.00000
     23      30.5443      0.00000
     24      30.6634      0.00000

 k-point     3 :       0.2000   -0.0000    0.0000
  band No.  band energies     occupation 
      1     -41.4360      2.00000
      2     -41.4292      2.00000
      3     -41.3977      2.00000
      4     -41.3427      2.00000
      5     -41.2926      2.00000
      6     -41.1562      2.00000
      7       2.7671      2.00000
      8       5.1152      2.00000
      9       6.9159      2.00000
     10       7.3987      2.00000
     11       7.4351      2.00000
     12       8.3360      2.00000
     13       8.7672      2.00000
     14       8.7974      2.00000
     15       8.8070      2.00000
     16       9.0745      2.00000
     17      11.0819      1.76758
     18      14.8485      0.00000
     19      15.7038      0.00000
     20      25.1588      0.00000
     21      27.9566      0.00000
     22      28.2361      0.00000
     23      29.1110      0.00000
     24      29.3105      0.00000

 k-point     4 :       0.3000    0.0000    0.0000
  band No.  band energies     occupation 
      1     -41.5523      2.00000
      2     -41.5131      2.00000
      3     -41.3832      2.00000
      4     -41.3751      2.00000
      5     -41.3173      2.00000
      6     -41.1718      2.00000
      7       3.9720      2.00000
      8       5.2412      2.00000
      9       6.3467      2.00000
     10       7.1782      2.00000
     11       7.5362      2.00000
     12       8.2964      2.00000
     13       8.4081      2.00000
     14       9.4844      2.00000
     15       9.8887      2.00000
     16      10.1187      2.00000
     17      11.1348      0.76121
     18      15.8265      0.00000
     19      17.0581      0.00000
     20      21.4360      0.00000
     21      25.8545      0.00000
     22      26.4006      0.00000
     23      27.9940      0.00000
     24      29.1015      0.00000

 k-point     5 :       0.4000   -0.0000    0.0000
  band No.  band energies     occupation 
      1     -41.6472      2.00000
      2     -41.6049      2.00000
      3     -41.4011      2.00000
      4     -41.3385      2.00000
      5     -41.3376      2.00000
      6     -41.1938      2.00000
      7       4.6310      2.00000
      8       4.9274      2.00000
      9       5.6950      2.00000
     10       7.6956      2.00000
     11       7.9220      2.00000
     12       8.1306      2.00000
     13       8.3480      2.00000
     14      10.9693      1.99999
     15      11.1455      0.54539
     16      11.1459      0.53781
     17      11.3544      0.00000
     18      16.6327      0.00000
     19      17.7992      0.00000
     20      19.0215      0.00000
     21      23.5341      0.00000
     22      23.9468      0.00000
     23      25.0477      0.00000
     24      27.8261      0.00000

 k-point     6 :       0.5000   -0.0000    0.0000
  band No.  band energies     occupation 
      1     -41.6828      2.00000
      2     -41.6401      2.00000
      3     -41.4113      2.00000
      4     -41.3464      2.00000
      5     -41.3151      2.00000
      6     -41.2078      2.00000
      7       4.7220      2.00000
      8       4.7990      2.00000
      9       5.4743      2.00000
     10       7.7866      2.00000
     11       8.0312      2.00000
     12       8.2170      2.00000
     13       8.5523      2.00000
     14      11.1447      0.56046
     15      11.4243      0.00000
     16      11.6240      0.00000
     17      13.3992      0.00000
     18      14.8741      0.00000
     19      18.3936      0.00000
     20      19.9701      0.00000
     21      20.6306      0.00000
     22      23.1675      0.00000
     23      24.4013      0.00000
     24      27.2520      0.00000

 k-point     7 :       0.1000    0.1000    0.0000
  band No.  band energies     occupation 
      1     -41.4396      2.00000
      2     -41.4006      2.00000
      3     -41.3749      2.00000
      4     -41.3289      2.00000
      5     -41.2916      2.00000
      6     -41.1532      2.00000
      7       2.4636      2.00000
      8       4.9667      2.00000
      9       6.8751      2.00000
     10       7.6316      2.00000
     11       7.8003      2.00000
     12       7.9351      2.00000
     13       8.5693      2.00000
     14       8.5935      2.00000
     15       8.9244      2.00000
     16       9.2347      2.00000
     17      11.0038      1.99933
     18      14.2760      0.00000
     19      15.7215      0.00000
     20      26.5776      0.00000
     21      27.1855      0.00000
     22      28.2406      0.00000
     23      29.2634      0.00000
     24      30.0102      0.00000

 k-point     8 :       0.2000    0.1000    0.0000
  band No.  band energies     occupation 
      1     -41.4984      2.00000
      2     -41.4729      2.00000
      3     -41.3999      2.00000
      4     -41.3664      2.00000
      5     -41.3212      2.00000
      6     -41.1656      2.00000
      7       3.6331      2.00000
      8       5.5789      2.00000
      9       6.6990      2.00000
     10       6.7555      2.00000
     11       7.3604      2.00000
     12       8.0991      2.00000
     13       8.5455      2.00000
     14       8.8688      2.00000
     15       9.6248      2.00000
     16      10.0256      2.00000
     17      11.0036      1.99934
     18      15.7691      0.00000
     19      16.3594      0.00000
     20      23.3373      0.00000
     21      25.2436      0.00000
     22      27.3947      0.00000
     23      29.2922      0.00000
     24      29.9405      0.00000

 k-point     9 :       0.3000    0.1000    0.0000
  band No.  band energies     occupation 
      1     -41.6003      2.00000
      2     -41.5649      2.00000
      3     -41.4052      2.00000
      4     -41.3532      2.00000
      5     -41.3498      2.00000
      6     -41.1855      2.00000
      7       4.6893      2.00000
      8       5.3406      2.00000
      9       5.9853      2.00000
     10       7.1940      2.00000
     11       7.8017      2.00000
     12       7.8113      2.00000
     13       8.3802      2.00000
     14       9.6434      2.00000
     15      10.7049      2.00000
     16      10.9897      1.99986
     17      11.4479      0.00000
     18      16.3654      0.00000
     19      18.4882      0.00000
     20      19.5117      0.00000
     21      23.1363      0.00000
     22      25.9373      0.00000
     23      26.2414      0.00000
     24      28.2426      0.00000

 k-point    10 :       0.4000    0.1000    0.0000
  band No.  band energies     occupation 
      1     -41.6629      2.00000
      2     -41.6210      2.00000
      3     -41.4291      2.00000
      4     -41.3673      2.00000
      5     -41.3150      2.00000
      6     -41.2074      2.00000
      7       4.9955      2.00000
      8       5.0852      2.00000
      9       5.5845      2.00000
     10       7.7439      2.00000
     11       7.9818      2.00000
     12       7.9820      2.00000
     13       8.3113      2.00000
     14      10.8763      2.00000
     15      10.9720      1.99998
     16      11.2567      0.00018
     17      13.1505      0.00000
     18      16.1038      0.00000
     19      18.0504      0.00000
     20      20.1550      0.00000
     21      20.9287      0.00000
     22      23.2751      0.00000
     23      24.8694      0.00000
     24      27.1735      0.00000

 k-point    11 :       0.2000    0.2000    0.0000
  band No.  band energies     occupation 
      1     -41.5561      2.00000
      2     -41.5548      2.00000
      3     -41.4102      2.00000
      4     -41.3709      2.00000
      5     -41.3588      2.00000
      6     -41.1826      2.00000
      7       4.8431      2.00000
      8       6.1845      2.00000
      9       6.1877      2.00000
     10       6.2488      2.00000
     11       7.5751      2.00000
     12       7.6130      2.00000
     13       8.5719      2.00000
     14       8.9057      2.00000
     15      10.6893      2.00000
     16      10.8223      2.00000
     17      11.5292      0.00000
     18      16.3409      0.00000
     19      18.3652      0.00000
     20      20.9656      0.00000
     21      21.8796      0.00000
     22      26.6874      0.00000
     23      27.8878      0.00000
     24      28.3823      0.00000

 k-point    12 :       0.3000    0.2000    0.0000
  band No.  band energies     occupation 
      1     -41.6174      2.00000
      2     -41.5888      2.00000
      3     -41.4619      2.00000
      4     -41.4139      2.00000
      5     -41.3153      2.00000
      6     -41.2069      2.00000
      7       5.6254      2.00000
      8       5.8052      2.00000
      9       5.8380      2.00000
     10       6.9840      2.00000
     11       7.4674      2.00000
     12       8.0858      2.00000
     13       8.1243      2.00000
     14       9.6961      2.00000
     15      10.6835      2.00000
     16      11.1246      0.98908
     17      13.2030      0.00000
     18      17.3623      0.00000
     19      18.2858      0.00000
     20      19.9243      0.00000
     21      20.4473      0.00000
     22      24.8506      0.00000
     23      25.9008      0.00000
     24      26.8923      0.00000

 k-point    13 :       0.4000    0.2000    0.0000
  band No.  band energies     occupation 
      1     -41.6399      2.00000
      2     -41.5976      2.00000
      3     -41.4865      2.00000
      4     -41.4300      2.00000
      5     -41.2907      2.00000
      6     -41.2242      2.00000
      7       5.6707      2.00000
      8       5.6864      2.00000
      9       5.7411      2.00000
     10       7.5578      2.00000
     11       7.6073      2.00000
     12       7.7073      2.00000
     13       8.3911      2.00000
     14      10.4569      2.00000
     15      10.6328      2.00000
     16      10.9301      2.00000
     17      14.7985      0.00000
     18      15.3136      0.00000
     19      18.6241      0.00000
     20      20.1870      0.00000
     21      21.6563      0.00000
     22      22.6824      0.00000
     23      25.0996      0.00000
     24      26.3913      0.00000

 k-point    14 :       0.3000    0.3000    0.0000
  band No.  band energies     occupation 
      1     -41.6038      2.00000
      2     -41.5717      2.00000
      3     -41.5244      2.00000
      4     -41.4835      2.00000
      5     -41.2766      2.00000
      6     -41.2355      2.00000
      7       5.7651      2.00000
      8       6.1761      2.00000
      9       6.4314      2.00000
     10       6.8676      2.00000
     11       7.4188      2.00000
     12       7.6856      2.00000
     13       8.4791      2.00000
     14      10.0558      2.00000
     15      10.4658      2.00000
     16      10.7695      2.00000
     17      14.8097      0.00000
     18      16.0770      0.00000
     19      17.5003      0.00000
     20      21.0179      0.00000
     21      22.5805      0.00000
     22      23.8031      0.00000
     23      24.6199      0.00000
     24      25.0039      0.00000

 k-point    15 :       0.0000    0.0000    0.1250
  band No.  band energies     occupation 
      1     -41.4609      2.00000
      2     -41.3035      2.00000
      3     -41.3035      2.00000
      4     -41.2669      2.00000
      5     -41.2669      2.00000
      6     -41.1577      2.00000
      7       1.5541      2.00000
      8       4.0471      2.00000
      9       7.1703      2.00000
     10       7.6917      2.00000
     11       7.6917      2.00000
     12       8.0367      2.00000
     13       8.0367      2.00000
     14       9.4421      2.00000
     15       9.4421      2.00000
     16       9.8055      2.00000
     17      10.8940      2.00000
     18      10.8940      2.00000
     19      16.6724      0.00000
     20      25.7656      0.00000
     21      27.3145      0.00000
     22      28.0924      0.00000
     23      31.6195      0.00000
     24      31.6195      0.00000

 k-point    16 :       0.1000   -0.0000    0.1250
  band No.  band energies     occupation 
      1     -41.4507      2.00000
      2     -41.3389      2.00000
      3     -41.3141      2.00000
      4     -41.3045      2.00000
      5     -41.2745      2.00000
      6     -41.1591      2.00000
      7       1.9129      2.00000
      8       4.3811      2.00000
      9       7.1428      2.00000
     10       7.6323      2.00000
     11       7.8247      2.00000
     12       7.9586      2.00000
     13       8.2948      2.00000
     14       8.7058      2.00000
     15       9.2895      2.00000
     16       9.3205      2.00000
     17      10.9449      2.00000
     18      12.1422      0.00000
     19      16.7599      0.00000
     20      26.2661      0.00000
     21      27.7402      0.00000
     22      28.4761      0.00000
     23      29.9413      0.00000
     24      30.5853      0.00000

 k-point    17 :       0.2000   -0.0000    0.1250
  band No.  band energies     occupation 
      1     -41.4466      2.00000
      2     -41.4084      2.00000
      3     -41.3987      2.00000
      4     -41.3406      2.00000
      5     -41.2945      2.00000
      6     -41.1652      2.00000
      7       2.8828      2.00000
      8       5.1246      2.00000
      9       6.9474      2.00000
     10       7.1423      2.00000
     11       7.4432      2.00000
     12       8.2244      2.00000
     13       8.6100      2.00000
     14       8.9515      2.00000
     15       9.0164      2.00000
     16       9.1265      2.00000
     17      11.0220      1.99610
     18      13.6619      0.00000
     19      17.1710      0.00000
     20      25.2558      0.00000
     21      27.7395      0.00000
     22      28.3926      0.00000
     23      28.5976      0.00000
     24      29.7293      0.00000

 k-point    18 :       0.3000    0.0000    0.1250
  band No.  band energies     occupation 
      1     -41.5546      2.00000
      2     -41.5168      2.00000
      3     -41.3729      2.00000
      4     -41.3717      2.00000
      5     -41.3198      2.00000
      6     -41.1781      2.00000
      7       4.0253      2.00000
      8       5.2691      2.00000
      9       6.3270      2.00000
     10       7.0131      2.00000
     11       7.5637      2.00000
     12       8.4021      2.00000
     13       8.4692      2.00000
     14       9.5385      2.00000
     15       9.9099      2.00000
     16      10.0707      2.00000
     17      11.0649      1.90574
     18      14.7507      0.00000
     19      18.1660      0.00000
     20      21.7059      0.00000
     21      26.0937      0.00000
     22      26.1297      0.00000
     23      27.6950      0.00000
     24      29.5611      0.00000

 k-point    19 :       0.4000   -0.0000    0.1250
  band No.  band energies     occupation 
      1     -41.6482      2.00000
      2     -41.6088      2.00000
      3     -41.3988      2.00000
      4     -41.3409      2.00000
      5     -41.3293      2.00000
      6     -41.1973      2.00000
      7       4.5670      2.00000
      8       4.9350      2.00000
      9       5.8485      2.00000
     10       7.0653      2.00000
     11       8.1415      2.00000
     12       8.2150      2.00000
     13       8.8933      2.00000
     14      10.8878      2.00000
     15      10.9845      1.99992
     16      11.2436      0.00073
     17      11.2671      0.00005
     18      15.7803      0.00000
     19      17.8411      0.00000
     20      19.8378      0.00000
     21      23.2592      0.00000
     22      24.2227      0.00000
     23      25.3706      0.00000
     24      28.0477      0.00000

 k-point    20 :       0.5000   -0.0000    0.1250
  band No.  band energies     occupation 
      1     -41.6837      2.00000
      2     -41.6438      2.00000
      3     -41.4086      2.00000
      4     -41.3490      2.00000
      5     -41.3076      2.00000
      6     -41.2097      2.00000
      7       4.6443      2.00000
      8       4.7515      2.00000
      9       5.6955      2.00000
     10       7.1285      2.00000
     11       8.1207      2.00000
     12       8.2916      2.00000
     13       9.3433      2.00000
     14      10.9688      1.99999
     15      11.4441      0.00000
     16      11.6179      0.00000
     17      13.1630      0.00000
     18      14.7624      0.00000
     19      18.2545      0.00000
     20      18.9993      0.00000
     21      21.8562      0.00000
     22      23.4570      0.00000
     23      24.5338      0.00000
     24      27.5319      0.00000

 k-point    21 :       0.1000    0.1000    0.1250
  band No.  band energies     occupation 
      1     -41.4361      2.00000
      2     -41.3916      2.00000
      3     -41.3763      2.00000
      4     -41.3283      2.00000
      5     -41.2933      2.00000
      6     -41.1628      2.00000
      7       2.5864      2.00000
      8       4.9686      2.00000
      9       6.9064      2.00000
     10       7.3556      2.00000
     11       7.7128      2.00000
     12       7.9408      2.00000
     13       8.5025      2.00000
     14       8.7242      2.00000
     15       9.0144      2.00000
     16       9.3051      2.00000
     17      10.9528      2.00000
     18      13.3104      0.00000
     19      17.0160      0.00000
     20      26.5320      0.00000
     21      27.2536      0.00000
     22      28.1386      0.00000
     23      28.8114      0.00000
     24      30.2652      0.00000

 k-point    22 :       0.2000    0.1000    0.1250
  band No.  band energies     occupation 
      1     -41.5019      2.00000
      2     -41.4758      2.00000
      3     -41.3865      2.00000
      4     -41.3651      2.00000
      5     -41.3231      2.00000
      6     -41.1726      2.00000
      7       3.7238      2.00000
      8       5.6127      2.00000
      9       6.5770      2.00000
     10       6.7650      2.00000
     11       7.3317      2.00000
     12       7.9932      2.00000
     13       8.7070      2.00000
     14       8.8495      2.00000
     15       9.7350      2.00000
     16       9.9734      2.00000
     17      10.9528      2.00000
     18      14.4781      0.00000
     19      17.8174      0.00000
     20      23.5166      0.00000
     21      25.3729      0.00000
     22      27.3128      0.00000
     23      28.6919      0.00000
     24      30.5192      0.00000

 k-point    23 :       0.3000    0.1000    0.1250
  band No.  band energies     occupation 
      1     -41.6016      2.00000
      2     -41.5684      2.00000
      3     -41.4040      2.00000
      4     -41.3533      2.00000
      5     -41.3422      2.00000
      6     -41.1896      2.00000
      7       4.6732      2.00000
      8       5.3748      2.00000
      9       6.0491      2.00000
     10       6.9178      2.00000
     11       7.7718      2.00000
     12       8.1509      2.00000
     13       8.3945      2.00000
     14       9.6601      2.00000
     15      10.7470      2.00000
     16      10.8073      2.00000
     17      11.5064      0.00000
     18      15.5690      0.00000
     19      18.7526      0.00000
     20      20.2627      0.00000
     21      23.2480      0.00000
     22      25.4131      0.00000
     23      26.5917      0.00000
     24      28.4390      0.00000

 k-point    24 :       0.4000    0.1000    0.1250
  band No.  band energies     occupation 
      1     -41.6639      2.00000
      2     -41.6248      2.00000
      3     -41.4275      2.00000
      4     -41.3701      2.00000
      5     -41.3076      2.00000
      6     -41.2090      2.00000
      7       4.8734      2.00000
      8       5.0724      2.00000
      9       5.8385      2.00000
     10       7.0710      2.00000
     11       7.8584      2.00000
     12       8.4172      2.00000
     13       8.8204      2.00000
     14      10.7636      2.00000
     15      10.8799      2.00000
     16      11.2986      0.00000
[...]
      5     -41.2759      2.00000
      6     -41.2759      2.00000
      7       4.3347      2.00000
      8       4.3347      2.00000
      9       6.6374      2.00000
     10       6.6374      2.00000
     11       7.4780      2.00000
     12       7.4780      2.00000
     13       8.6150      2.00000
     14       8.6151      2.00000
     15      10.2065      2.00000
     16      10.2065      2.00000
     17      10.6836      2.00000
     18      10.6836      2.00000
     19      23.5658      0.00000
     20      23.5658      0.00000
     21      26.7043      0.00000
     22      26.7043      0.00000
     23      29.2819      0.00000
     24      29.2819      0.00000

 k-point    60 :       0.3000    0.0000    0.5000
  band No.  band energies     occupation 
      1     -41.5496      2.00000
      2     -41.5496      2.00000
      3     -41.3462      2.00000
      4     -41.3462      2.00000
      5     -41.2613      2.00000
      6     -41.2613      2.00000
      7       4.8044      2.00000
      8       4.8044      2.00000
      9       6.3259      2.00000
     10       6.3259      2.00000
     11       8.1920      2.00000
     12       8.1920      2.00000
     13       9.2459      2.00000
     14       9.2459      2.00000
     15      10.4134      2.00000
     16      10.4134      2.00000
     17      11.0464      1.97195
     18      11.0464      1.97195
     19      22.4590      0.00000
     20      22.4590      0.00000
     21      25.3490      0.00000
     22      25.3490      0.00000
     23      29.1549      0.00000
     24      29.1549      0.00000

 k-point    61 :       0.4000   -0.0000    0.5000
  band No.  band energies     occupation 
      1     -41.6418      2.00000
      2     -41.6418      2.00000
      3     -41.3696      2.00000
      4     -41.3696      2.00000
      5     -41.2493      2.00000
      6     -41.2493      2.00000
      7       4.6988      2.00000
      8       4.6988      2.00000
      9       6.0575      2.00000
     10       6.0575      2.00000
     11       9.3580      2.00000
     12       9.3580      2.00000
     13       9.7268      2.00000
     14       9.7268      2.00000
     15      11.1446      0.56153
     16      11.1446      0.56148
     17      11.7833      0.00000
     18      11.7833      0.00000
     19      19.4896      0.00000
     20      19.4896      0.00000
     21      25.2538      0.00000
     22      25.2539      0.00000
     23      27.4591      0.00000
     24      27.4591      0.00000

 k-point    62 :       0.5000   -0.0000    0.5000
  band No.  band energies     occupation 
      1     -41.6766      2.00000
      2     -41.6766      2.00000
      3     -41.3782      2.00000
      4     -41.3782      2.00000
      5     -41.2447      2.00000
      6     -41.2447      2.00000
      7       4.6078      2.00000
      8       4.6078      2.00000
      9       5.9518      2.00000
     10       5.9519      2.00000
     11       9.3418      2.00000
     12       9.3418      2.00000
     13      10.2915      2.00000
     14      10.2915      2.00000
     15      11.5396      0.00000
     16      11.5396      0.00000
     17      12.8365      0.00000
     18      12.8365      0.00000
     19      17.5835      0.00000
     20      17.5835      0.00000
     21      25.2644      0.00000
     22      25.2644      0.00000
     23      26.7283      0.00000
     24      26.7283      0.00000

 k-point    63 :       0.1000    0.1000    0.5000
  band No.  band energies     occupation 
      1     -41.4024      2.00000
      2     -41.4024      2.00000
      3     -41.3142      2.00000
      4     -41.3142      2.00000
      5     -41.2778      2.00000
      6     -41.2778      2.00000
      7       4.1223      2.00000
      8       4.1223      2.00000
      9       6.7359      2.00000
     10       6.7359      2.00000
     11       7.4075      2.00000
     12       7.4075      2.00000
     13       8.4585      2.00000
     14       8.4585      2.00000
     15      10.2058      2.00000
     16      10.2058      2.00000
     17      10.6316      2.00000
     18      10.6316      2.00000
     19      23.5463      0.00000
     20      23.5463      0.00000
     21      27.4458      0.00000
     22      27.4458      0.00000
     23      28.3904      0.00000
     24      28.3904      0.00000

 k-point    64 :       0.2000    0.1000    0.5000
  band No.  band energies     occupation 
      1     -41.5007      2.00000
      2     -41.5007      2.00000
      3     -41.3477      2.00000
      4     -41.3477      2.00000
      5     -41.2646      2.00000
      6     -41.2646      2.00000
      7       4.8976      2.00000
      8       4.8976      2.00000
      9       6.5072      2.00000
     10       6.5072      2.00000
     11       7.3396      2.00000
     12       7.3396      2.00000
     13       9.0866      2.00000
     14       9.0866      2.00000
     15      10.3922      2.00000
     16      10.3922      2.00000
     17      10.9609      2.00000
     18      10.9609      2.00000
     19      23.5051      0.00000
     20      23.5051      0.00000
     21      25.8042      0.00000
     22      25.8042      0.00000
     23      27.4786      0.00000
     24      27.4786      0.00000

 k-point    65 :       0.3000    0.1000    0.5000
  band No.  band energies     occupation 
      1     -41.5978      2.00000
      2     -41.5978      2.00000
      3     -41.3808      2.00000
      4     -41.3808      2.00000
      5     -41.2510      2.00000
      6     -41.2510      2.00000
      7       5.0142      2.00000
      8       5.0142      2.00000
      9       6.2835      2.00000
     10       6.2835      2.00000
     11       8.3193      2.00000
     12       8.3193      2.00000
     13       9.2018      2.00000
     14       9.2018      2.00000
     15      11.0218      1.99620
     16      11.0218      1.99619
     17      11.8253      0.00000
     18      11.8253      0.00000
     19      21.1101      0.00000
     20      21.1101      0.00000
     21      25.2938      0.00000
     22      25.2938      0.00000
     23      26.4009      0.00000
     24      26.4009      0.00000

 k-point    66 :       0.4000    0.1000    0.5000
  band No.  band energies     occupation 
      1     -41.6573      2.00000
      2     -41.6573      2.00000
      3     -41.4014      2.00000
      4     -41.4014      2.00000
      5     -41.2428      2.00000
      6     -41.2428      2.00000
      7       4.8774      2.00000
      8       4.8774      2.00000
      9       6.1106      2.00000
     10       6.1106      2.00000
     11       8.8081      2.00000
     12       8.8081      2.00000
     13       9.9049      2.00000
     14       9.9049      2.00000
     15      11.1138      1.22807
     16      11.1138      1.22801
     17      13.5037      0.00000
     18      13.5037      0.00000
     19      18.2210      0.00000
     20      18.2210      0.00000
     21      25.1017      0.00000
     22      25.1017      0.00000
     23      25.7786      0.00000
     24      25.7786      0.00000

 k-point    67 :       0.2000    0.2000    0.5000
  band No.  band energies     occupation 
      1     -41.5688      2.00000
      2     -41.5688      2.00000
      3     -41.3989      2.00000
      4     -41.3989      2.00000
      5     -41.2508      2.00000
      6     -41.2508      2.00000
      7       5.3788      2.00000
      8       5.3788      2.00000
      9       6.6522      2.00000
     10       6.6522      2.00000
     11       7.2301      2.00000
     12       7.2301      2.00000
     13       8.9504      2.00000
     14       8.9504      2.00000
     15      11.1169      1.16025
     16      11.1169      1.16018
     17      11.9378      0.00000
     18      11.9378      0.00000
     19      22.3429      0.00000
     20      22.3429      0.00000
     21      24.4282      0.00000
     22      24.4282      0.00000
     23      26.0685      0.00000
     24      26.0685      0.00000

 k-point    68 :       0.3000    0.2000    0.5000
  band No.  band energies     occupation 
      1     -41.6159      2.00000
      2     -41.6159      2.00000
      3     -41.4466      2.00000
      4     -41.4466      2.00000
      5     -41.2398      2.00000
      6     -41.2398      2.00000
      7       5.4613      2.00000
      8       5.4613      2.00000
      9       6.5443      2.00000
     10       6.5443      2.00000
     11       7.8348      2.00000
     12       7.8348      2.00000
     13       8.8913      2.00000
     14       8.8913      2.00000
     15      11.1861      0.07937
     16      11.1861      0.07935
     17      14.0088      0.00000
     18      14.0088      0.00000
     19      19.6631      0.00000
     20      19.6631      0.00000
     21      23.0450      0.00000
     22      23.0450      0.00000
     23      26.4838      0.00000
     24      26.4838      0.00000

 k-point    69 :       0.4000    0.2000    0.5000
  band No.  band energies     occupation 
      1     -41.6318      2.00000
      2     -41.6318      2.00000
      3     -41.4665      2.00000
      4     -41.4665      2.00000
      5     -41.2357      2.00000
      6     -41.2357      2.00000
      7       5.4541      2.00000
      8       5.4541      2.00000
      9       6.4728      2.00000
     10       6.4728      2.00000
     11       7.9236      2.00000
     12       7.9236      2.00000
     13       9.3148      2.00000
     14       9.3148      2.00000
     15      11.0452      1.97434
     16      11.0452      1.97433
     17      15.7014      0.00000
     18      15.7014      0.00000
     19      17.6858      0.00000
     20      17.6858      0.00000
     21      22.4484      0.00000
     22      22.4484      0.00000
     23      26.8944      0.00000
     24      26.8944      0.00000

 k-point    70 :       0.3000    0.3000    0.5000
  band No.  band energies     occupation 
      1     -41.5953      2.00000
      2     -41.5953      2.00000
      3     -41.5183      2.00000
      4     -41.5183      2.00000
      5     -41.2331      2.00000
      6     -41.2331      2.00000
      7       5.9115      2.00000
      8       5.9115      2.00000
      9       6.7315      2.00000
     10       6.7315      2.00000
     11       7.4915      2.00000
     12       7.4915      2.00000
     13       8.7681      2.00000
     14       8.7681      2.00000
     15      11.0296      1.99247
     16      11.0296      1.99247
     17      16.4661      0.00000
     18      16.4661      0.00000
     19      18.4165      0.00000
     20      18.4165      0.00000
     21      20.6380      0.00000
     22      20.6380      0.00000
     23      27.9608      0.00000
     24      27.9608      0.00000


--------------------------------------------------------------------------------------------------------


 soft charge-density along one line, spin component           1
         0         1         2         3         4         5         6         7         8         9
 total charge-density along one line
 
 pseudopotential strength for first ion, spin component:           1
-31.684  -0.000   0.000  10.738   0.000  -0.000  -0.000  -0.000
 -0.000 -31.619  -0.000   0.000  10.673   0.000   0.000   0.000
  0.000  -0.000 -31.684  -0.000   0.000  10.738  -0.000   0.000
 10.738   0.000  -0.000  16.249  -0.000   0.000   0.000   0.000
  0.000  10.673   0.000  -0.000  16.273  -0.000  -0.000  -0.000
 -0.000   0.000  10.738   0.000  -0.000  16.249   0.000  -0.000
 -0.000   0.000  -0.000   0.000  -0.000   0.000  -3.720   0.000
 -0.000   0.000   0.000   0.000  -0.000  -0.000   0.000  -3.675
 -0.000  -0.000   0.000   0.000   0.000  -0.000  -0.000   0.000
  0.000  -0.000   0.000  -0.000   0.000  -0.000  -0.000   0.000
 -0.000   0.000  -0.000   0.000  -0.000   0.000  -0.000   0.000
 -0.000   0.000  -0.000   0.000  -0.000   0.000  -3.950   0.000
 -0.000   0.000   0.000   0.000  -0.000  -0.000   0.000  -3.900
 -0.000  -0.000   0.000   0.000   0.000  -0.000  -0.000   0.000
  0.000  -0.000   0.000  -0.000   0.000  -0.000  -0.000   0.000
 -0.000   0.000  -0.000   0.000  -0.000   0.000  -0.000   0.000
 -0.000   0.000   0.000  -0.000   0.000   0.000  -0.000   0.000
  0.000  -0.000  -0.000   0.000  -0.000  -0.000   0.000  -0.000
 total augmentation occupancy for first ion, spin component:           1
  2.002  -0.000  -0.000  -0.021  -0.000   0.000  -0.000   0.000  -0.000   0.000   0.004   0.000   0.000   0.000   0.000  -0.004
  0.000   2.002   0.000  -0.000  -0.019   0.000   0.000   0.000   0.000   0.000  -0.000  -0.000   0.000   0.000   0.000  -0.000
 -0.000   0.000   2.002   0.000  -0.000  -0.021   0.004   0.000   0.000   0.000   0.000  -0.004   0.000  -0.000   0.000  -0.000
 -0.021   0.000   0.000   0.049   0.000   0.000  -0.000  -0.000   0.000   0.000  -0.025   0.000  -0.000  -0.000  -0.000   0.024
  0.000  -0.019   0.000   0.000   0.042   0.000   0.000  -0.000   0.000  -0.000   0.000   0.000  -0.000   0.000   0.000  -0.000
  0.000   0.000  -0.021   0.000   0.000   0.049  -0.025  -0.000  -0.000  -0.000   0.000   0.024   0.000   0.000   0.000   0.000
  0.000   0.000   0.004  -0.000  -0.000  -0.025   4.984   0.000   0.000  -0.000   0.000  -2.705   0.000  -0.000  -0.000  -0.000
  0.000   0.000  -0.000  -0.000   0.000   0.000   0.000   4.242  -0.000   0.000   0.000   0.000  -2.302   0.000  -0.000   0.000
 -0.000   0.000   0.000   0.000   0.000  -0.000   0.000  -0.000   5.033   0.000  -0.000  -0.000   0.000  -2.754  -0.000   0.000
  0.000   0.000   0.000   0.000  -0.000   0.000  -0.000   0.000   0.000   4.242   0.000   0.000   0.000   0.000  -2.302   0.000
  0.004  -0.000   0.000  -0.025   0.000   0.000   0.000  -0.000  -0.000   0.000   4.984   0.000   0.000   0.000   0.000  -2.705
 -0.000  -0.000  -0.004   0.000   0.000   0.024  -2.705   0.000  -0.000  -0.000  -0.000   2.161   0.000   0.000  -0.000   0.000
  0.000   0.000  -0.000  -0.000   0.000   0.000   0.000  -2.302   0.000   0.000  -0.000   0.000   2.207  -0.000  -0.000  -0.000
  0.000   0.000  -0.000  -0.000   0.000   0.000  -0.000  -0.000  -2.754  -0.000   0.000   0.000  -0.000   2.198   0.000  -0.000
  0.000  -0.000   0.000  -0.000   0.000   0.000  -0.000  -0.000   0.000  -2.302   0.000   0.000  -0.000   0.000   2.207  -0.000
 -0.004   0.000  -0.000   0.024   0.000   0.000  -0.000  -0.000   0.000  -0.000  -2.705   0.000   0.000  -0.000   0.000   2.161
  0.000   0.000   0.000  -0.000   0.000   0.000  -0.000  -0.000  -0.216  -0.000   0.000   0.000   0.000   0.198   0.000   0.000
 -0.000   0.000   0.000   0.000   0.000   0.000  -0.000   0.000   0.004   0.000   0.000   0.000   0.000   0.001   0.000  -0.000


------------------------ aborting loop because EDIFF is reached ----------------------------------------


    CHARGE:  cpu time      0.0226: real time      0.0227
    FORLOC:  cpu time      0.0003: real time      0.0003
    FORNL :  cpu time      0.0161: real time      0.0161
    STRESS:  cpu time      0.1776: real time      0.1782
    FORCOR:  cpu time      0.0030: real time      0.0030
    FORHAR:  cpu time      0.0006: real time      0.0006
    MIXING:  cpu time      0.0002: real time      0.0002
    OFIELD:  cpu time      0.0000: real time      0.0000

  FORCE on cell =-STRESS in cart. coord.  units (eV):
  Direction    XX          YY          ZZ          XY          YZ          ZX
  --------------------------------------------------------------------------------------
  Alpha Z   303.71315   303.71315   303.71315
  Ewald   -1374.27429 -1374.27429 -1492.14368     0.00000     0.00000    -0.00000
  Hartree   277.64387   277.64387   225.51184    -0.00000    -0.00000    -0.00000
  E(xc)    -170.75822  -170.75822  -170.99770    -0.00000    -0.00000    -0.00000
  Local     183.58348   183.58347   341.25130    -0.00002    -0.00000    -0.00000
  n-local   -59.06055   -61.46635   -62.42321   -13.16142     3.58647     3.33628
  augment   145.53142   145.53143   149.12275     0.00001    -0.00000    -0.00000
  Kinetic   697.40292   691.32602   705.48730   -16.72879     3.60500     1.04329
  Fock        0.00000     0.00000     0.00000     0.00000     0.00000     0.00000
  -------------------------------------------------------------------------------------
  Total      -0.45958    -0.45958    -0.47824     0.00000     0.00000    -0.00000
  in kB     -23.30149   -23.30149   -24.24765     0.00000     0.00000    -0.00000
  external pressure =      -23.62 kB  Pullay stress =        0.00 kB


 VOLUME and BASIS-vectors are now :
 -----------------------------------------------------------------------------
  energy-cutoff  :      450.00
  volume of cell :       31.60
      direct lattice vectors                 reciprocal lattice vectors
     2.760000000  0.000000000  0.000000000     0.362318841  0.209184880  0.000000000
    -1.380000000  2.390230114  0.000000000     0.000000000  0.418369760  0.000000000
     0.000000000  0.000000000  4.790000000     0.000000000  0.000000000  0.208768267

  length of vectors
     2.760000000  2.760000000  4.790000000     0.418369760  0.418369760  0.208768267


 FORCES acting on ions
    electron-ion (+dipol)            ewald-force                    non-local-force                 convergence-correction
 -----------------------------------------------------------------------------------------------
   0.374E-06 -.216E-06 -.286E-13   0.179E-11 -.111E-11 -.683E-13   -.243E-16 0.000E+00 0.000E+00   -.525E-08 0.303E-08 -.114E-12
   -.288E-06 0.166E-06 -.310E-11   -.176E-11 0.110E-11 0.683E-13   0.243E-16 0.000E+00 0.000E+00   0.527E-08 -.304E-08 0.241E-13
 -----------------------------------------------------------------------------------------------
   0.861E-07 -.497E-07 -.313E-11   0.219E-13 -.314E-14 0.000E+00   0.000E+00 0.000E+00 0.000E+00   0.120E-10 -.711E-11 -.902E-13
 
 
 POSITION                                       TOTAL-FORCE (eV/Angst)
 -----------------------------------------------------------------------------------
      0.00000      0.00000      0.00000         0.000000      0.000000      0.000000
      0.00000      1.59349      2.39500        -0.000000     -0.000000      0.000000
 -----------------------------------------------------------------------------------
    total drift:                                0.000000     -0.000000     -0.000000


--------------------------------------------------------------------------------------------------------



  FREE ENERGIE OF THE ION-ELECTRON SYSTEM (eV)
  ---------------------------------------------------
  free  energy   TOTEN  =       -12.03989690 eV

  energy  without entropy=      -12.03518153  energy(sigma->0) =      -12.03753922
 


--------------------------------------------------------------------------------------------------------


    POTLOK:  cpu time      0.0057: real time      0.0057


--------------------------------------------------------------------------------------------------------


     LOOP+:  cpu time      5.1819: real time      5.2126
    4ORBIT:  cpu time      0.0000: real time      0.0000

 total amount of memory used by VASP MPI-rank0    39289. kBytes
=======================================================================

   base      :      30000. kBytes
   nonl-proj :       7280. kBytes
   fftplans  :        254. kBytes
   grid      :        864. kBytes
   one-center:         31. kBytes
   wavefun   :        860. kBytes
 
  
  
 General timing and accounting informations for this job:
 ========================================================
  
                  Total CPU time used (sec):        5.974
                            User time (sec):        5.502
                          System time (sec):        0.472
                         Elapsed time (sec):        7.536
  
                   Maximum memory used (kb):      237268.
                   Average memory used (kb):          N/A
  
                          Minor page faults:        29285
                          Major page faults:           86
                 Voluntary context switches:         2217
