Pt-hcc                                  
           1
     2.760000    0.000000    0.000000
    -1.380000    2.390230    0.000000
     0.000000    0.000000    4.790000
   Pt
     2
Direct configuration=     1
   0.00000000  0.00000000  0.00000000
   0.33333333  0.66666667  0.50000000
