Co-fcc                                  
   1.00000000000000     
     0.000000    1.734555    1.734555
     1.734555    0.000000    1.734555
     1.734555    1.734555    0.000000
   Co
     1
Direct
  0.000000  0.000000  0.000000
 
   32   32   32
  98.861      96.721      90.592      81.261      69.826      57.460      45.228      33.979      24.316      16.607    
  10.979      7.3184      5.2836      4.3554      3.9433      3.7044      3.6244      3.7044      3.9433      4.3554    
  5.2836      7.3184      10.979      16.607      24.316      33.979      45.228      57.460      69.826      81.261    
  90.592      96.721      96.721      92.588      84.867      74.511      62.663      50.439      38.791      28.439    
  19.864      13.311      8.7859      6.0573      4.6855      4.1023      3.7899      3.6318      3.6318      3.7899    
  4.1023      4.6855      6.0573      8.7859      13.311      19.864      28.439      38.791      50.439      62.663    
  74.511      84.867      92.588      96.721      90.592      84.867      76.143      65.435      53.838      42.351    
  31.786      22.724      15.522      10.300      6.9394      5.0989      4.2686      3.8815      3.6526      3.5762    
  3.6526      3.8815      4.2686      5.0989      6.9394      10.300      15.522      22.724      31.786      42.351    
  53.838      65.435      76.143      84.867      90.592      92.588      81.261      74.511      65.435      55.019    
  44.246      33.970      24.854      17.345      11.669      7.8196      5.5586      4.4558      3.9711      3.6829    
  3.5385      3.5385      3.6829      3.9711      4.4558      5.5586      7.8196      11.669      17.345      24.854    
  33.970      44.246      55.019      65.435      74.511      81.261      84.867      84.867      69.826      62.663    
  53.838      44.246      34.730      25.990      18.544      12.707      8.5705      5.9991      4.6531      4.0516    
  3.7174      3.5170      3.4507      3.5170      3.7174      4.0516      4.6531      5.9991      8.5705      12.707    
  18.544      25.990      34.730      44.246      53.838      62.663      69.826      74.511      76.143      74.511    
  57.460      50.439      42.351      33.970      25.990      18.963      13.267      9.0754      6.3465      4.8312    
  4.1216      3.7506      3.5077      3.3881      3.3881      3.5077      3.7506      4.1216      4.8312      6.3465    
  9.0754      13.267      18.963      25.990      33.970      42.351      50.439      57.460      62.663      65.435    
  65.435      62.663      45.228      38.791      31.786      24.854      18.544      13.267      9.2534      6.5380    
  4.9560      4.1765      3.7776      3.5059      3.3472      3.2953      3.3472      3.5059      3.7776      4.1765    
  4.9560      6.5380      9.2534      13.267      18.544      24.854      31.786      38.791      45.228      50.439    
  53.838      55.019      53.838      50.439      33.979      28.439      22.724      17.345      12.707      9.0754    
  6.5380      5.0009      4.2072      3.7950      3.5075      3.3228      3.2339      3.2339      3.3228      3.5075    
  3.7950      4.2072      5.0009      6.5380      9.0754      12.707      17.345      22.724      28.439      33.979    
  38.791      42.351      44.246      44.246      42.351      38.791      24.316      19.864      15.522      11.669    
  8.5705      6.3465      4.9560      4.2072      3.8011      3.5091      3.3105      3.1977      3.1614      3.1977    
  3.3105      3.5091      3.8011      4.2072      4.9560      6.3465      8.5705      11.669      15.522      19.864    
  24.316      28.439      31.786      33.970      34.730      33.970      31.786      28.439      16.607      13.311    
  10.300      7.8196      5.9991      4.8312      4.1765      3.7950      3.5091      3.3067      3.1811      3.1218    
  3.1218      3.1811      3.3067      3.5091      3.7950      4.1765      4.8312      5.9991      7.8196      10.300    
  13.311      16.607      19.864      22.724      24.854      25.990      25.990      24.854      22.724      19.864    
  10.979      8.7859      6.9394      5.5586      4.6531      4.1216      3.7776      3.5075      3.3105      3.1811    
  3.1094      3.0865      3.1094      3.1811      3.3105      3.5075      3.7776      4.1216      4.6531      5.5586    
  6.9394      8.7859      10.979      13.311      15.522      17.345      18.544      18.963      18.544      17.345    
  15.522      13.311      7.3184      6.0573      5.0989      4.4558      4.0516      3.7506      3.5059      3.3228    
  3.1977      3.1218      3.0865      3.0865      3.1218      3.1977      3.3228      3.5059      3.7506      4.0516    
  4.4558      5.0989      6.0573      7.3184      8.7859      10.300      11.669      12.707      13.267      13.267    
  12.707      11.669      10.300      8.7859      5.2836      4.6855      4.2686      3.9711      3.7174      3.5077    
  3.3472      3.2339      3.1614      3.1218      3.1094      3.1218      3.1614      3.2339      3.3472      3.5077    
  3.7174      3.9711      4.2686      4.6855      5.2836      6.0573      6.9394      7.8196      8.5705      9.0754    
  9.2534      9.0754      8.5705      7.8196      6.9394      6.0573      4.3554      4.1023      3.8815      3.6829    
  3.5170      3.3881      3.2953      3.2339      3.1977      3.1811      3.1811      3.1977      3.2339      3.2953    
  3.3881      3.5170      3.6829      3.8815      4.1023      4.3554      4.6855      5.0989      5.5586      5.9991    
  6.3465      6.5380      6.5380      6.3465      5.9991      5.5586      5.0989      4.6855      3.9433      3.7899    
  3.6526      3.5385      3.4507      3.3881      3.3472      3.3228      3.3105      3.3067      3.3105      3.3228    
  3.3472      3.3881      3.4507      3.5385      3.6526      3.7899      3.9433      4.1023      4.2686      4.4558    
  4.6531      4.8312      4.9560      5.0009      4.9560      4.8312      4.6531      4.4558      4.2686      4.1023    
  3.7044      3.6318      3.5762      3.5385      3.5170      3.5077      3.5059      3.5075      3.5091      3.5091    
  3.5075      3.5059      3.5077      3.5170      3.5385      3.5762      3.6318      3.7044      3.7899      3.8815    
  3.9711      4.0516      4.1216      4.1765      4.2072      4.2072      4.1765      4.1216      4.0516      3.9711    
  3.8815      3.7899      3.6244      3.6318      3.6526      3.6829      3.7174      3.7506      3.7776      3.7950    
  3.8011      3.7950      3.7776      3.7506      3.7174      3.6829      3.6526      3.6318      3.6244      3.6318    
  3.6526      3.6829      3.7174      3.7506      3.7776      3.7950      3.8011      3.7950      3.7776      3.7506    
  3.7174      3.6829      3.6526      3.6318      3.7044      3.7899      3.8815      3.9711      4.0516      4.1216    
  4.1765      4.2072      4.2072      4.1765      4.1216      4.0516      3.9711      3.8815      3.7899      3.7044    
  3.6318      3.5762      3.5385      3.5170      3.5077      3.5059      3.5075      3.5091      3.5091      3.5075    
  3.5059      3.5077      3.5170      3.5385      3.5762      3.6318      3.9433      4.1023      4.2686      4.4558    
  4.6531      4.8312      4.9560      5.0009      4.9560      4.8312      4.6531      4.4558      4.2686      4.1023    
  3.9433      3.7899      3.6526      3.5385      3.4507      3.3881      3.3472      3.3228      3.3105      3.3067    
  3.3105      3.3228      3.3472      3.3881      3.4507      3.5385      3.6526      3.7899      4.3554      4.6855    
  5.0989      5.5586      5.9991      6.3465      6.5380      6.5380      6.3465      5.9991      5.5586      5.0989    
  4.6855      4.3554      4.1023      3.8815      3.6829      3.5170      3.3881      3.2953      3.2339      3.1977    
  3.1811      3.1811      3.1977      3.2339      3.2953      3.3881      3.5170      3.6829      3.8815      4.1023    
  5.2836      6.0573      6.9394      7.8196      8.5705      9.0754      9.2534      9.0754      8.5705      7.8196    
  6.9394      6.0573      5.2836      4.6855      4.2686      3.9711      3.7174      3.5077      3.3472      3.2339    
  3.1614      3.1218      3.1094      3.1218      3.1614      3.2339      3.3472      3.5077      3.7174      3.9711    
  4.2686      4.6855      7.3184      8.7859      10.300      11.669      12.707      13.267      13.267      12.707    
  11.669      10.300      8.7859      7.3184      6.0573      5.0989      4.4558      4.0516      3.7506      3.5059    
  3.3228      3.1977      3.1218      3.0865      3.0865      3.1218      3.1977      3.3228      3.5059      3.7506    
  4.0516      4.4558      5.0989      6.0573      10.979      13.311      15.522      17.345      18.544      18.963    
  18.544      17.345      15.522      13.311      10.979      8.7859      6.9394      5.5586      4.6531      4.1216    
  3.7776      3.5075      3.3105      3.1811      3.1094      3.0865      3.1094      3.1811      3.3105      3.5075    
  3.7776      4.1216      4.6531      5.5586      6.9394      8.7859      16.607      19.864      22.724      24.854    
  25.990      25.990      24.854      22.724      19.864      16.607      13.311      10.300      7.8196      5.9991    
  4.8312      4.1765      3.7950      3.5091      3.3067      3.1811      3.1218      3.1218      3.1811      3.3067    
  3.5091      3.7950      4.1765      4.8312      5.9991      7.8196      10.300      13.311      24.316      28.439    
  31.786      33.970      34.730      33.970      31.786      28.439      24.316      19.864      15.522      11.669    
  8.5705      6.3465      4.9560      4.2072      3.8011      3.5091      3.3105      3.1977      3.1614      3.1977    
  3.3105      3.5091      3.8011      4.2072      4.9560      6.3465      8.5705      11.669      15.522      19.864    
  33.979      38.791      42.351      44.246      44.246      42.351      38.791      33.979      28.439      22.724    
  17.345      12.707      9.0754      6.5380      5.0009      4.2072      3.7950      3.5075      3.3228      3.2339    
  3.2339      3.3228      3.5075      3.7950      4.2072      5.0009      6.5380      9.0754      12.707      17.345    
  22.724      28.439      45.228      50.439      53.838      55.019      53.838      50.439      45.228      38.791    
  31.786      24.854      18.544      13.267      9.2534      6.5380      4.9560      4.1765      3.7776      3.5059    
  3.3472      3.2953      3.3472      3.5059      3.7776      4.1765      4.9560      6.5380      9.2534      13.267    
  18.544      24.854      31.786      38.791      57.460      62.663      65.435      65.435      62.663      57.460    
  50.439      42.351      33.970      25.990      18.963      13.267      9.0754      6.3465      4.8312      4.1216    
  3.7506      3.5077      3.3881      3.3881      3.5077      3.7506      4.1216      4.8312      6.3465      9.0754    
  13.267      18.963      25.990      33.970      42.351      50.439      69.826      74.511      76.143      74.511    
  69.826      62.663      53.838      44.246      34.730      25.990      18.544      12.707      8.5705      5.9991    
  4.6531      4.0516      3.7174      3.5170      3.4507      3.5170      3.7174      4.0516      4.6531      5.9991    
  8.5705      12.707      18.544      25.990      34.730      44.246      53.838      62.663      81.261      84.867    
  84.867      81.261      74.511      65.435      55.019      44.246      33.970      24.854      17.345      11.669    
  7.8196      5.5586      4.4558      3.9711      3.6829      3.5385      3.5385      3.6829      3.9711      4.4558    
  5.5586      7.8196      11.669      17.345      24.854      33.970      44.246      55.019      65.435      74.511    
  90.592      92.588      90.592      84.867      76.143      65.435      53.838      42.351      31.786      22.724    
  15.522      10.300      6.9394      5.0989      4.2686      3.8815      3.6526      3.5762      3.6526      3.8815    
  4.2686      5.0989      6.9394      10.300      15.522      22.724      31.786      42.351      53.838      65.435    
  76.143      84.867      96.721      96.721      92.588      84.867      74.511      62.663      50.439      38.791    
  28.439      19.864      13.311      8.7859      6.0573      4.6855      4.1023      3.7899      3.6318      3.6318    
  3.7899      4.1023      4.6855      6.0573      8.7859      13.311      19.864      28.439      38.791      50.439    
  62.663      74.511      84.867      92.588      96.721      92.588      84.867      74.511      62.663      50.439    
  38.791      28.439      19.864      13.311      8.7859      6.0573      4.6855      4.1023      3.7899      3.6318    
  3.6318      3.7899      4.1023      4.6855      6.0573      8.7859      13.311      19.864      28.439      38.791    
  50.439      62.663      74.511      84.867      92.588      96.721      92.588      86.739      77.828      66.892    
  55.051      43.323      32.531      23.268      15.894      10.533      7.0713      5.1656      4.3029      3.9075    
  3.6750      3.5973      3.6750      3.9075      4.3029      5.1656      7.0713      10.533      15.894      23.268    
  32.531      43.323      55.051      66.892      77.828      86.739      92.588      94.628      84.867      77.828    
  68.365      57.509      46.282      35.567      26.047      18.185      12.217      8.1435      5.7288      4.5396    
  4.0247      3.7279      3.5787      3.5787      3.7279      4.0247      4.5396      5.7288      8.1435      12.217    
  18.185      26.047      35.567      46.282      57.509      68.365      77.828      84.867      88.630      88.630    
  74.511      66.892      57.509      47.310      37.184      27.867      19.901      13.620      9.1307      6.3056    
  4.8044      4.1348      3.7846      3.5743      3.5045      3.5743      3.7846      4.1348      4.8044      6.3056    
  9.1307      13.620      19.901      27.867      37.184      47.310      57.509      66.892      74.511      79.498    
  81.234      79.498      62.663      55.051      46.282      37.184      28.500      20.820      14.550      9.8881    
  6.8073      5.0635      4.2397      3.8385      3.5801      3.4523      3.4523      3.5801      3.8385      4.2397    
  5.0635      6.8073      9.8881      14.550      20.820      28.500      37.184      46.282      55.051      62.663    
  68.302      71.309      71.309      68.302      50.439      43.323      35.567      27.867      20.820      14.876    
  10.299      7.1489      5.2716      4.3321      3.8839      3.5914      3.4190      3.3625      3.4190      3.5914    
  3.8839      4.3321      5.2716      7.1489      10.299      14.876      20.820      27.867      35.567      43.323    
  50.439      56.194      59.947      61.252      59.947      56.194      38.791      32.531      26.047      19.901    
  14.550      10.299      7.2701      5.3876      4.3968      3.9164      3.6033      3.4000      3.3015      3.3015    
  3.4000      3.6033      3.9164      4.3968      5.3876      7.2701      10.299      14.550      19.901      26.047    
  32.531      38.791      44.215      48.222      50.354      50.354      48.222      44.215      28.439      23.268    
  18.185      13.620      9.8881      7.1489      5.3876      4.4201      3.9332      3.6121      3.3907      3.2639    
  3.2229      3.2639      3.3907      3.6121      3.9332      4.4201      5.3876      7.1489      9.8881      13.620    
  18.185      23.268      28.439      33.200      37.052      39.562      40.434      39.562      37.052      33.200    
  19.864      15.894      12.217      9.1307      6.8073      5.2716      4.3968      3.9332      3.6152      3.3871    
  3.2441      3.1762      3.1762      3.2441      3.3871      3.6152      3.9332      4.3968      5.2716      6.8073    
  9.1307      12.217      15.894      19.864      23.748      27.136      29.647      30.984      30.984      29.647    
  27.136      23.748      13.311      10.533      8.1435      6.3056      5.0635      4.3321      3.9164      3.6121    
  3.3871      3.2380      3.1548      3.1282      3.1548      3.2380      3.3871      3.6121      3.9164      4.3321    
  5.0635      6.3056      8.1435      10.533      13.311      16.217      18.941      21.169      22.628      23.136    
  22.628      21.169      18.941      16.217      8.7859      7.0713      5.7288      4.8044      4.2397      3.8839    
  3.6033      3.3907      3.2441      3.1548      3.1131      3.1131      3.1548      3.2441      3.3907      3.6033    
  3.8839      4.2397      4.8044      5.7288      7.0713      8.7859      10.732      12.703      14.463      15.785    
  16.494      16.494      15.785      14.463      12.703      10.732      6.0573      5.1656      4.5396      4.1348    
  3.8385      3.5914      3.4000      3.2639      3.1762      3.1282      3.1131      3.1282      3.1762      3.2639    
  3.4000      3.5914      3.8385      4.1348      4.5396      5.1656      6.0573      7.1782      8.4221      9.6376    
  10.659      11.339      11.578      11.339      10.659      9.6376      8.4221      7.1782      4.6855      4.3029    
  4.0247      3.7846      3.5801      3.4190      3.3015      3.2229      3.1762      3.1548      3.1548      3.1762    
  3.2229      3.3015      3.4190      3.5801      3.7846      4.0247      4.3029      4.6855      5.2122      5.8628    
  6.5679      7.2286      7.7414      8.0214      8.0214      7.7414      7.2287      6.5679      5.8628      5.2122    
  4.1023      3.9075      3.7279      3.5743      3.4523      3.3625      3.3015      3.2639      3.2441      3.2380    
  3.2441      3.2639      3.3015      3.3625      3.4523      3.5743      3.7279      3.9075      4.1023      4.3190    
  4.5896      4.9121      5.2509      5.5518      5.7594      5.8336      5.7594      5.5518      5.2509      4.9121    
  4.5896      4.3190      3.7899      3.6750      3.5787      3.5045      3.4523      3.4190      3.4000      3.3907    
  3.3871      3.3871      3.3907      3.4000      3.4190      3.4523      3.5045      3.5787      3.6750      3.7899    
  3.9163      4.0445      4.1710      4.3034      4.4329      4.5384      4.5979      4.5979      4.5384      4.4329    
  4.3034      4.1710      4.0445      3.9163      3.6318      3.5973      3.5787      3.5743      3.5801      3.5914    
  3.6033      3.6121      3.6152      3.6121      3.6033      3.5914      3.5801      3.5743      3.5787      3.5973    
  3.6318      3.6810      3.7411      3.8058      3.8685      3.9228      3.9648      3.9923      4.0021      3.9923    
  3.9648      3.9228      3.8685      3.8058      3.7411      3.6810      3.6318      3.6750      3.7279      3.7846    
  3.8385      3.8839      3.9164      3.9332      3.9332      3.9164      3.8839      3.8385      3.7846      3.7279    
  3.6750      3.6318      3.6023      3.5880      3.5874      3.5970      3.6121      3.6279      3.6405      3.6475    
  3.6475      3.6405      3.6279      3.6121      3.5970      3.5874      3.5880      3.6023      3.7899      3.9075    
  4.0247      4.1348      4.2397      4.3321      4.3968      4.4201      4.3968      4.3321      4.2397      4.1348    
  4.0247      3.9075      3.7899      3.6810      3.5880      3.5147      3.4618      3.4271      3.4067      3.3961    
  3.3914      3.3901      3.3914      3.3961      3.4067      3.4271      3.4618      3.5147      3.5880      3.6810    
  4.1023      4.3029      4.5396      4.8044      5.0635      5.2716      5.3876      5.3876      5.2716      5.0635    
  4.8044      4.5396      4.3029      4.1023      3.9163      3.7411      3.5874      3.4618      3.3663      3.2987    
  3.2547      3.2291      3.2175      3.2175      3.2291      3.2547      3.2987      3.3663      3.4618      3.5874    
  3.7411      3.9163      4.6855      5.1656      5.7288      6.3056      6.8073      7.1489      7.2701      7.1489    
  6.8073      6.3056      5.7288      5.1656      4.6855      4.3190      4.0445      3.8058      3.5970      3.4271    
  3.2987      3.2088      3.1515      3.1203      3.1105      3.1203      3.1515      3.2088      3.2987      3.4271    
  3.5970      3.8058      4.0445      4.3190      6.0573      7.0713      8.1435      9.1307      9.8881      10.299    
  10.299      9.8881      9.1307      8.1435      7.0713      6.0573      5.2122      4.5896      4.1710      3.8685    
  3.6121      3.4067      3.2547      3.1515      3.0892      3.0603      3.0603      3.0892      3.1515      3.2547    
  3.4067      3.6121      3.8685      4.1710      4.5896      5.2122      8.7859      10.533      12.217      13.620    
  14.550      14.876      14.550      13.620      12.217      10.533      8.7859      7.1782      5.8628      4.9121    
  4.3034      3.9228      3.6279      3.3961      3.2291      3.1203      3.0603      3.0413      3.0603      3.1203    
  3.2291      3.3961      3.6279      3.9228      4.3034      4.9121      5.8628      7.1782      13.311      15.894    
  18.185      19.901      20.820      20.820      19.901      18.185      15.894      13.311      10.732      8.4221    
  6.5679      5.2509      4.4329      3.9648      3.6405      3.3914      3.2175      3.1105      3.0603      3.0603    
  3.1105      3.2175      3.3914      3.6405      3.9648      4.4329      5.2509      6.5679      8.4221      10.732    
  19.864      23.268      26.047      27.867      28.500      27.867      26.047      23.268      19.864      16.217    
  12.703      9.6376      7.2286      5.5518      4.5384      3.9923      3.6475      3.3901      3.2175      3.1203    
  3.0892      3.1203      3.2175      3.3901      3.6475      3.9923      4.5384      5.5518      7.2287      9.6376    
  12.703      16.217      28.439      32.531      35.567      37.184      37.184      35.567      32.531      28.439    
  23.748      18.941      14.463      10.659      7.7414      5.7594      4.5979      4.0021      3.6475      3.3914    
  3.2291      3.1515      3.1515      3.2291      3.3914      3.6475      4.0021      4.5979      5.7594      7.7414    
  10.659      14.463      18.941      23.748      38.791      43.323      46.282      47.310      46.282      43.323    
  38.791      33.200      27.136      21.169      15.785      11.339      8.0214      5.8336      4.5979      3.9923    
  3.6405      3.3961      3.2547      3.2088      3.2547      3.3961      3.6405      3.9923      4.5979      5.8336    
  8.0214      11.339      15.785      21.169      27.136      33.200      50.439      55.051      57.509      57.509    
  55.051      50.439      44.215      37.052      29.647      22.628      16.494      11.578      8.0214      5.7594    
  4.5384      3.9648      3.6279      3.4067      3.2987      3.2987      3.4067      3.6279      3.9648      4.5384    
  5.7594      8.0214      11.578      16.494      22.628      29.647      37.052      44.215      62.663      66.892    
  68.365      66.892      62.663      56.194      48.222      39.562      30.984      23.136      16.494      11.339    
  7.7414      5.5518      4.4329      3.9228      3.6121      3.4271      3.3663      3.4271      3.6121      3.9228    
  4.4329      5.5518      7.7414      11.339      16.494      23.136      30.984      39.562      48.222      56.194    
  74.511      77.828      77.828      74.511      68.302      59.947      50.354      40.434      30.984      22.628    
  15.785      10.659      7.2287      5.2509      4.3034      3.8685      3.5970      3.4618      3.4618      3.5970    
  3.8685      4.3034      5.2509      7.2287      10.659      15.785      22.628      30.984      40.434      50.354    
  59.947      68.302      84.867      86.739      84.867      79.498      71.309      61.252      50.354      39.562    
  29.647      21.169      14.463      9.6376      6.5679      4.9121      4.1710      3.8058      3.5874      3.5147    
  3.5874      3.8058      4.1710      4.9121      6.5679      9.6376      14.463      21.169      29.647      39.562    
  50.354      61.252      71.309      79.498      92.588      92.588      88.630      81.234      71.309      59.947    
  48.222      37.052      27.136      18.941      12.703      8.4221      5.8628      4.5896      4.0445      3.7411    
  3.5880      3.5880      3.7411      4.0445      4.5896      5.8628      8.4221      12.703      18.941      27.136    
  37.052      48.222      59.947      71.309      81.234      88.630      96.721      94.628      88.630      79.498    
  68.302      56.194      44.215      33.200      23.748      16.217      10.732      7.1782      5.2122      4.3190    
  3.9163      3.6810      3.6023      3.6810      3.9163      4.3190      5.2122      7.1782      10.732      16.217    
  23.748      33.200      44.215      56.194      68.302      79.498      88.630      94.628      90.592      84.867    
  76.143      65.435      53.838      42.351      31.786      22.724      15.522      10.300      6.9394      5.0989    
  4.2686      3.8815      3.6526      3.5762      3.6526      3.8815      4.2686      5.0989      6.9394      10.300    
  15.522      22.724      31.786      42.351      53.838      65.435      76.143      84.867      90.592      92.588    
  84.867      77.828      68.365      57.509      46.282      35.567      26.047      18.185      12.217      8.1435    
  5.7288      4.5396      4.0247      3.7279      3.5787      3.5787      3.7279      4.0247      4.5396      5.7288    
  8.1435      12.217      18.185      26.047      35.567      46.282      57.509      68.365      77.828      84.867    
  88.630      88.630      76.143      68.365      58.787      48.377      38.040      28.522      20.376      13.941    
  9.3286      6.4147      4.8584      4.1637      3.8077      3.5940      3.5230      3.5940      3.8077      4.1637    
  4.8584      6.4147      9.3286      13.941      20.376      28.522      38.040      48.377      58.787      68.365    
  76.143      81.234      83.008      81.234      65.435      57.509      48.377      38.900      29.843      21.817    
  15.243      10.331      7.0609      5.1923      4.3038      3.8844      3.6180      3.4858      3.4858      3.6180    
  3.8844      4.3038      5.1923      7.0609      10.331      15.243      21.817      29.843      38.900      48.377    
  57.509      65.435      71.309      74.441      74.441      71.309      53.838      46.282      38.040      29.843    
  22.320      15.944      11.001      7.5646      5.4891      4.4377      3.9513      3.6457      3.4646      3.4051    
  3.4646      3.6457      3.9513      4.4377      5.4891      7.5646      11.001      15.944      22.320      29.843    
  38.040      46.282      53.838      59.947      63.932      65.317      63.932      59.947      42.351      35.567    
  28.522      21.817      15.944      11.237      7.8406      5.6944      4.5457      4.0027      3.6717      3.4550    
  3.3496      3.3496      3.4550      3.6717      4.0027      4.5457      5.6944      7.8406      11.237      15.944    
  21.817      28.522      35.567      42.351      48.222      52.557      54.863      54.863      52.557      48.222    
  31.786      26.047      20.376      15.243      11.001      7.8406      5.7677      4.6064      4.0357      3.6915    
  3.4525      3.3148      3.2701      3.3148      3.4525      3.6915      4.0357      4.6064      5.7677      7.8406    
  11.001      15.243      20.376      26.047      31.786      37.052      41.304      44.072      45.032      44.072    
  41.304      37.052      22.724      18.185      13.941      10.331      7.5646      5.6944      4.6064      4.0472    
  3.7022      3.4529      3.2953      3.2202      3.2202      3.2953      3.4529      3.7022      4.0472      4.6064    
  5.6944      7.5646      10.331      13.941      18.185      22.724      27.136      30.968      33.800      35.306    
  35.306      33.800      30.968      27.136      15.522      12.217      9.3286      7.0609      5.4891      4.5457    
  4.0357      3.7022      3.4533      3.2869      3.1935      3.1637      3.1935      3.2869      3.4533      3.7022    
  4.0357      4.5457      5.4891      7.0609      9.3286      12.217      15.522      18.941      22.121      24.706    
  26.393      26.980      26.393      24.706      22.121      18.941      10.300      8.1435      6.4147      5.1923    
  4.4377      4.0027      3.6915      3.4529      3.2869      3.1852      3.1376      3.1376      3.1852      3.2869    
  3.4529      3.6915      4.0027      4.4377      5.1923      6.4147      8.1435      10.300      12.703      15.105    
  17.228      18.813      19.660      19.660      18.813      17.228      15.105      12.703      6.9394      5.7288    
  4.8584      4.3038      3.9513      3.6717      3.4525      3.2953      3.1935      3.1376      3.1200      3.1376    
  3.1935      3.2953      3.4525      3.6717      3.9513      4.3038      4.8584      5.7288      6.9394      8.4221    
  10.033      11.583      12.871      13.723      14.021      13.723      12.871      11.583      10.033      8.4221    
  5.0989      4.5396      4.1637      3.8844      3.6457      3.4550      3.3148      3.2202      3.1637      3.1376    
  3.1376      3.1637      3.2202      3.3148      3.4550      3.6457      3.8844      4.1637      4.5396      5.0989    
  5.8628      6.7830      7.7571      8.6537      9.3409      9.7135      9.7135      9.3409      8.6537      7.7571    
  6.7830      5.8628      4.2686      4.0247      3.8077      3.6180      3.4646      3.3496      3.2701      3.2202    
  3.1935      3.1852      3.1935      3.2202      3.2701      3.3496      3.4646      3.6180      3.8077      4.0247    