Pt-fcc                                  
   1.00000000000000     
     0.000000    1.780964    1.780964
     1.780964    0.000000    1.780964
     1.780964    1.780964    0.000000
   Pt
     1
Direct
  0.000000  0.000000  0.000000
 
   36   36   36
  99.223      99.135      98.632      97.086      93.725      87.940      79.562      68.990      57.139      45.200    
  34.327      25.350      18.616      13.990      10.993      9.0273      7.7831      7.1072      6.8942      7.1072    
  7.7831      9.0273      10.993      13.990      18.616      25.350      34.327      45.200      57.139      68.990    
  79.562      87.940      93.725      97.086      98.632      99.135      99.135      98.838      97.802      95.313    
  90.672      83.487      73.886      62.553      50.569      39.131      29.238      21.470      15.912      12.229    
  9.8417      8.2761      7.3441      6.9139      6.9139      7.3441      8.2761      9.8417      12.229      15.912    
  21.470      29.238      39.131      50.569      62.553      73.886      83.487      90.672      95.313      97.802    
  98.838      99.135      98.632      97.802      95.796      91.945      85.752      77.135      66.539      54.871    
  43.271      32.817      24.259      17.881      13.517      10.679      8.8020      7.6150      6.9706      6.7676    
  6.9706      7.6150      8.8020      10.679      13.517      17.881      24.259      32.817      43.271      54.871    
  66.539      77.135      85.752      91.945      95.796      97.802      98.632      98.838      97.086      95.313    
  91.945      86.488      78.742      68.960      57.854      46.442      35.790      26.742      19.742      14.783    
  11.499      9.3318      7.9048      7.0569      6.6659      6.6659      7.0569      7.9048      9.3318      11.499    
  14.783      19.742      26.742      35.790      46.442      57.854      68.960      78.742      86.488      91.945    
  95.313      97.086      97.802      97.802      93.725      90.672      85.752      78.742      69.770      59.376    
  48.427      37.911      28.697      21.325      15.927      12.259      9.8314      8.1937      7.1619      6.6025    
  6.4263      6.6025      7.1619      8.1937      9.8314      12.259      15.927      21.325      28.697      37.911    
  48.427      59.376      69.770      78.742      85.752      90.672      93.725      95.313      95.796      95.313    
  87.940      83.487      77.135      68.960      59.376      49.101      39.014      29.945      22.478      16.842    
  12.904      10.265      8.4598      7.2725      6.5685      6.2441      6.2441      6.5685      7.2725      8.4598    
  10.265      12.904      16.842      22.478      29.945      39.014      49.101      59.376      68.960      77.135    
  83.487      87.940      90.672      91.945      91.945      90.672      79.562      73.886      66.539      57.854    
  48.427      39.014      30.373      23.085      17.433      13.375      10.602      8.6815      7.3753      6.5547    
  6.1099      5.9698      6.1099      6.5547      7.3753      8.6815      10.602      13.375      17.433      23.085    
  30.373      39.014      48.427      57.854      66.539      73.886      79.562      83.487      85.752      86.488    
  85.752      83.487      68.990      62.553      54.871      46.442      37.911      29.945      23.085      17.637    
  13.624      10.817      8.8406      7.4584      6.5524      6.0150      5.7669      5.7669      6.0150      6.5524    
  7.4584      8.8406      10.817      13.624      17.637      23.085      29.945      37.911      46.442      54.871    
  62.553      68.990      73.886      77.135      78.742      78.742      77.135      73.886      57.139      50.569    
  43.271      35.790      28.697      22.478      17.433      13.624      10.891      8.9237      7.5122      6.5547    
  5.9521      5.6242      5.5206      5.6242      5.9521      6.5547      7.5122      8.9237      10.891      13.624    
  17.433      22.478      28.697      35.790      43.271      50.569      57.139      62.553      66.539      68.960    
  69.770      68.960      66.539      62.553      45.200      39.131      32.817      26.742      21.325      16.842    
  13.375      10.817      8.9237      7.5308      6.5570      5.9162      5.5334      5.3556      5.3556      5.5334    
  5.9162      6.5570      7.5308      8.9237      10.817      13.375      16.842      21.325      26.742      32.817    
  39.131      45.200      50.569      54.871      57.854      59.376      59.376      57.854      54.871      50.569    
  34.327      29.238      24.259      19.742      15.927      12.904      10.602      8.8406      7.5122      6.5570    
  5.9045      5.4893      5.2609      5.1883      5.2609      5.4893      5.9045      6.5570      7.5122      8.8406    
  10.602      12.904      15.927      19.742      24.259      29.238      34.327      39.131      43.271      46.442    
  48.427      49.101      48.427      46.442      43.271      39.131      25.350      21.470      17.881      14.783    
  12.259      10.265      8.6815      7.4584      6.5547      5.9162      5.4893      5.2300      5.1081      5.1081    
  5.2300      5.4893      5.9162      6.5547      7.4584      8.6815      10.265      12.259      14.783      17.881    
  21.470      25.350      29.238      32.817      35.790      37.911      39.014      39.014      37.911      35.790    
  32.817      29.238      18.616      15.912      13.517      11.499      9.8314      8.4598      7.3753      6.5524    
  5.9521      5.5334      5.2609      5.1081      5.0589      5.1081      5.2609      5.5334      5.9521      6.5524    
  7.3754      8.4598      9.8314      11.499      13.517      15.912      18.616      21.470      24.259      26.742    
  28.697      29.945      30.373      29.945      28.697      26.742      24.259      21.470      13.990      12.229    
  10.679      9.3318      8.1937      7.2725      6.5547      6.0150      5.6242      5.3556      5.1883      5.1081    
  5.1081      5.1883      5.3556      5.6242      6.0150      6.5547      7.2725      8.1937      9.3319      10.679    
  12.229      13.990      15.912      17.881      19.742      21.325      22.478      23.085      23.085      22.478    
  21.325      19.742      17.881      15.912      10.993      9.8417      8.8020      7.9048      7.1619      6.5685    
  6.1099      5.7669      5.5206      5.3556      5.2609      5.2300      5.2609      5.3556      5.5206      5.7669    
  6.1099      6.5685      7.1619      7.9049      8.8020      9.8417      10.993      12.229      13.517      14.783    
  15.927      16.842      17.433      17.637      17.433      16.842      15.927      14.783      13.517      12.229    
  9.0273      8.2761      7.6150      7.0569      6.6025      6.2441      5.9698      5.7669      5.6242      5.5334    
  5.4893      5.4893      5.5334      5.6242      5.7669      5.9698      6.2441      6.6025      7.0569      7.6150    
  8.2761      9.0273      9.8417      10.679      11.499      12.259      12.904      13.375      13.624      13.624    
  13.375      12.904      12.259      11.499      10.679      9.8417      7.7831      7.3441      6.9706      6.6659    
  6.4263      6.2441      6.1099      6.0150      5.9521      5.9162      5.9045      5.9162      5.9521      6.0150    
  6.1099      6.2441      6.4263      6.6659      6.9706      7.3441      7.7831      8.2761      8.8020      9.3319    
  9.8314      10.265      10.602      10.817      10.891      10.817      10.602      10.265      9.8314      9.3318    
  8.8020      8.2761      7.1072      6.9139      6.7676      6.6659      6.6025      6.5685      6.5547      6.5524    
  6.5547      6.5570      6.5570      6.5547      6.5524      6.5547      6.5685      6.6025      6.6659      6.7676    
  6.9139      7.1072      7.3441      7.6150      7.9049      8.1937      8.4598      8.6815      8.8406      8.9237    
  8.9237      8.8406      8.6815      8.4598      8.1937      7.9048      7.6150      7.3441      6.8942      6.9139    
  6.9706      7.0569      7.1619      7.2725      7.3753      7.4584      7.5122      7.5308      7.5122      7.4584    
  7.3754      7.2725      7.1619      7.0569      6.9706      6.9139      6.8942      6.9139      6.9706      7.0569    
  7.1619      7.2725      7.3754      7.4584      7.5122      7.5308      7.5122      7.4584      7.3753      7.2725    
  7.1619      7.0569      6.9706      6.9139      7.1072      7.3441      7.6150      7.9048      8.1937      8.4598    
  8.6815      8.8406      8.9237      8.9237      8.8406      8.6815      8.4598      8.1937      7.9049      7.6150    
  7.3441      7.1072      6.9139      6.7676      6.6659      6.6025      6.5685      6.5547      6.5524      6.5547    
  6.5570      6.5570      6.5547      6.5524      6.5547      6.5685      6.6025      6.6659      6.7676      6.9139    
  7.7831      8.2761      8.8020      9.3318      9.8314      10.265      10.602      10.817      10.891      10.817    
  10.602      10.265      9.8314      9.3319      8.8020      8.2761      7.7831      7.3441      6.9706      6.6659    
  6.4263      6.2441      6.1099      6.0150      5.9521      5.9162      5.9045      5.9162      5.9521      6.0150    
  6.1099      6.2441      6.4263      6.6659      6.9706      7.3441      9.0273      9.8417      10.679      11.499    
  12.259      12.904      13.375      13.624      13.624      13.375      12.904      12.259      11.499      10.679    
  9.8417      9.0273      8.2761      7.6150      7.0569      6.6025      6.2441      5.9698      5.7669      5.6242    
  5.5334      5.4893      5.4893      5.5334      5.6242      5.7669      5.9698      6.2441      6.6025      7.0569    
  7.6150      8.2761      10.993      12.229      13.517      14.783      15.927      16.842      17.433      17.637    
  17.433      16.842      15.927      14.783      13.517      12.229      10.993      9.8417      8.8020      7.9049    
  7.1619      6.5685      6.1099      5.7669      5.5206      5.3556      5.2609      5.2300      5.2609      5.3556    
  5.5206      5.7669      6.1099      6.5685      7.1619      7.9048      8.8020      9.8417      13.990      15.912    
  17.881      19.742      21.325      22.478      23.085      23.085      22.478      21.325      19.742      17.881    
  15.912      13.990      12.229      10.679      9.3319      8.1937      7.2725      6.5547      6.0150      5.6242    
  5.3556      5.1883      5.1081      5.1081      5.1883      5.3556      5.6242      6.0150      6.5547      7.2725    
  8.1937      9.3318      10.679      12.229      18.616      21.470      24.259      26.742      28.697      29.945    
  30.373      29.945      28.697      26.742      24.259      21.470      18.616      15.912      13.517      11.499    
  9.8314      8.4598      7.3754      6.5524      5.9521      5.5334      5.2609      5.1081      5.0589      5.1081    
  5.2609      5.5334      5.9521      6.5524      7.3753      8.4598      9.8314      11.499      13.517      15.912    
  25.350      29.238      32.817      35.790      37.911      39.014      39.014      37.911      35.790      32.817    
  29.238      25.350      21.470      17.881      14.783      12.259      10.265      8.6815      7.4584      6.5547    
  5.9162      5.4893      5.2300      5.1081      5.1081      5.2300      5.4893      5.9162      6.5547      7.4584    
  8.6815      10.265      12.259      14.783      17.881      21.470      34.327      39.131      43.271      46.442    
  48.427      49.101      48.427      46.442      43.271      39.131      34.327      29.238      24.259      19.742    
  15.927      12.904      10.602      8.8406      7.5122      6.5570      5.9045      5.4893      5.2609      5.1883    
  5.2609      5.4893      5.9045      6.5570      7.5122      8.8406      10.602      12.904      15.927      19.742    
  24.259      29.238      45.200      50.569      54.871      57.854      59.376      59.376      57.854      54.871    
  50.569      45.200      39.131      32.817      26.742      21.325      16.842      13.375      10.817      8.9237    
  7.5308      6.5570      5.9162      5.5334      5.3556      5.3556      5.5334      5.9162      6.5570      7.5308    
  8.9237      10.817      13.375      16.842      21.325      26.742      32.817      39.131      57.139      62.553    
  66.539      68.960      69.770      68.960      66.539      62.553      57.139      50.569      43.271      35.790    
  28.697      22.478      17.433      13.624      10.891      8.9237      7.5122      6.5547      5.9521      5.6242    
  5.5206      5.6242      5.9521      6.5547      7.5122      8.9237      10.891      13.624      17.433      22.478    
  28.697      35.790      43.271      50.569      68.990      73.886      77.135      78.742      78.742      77.135    
  73.886      68.990      62.553      54.871      46.442      37.911      29.945      23.085      17.637      13.624    
  10.817      8.8406      7.4584      6.5524      6.0150      5.7669      5.7669      6.0150      6.5524      7.4584    
  8.8406      10.817      13.624      17.637      23.085      29.945      37.911      46.442      54.871      62.553    
  79.562      83.487      85.752      86.488      85.752      83.487      79.562      73.886      66.539      57.854    
  48.427      39.014      30.373      23.085      17.433      13.375      10.602      8.6815      7.3753      6.5547    
  6.1099      5.9698      6.1099      6.5547      7.3753      8.6815      10.602      13.375      17.433      23.085    
  30.373      39.014      48.427      57.854      66.539      73.886      87.940      90.672      91.945      91.945    
  90.672      87.940      83.487      77.135      68.960      59.376      49.101      39.014      29.945      22.478    
  16.842      12.904      10.265      8.4598      7.2725      6.5685      6.2441      6.2441      6.5685      7.2725    
  8.4598      10.265      12.904      16.842      22.478      29.945      39.014      49.101      59.376      68.960    
  77.135      83.487      93.725      95.313      95.796      95.313      93.725      90.672      85.752      78.742    
  69.770      59.376      48.427      37.911      28.697      21.325      15.927      12.259      9.8314      8.1937    
  7.1619      6.6025      6.4263      6.6025      7.1619      8.1937      9.8314      12.259      15.927      21.325    
  28.697      37.911      48.427      59.376      69.770      78.742      85.752      90.672      97.086      97.802    
  97.802      97.086      95.313      91.945      86.488      78.742      68.960      57.854      46.442      35.790    
  26.742      19.742      14.783      11.499      9.3318      7.9048      7.0569      6.6659      6.6659      7.0569    
  7.9048      9.3318      11.499      14.783      19.742      26.742      35.790      46.442      57.854      68.960    
  78.742      86.488      91.945      95.313      98.632      98.838      98.632      97.802      95.796      91.945    
  85.752      77.135      66.539      54.871      43.271      32.817      24.259      17.881      13.517      10.679    
  8.8020      7.6150      6.9706      6.7676      6.9706      7.6150      8.8020      10.679      13.517      17.881    
  24.259      32.817      43.271      54.871      66.539      77.135      85.752      91.945      95.796      97.802    
  99.135      99.135      98.838      97.802      95.313      90.672      83.487      73.886      62.553      50.569    
  39.131      29.238      21.470      15.912      12.229      9.8417      8.2761      7.3441      6.9139      6.9139    
  7.3441      8.2761      9.8417      12.229      15.912      21.470      29.238      39.131      50.569      62.553    
  73.886      83.487      90.672      95.313      97.802      98.838      99.135      98.838      97.802      95.313    
  90.672      83.487      73.886      62.553      50.569      39.131      29.238      21.470      15.912      12.229    
  9.8417      8.2761      7.3441      6.9139      6.9139      7.3441      8.2761      9.8417      12.229      15.912    
  21.470      29.238      39.131      50.569      62.553      73.886      83.487      90.672      95.313      97.802    
  98.838      99.135      98.838      98.078      96.173      92.433      86.336      77.779      67.194      55.485    
  43.804      33.243      24.573      18.096      13.658      10.776      8.8737      7.6705      7.0171      6.8112    
  7.0171      7.6705      8.8737      10.776      13.658      18.096      24.573      33.243      43.804      55.485    
  67.194      77.779      86.336      92.433      96.173      98.078      98.838      99.019      97.802      96.173    
  92.979      87.686      80.052      70.300      59.130      47.571      36.715      27.444      20.235      15.111    
  11.716      9.4887      8.0232      7.1517      6.7498      6.7498      7.1517      8.0232      9.4887      11.716    
  15.111      20.235      27.444      36.715      47.571      59.130      70.300      80.052      87.686      92.979    
  96.173      97.802      98.436      98.436      95.313      92.433      87.686      80.795      71.847      61.357    
  50.197      39.387      29.839      22.146      16.481      12.622      10.085      8.3813      7.3068      6.7240    
  6.5404      6.7240      7.3068      8.3813      10.085      12.622      16.481      22.146      29.839      39.387    
  50.197      61.357      71.846      80.795      87.686      92.433      95.313      96.776      97.212      96.776    
  90.672      86.336      80.052      71.847      62.104      51.540      41.064      31.553      23.654      17.646    
  13.432      10.622      8.7205      7.4683      6.7253      6.3828      6.3828      6.7253      7.4683      8.7205    
  10.622      13.432      17.646      23.654      31.553      41.064      51.540      62.104      71.847      80.052    
  86.336      90.672      93.287      94.491      94.491      93.287      83.487      77.779      70.300      61.357    
  51.540      41.635      32.446      24.619      18.495      14.076      11.068      9.0160      7.6208      6.7438    
  6.2684      6.1187      6.2684      6.7438      7.6208      9.0160      11.068      14.076      18.495      24.619    
  32.446      41.635      51.540      61.357      70.300      77.779      83.487      87.389      89.620      90.340    
  89.620      87.389      73.886      67.194      59.130      50.197      41.064      32.446      24.950      18.943    
  14.491      11.389      9.2451      7.7499      6.7695      6.1883      5.9202      5.9202      6.1883      6.7695    
  7.7499      9.2451      11.389      14.491      18.943      24.950      32.446      41.064      50.197      59.130    
  67.194      73.886      78.934      82.258      83.896      83.896      82.258      78.934      62.553      55.485    
  47.571      39.387      31.553      24.619      18.943      14.635      11.557      9.3902      7.8433      6.7942    
  6.1348      5.7768      5.6638      5.7768      6.1348      6.7942      7.8433      9.3902      11.557      14.635    
  18.943      24.619      31.553      39.387      47.571      55.485      62.553      68.338      72.572      75.134    
  75.990      75.134      72.572      68.338      50.569      43.804      36.715      29.839      23.654      18.495    
  14.491      11.557      9.4398      7.8922      6.8115      6.1022      5.6800      5.4843      5.4843      5.6800    
  6.1022      6.8115      7.8922      9.4398      11.557      14.491      18.495      23.654      29.839      36.715    
  43.804      50.569      56.518      61.261      64.539      66.208      66.208      64.539      61.261      56.518    
  39.131      33.243      27.444      22.146      17.646      14.076      11.389      9.3902      7.8922      6.8177    
  6.0867      5.6240      5.3706      5.2903      5.3706      5.6240      6.0867      6.8177      7.8922      9.3902    
  11.389      14.076      17.646      22.146      27.444      33.243      39.131      44.656      49.399      53.018    
  55.279      56.047      55.279      53.018      49.399      44.656      29.238      24.573      20.235      16.481    
  13.432      11.068      9.2451      7.8433      6.8115      6.0867      5.6056      5.3155      5.1797      5.1797    
  5.3155      5.6056      6.0867      6.8115      7.8433      9.2451      11.068      13.432      16.481      20.235    
  24.573      29.238      33.889      38.154      41.684      44.198      45.504      45.504      44.198      41.684    
  38.154      33.889      21.470      18.096      15.111      12.622      10.622      9.0160      7.7499      6.7942    
  6.1022      5.6240      5.3155      5.1438      5.0888      5.1438      5.3155      5.6240      6.1022      6.7942    
  7.7499      9.0160      10.622      12.622      15.111      18.096      21.470      25.025      28.487      31.561    
  33.975      35.514      36.043      35.514      33.975      31.561      28.487      25.025      15.912      13.658    
  11.716      10.085      8.7205      7.6208      6.7695      6.1348      5.6800      5.3706      5.1797      5.0888    
  5.0888      5.1797      5.3706      5.6800      6.1348      6.7695      7.6208      8.7205      10.085      11.716    
  13.658      15.912      18.391      20.936      23.339      25.381      26.867      27.648      27.648      26.867    
  25.381      23.339      20.936      18.391      12.229      10.776      9.4887      8.3813      7.4683      6.7438    
  6.1883      5.7768      5.4843      5.2903      5.1797      5.1438      5.1797      5.2903      5.4843      5.7768    
  6.1883      6.7438      7.4683      8.3813      9.4887      10.776      12.229      13.842      15.555      17.253    
  18.793      20.025      20.822      21.097      20.822      20.025      18.793      17.253      15.555      13.842    
  9.8417      8.8737      8.0232      7.3068      6.7253      6.2684      5.9202      5.6638      5.4843      5.3706    
  5.3155      5.3155      5.3706      5.4843      5.6638      5.9202      6.2684      6.7253      7.3068      8.0232    
  8.8737      9.8417      10.893      11.993      13.105      14.156      15.058      15.721      16.072      16.072    
  15.721      15.058      14.156      13.105      11.993      10.893      8.2761      7.6705      7.1517      6.7240    
  6.3828      6.1187      5.9202      5.7768      5.6800      5.6240      5.6056      5.6240      5.6800      5.7768    
  5.9202      6.1187      6.3828      6.7240      7.1517      7.6705      8.2761      8.9529      9.6729      10.397    
  11.082      11.688      12.170      12.480      12.587      12.480      12.170      11.688      11.082      10.397    
  9.6729      8.9529      7.3441      7.0171      6.7498      6.5404      6.3828      6.2684      6.1883      6.1348    
  6.1022      6.0867      6.0867      6.1022      6.1348      6.1883      6.2684      6.3828      6.5404      6.7498    
  7.0171      7.3441      7.7255      8.1485      8.5920      9.0288      9.4282      9.7598      9.9972      10.121    
  10.121      9.9972      9.7598      9.4282      9.0288      8.5920      8.1485      7.7255      6.9139      6.8112    
  6.7498      6.7240      6.7253      6.7438      6.7695      6.7942      6.8115      6.8177      6.8115      6.7942    
  6.7695      6.7438      6.7253      6.7240      6.7498      6.8112      6.9139      7.0589      7.2418      7.4525    
  7.6764      7.8954      8.0908      8.2447      8.3432      8.3771      8.3432      8.2447      8.0908      7.8954    
  7.6764      7.4525      7.2418      7.0589      6.9139      7.0171      7.1517      7.3068      7.4683      7.6208    
  7.7499      7.8433      7.8922      7.8922      7.8433      7.7499      7.6208      7.4683      7.3068      7.1517    
  7.0171      6.9139      6.8489      6.8235      6.8343      6.8737      6.9312      6.9953      7.0547      7.0999    
  7.1243      7.1243      7.0999      7.0547      6.9953      6.9312      6.8737      6.8343      6.8235      6.8489    
  7.3441      7.6705      8.0232      8.3813      8.7205      9.0160      9.2451      9.3902      9.4398      9.3902    
  9.2451      9.0160      8.7205      8.3813      8.0232      7.6705      7.3441      7.0589      6.8235      6.6395    
  6.5036      6.4087      6.3460      6.3071      6.2846      6.2732      6.2697      6.2732      6.2846      6.3071    
  6.3460      6.4087      6.5036      6.6395      6.8235      7.0589      8.2761      8.8737      9.4887      10.085    
  10.622      11.068      11.389      11.557      11.557      11.389      11.068      10.622      10.085      9.4887    
  8.8737      8.2761      7.7255      7.2418      6.8343      6.5036      6.2441      6.0467      5.9016      5.8001    
  5.7359      5.7047      5.7047      5.7359      5.8001      5.9016      6.0467      6.2441      6.5036      6.8343    
  7.2418      7.7255      9.8417      10.776      11.716      12.622      13.432      14.076      14.491      14.635    
  14.491      14.076      13.432      12.622      11.716      10.776      9.8417      8.9529      8.1485      7.4525    
  6.8737      6.4087      6.0467      5.7737      5.5761      5.4426      5.3655      5.3403      5.3655      5.4426    
  5.5761      5.7737      6.0467      6.4087      6.8737      7.4525      8.1485      8.9529      12.229      13.658    
  15.111      16.481      17.646      18.495      18.943      18.943      18.495      17.646      16.481      15.111    
  13.658      12.229      10.893      9.6729      8.5920      7.6764      6.9312      6.3460      5.9016      5.5761    
  5.3498      5.2074      5.1386      5.1386      5.2074      5.3498      5.5761      5.9016      6.3460      6.9312    
  7.6764      8.5920      9.6729      10.893      15.912      18.096      20.235      22.146      23.654      24.619    
  24.950      24.619      23.654      22.146      20.235      18.096      15.912      13.842      11.993      10.397    
  9.0288      7.8954      6.9953      6.3071      5.8001      5.4426      5.2074      5.0742      5.0312      5.0742    
  5.2074      5.4426      5.8001      6.3071      6.9953      7.8954      9.0288      10.397      11.993      13.842    
  21.470      24.573      27.444      29.839      31.553      32.446      32.446      31.553      29.839      27.444    
  24.573      21.470      18.391      15.555      13.105      11.082      9.4282      8.0908      7.0547      6.2846    
  5.7359      5.3655      5.1386      5.0312      5.0312      5.1386      5.3655      5.7359      6.2846      7.0547    
  8.0908      9.4282      11.082      13.105      15.555      18.391      29.238      33.243      36.715      39.387    
  41.064      41.635      41.064      39.387      36.715      33.243      29.238      25.025      20.936      17.253    
  14.156      11.688      9.7598      8.2447      7.0999      6.2732      5.7047      5.3403      5.1386      5.0742    
  5.1386      5.3403      5.7047      6.2732      7.0999      8.2447      9.7598      11.688      14.156      17.253    
  20.936      25.025      39.131      43.804      47.571      50.197      51.540      51.540      50.197      47.571    
  43.804      39.131      33.889      28.487      23.339      18.793      15.058      12.170      9.9972      8.3432    
  7.1243      6.2697      5.7047      5.3655      5.2074      5.2074      5.3655      5.7047      6.2697      7.1243    
  8.3432      9.9972      12.170      15.058      18.793      23.339      28.487      33.889      50.569      55.485    
  59.130      61.357      62.104      61.357      59.130      55.485      50.569      44.656      38.154      31.561    
  25.381      20.025      15.721      12.480      10.121      8.3771      7.1243      6.2732      5.7359      5.4426    
  5.3498      5.4426      5.7359      6.2732      7.1243      8.3771      10.121      12.480      15.721      20.025    
  25.381      31.561      38.154      44.656      62.553      67.194      70.300      71.846      71.847      70.300    
  67.194      62.553      56.518      49.399      41.684      33.975      26.867      20.822      16.072      12.587    
  10.121      8.3432      7.0999      6.2846      5.8001      5.5761      5.5761      5.8001      6.2846      7.0999    
  8.3432      10.121      12.587      16.072      20.822      26.867      33.975      41.684      49.399      56.518    
  73.886      77.779      80.052      80.795      80.052      77.779      73.886      68.338      61.261      53.018    
  44.198      35.514      27.648      21.097      16.072      12.480      9.9972      8.2447      7.0547      6.3071    
  5.9016      5.7737      5.9016      6.3071      7.0547      8.2447      9.9972      12.480      16.072      21.097    
  27.648      35.514      44.198      53.018      61.261      68.338      83.487      86.336      87.686      87.686    
  86.336      83.487      78.934      72.572      64.539      55.279      45.504      36.043      27.648      20.822    
  15.721      12.170      9.7598      8.0908      6.9953      6.3460      6.0467      6.0467      6.3460      6.9953    
  8.0908      9.7598      12.170      15.721      20.822      27.648      36.043      45.504      55.279      64.539    
  72.572      78.934      90.672      92.433      92.979      92.433      90.672      87.389      82.258      75.134    
  66.208      56.047      45.504      35.514      26.867      20.025      15.058      11.688      9.4282      7.8954    
  6.9312      6.4087      6.2441      6.4087      6.9312      7.8954      9.4282      11.688      15.058      20.025    
  26.867      35.514      45.504      56.047      66.208      75.134      82.258      87.389      95.313      96.173    