Pt-fcc                                  
   1.00000000000000     
     0.000000    1.780964    1.780964
     1.780964    0.000000    1.780964
     1.780964    1.780964    0.000000
   Pt
     1
Direct
  0.000000  0.000000  0.000000
 
   36   36   36
 0.99223362942E+02 0.99135255817E+02 0.98631885445E+02 0.97086351432E+02 0.93725238946E+02
 0.87940323269E+02 0.79561530592E+02 0.68990117046E+02 0.57138979515E+02 0.45200195849E+02
 0.34327407061E+02 0.25350234194E+02 0.18615528160E+02 0.13989860685E+02 0.10992659779E+02
 0.90272759063E+01 0.77831410736E+01 0.71072026905E+01 0.68942044457E+01 0.71072026905E+01
 0.77831410736E+01 0.90272759063E+01 0.10992659779E+02 0.13989860685E+02 0.18615528160E+02
 0.25350234194E+02 0.34327407061E+02 0.45200195849E+02 0.57138979515E+02 0.68990117046E+02
 0.79561530592E+02 0.87940323269E+02 0.93725238946E+02 0.97086351432E+02 0.98631885445E+02
 0.99135255817E+02 0.99135255817E+02 0.98837942613E+02 0.97801754159E+02 0.95313487800E+02
 0.90671765012E+02 0.83486553245E+02 0.73886328856E+02 0.62553185161E+02 0.50569171404E+02
 0.39130646411E+02 0.29237916672E+02 0.21470276142E+02 0.15912010773E+02 0.12228657854E+02
 0.98416737246E+01 0.82761124925E+01 0.73440624947E+01 0.69139439953E+01 0.69139442412E+01
 0.73440630680E+01 0.82761129914E+01 0.98416737800E+01 0.12228657371E+02 0.15912010051E+02
 0.21470275715E+02 0.29237917003E+02 0.39130647507E+02 0.50569172636E+02 0.62553185346E+02
 0.73886326694E+02 0.83486547895E+02 0.90671756569E+02 0.95313477544E+02 0.97801744211E+02
 0.98837935366E+02 0.99135253162E+02 0.98631885445E+02 0.97801754159E+02 0.95795595928E+02
 0.91945167343E+02 0.85752256366E+02 0.77134708242E+02 0.66538685306E+02 0.54870588779E+02
 0.43271291508E+02 0.32817345921E+02 0.24258977125E+02 0.17881206019E+02 0.13516769324E+02
 0.10679232088E+02 0.88020211722E+01 0.76150478070E+01 0.69706069131E+01 0.67675806007E+01
 0.69706077282E+01 0.76150488849E+01 0.88020217517E+01 0.10679231699E+02 0.13516768139E+02
 0.17881204842E+02 0.24258976952E+02 0.32817347310E+02 0.43271294006E+02 0.54870590823E+02
 0.66538684645E+02 0.77134702862E+02 0.85752245461E+02 0.91945151969E+02 0.95795578983E+02
 0.97801739598E+02 0.98631877024E+02 0.98837935366E+02 0.97086351432E+02 0.95313487800E+02
 0.91945167343E+02 0.86488291804E+02 0.78742457175E+02 0.68960166530E+02 0.57853853826E+02
 0.46441913302E+02 0.35789741992E+02 0.26742251247E+02 0.19741842476E+02 0.14783327063E+02
 0.11498859622E+02 0.93318491839E+01 0.79048483707E+01 0.70569047830E+01 0.66658760981E+01
 0.66658766631E+01 0.70569061044E+01 0.79048495575E+01 0.93318493817E+01 0.11498858586E+02
 0.14783325404E+02 0.19741841414E+02 0.26742251924E+02 0.35789744695E+02 0.46441916988E+02
 0.57853856269E+02 0.68960165094E+02 0.78742449975E+02 0.86488278714E+02 0.91945150434E+02
 0.95313470898E+02 0.97086338925E+02 0.97801739598E+02 0.97801744211E+02 0.93725238946E+02
 0.90671765012E+02 0.85752256366E+02 0.78742457175E+02 0.69770318971E+02 0.59376065470E+02
 0.48426501061E+02 0.37911322315E+02 0.28696633272E+02 0.21325146640E+02 0.15927467362E+02
 0.12259171843E+02 0.98313966887E+01 0.81937267608E+01 0.71618851279E+01 0.66024526202E+01
 0.64262710015E+01 0.66024536890E+01 0.71618865766E+01 0.81937276210E+01 0.98313963129E+01
 0.12259170355E+02 0.15927465698E+02 0.21325146114E+02 0.28696634847E+02 0.37911325936E+02
 0.48426505417E+02 0.59376068342E+02 0.69770318129E+02 0.78742451371E+02 0.85752246087E+02
 0.90671752561E+02 0.93725227722E+02 0.95313470898E+02 0.95795578983E+02 0.95313477544E+02
 0.87940323269E+02 0.83486553245E+02 0.77134708242E+02 0.68960166530E+02 0.59376065470E+02
 0.49101282584E+02 0.39014300208E+02 0.29944559532E+02 0.22477694374E+02 0.16841740617E+02
 0.12904212085E+02 0.10265303672E+02 0.84597705053E+01 0.72724948117E+01 0.65685415503E+01
 0.62440610261E+01 0.62440615259E+01 0.65685427495E+01 0.72724959618E+01 0.84597708481E+01
 0.10265302880E+02 0.12904210526E+02 0.16841739227E+02 0.22477694250E+02 0.29944561349E+02
 0.39014303820E+02 0.49101286962E+02 0.59376069056E+02 0.68960167906E+02 0.77134706739E+02
 0.83486549311E+02 0.87940318347E+02 0.90671752561E+02 0.91945150434E+02 0.91945151969E+02
 0.90671756569E+02 0.79561530592E+02 0.73886328856E+02 0.66538685306E+02 0.57853853826E+02
 0.48426501061E+02 0.39014300208E+02 0.30373349406E+02 0.23084544298E+02 0.17432604081E+02
 0.13375198517E+02 0.10602208655E+02 0.86815466860E+01 0.73753485088E+01 0.65547310352E+01
 0.61099278494E+01 0.59697833415E+01 0.61099284751E+01 0.65547319359E+01 0.73753491555E+01
 0.86815466382E+01 0.10602207789E+02 0.13375197133E+02 0.17432602808E+02 0.23084543866E+02
 0.30373350348E+02 0.39014302655E+02 0.48426504713E+02 0.57853858036E+02 0.66538689364E+02
 0.73886332212E+02 0.79561532973E+02 0.83486549311E+02 0.85752246087E+02 0.86488278714E+02
 0.85752245461E+02 0.83486547895E+02 0.68990117046E+02 0.62553185161E+02 0.54870588779E+02
 0.46441913302E+02 0.37911322315E+02 0.29944559532E+02 0.23084544298E+02 0.17636961763E+02
 0.13624102033E+02 0.10816812282E+02 0.88406428544E+01 0.74583873520E+01 0.65524078707E+01
 0.60149892108E+01 0.57668731784E+01 0.57668733046E+01 0.60149895366E+01 0.65524082652E+01
 0.74583876035E+01 0.88406427420E+01 0.10816811619E+02 0.13624100789E+02 0.17636960109E+02
 0.23084542662E+02 0.29944558527E+02 0.37911322572E+02 0.46441915313E+02 0.54870592649E+02
 0.62553190506E+02 0.68990123039E+02 0.73886332212E+02 0.77134706739E+02 0.78742451371E+02
 0.78742449975E+02 0.77134702862E+02 0.73886326694E+02 0.57138979515E+02 0.50569171404E+02
 0.43271291508E+02 0.35789741992E+02 0.28696633272E+02 0.22477694374E+02 0.17432604081E+02
 0.13624102033E+02 0.10890619436E+02 0.89236908065E+01 0.75121834731E+01 0.65547168569E+01
 0.59520642200E+01 0.56241937448E+01 0.55206099838E+01 0.56241935908E+01 0.59520640607E+01
 0.65547168670E+01 0.75121836766E+01 0.89236909782E+01 0.10890619128E+02 0.13624100784E+02
 0.17432601685E+02 0.22477691083E+02 0.28696629872E+02 0.35789739533E+02 0.43271290999E+02
 0.50569173339E+02 0.57138983594E+02 0.62553190506E+02 0.66538689364E+02 0.68960167906E+02
 0.69770318129E+02 0.68960165094E+02 0.66538684645E+02 0.62553185346E+02 0.45200195849E+02
 0.39130646411E+02 0.32817345921E+02 0.26742251247E+02 0.21325146640E+02 0.16841740617E+02
 0.13375198517E+02 0.10816812282E+02 0.89236908065E+01 0.75307906214E+01 0.65570235231E+01
 0.59161769060E+01 0.55334193069E+01 0.53556332498E+01 0.53556330009E+01 0.55334187408E+01
 0.59161764252E+01 0.65570235226E+01 0.75307911672E+01 0.89236915341E+01 0.10816812457E+02
 0.13375197364E+02 0.16841737703E+02 0.21325142116E+02 0.26742245948E+02 0.32817341016E+02
 0.39130643011E+02 0.45200194578E+02 0.50569173339E+02 0.54870592649E+02 0.57853858036E+02
 0.59376069056E+02 0.59376068342E+02 0.57853856269E+02 0.54870590823E+02 0.50569172636E+02
 0.34327407061E+02 0.29237916672E+02 0.24258977125E+02 0.19741842476E+02 0.15927467362E+02
 0.12904212085E+02 0.10602208655E+02 0.88406428544E+01 0.75121834731E+01 0.65570235231E+01
 0.59045132340E+01 0.54892769210E+01 0.52609147657E+01 0.51882849595E+01 0.52609141901E+01
 0.54892761534E+01 0.59045128300E+01 0.65570239010E+01 0.75121846454E+01 0.88406443303E+01
 0.10602209603E+02 0.12904211601E+02 0.15927464917E+02 0.19741838031E+02 0.24258971283E+02
 0.29237910395E+02 0.34327401326E+02 0.39130643011E+02 0.43271290999E+02 0.46441915313E+02
 0.48426504713E+02 0.49101286962E+02 0.48426505417E+02 0.46441916988E+02 0.43271294006E+02
 0.39130647507E+02 0.25350234194E+02 0.21470276142E+02 0.17881206019E+02 0.14783327063E+02
 0.12259171843E+02 0.10265303672E+02 0.86815466860E+01 0.74583873520E+01 0.65547168569E+01
 0.59161769060E+01 0.54892769210E+01 0.52300371346E+01 0.51080872217E+01 0.51080869432E+01
 0.52300364675E+01 0.54892763152E+01 0.59161768739E+01 0.65547177501E+01 0.74583891687E+01
 0.86815490032E+01 0.10265305786E+02 0.12259172896E+02 0.14783326410E+02 0.17881203324E+02
 0.21470271505E+02 0.25350228173E+02 0.29237910395E+02 0.32817341016E+02 0.35789739533E+02
 0.37911322572E+02 0.39014302655E+02 0.39014303820E+02 0.37911325936E+02 0.35789744695E+02
 0.32817347310E+02 0.29237917003E+02 0.18615528160E+02 0.15912010773E+02 0.13516769324E+02
 0.11498859622E+02 0.98313966887E+01 0.84597705053E+01 0.73753485088E+01 0.65524078707E+01
 0.59520642200E+01 0.55334193069E+01 0.52609147657E+01 0.51080872217E+01 0.50589218216E+01
 0.51080869021E+01 0.52609143041E+01 0.55334190165E+01 0.59520644847E+01 0.65524090038E+01
 0.73753506842E+01 0.84597735631E+01 0.98314002145E+01 0.11498862857E+02 0.13516771421E+02
 0.15912011019E+02 0.18615526112E+02 0.21470271505E+02 0.24258971283E+02 0.26742245948E+02
 0.28696629872E+02 0.29944558527E+02 0.30373350348E+02 0.29944561349E+02 0.28696634847E+02
 0.26742251924E+02 0.24258976952E+02 0.21470275715E+02 0.13989860685E+02 0.12228657854E+02
 0.10679232088E+02 0.93318491839E+01 0.81937267608E+01 0.72724948117E+01 0.65547310352E+01
 0.60149892108E+01 0.56241937448E+01 0.53556332498E+01 0.51882849595E+01 0.51080869432E+01
 0.51080869021E+01 0.51882848146E+01 0.53556329998E+01 0.56241934757E+01 0.60149892142E+01
 0.65547317395E+01 0.72724967097E+01 0.81937300952E+01 0.93318538050E+01 0.10679237362E+02
 0.12228662671E+02 0.13989863974E+02 0.15912011019E+02 0.17881203324E+02 0.19741838031E+02
 0.21325142116E+02 0.22477691083E+02 0.23084542662E+02 0.23084543866E+02 0.22477694250E+02
 0.21325146114E+02 0.19741841414E+02 0.17881204842E+02 0.15912010051E+02 0.10992659779E+02
 0.98416737246E+01 0.88020211722E+01 0.79048483707E+01 0.71618851279E+01 0.65685415503E+01
 0.61099278494E+01 0.57668731784E+01 0.55206099838E+01 0.53556330009E+01 0.52609141901E+01
 0.52300364675E+01 0.52609143041E+01 0.53556329998E+01 0.55206095904E+01 0.57668723116E+01
 0.61099268211E+01 0.65685410228E+01 0.71618859293E+01 0.79048511162E+01 0.88020258960E+01
 0.98416798606E+01 0.10992666168E+02 0.12228662671E+02 0.13516771421E+02 0.14783326410E+02
 0.15927464917E+02 0.16841737703E+02 0.17432601685E+02 0.17636960109E+02 0.17432602808E+02
 0.16841739227E+02 0.15927465698E+02 0.14783325404E+02 0.13516768139E+02 0.12228657371E+02
 0.90272759063E+01 0.82761124925E+01 0.76150478070E+01 0.70569047830E+01 0.66024526202E+01
 0.62440610261E+01 0.59697833415E+01 0.57668733046E+01 0.56241935908E+01 0.55334187408E+01
 0.54892761534E+01 0.54892763152E+01 0.55334190165E+01 0.56241934757E+01 0.57668723116E+01
 0.59697813215E+01 0.62440583937E+01 0.66024502560E+01 0.70569037431E+01 0.76150489208E+01
 0.82761159467E+01 0.90272811813E+01 0.98416798606E+01 0.10679237362E+02 0.11498862857E+02
 0.12259172896E+02 0.12904211601E+02 0.13375197364E+02 0.13624100784E+02 0.13624100789E+02
 0.13375197133E+02 0.12904210526E+02 0.12259170355E+02 0.11498858586E+02 0.10679231699E+02
 0.98416737800E+01 0.77831410736E+01 0.73440624947E+01 0.69706069131E+01 0.66658760981E+01
 0.64262710015E+01 0.62440615259E+01 0.61099284751E+01 0.60149895366E+01 0.59520640607E+01
 0.59161764252E+01 0.59045128300E+01 0.59161768739E+01 0.59520644847E+01 0.60149892142E+01
 0.61099268211E+01 0.62440583937E+01 0.64262668551E+01 0.66658718804E+01 0.69706037199E+01
 0.73440612207E+01 0.77831420669E+01 0.82761159467E+01 0.88020258960E+01 0.93318538050E+01
 0.98314002145E+01 0.10265305786E+02 0.10602209603E+02 0.10816812457E+02 0.10890619128E+02
 0.10816811619E+02 0.10602207789E+02 0.10265302880E+02 0.98313963129E+01 0.93318493817E+01
 0.88020217517E+01 0.82761129914E+01 0.71072026905E+01 0.69139439953E+01 0.67675806007E+01
 0.66658766631E+01 0.66024536890E+01 0.65685427495E+01 0.65547319359E+01 0.65524082652E+01
 0.65547168670E+01 0.65570235226E+01 0.65570239010E+01 0.65547177501E+01 0.65524090038E+01
 0.65547317395E+01 0.65685410228E+01 0.66024502560E+01 0.66658718804E+01 0.67675752669E+01
 0.69139390659E+01 0.71071990326E+01 0.73440612207E+01 0.76150489208E+01 0.79048511162E+01
 0.81937300952E+01 0.84597735631E+01 0.86815490032E+01 0.88406443303E+01 0.89236915341E+01
 0.89236909782E+01 0.88406427420E+01 0.86815466382E+01 0.84597708481E+01 0.81937276210E+01
 0.79048495575E+01 0.76150488849E+01 0.73440630680E+01 0.68942044457E+01 0.69139442412E+01
 0.69706077282E+01 0.70569061044E+01 0.71618865766E+01 0.72724959618E+01 0.73753491555E+01
 0.74583876035E+01 0.75121836766E+01 0.75307911672E+01 0.75121846454E+01 0.74583891687E+01
 0.73753506842E+01 0.72724967097E+01 0.71618859293E+01 0.70569037431E+01 0.69706037199E+01
 0.69139390659E+01 0.68941988535E+01 0.69139390659E+01 0.69706037199E+01 0.70569037431E+01
 0.71618859293E+01 0.72724967097E+01 0.73753506842E+01 0.74583891687E+01 0.75121846454E+01
 0.75307911672E+01 0.75121836766E+01 0.74583876035E+01 0.73753491555E+01 0.72724959618E+01
 0.71618865766E+01 0.70569061044E+01 0.69706077282E+01 0.69139442412E+01 0.71072026905E+01
 0.73440630680E+01 0.76150488849E+01 0.79048495575E+01 0.81937276210E+01 0.84597708481E+01
 0.86815466382E+01 0.88406427420E+01 0.89236909782E+01 0.89236915341E+01 0.88406443303E+01
 0.86815490032E+01 0.84597735631E+01 0.81937300952E+01 0.79048511162E+01 0.76150489208E+01
 0.73440612207E+01 0.71071990326E+01 0.69139390659E+01 0.67675752669E+01 0.66658718804E+01
 0.66024502560E+01 0.65685410228E+01 0.65547317395E+01 0.65524090038E+01 0.65547177501E+01
 0.65570239010E+01 0.65570235226E+01 0.65547168670E+01 0.65524082652E+01 0.65547319359E+01
 0.65685427495E+01 0.66024536890E+01 0.66658766631E+01 0.67675806007E+01 0.69139439953E+01
 0.77831410736E+01 0.82761129914E+01 0.88020217517E+01 0.93318493817E+01 0.98313963129E+01
 0.10265302880E+02 0.10602207789E+02 0.10816811619E+02 0.10890619128E+02 0.10816812457E+02
 0.10602209603E+02 0.10265305786E+02 0.98314002145E+01 0.93318538050E+01 0.88020258960E+01
 0.82761159467E+01 0.77831420669E+01 0.73440612207E+01 0.69706037199E+01 0.66658718804E+01
 0.64262668551E+01 0.62440583937E+01 0.61099268211E+01 0.60149892142E+01 0.59520644847E+01
 0.59161768739E+01 0.59045128300E+01 0.59161764252E+01 0.59520640607E+01 0.60149895366E+01
 0.61099284751E+01 0.62440615259E+01 0.64262710015E+01 0.66658760981E+01 0.69706069131E+01
 0.73440624947E+01 0.90272759063E+01 0.98416737800E+01 0.10679231699E+02 0.11498858586E+02
 0.12259170355E+02 0.12904210526E+02 0.13375197133E+02 0.13624100789E+02 0.13624100784E+02
 0.13375197364E+02 0.12904211601E+02 0.12259172896E+02 0.11498862857E+02 0.10679237362E+02
 0.98416798606E+01 0.90272811813E+01 0.82761159467E+01 0.76150489208E+01 0.70569037431E+01
 0.66024502560E+01 0.62440583937E+01 0.59697813215E+01 0.57668723116E+01 0.56241934757E+01
 0.55334190165E+01 0.54892763152E+01 0.54892761534E+01 0.55334187408E+01 0.56241935908E+01
 0.57668733046E+01 0.59697833415E+01 0.62440610261E+01 0.66024526202E+01 0.70569047830E+01
 0.76150478070E+01 0.82761124925E+01 0.10992659779E+02 0.12228657371E+02 0.13516768139E+02
 0.14783325404E+02 0.15927465698E+02 0.16841739227E+02 0.17432602808E+02 0.17636960109E+02
 0.17432601685E+02 0.16841737703E+02 0.15927464917E+02 0.14783326410E+02 0.13516771421E+02
 0.12228662671E+02 0.10992666168E+02 0.98416798606E+01 0.88020258960E+01 0.79048511162E+01
 0.71618859293E+01 0.65685410228E+01 0.61099268211E+01 0.57668723116E+01 0.55206095904E+01
 0.53556329998E+01 0.52609143041E+01 0.52300364675E+01 0.52609141901E+01 0.53556330009E+01
 0.55206099838E+01 0.57668731784E+01 0.61099278494E+01 0.65685415503E+01 0.71618851279E+01
 0.79048483707E+01 0.88020211722E+01 0.98416737246E+01 0.13989860685E+02 0.15912010051E+02
 0.17881204842E+02 0.19741841414E+02 0.21325146114E+02 0.22477694250E+02 0.23084543866E+02
 0.23084542662E+02 0.22477691083E+02 0.21325142116E+02 0.19741838031E+02 0.17881203324E+02
 0.15912011019E+02 0.13989863974E+02 0.12228662671E+02 0.10679237362E+02 0.93318538050E+01
 0.81937300952E+01 0.72724967097E+01 0.65547317395E+01 0.60149892142E+01 0.56241934757E+01
 0.53556329998E+01 0.51882848146E+01 0.51080869021E+01 0.51080869432E+01 0.51882849595E+01
 0.53556332498E+01 0.56241937448E+01 0.60149892108E+01 0.65547310352E+01 0.72724948117E+01
 0.81937267608E+01 0.93318491839E+01 0.10679232088E+02 0.12228657854E+02 0.18615528160E+02
 0.21470275715E+02 0.24258976952E+02 0.26742251924E+02 0.28696634847E+02 0.29944561349E+02
 0.30373350348E+02 0.29944558527E+02 0.28696629872E+02 0.26742245948E+02 0.24258971283E+02
 0.21470271505E+02 0.18615526112E+02 0.15912011019E+02 0.13516771421E+02 0.11498862857E+02
 0.98314002145E+01 0.84597735631E+01 0.73753506842E+01 0.65524090038E+01 0.59520644847E+01
 0.55334190165E+01 0.52609143041E+01 0.51080869021E+01 0.50589218216E+01 0.51080872217E+01
 0.52609147657E+01 0.55334193069E+01 0.59520642200E+01 0.65524078707E+01 0.73753485088E+01
 0.84597705053E+01 0.98313966887E+01 0.11498859622E+02 0.13516769324E+02 0.15912010773E+02
 0.25350234194E+02 0.29237917003E+02 0.32817347310E+02 0.35789744695E+02 0.37911325936E+02
 0.39014303820E+02 0.39014302655E+02 0.37911322572E+02 0.35789739533E+02 0.32817341016E+02
 0.29237910395E+02 0.25350228173E+02 0.21470271505E+02 0.17881203324E+02 0.14783326410E+02
 0.12259172896E+02 0.10265305786E+02 0.86815490032E+01 0.74583891687E+01 0.65547177501E+01
 0.59161768739E+01 0.54892763152E+01 0.52300364675E+01 0.51080869432E+01 0.51080872217E+01
 0.52300371346E+01 0.54892769210E+01 0.59161769060E+01 0.65547168569E+01 0.74583873520E+01
 0.86815466860E+01 0.10265303672E+02 0.12259171843E+02 0.14783327063E+02 0.17881206019E+02
 0.21470276142E+02 0.34327407061E+02 0.39130647507E+02 0.43271294006E+02 0.46441916988E+02
 0.48426505417E+02 0.49101286962E+02 0.48426504713E+02 0.46441915313E+02 0.43271290999E+02
 0.39130643011E+02 0.34327401326E+02 0.29237910395E+02 0.24258971283E+02 0.19741838031E+02
 0.15927464917E+02 0.12904211601E+02 0.10602209603E+02 0.88406443303E+01 0.75121846454E+01
 0.65570239010E+01 0.59045128300E+01 0.54892761534E+01 0.52609141901E+01 0.51882849595E+01
 0.52609147657E+01 0.54892769210E+01 0.59045132340E+01 0.65570235231E+01 0.75121834731E+01
 0.88406428544E+01 0.10602208655E+02 0.12904212085E+02 0.15927467362E+02 0.19741842476E+02
 0.24258977125E+02 0.29237916672E+02 0.45200195849E+02 0.50569172636E+02 0.54870590823E+02
 0.57853856269E+02 0.59376068342E+02 0.59376069056E+02 0.57853858036E+02 0.54870592649E+02
 0.50569173339E+02 0.45200194578E+02 0.39130643011E+02 0.32817341016E+02 0.26742245948E+02
 0.21325142116E+02 0.16841737703E+02 0.13375197364E+02 0.10816812457E+02 0.89236915341E+01
 0.75307911672E+01 0.65570235226E+01 0.59161764252E+01 0.55334187408E+01 0.53556330009E+01
 0.53556332498E+01 0.55334193069E+01 0.59161769060E+01 0.65570235231E+01 0.75307906214E+01
 0.89236908065E+01 0.10816812282E+02 0.13375198517E+02 0.16841740617E+02 0.21325146640E+02
 0.26742251247E+02 0.32817345921E+02 0.39130646411E+02 0.57138979515E+02 0.62553185346E+02
 0.66538684645E+02 0.68960165094E+02 0.69770318129E+02 0.68960167906E+02 0.66538689364E+02
 0.62553190506E+02 0.57138983594E+02 0.50569173339E+02 0.43271290999E+02 0.35789739533E+02
 0.28696629872E+02 0.22477691083E+02 0.17432601685E+02 0.13624100784E+02 0.10890619128E+02
 0.89236909782E+01 0.75121836766E+01 0.65547168670E+01 0.59520640607E+01 0.56241935908E+01
 0.55206099838E+01 0.56241937448E+01 0.59520642200E+01 0.65547168569E+01 0.75121834731E+01
 0.89236908065E+01 0.10890619436E+02 0.13624102033E+02 0.17432604081E+02 0.22477694374E+02
 0.28696633272E+02 0.35789741992E+02 0.43271291508E+02 0.50569171404E+02 0.68990117046E+02
 0.73886326694E+02 0.77134702862E+02 0.78742449975E+02 0.78742451371E+02 0.77134706739E+02
 0.73886332212E+02 0.68990123039E+02 0.62553190506E+02 0.54870592649E+02 0.46441915313E+02
 0.37911322572E+02 0.29944558527E+02 0.23084542662E+02 0.17636960109E+02 0.13624100789E+02
 0.10816811619E+02 0.88406427420E+01 0.74583876035E+01 0.65524082652E+01 0.60149895366E+01
 0.57668733046E+01 0.57668731784E+01 0.60149892108E+01 0.65524078707E+01 0.74583873520E+01
 0.88406428544E+01 0.10816812282E+02 0.13624102033E+02 0.17636961763E+02 0.23084544298E+02
 0.29944559532E+02 0.37911322315E+02 0.46441913302E+02 0.54870588779E+02 0.62553185161E+02
 0.79561530592E+02 0.83486547895E+02 0.85752245461E+02 0.86488278714E+02 0.85752246087E+02
 0.83486549311E+02 0.79561532973E+02 0.73886332212E+02 0.66538689364E+02 0.57853858036E+02
 0.48426504713E+02 0.39014302655E+02 0.30373350348E+02 0.23084543866E+02 0.17432602808E+02
 0.13375197133E+02 0.10602207789E+02 0.86815466382E+01 0.73753491555E+01 0.65547319359E+01
 0.61099284751E+01 0.59697833415E+01 0.61099278494E+01 0.65547310352E+01 0.73753485088E+01
 0.86815466860E+01 0.10602208655E+02 0.13375198517E+02 0.17432604081E+02 0.23084544298E+02
 0.30373349406E+02 0.39014300208E+02 0.48426501061E+02 0.57853853826E+02 0.66538685306E+02
 0.73886328856E+02 0.87940323269E+02 0.90671756569E+02 0.91945151969E+02 0.91945150434E+02
 0.90671752561E+02 0.87940318347E+02 0.83486549311E+02 0.77134706739E+02 0.68960167906E+02
 0.59376069056E+02 0.49101286962E+02 0.39014303820E+02 0.29944561349E+02 0.22477694250E+02
 0.16841739227E+02 0.12904210526E+02 0.10265302880E+02 0.84597708481E+01 0.72724959618E+01
 0.65685427495E+01 0.62440615259E+01 0.62440610261E+01 0.65685415503E+01 0.72724948117E+01
 0.84597705053E+01 0.10265303672E+02 0.12904212085E+02 0.16841740617E+02 0.22477694374E+02
 0.29944559532E+02 0.39014300208E+02 0.49101282584E+02 0.59376065470E+02 0.68960166530E+02
 0.77134708242E+02 0.83486553245E+02 0.93725238946E+02 0.95313477544E+02 0.95795578983E+02
 0.95313470898E+02 0.93725227722E+02 0.90671752561E+02 0.85752246087E+02 0.78742451371E+02
 0.69770318129E+02 0.59376068342E+02 0.48426505417E+02 0.37911325936E+02 0.28696634847E+02
 0.21325146114E+02 0.15927465698E+02 0.12259170355E+02 0.98313963129E+01 0.81937276210E+01
 0.71618865766E+01 0.66024536890E+01 0.64262710015E+01 0.66024526202E+01 0.71618851279E+01
 0.81937267608E+01 0.98313966887E+01 0.12259171843E+02 0.15927467362E+02 0.21325146640E+02
 0.28696633272E+02 0.37911322315E+02 0.48426501061E+02 0.59376065470E+02 0.69770318971E+02
 0.78742457175E+02 0.85752256366E+02 0.90671765012E+02 0.97086351432E+02 0.97801744211E+02
 0.97801739598E+02 0.97086338925E+02 0.95313470898E+02 0.91945150434E+02 0.86488278714E+02
 0.78742449975E+02 0.68960165094E+02 0.57853856269E+02 0.46441916988E+02 0.35789744695E+02
 0.26742251924E+02 0.19741841414E+02 0.14783325404E+02 0.11498858586E+02 0.93318493817E+01
 0.79048495575E+01 0.70569061044E+01 0.66658766631E+01 0.66658760981E+01 0.70569047830E+01
 0.79048483707E+01 0.93318491839E+01 0.11498859622E+02 0.14783327063E+02 0.19741842476E+02
 0.26742251247E+02 0.35789741992E+02 0.46441913302E+02 0.57853853826E+02 0.68960166530E+02
 0.78742457175E+02 0.86488291804E+02 0.91945167343E+02 0.95313487800E+02 0.98631885445E+02
 0.98837935366E+02 0.98631877024E+02 0.97801739598E+02 0.95795578983E+02 0.91945151969E+02
 0.85752245461E+02 0.77134702862E+02 0.66538684645E+02 0.54870590823E+02 0.43271294006E+02
 0.32817347310E+02 0.24258976952E+02 0.17881204842E+02 0.13516768139E+02 0.10679231699E+02
 0.88020217517E+01 0.76150488849E+01 0.69706077282E+01 0.67675806007E+01 0.69706069131E+01
 0.76150478070E+01 0.88020211722E+01 0.10679232088E+02 0.13516769324E+02 0.17881206019E+02
 0.24258977125E+02 0.32817345921E+02 0.43271291508E+02 0.54870588779E+02 0.66538685306E+02
 0.77134708242E+02 0.85752256366E+02 0.91945167343E+02 0.95795595928E+02 0.97801754159E+02
 0.99135255817E+02 0.99135253162E+02 0.98837935366E+02 0.97801744211E+02 0.95313477544E+02
 0.90671756569E+02 0.83486547895E+02 0.73886326694E+02 0.62553185346E+02 0.50569172636E+02
 0.39130647507E+02 0.29237917003E+02 0.21470275715E+02 0.15912010051E+02 0.12228657371E+02
 0.98416737800E+01 0.82761129914E+01 0.73440630680E+01 0.69139442412E+01 0.69139439953E+01
 0.73440624947E+01 0.82761124925E+01 0.98416737246E+01 0.12228657854E+02 0.15912010773E+02
 0.21470276142E+02 0.29237916672E+02 0.39130646411E+02 0.50569171404E+02 0.62553185161E+02
 0.73886328856E+02 0.83486553245E+02 0.90671765012E+02 0.95313487800E+02 0.97801754159E+02
 0.98837942613E+02 0.99135255817E+02 0.98837942613E+02 0.97801754159E+02 0.95313487800E+02
 0.90671765012E+02 0.83486553245E+02 0.73886328856E+02 0.62553185161E+02 0.50569171404E+02
 0.39130646411E+02 0.29237916672E+02 0.21470276142E+02 0.15912010773E+02 0.12228657854E+02
 0.98416737246E+01 0.82761124925E+01 0.73440624947E+01 0.69139439953E+01 0.69139442412E+01
 0.73440630680E+01 0.82761129914E+01 0.98416737800E+01 0.12228657371E+02 0.15912010051E+02
 0.21470275715E+02 0.29237917003E+02 0.39130647507E+02 0.50569172636E+02 0.62553185346E+02
 0.73886326694E+02 0.83486547895E+02 0.90671756569E+02 0.95313477544E+02 0.97801744211E+02
 0.98837935366E+02 0.99135253162E+02 0.98837942613E+02 0.98078057189E+02 0.96172888436E+02
 0.92432922039E+02 0.86335979518E+02 0.77778615198E+02 0.67193610367E+02 0.55485228581E+02
 0.43803563863E+02 0.33242532992E+02 0.24572576145E+02 0.18096406481E+02 0.13658223665E+02
 0.10775571887E+02 0.88736813896E+01 0.76705155602E+01 0.70171048839E+01 0.68112320336E+01
 0.70171057353E+01 0.76705166833E+01 0.88736819884E+01 0.10775571473E+02 0.13658222421E+02
 0.18096405249E+02 0.24572575956E+02 0.33242534388E+02 0.43803566295E+02 0.55485230333E+02
 0.67193609007E+02 0.77778608602E+02 0.86335966876E+02 0.92432904591E+02 0.96172869410E+02
 0.98078040928E+02 0.98837933236E+02 0.99018889382E+02 0.97801754159E+02 0.96172888436E+02
 0.92978935034E+02 0.87685594610E+02 0.80051786546E+02 0.70299833327E+02 0.59130380117E+02
 0.47571296945E+02 0.36715292301E+02 0.27443954062E+02 0.20235465246E+02 0.15111087859E+02
 0.11715794464E+02 0.94887187199E+01 0.80231822433E+01 0.71517382073E+01 0.67497609524E+01
 0.67497615699E+01 0.71517396476E+01 0.80231835239E+01 0.94887189083E+01 0.11715793309E+02
 0.15111086052E+02 0.20235464115E+02 0.27443954790E+02 0.36715295062E+02 0.47571300380E+02
 0.59130381563E+02 0.70299829734E+02 0.80051775845E+02 0.87685576887E+02 0.92978912963E+02
 0.96172866784E+02 0.97801738322E+02 0.98436200813E+02 0.98436206620E+02 0.95313487800E+02
 0.92432922039E+02 0.87685594610E+02 0.80795252711E+02 0.71846503733E+02 0.61356689144E+02
 0.50196814121E+02 0.39386528198E+02 0.29838657266E+02 0.22146152913E+02 0.16480720119E+02
 0.12621795534E+02 0.10084558984E+02 0.83812796431E+01 0.73068117292E+01 0.67239908716E+01
 0.65404197889E+01 0.67239921002E+01 0.73068133774E+01 0.83812805870E+01 0.10084558491E+02
 0.12621793802E+02 0.16480718273E+02 0.22146152452E+02 0.29838659148E+02 0.39386532068E+02
 0.50196818056E+02 0.61356690227E+02 0.71846499176E+02 0.80795241215E+02 0.87685577252E+02
 0.92432902273E+02 0.95313470525E+02 0.96775840395E+02 0.97212089454E+02 0.96775850469E+02
 0.90671765012E+02 0.86335979518E+02 0.80051786546E+02 0.71846503733E+02 0.62103602429E+02
 0.51540399172E+02 0.41063593776E+02 0.31553216286E+02 0.23653983561E+02 0.17646295190E+02
 0.13431871690E+02 0.10622180614E+02 0.87205230314E+01 0.74682654156E+01 0.67253221241E+01
 0.63828369920E+01 0.63828376135E+01 0.67253235959E+01 0.74682667889E+01 0.87205233672E+01
 0.10622179574E+02 0.13431869831E+02 0.17646293754E+02 0.23653983855E+02 0.31553218890E+02
 0.41063598051E+02 0.51540403274E+02 0.62103603981E+02 0.71846500817E+02 0.80051778664E+02
 0.86335968059E+02 0.90671752920E+02 0.93287436709E+02 0.94490798235E+02 0.94490801650E+02
 0.93287445881E+02 0.83486553245E+02 0.77778615198E+02 0.70299833327E+02 0.61356689144E+02
 0.51540399172E+02 0.41634676629E+02 0.32446242741E+02 0.24618616093E+02 0.18495406534E+02
 0.14076022949E+02 0.11067725569E+02 0.90160029913E+01 0.76208264273E+01 0.67437665495E+01
 0.62684343994E+01 0.61187098485E+01 0.62684352847E+01 0.67437677884E+01 0.76208272449E+01
 0.90160028110E+01 0.11067724363E+02 0.14076021330E+02 0.18495405498E+02 0.24618616571E+02
 0.32446245092E+02 0.41634680415E+02 0.51540403249E+02 0.61356692126E+02 0.70299834171E+02
 0.77778613684E+02 0.83486550079E+02 0.87388874163E+02 0.89619812594E+02 0.90340458029E+02
 0.89619814771E+02 0.87388877580E+02 0.73886328856E+02 0.67193610367E+02 0.59130380117E+02
 0.50196814121E+02 0.41063593776E+02 0.32446242741E+02 0.24950387859E+02 0.18942785379E+02
 0.14491401665E+02 0.11388700368E+02 0.92451396812E+01 0.77499128293E+01 0.67695193477E+01
 0.61883388387E+01 0.59202441195E+01 0.59202443934E+01 0.61883395155E+01 0.67695200600E+01
 0.77499131491E+01 0.92451393253E+01 0.11388699339E+02 0.14491400295E+02 0.18942784222E+02
 0.24950387529E+02 0.32446243686E+02 0.41063596152E+02 0.50196817750E+02 0.59130384526E+02
 0.67193614962E+02 0.73886333048E+02 0.78933520089E+02 0.82258144295E+02 0.83895643196E+02
 0.83895642481E+02 0.82258142198E+02 0.78933516781E+02 0.62553185161E+02 0.55485228581E+02
 0.47571296945E+02 0.39386528198E+02 0.31553216286E+02 0.24618616093E+02 0.18942785379E+02
 0.14634947396E+02 0.11557175918E+02 0.93901566907E+01 0.78432834075E+01 0.67941797224E+01
 0.61348476466E+01 0.57768038800E+01 0.56638264458E+01 0.57768039711E+01 0.61348478248E+01
 0.67941799455E+01 0.78432835400E+01 0.93901565141E+01 0.11557175184E+02 0.14634945989E+02
 0.18942783429E+02 0.24618614083E+02 0.31553214967E+02 0.39386528379E+02 0.47571299231E+02
 0.55485233036E+02 0.62553191202E+02 0.68337768270E+02 0.72572006136E+02 0.75134275616E+02
 0.75989721093E+02 0.75134272479E+02 0.72572000670E+02 0.68337761795E+02 0.50569171404E+02
 0.43803563863E+02 0.36715292301E+02 0.29838657266E+02 0.23653983561E+02 0.18495406534E+02
 0.14491401665E+02 0.11557175918E+02 0.94397796377E+01 0.78922211395E+01 0.68114976038E+01
 0.61021992639E+01 0.56799541237E+01 0.54843493535E+01 0.54843491935E+01 0.56799537737E+01
 0.61021989992E+01 0.68114976588E+01 0.78922214718E+01 0.94397798807E+01 0.11557175465E+02
 0.14491400003E+02 0.18495403527E+02 0.23653979677E+02 0.29838653513E+02 0.36715289868E+02
 0.43803563715E+02 0.50569173798E+02 0.56517684912E+02 0.61260570493E+02 0.64538609521E+02
 0.66207718648E+02 0.66207717214E+02 0.64538605724E+02 0.61260565634E+02 0.56517680601E+02
 0.39130646411E+02 0.33242532992E+02 0.27443954062E+02 0.22146152913E+02 0.17646295190E+02
 0.14076022949E+02 0.11388700368E+02 0.93901566907E+01 0.78922211395E+01 0.68176896933E+01