   1   1   1   0
  0.1129784E+02  0.2518663E-09  0.2518663E-09  0.2518663E-09  0.5000000E-15
  1.000000000000000E-004
  CAR 
 Pt-fcc                                  
     87.12938100    -42.01597625  301     18.76353735      1.00000000
    -42.016  0.0000E+00  0.0000E+00
    -41.585  0.0000E+00  0.0000E+00
    -41.155  0.0000E+00  0.0000E+00
    -40.725  0.0000E+00  0.0000E+00
    -40.294  0.0000E+00  0.0000E+00
    -39.864  0.0000E+00  0.0000E+00
    -39.433  0.0000E+00  0.0000E+00
    -39.003  0.0000E+00  0.0000E+00
    -38.572  0.0000E+00  0.0000E+00
    -38.142  0.0000E+00  0.0000E+00
    -37.711  0.0000E+00  0.0000E+00
    -37.281  0.0000E+00  0.0000E+00
    -36.850  0.0000E+00  0.0000E+00
    -36.420  0.1310E-17  0.5640E-18
    -35.989  0.6952E-02  0.2993E-02
    -35.559  0.3484E-01  0.1937E-01
    -35.128  0.5025E-01  0.4199E-01
    -34.698  0.3580E-01  0.6000E-01
    -34.267  0.0000E+00  0.6000E-01
    -33.837  0.0000E+00  0.6000E-01
    -33.406  0.0000E+00  0.6000E-01
    -32.976  0.0000E+00  0.6000E-01
    -32.545  0.0000E+00  0.6000E-01
    -32.115  0.0000E+00  0.6000E-01
    -31.684  0.0000E+00  0.6000E-01
    -31.254  0.0000E+00  0.6000E-01
    -30.823  0.0000E+00  0.6000E-01
    -30.393  0.0000E+00  0.6000E-01
    -29.962  0.0000E+00  0.6000E-01
    -29.532  0.0000E+00  0.6000E-01
    -29.101  0.0000E+00  0.6000E-01
    -28.671  0.0000E+00  0.6000E-01
    -28.240  0.0000E+00  0.6000E-01
    -27.810  0.0000E+00  0.6000E-01
    -27.380  0.0000E+00  0.6000E-01
    -26.949  0.0000E+00  0.6000E-01
    -26.519  0.0000E+00  0.6000E-01
    -26.088  0.0000E+00  0.6000E-01
    -25.658  0.0000E+00  0.6000E-01
    -25.227  0.0000E+00  0.6000E-01
    -24.797  0.0000E+00  0.6000E-01
    -24.366  0.0000E+00  0.6000E-01
    -23.936  0.0000E+00  0.6000E-01
    -23.505  0.0000E+00  0.6000E-01
    -23.075  0.0000E+00  0.6000E-01
    -22.644  0.0000E+00  0.6000E-01
    -22.214  0.0000E+00  0.6000E-01
    -21.783  0.0000E+00  0.6000E-01
    -21.353  0.0000E+00  0.6000E-01
    -20.922  0.0000E+00  0.6000E-01
    -20.492  0.0000E+00  0.6000E-01
    -20.061  0.0000E+00  0.6000E-01
    -19.631  0.0000E+00  0.6000E-01
    -19.200  0.0000E+00  0.6000E-01
    -18.770  0.0000E+00  0.6000E-01
    -18.339  0.0000E+00  0.6000E-01
    -17.909  0.0000E+00  0.6000E-01
    -17.478  0.0000E+00  0.6000E-01
    -17.048  0.0000E+00  0.6000E-01
    -16.617  0.0000E+00  0.6000E-01
    -16.187  0.0000E+00  0.6000E-01
    -15.756  0.0000E+00  0.6000E-01
    -15.326  0.0000E+00  0.6000E-01
    -14.895  0.0000E+00  0.6000E-01
    -14.465  0.0000E+00  0.6000E-01
    -14.034  0.0000E+00  0.6000E-01
    -13.604  0.0000E+00  0.6000E-01
    -13.174  0.0000E+00  0.6000E-01
    -12.743  0.0000E+00  0.6000E-01
    -12.313  0.0000E+00  0.6000E-01
    -11.882  0.0000E+00  0.6000E-01
    -11.452  0.0000E+00  0.6000E-01
    -11.021  0.0000E+00  0.6000E-01
    -10.591  0.0000E+00  0.6000E-01
    -10.160  0.0000E+00  0.6000E-01
     -9.730  0.0000E+00  0.6000E-01
     -9.299  0.0000E+00  0.6000E-01
     -8.869  0.0000E+00  0.6000E-01
     -8.438  0.0000E+00  0.6000E-01
     -8.008  0.0000E+00  0.6000E-01
     -7.577  0.0000E+00  0.6000E-01
     -7.147  0.0000E+00  0.6000E-01
     -6.716  0.0000E+00  0.6000E-01
     -6.286  0.0000E+00  0.6000E-01
     -5.855  0.0000E+00  0.6000E-01
     -5.425  0.0000E+00  0.6000E-01
     -4.994  0.0000E+00  0.6000E-01
     -4.564  0.0000E+00  0.6000E-01
     -4.133  0.0000E+00  0.6000E-01
     -3.703  0.0000E+00  0.6000E-01
     -3.272  0.0000E+00  0.6000E-01
     -2.842  0.0000E+00  0.6000E-01
     -2.411  0.0000E+00  0.6000E-01
     -1.981  0.0000E+00  0.6000E-01
     -1.550  0.0000E+00  0.6000E-01
     -1.120  0.0000E+00  0.6000E-01
     -0.689  0.0000E+00  0.6000E-01
     -0.259  0.0000E+00  0.6000E-01
      0.172  0.0000E+00  0.6000E-01
      0.602  0.0000E+00  0.6000E-01
      1.032  0.0000E+00  0.6000E-01
      1.463  0.0000E+00  0.6000E-01
      1.893  0.0000E+00  0.6000E-01
      2.324  0.0000E+00  0.6000E-01
      2.754  0.0000E+00  0.6000E-01
      3.185  0.0000E+00  0.6000E-01
      3.615  0.0000E+00  0.6000E-01
      4.046  0.0000E+00  0.6000E-01
      4.476  0.0000E+00  0.6000E-01
      4.907  0.3516E-06  0.6000E-01
      5.337  0.1543E-03  0.6007E-01
      5.768  0.2665E-03  0.6027E-01
      6.198  0.3717E-03  0.6044E-01
      6.629  0.7378E-03  0.6076E-01
      7.059  0.5940E-03  0.6106E-01
      7.490  0.1160E-02  0.6156E-01
      7.920  0.2212E-02  0.6251E-01
      8.351  0.6044E-02  0.6514E-01
      8.781  0.8492E-02  0.6891E-01
      9.212  0.1028E-01  0.7375E-01
      9.642  0.9433E-02  0.7832E-01
     10.073  0.8519E-02  0.8228E-01
     10.503  0.5084E-02  0.8534E-01
     10.934  0.6204E-02  0.8844E-01
     11.364  0.1038E-01  0.9292E-01
     11.795  0.7648E-02  0.9630E-01
     12.225  0.8633E-02  0.1003E+00
     12.656  0.1050E-01  0.1051E+00
     13.086  0.1011E-01  0.1098E+00
     13.517  0.1482E-01  0.1170E+00
     13.947  0.8359E-02  0.1210E+00
     14.377  0.5287E-02  0.1241E+00
     14.808  0.7513E-02  0.1277E+00
     15.238  0.7606E-02  0.1313E+00
     15.669  0.1070E-01  0.1361E+00
     16.099  0.4951E-02  0.1385E+00
     16.530  0.9054E-02  0.1429E+00
     16.960  0.3834E-02  0.1449E+00
     17.391  0.7786E-02  0.1485E+00
     17.821  0.4856E-02  0.1509E+00
     18.252  0.9485E-02  0.1550E+00
     18.682  0.8208E-02  0.1590E+00
     19.113  0.1119E-01  0.1641E+00
     19.543  0.4318E-02  0.1664E+00
     19.974  0.1101E-02  0.1669E+00
     20.404  0.3397E-02  0.1684E+00
     20.835  0.1267E-02  0.1690E+00
     21.265  0.1105E-02  0.1694E+00
     21.696  0.3836E-02  0.1711E+00
     22.126  0.1285E-02  0.1718E+00
     22.557  0.1287E-02  0.1724E+00
     22.987  0.2257E-02  0.1734E+00
     23.418  0.2679E-02  0.1747E+00
     23.848  0.1061E-02  0.1752E+00
     24.279  0.2232E-02  0.1764E+00
     24.709  0.1607E-02  0.1771E+00
     25.140  0.1365E-02  0.1777E+00
     25.570  0.1732E-02  0.1785E+00
     26.001  0.1318E-02  0.1790E+00
     26.431  0.2935E-02  0.1803E+00
     26.862  0.1771E-02  0.1812E+00
     27.292  0.3654E-02  0.1830E+00
     27.723  0.1956E-02  0.1841E+00
     28.153  0.2150E-02  0.1850E+00
     28.583  0.4139E-02  0.1869E+00
     29.014  0.1886E-02  0.1878E+00
     29.444  0.2085E-02  0.1889E+00
     29.875  0.2240E-02  0.1901E+00
     30.305  0.2492E-02  0.1912E+00
     30.736  0.1995E-02  0.1922E+00
     31.166  0.3092E-02  0.1936E+00
     31.597  0.3580E-02  0.1953E+00
     32.027  0.3960E-02  0.1970E+00
     32.458  0.5234E-02  0.1993E+00
     32.888  0.3274E-02  0.2008E+00
     33.319  0.3239E-02  0.2022E+00
     33.749  0.4315E-02  0.2044E+00
     34.180  0.8996E-02  0.2084E+00
     34.610  0.4792E-02  0.2109E+00
     35.041  0.6470E-02  0.2138E+00
     35.471  0.6987E-02  0.2170E+00
     35.902  0.7759E-02  0.2205E+00
     36.332  0.3668E-02  0.2222E+00
     36.763  0.8406E-02  0.2262E+00
     37.193  0.6607E-02  0.2292E+00
     37.624  0.2822E-02  0.2305E+00
     38.054  0.3890E-02  0.2324E+00
     38.485  0.2886E-02  0.2337E+00
     38.915  0.2680E-02  0.2348E+00
     39.346  0.2612E-02  0.2362E+00
     39.776  0.5625E-02  0.2390E+00
     40.207  0.5287E-02  0.2414E+00
     40.637  0.5712E-02  0.2442E+00
     41.068  0.2751E-02  0.2456E+00
     41.498  0.7258E-02  0.2487E+00
     41.929  0.4134E-02  0.2510E+00
     42.359  0.5352E-02  0.2534E+00
     42.789  0.5263E-02  0.2558E+00
     43.220  0.3897E-02  0.2575E+00
     43.650  0.2715E-02  0.2587E+00
     44.081  0.2051E-02  0.2596E+00
     44.511  0.2078E-02  0.2605E+00
     44.942  0.3821E-02  0.2622E+00
     45.372  0.2323E-02  0.2639E+00
     45.803  0.4277E-02  0.2657E+00
     46.233  0.6590E-02  0.2686E+00
     46.664  0.6754E-02  0.2718E+00
     47.094  0.4625E-02  0.2740E+00
     47.525  0.4290E-02  0.2762E+00
     47.955  0.2636E-02  0.2774E+00
     48.386  0.5921E-02  0.2804E+00
     48.816  0.5682E-02  0.2830E+00
     49.247  0.6830E-02  0.2861E+00
     49.677  0.5852E-02  0.2890E+00
     50.108  0.5753E-02  0.2918E+00
     50.538  0.7256E-02  0.2952E+00
     50.969  0.6920E-02  0.2982E+00
     51.399  0.6403E-02  0.3012E+00
     51.830  0.4864E-02  0.3035E+00
     52.260  0.8054E-02  0.3072E+00
     52.691  0.5221E-02  0.3098E+00
     53.121  0.5563E-02  0.3125E+00
     53.552  0.3377E-02  0.3141E+00
     53.982  0.2797E-02  0.3154E+00
     54.413  0.5178E-02  0.3179E+00
     54.843  0.5674E-02  0.3207E+00
     55.274  0.6304E-02  0.3236E+00
     55.704  0.5778E-02  0.3263E+00
     56.134  0.7870E-02  0.3299E+00
     56.565  0.4427E-02  0.3322E+00
     56.995  0.4844E-02  0.3345E+00
     57.426  0.5318E-02  0.3368E+00
     57.856  0.6732E-02  0.3397E+00
     58.287  0.5118E-01  0.3618E+00
     58.717  0.6455E-02  0.3651E+00
     59.148  0.6328E-02  0.3679E+00
     59.578  0.6077E-02  0.3708E+00
     60.009  0.1047E-01  0.3755E+00
     60.439  0.9048E-02  0.3796E+00
     60.870  0.4762E-02  0.3821E+00
     61.300  0.3052E-02  0.3834E+00
     61.731  0.8048E-02  0.3870E+00
     62.161  0.5283E-02  0.3897E+00
     62.592  0.6100E-02  0.3925E+00
     63.022  0.5176E-02  0.3949E+00
     63.453  0.8196E-02  0.3986E+00
     63.883  0.3469E-02  0.4003E+00
     64.314  0.6081E-02  0.4032E+00
     64.744  0.6446E-02  0.4061E+00
     65.175  0.7439E-02  0.4096E+00
     65.605  0.4431E-02  0.4117E+00
     66.036  0.9047E-02  0.4156E+00
     66.466  0.6684E-02  0.4188E+00
     66.897  0.4984E-02  0.4214E+00
     67.327  0.4590E-02  0.4238E+00
     67.758  0.6166E-02  0.4268E+00
     68.188  0.6107E-02  0.4298E+00
     68.619  0.5830E-02  0.4326E+00
     69.049  0.4028E-02  0.4345E+00
     69.480  0.4960E-02  0.4370E+00
     69.910  0.6273E-02  0.4403E+00
     70.340  0.5904E-02  0.4432E+00
     70.771  0.7421E-02  0.4468E+00
     71.201  0.5852E-02  0.4498E+00
     71.632  0.7894E-02  0.4534E+00
     72.062  0.8871E-02  0.4576E+00
     72.493  0.5156E-02  0.4600E+00
     72.923  0.7055E-02  0.4634E+00
     73.354  0.5908E-02  0.4665E+00
     73.784  0.4014E-02  0.4684E+00
     74.215  0.6911E-02  0.4718E+00
     74.645  0.3096E-02  0.4735E+00
     75.076  0.2799E-02  0.4753E+00
     75.506  0.1651E-02  0.4761E+00
     75.937  0.1605E-02  0.4768E+00
     76.367  0.1947E-02  0.4776E+00
     76.798  0.5072E-03  0.4778E+00
     77.228  0.5958E-03  0.4782E+00
     77.659  0.1367E-02  0.4788E+00
     78.089  0.1100E-02  0.4794E+00
     78.520  0.1769E-16  0.4794E+00
     78.950  0.5600E-03  0.4796E+00
     79.381  0.0000E+00  0.4798E+00
     79.811  0.0000E+00  0.4798E+00
     80.242  0.6578E-04  0.4798E+00
     80.672  0.0000E+00  0.4799E+00
     81.103  0.1328E-08  0.4799E+00
     81.533  0.2788E-03  0.4800E+00
     81.964  0.0000E+00  0.4800E+00
     82.394  0.0000E+00  0.4800E+00
     82.825  0.0000E+00  0.4800E+00
     83.255  0.0000E+00  0.4800E+00
     83.686  0.0000E+00  0.4800E+00
     84.116  0.0000E+00  0.4800E+00
     84.546  0.0000E+00  0.4800E+00
     84.977  0.0000E+00  0.4800E+00
     85.407  0.0000E+00  0.4800E+00
     85.838  0.0000E+00  0.4800E+00
     86.268  0.0000E+00  0.4800E+00
     86.699  0.0000E+00  0.4800E+00
     87.129  0.0000E+00  0.4800E+00
     87.12938100    -42.01597625  301     18.76353735      1.00000000
    -42.016  0.0000E+00  0.0000E+00  0.0000E+00  0.0000E+00  0.0000E+00  0.0000E+00  0.0000E+00  0.0000E+00  0.0000E+00
    -41.585  0.0000E+00  0.0000E+00  0.0000E+00  0.0000E+00  0.0000E+00  0.0000E+00  0.0000E+00  0.0000E+00  0.0000E+00
    -41.155  0.0000E+00  0.0000E+00  0.0000E+00  0.0000E+00  0.0000E+00  0.0000E+00  0.0000E+00  0.0000E+00  0.0000E+00
    -40.725  0.0000E+00  0.0000E+00  0.0000E+00  0.0000E+00  0.0000E+00  0.0000E+00  0.0000E+00  0.0000E+00  0.0000E+00
    -40.294  0.0000E+00  0.0000E+00  0.0000E+00  0.0000E+00  0.0000E+00  0.0000E+00  0.0000E+00  0.0000E+00  0.0000E+00
    -39.864  0.0000E+00  0.0000E+00  0.0000E+00  0.0000E+00  0.0000E+00  0.0000E+00  0.0000E+00  0.0000E+00  0.0000E+00
    -39.433  0.0000E+00  0.0000E+00  0.0000E+00  0.0000E+00  0.0000E+00  0.0000E+00  0.0000E+00  0.0000E+00  0.0000E+00
    -39.003  0.0000E+00  0.0000E+00  0.0000E+00  0.0000E+00  0.0000E+00  0.0000E+00  0.0000E+00  0.0000E+00  0.0000E+00
    -38.572  0.0000E+00  0.0000E+00  0.0000E+00  0.0000E+00  0.0000E+00  0.0000E+00  0.0000E+00  0.0000E+00  0.0000E+00
    -38.142  0.0000E+00  0.0000E+00  0.0000E+00  0.0000E+00  0.0000E+00  0.0000E+00  0.0000E+00  0.0000E+00  0.0000E+00
    -37.711  0.0000E+00  0.0000E+00  0.0000E+00  0.0000E+00  0.0000E+00  0.0000E+00  0.0000E+00  0.0000E+00  0.0000E+00
    -37.281  0.0000E+00  0.0000E+00  0.0000E+00  0.0000E+00  0.0000E+00  0.0000E+00  0.0000E+00  0.0000E+00  0.0000E+00
    -36.850  0.0000E+00  0.0000E+00  0.0000E+00  0.0000E+00  0.0000E+00  0.0000E+00  0.0000E+00  0.0000E+00  0.0000E+00
    -36.420  0.1285E-20  0.4240E-16  0.4240E-16  0.4240E-16  0.9514E-21  0.9514E-21  0.8351E-21  0.9514E-21  0.8351E-21
    -35.989  0.6680E-04  0.2256E+00  0.2256E+00  0.2256E+00  0.3301E-04  0.3301E-04  0.1944E-04  0.3301E-04  0.1944E-04
    -35.559  0.1194E-02  0.1137E+01  0.1137E+01  0.1137E+01  0.3410E-03  0.3410E-03  0.1453E-03  0.3410E-03  0.1453E-03
    -35.128  0.5769E-03  0.1661E+01  0.1661E+01  0.1661E+01  0.5418E-03  0.5418E-03  0.3131E-03  0.5418E-03  0.3131E-03
    -34.698  0.8529E-04  0.1191E+01  0.1191E+01  0.1191E+01  0.1423E-03  0.1423E-03  0.1041E-03  0.1423E-03  0.1041E-03
    -34.267  0.0000E+00  0.0000E+00  0.0000E+00  0.0000E+00  0.0000E+00  0.0000E+00  0.0000E+00  0.0000E+00  0.0000E+00
    -33.837  0.0000E+00  0.0000E+00  0.0000E+00  0.0000E+00  0.0000E+00  0.0000E+00  0.0000E+00  0.0000E+00  0.0000E+00
    -33.406  0.0000E+00  0.0000E+00  0.0000E+00  0.0000E+00  0.0000E+00  0.0000E+00  0.0000E+00  0.0000E+00  0.0000E+00
    -32.976  0.0000E+00  0.0000E+00  0.0000E+00  0.0000E+00  0.0000E+00  0.0000E+00  0.0000E+00  0.0000E+00  0.0000E+00
    -32.545  0.0000E+00  0.0000E+00  0.0000E+00  0.0000E+00  0.0000E+00  0.0000E+00  0.0000E+00  0.0000E+00  0.0000E+00
    -32.115  0.0000E+00  0.0000E+00  0.0000E+00  0.0000E+00  0.0000E+00  0.0000E+00  0.0000E+00  0.0000E+00  0.0000E+00
    -31.684  0.0000E+00  0.0000E+00  0.0000E+00  0.0000E+00  0.0000E+00  0.0000E+00  0.0000E+00  0.0000E+00  0.0000E+00
    -31.254  0.0000E+00  0.0000E+00  0.0000E+00  0.0000E+00  0.0000E+00  0.0000E+00  0.0000E+00  0.0000E+00  0.0000E+00
    -30.823  0.0000E+00  0.0000E+00  0.0000E+00  0.0000E+00  0.0000E+00  0.0000E+00  0.0000E+00  0.0000E+00  0.0000E+00
    -30.393  0.0000E+00  0.0000E+00  0.0000E+00  0.0000E+00  0.0000E+00  0.0000E+00  0.0000E+00  0.0000E+00  0.0000E+00
    -29.962  0.0000E+00  0.0000E+00  0.0000E+00  0.0000E+00  0.0000E+00  0.0000E+00  0.0000E+00  0.0000E+00  0.0000E+00
    -29.532  0.0000E+00  0.0000E+00  0.0000E+00  0.0000E+00  0.0000E+00  0.0000E+00  0.0000E+00  0.0000E+00  0.0000E+00
    -29.101  0.0000E+00  0.0000E+00  0.0000E+00  0.0000E+00  0.0000E+00  0.0000E+00  0.0000E+00  0.0000E+00  0.0000E+00
    -28.671  0.0000E+00  0.0000E+00  0.0000E+00  0.0000E+00  0.0000E+00  0.0000E+00  0.0000E+00  0.0000E+00  0.0000E+00
    -28.240  0.0000E+00  0.0000E+00  0.0000E+00  0.0000E+00  0.0000E+00  0.0000E+00  0.0000E+00  0.0000E+00  0.0000E+00
    -27.810  0.0000E+00  0.0000E+00  0.0000E+00  0.0000E+00  0.0000E+00  0.0000E+00  0.0000E+00  0.0000E+00  0.0000E+00
    -27.380  0.0000E+00  0.0000E+00  0.0000E+00  0.0000E+00  0.0000E+00  0.0000E+00  0.0000E+00  0.0000E+00  0.0000E+00
    -26.949  0.0000E+00  0.0000E+00  0.0000E+00  0.0000E+00  0.0000E+00  0.0000E+00  0.0000E+00  0.0000E+00  0.0000E+00
    -26.519  0.0000E+00  0.0000E+00  0.0000E+00  0.0000E+00  0.0000E+00  0.0000E+00  0.0000E+00  0.0000E+00  0.0000E+00
    -26.088  0.0000E+00  0.0000E+00  0.0000E+00  0.0000E+00  0.0000E+00  0.0000E+00  0.0000E+00  0.0000E+00  0.0000E+00
    -25.658  0.0000E+00  0.0000E+00  0.0000E+00  0.0000E+00  0.0000E+00  0.0000E+00  0.0000E+00  0.0000E+00  0.0000E+00
    -25.227  0.0000E+00  0.0000E+00  0.0000E+00  0.0000E+00  0.0000E+00  0.0000E+00  0.0000E+00  0.0000E+00  0.0000E+00
    -24.797  0.0000E+00  0.0000E+00  0.0000E+00  0.0000E+00  0.0000E+00  0.0000E+00  0.0000E+00  0.0000E+00  0.0000E+00
    -24.366  0.0000E+00  0.0000E+00  0.0000E+00  0.0000E+00  0.0000E+00  0.0000E+00  0.0000E+00  0.0000E+00  0.0000E+00
    -23.936  0.0000E+00  0.0000E+00  0.0000E+00  0.0000E+00  0.0000E+00  0.0000E+00  0.0000E+00  0.0000E+00  0.0000E+00
    -23.505  0.0000E+00  0.0000E+00  0.0000E+00  0.0000E+00  0.0000E+00  0.0000E+00  0.0000E+00  0.0000E+00  0.0000E+00
    -23.075  0.0000E+00  0.0000E+00  0.0000E+00  0.0000E+00  0.0000E+00  0.0000E+00  0.0000E+00  0.0000E+00  0.0000E+00
    -22.644  0.0000E+00  0.0000E+00  0.0000E+00  0.0000E+00  0.0000E+00  0.0000E+00  0.0000E+00  0.0000E+00  0.0000E+00
    -22.214  0.0000E+00  0.0000E+00  0.0000E+00  0.0000E+00  0.0000E+00  0.0000E+00  0.0000E+00  0.0000E+00  0.0000E+00
    -21.783  0.0000E+00  0.0000E+00  0.0000E+00  0.0000E+00  0.0000E+00  0.0000E+00  0.0000E+00  0.0000E+00  0.0000E+00
    -21.353  0.0000E+00  0.0000E+00  0.0000E+00  0.0000E+00  0.0000E+00  0.0000E+00  0.0000E+00  0.0000E+00  0.0000E+00
    -20.922  0.0000E+00  0.0000E+00  0.0000E+00  0.0000E+00  0.0000E+00  0.0000E+00  0.0000E+00  0.0000E+00  0.0000E+00
    -20.492  0.0000E+00  0.0000E+00  0.0000E+00  0.0000E+00  0.0000E+00  0.0000E+00  0.0000E+00  0.0000E+00  0.0000E+00
    -20.061  0.0000E+00  0.0000E+00  0.0000E+00  0.0000E+00  0.0000E+00  0.0000E+00  0.0000E+00  0.0000E+00  0.0000E+00
    -19.631  0.0000E+00  0.0000E+00  0.0000E+00  0.0000E+00  0.0000E+00  0.0000E+00  0.0000E+00  0.0000E+00  0.0000E+00
    -19.200  0.0000E+00  0.0000E+00  0.0000E+00  0.0000E+00  0.0000E+00  0.0000E+00  0.0000E+00  0.0000E+00  0.0000E+00
    -18.770  0.0000E+00  0.0000E+00  0.0000E+00  0.0000E+00  0.0000E+00  0.0000E+00  0.0000E+00  0.0000E+00  0.0000E+00
    -18.339  0.0000E+00  0.0000E+00  0.0000E+00  0.0000E+00  0.0000E+00  0.0000E+00  0.0000E+00  0.0000E+00  0.0000E+00
    -17.909  0.0000E+00  0.0000E+00  0.0000E+00  0.0000E+00  0.0000E+00  0.0000E+00  0.0000E+00  0.0000E+00  0.0000E+00
    -17.478  0.0000E+00  0.0000E+00  0.0000E+00  0.0000E+00  0.0000E+00  0.0000E+00  0.0000E+00  0.0000E+00  0.0000E+00
    -17.048  0.0000E+00  0.0000E+00  0.0000E+00  0.0000E+00  0.0000E+00  0.0000E+00  0.0000E+00  0.0000E+00  0.0000E+00
    -16.617  0.0000E+00  0.0000E+00  0.0000E+00  0.0000E+00  0.0000E+00  0.0000E+00  0.0000E+00  0.0000E+00  0.0000E+00
    -16.187  0.0000E+00  0.0000E+00  0.0000E+00  0.0000E+00  0.0000E+00  0.0000E+00  0.0000E+00  0.0000E+00  0.0000E+00
    -15.756  0.0000E+00  0.0000E+00  0.0000E+00  0.0000E+00  0.0000E+00  0.0000E+00  0.0000E+00  0.0000E+00  0.0000E+00
    -15.326  0.0000E+00  0.0000E+00  0.0000E+00  0.0000E+00  0.0000E+00  0.0000E+00  0.0000E+00  0.0000E+00  0.0000E+00
    -14.895  0.0000E+00  0.0000E+00  0.0000E+00  0.0000E+00  0.0000E+00  0.0000E+00  0.0000E+00  0.0000E+00  0.0000E+00
    -14.465  0.0000E+00  0.0000E+00  0.0000E+00  0.0000E+00  0.0000E+00  0.0000E+00  0.0000E+00  0.0000E+00  0.0000E+00
    -14.034  0.0000E+00  0.0000E+00  0.0000E+00  0.0000E+00  0.0000E+00  0.0000E+00  0.0000E+00  0.0000E+00  0.0000E+00
    -13.604  0.0000E+00  0.0000E+00  0.0000E+00  0.0000E+00  0.0000E+00  0.0000E+00  0.0000E+00  0.0000E+00  0.0000E+00
    -13.174  0.0000E+00  0.0000E+00  0.0000E+00  0.0000E+00  0.0000E+00  0.0000E+00  0.0000E+00  0.0000E+00  0.0000E+00
    -12.743  0.0000E+00  0.0000E+00  0.0000E+00  0.0000E+00  0.0000E+00  0.0000E+00  0.0000E+00  0.0000E+00  0.0000E+00
    -12.313  0.0000E+00  0.0000E+00  0.0000E+00  0.0000E+00  0.0000E+00  0.0000E+00  0.0000E+00  0.0000E+00  0.0000E+00
    -11.882  0.0000E+00  0.0000E+00  0.0000E+00  0.0000E+00  0.0000E+00  0.0000E+00  0.0000E+00  0.0000E+00  0.0000E+00
    -11.452  0.0000E+00  0.0000E+00  0.0000E+00  0.0000E+00  0.0000E+00  0.0000E+00  0.0000E+00  0.0000E+00  0.0000E+00
    -11.021  0.0000E+00  0.0000E+00  0.0000E+00  0.0000E+00  0.0000E+00  0.0000E+00  0.0000E+00  0.0000E+00  0.0000E+00
    -10.591  0.0000E+00  0.0000E+00  0.0000E+00  0.0000E+00  0.0000E+00  0.0000E+00  0.0000E+00  0.0000E+00  0.0000E+00
    -10.160  0.0000E+00  0.0000E+00  0.0000E+00  0.0000E+00  0.0000E+00  0.0000E+00  0.0000E+00  0.0000E+00  0.0000E+00
     -9.730  0.0000E+00  0.0000E+00  0.0000E+00  0.0000E+00  0.0000E+00  0.0000E+00  0.0000E+00  0.0000E+00  0.0000E+00
     -9.299  0.0000E+00  0.0000E+00  0.0000E+00  0.0000E+00  0.0000E+00  0.0000E+00  0.0000E+00  0.0000E+00  0.0000E+00
     -8.869  0.0000E+00  0.0000E+00  0.0000E+00  0.0000E+00  0.0000E+00  0.0000E+00  0.0000E+00  0.0000E+00  0.0000E+00
     -8.438  0.0000E+00  0.0000E+00  0.0000E+00  0.0000E+00  0.0000E+00  0.0000E+00  0.0000E+00  0.0000E+00  0.0000E+00
     -8.008  0.0000E+00  0.0000E+00  0.0000E+00  0.0000E+00  0.0000E+00  0.0000E+00  0.0000E+00  0.0000E+00  0.0000E+00
     -7.577  0.0000E+00  0.0000E+00  0.0000E+00  0.0000E+00  0.0000E+00  0.0000E+00  0.0000E+00  0.0000E+00  0.0000E+00
     -7.147  0.0000E+00  0.0000E+00  0.0000E+00  0.0000E+00  0.0000E+00  0.0000E+00  0.0000E+00  0.0000E+00  0.0000E+00
     -6.716  0.0000E+00  0.0000E+00  0.0000E+00  0.0000E+00  0.0000E+00  0.0000E+00  0.0000E+00  0.0000E+00  0.0000E+00
     -6.286  0.0000E+00  0.0000E+00  0.0000E+00  0.0000E+00  0.0000E+00  0.0000E+00  0.0000E+00  0.0000E+00  0.0000E+00
     -5.855  0.0000E+00  0.0000E+00  0.0000E+00  0.0000E+00  0.0000E+00  0.0000E+00  0.0000E+00  0.0000E+00  0.0000E+00
     -5.425  0.0000E+00  0.0000E+00  0.0000E+00  0.0000E+00  0.0000E+00  0.0000E+00  0.0000E+00  0.0000E+00  0.0000E+00
     -4.994  0.0000E+00  0.0000E+00  0.0000E+00  0.0000E+00  0.0000E+00  0.0000E+00  0.0000E+00  0.0000E+00  0.0000E+00
     -4.564  0.0000E+00  0.0000E+00  0.0000E+00  0.0000E+00  0.0000E+00  0.0000E+00  0.0000E+00  0.0000E+00  0.0000E+00
     -4.133  0.0000E+00  0.0000E+00  0.0000E+00  0.0000E+00  0.0000E+00  0.0000E+00  0.0000E+00  0.0000E+00  0.0000E+00
     -3.703  0.0000E+00  0.0000E+00  0.0000E+00  0.0000E+00  0.0000E+00  0.0000E+00  0.0000E+00  0.0000E+00  0.0000E+00
     -3.272  0.0000E+00  0.0000E+00  0.0000E+00  0.0000E+00  0.0000E+00  0.0000E+00  0.0000E+00  0.0000E+00  0.0000E+00
     -2.842  0.0000E+00  0.0000E+00  0.0000E+00  0.0000E+00  0.0000E+00  0.0000E+00  0.0000E+00  0.0000E+00  0.0000E+00
     -2.411  0.0000E+00  0.0000E+00  0.0000E+00  0.0000E+00  0.0000E+00  0.0000E+00  0.0000E+00  0.0000E+00  0.0000E+00
     -1.981  0.0000E+00  0.0000E+00  0.0000E+00  0.0000E+00  0.0000E+00  0.0000E+00  0.0000E+00  0.0000E+00  0.0000E+00
     -1.550  0.0000E+00  0.0000E+00  0.0000E+00  0.0000E+00  0.0000E+00  0.0000E+00  0.0000E+00  0.0000E+00  0.0000E+00
     -1.120  0.0000E+00  0.0000E+00  0.0000E+00  0.0000E+00  0.0000E+00  0.0000E+00  0.0000E+00  0.0000E+00  0.0000E+00
     -0.689  0.0000E+00  0.0000E+00  0.0000E+00  0.0000E+00  0.0000E+00  0.0000E+00  0.0000E+00  0.0000E+00  0.0000E+00
     -0.259  0.0000E+00  0.0000E+00  0.0000E+00  0.0000E+00  0.0000E+00  0.0000E+00  0.0000E+00  0.0000E+00  0.0000E+00
      0.172  0.0000E+00  0.0000E+00  0.0000E+00  0.0000E+00  0.0000E+00  0.0000E+00  0.0000E+00  0.0000E+00  0.0000E+00
      0.602  0.0000E+00  0.0000E+00  0.0000E+00  0.0000E+00  0.0000E+00  0.0000E+00  0.0000E+00  0.0000E+00  0.0000E+00
      1.032  0.0000E+00  0.0000E+00  0.0000E+00  0.0000E+00  0.0000E+00  0.0000E+00  0.0000E+00  0.0000E+00  0.0000E+00
      1.463  0.0000E+00  0.0000E+00  0.0000E+00  0.0000E+00  0.0000E+00  0.0000E+00  0.0000E+00  0.0000E+00  0.0000E+00
      1.893  0.0000E+00  0.0000E+00  0.0000E+00  0.0000E+00  0.0000E+00  0.0000E+00  0.0000E+00  0.0000E+00  0.0000E+00
      2.324  0.0000E+00  0.0000E+00  0.0000E+00  0.0000E+00  0.0000E+00  0.0000E+00  0.0000E+00  0.0000E+00  0.0000E+00
      2.754  0.0000E+00  0.0000E+00  0.0000E+00  0.0000E+00  0.0000E+00  0.0000E+00  0.0000E+00  0.0000E+00  0.0000E+00
      3.185  0.0000E+00  0.0000E+00  0.0000E+00  0.0000E+00  0.0000E+00  0.0000E+00  0.0000E+00  0.0000E+00  0.0000E+00
      3.615  0.0000E+00  0.0000E+00  0.0000E+00  0.0000E+00  0.0000E+00  0.0000E+00  0.0000E+00  0.0000E+00  0.0000E+00
      4.046  0.0000E+00  0.0000E+00  0.0000E+00  0.0000E+00  0.0000E+00  0.0000E+00  0.0000E+00  0.0000E+00  0.0000E+00
      4.476  0.0000E+00  0.0000E+00  0.0000E+00  0.0000E+00  0.0000E+00  0.0000E+00  0.0000E+00  0.0000E+00  0.0000E+00
      4.907  0.1901E-04  0.2876E-07  0.2876E-07  0.2876E-07  0.1601E-08  0.1601E-08  0.1050E-24  0.1601E-08  0.1050E-24
      5.337  0.8281E-02  0.2566E-04  0.2566E-04  0.2566E-04  0.2230E-05  0.2230E-05  0.1341E-05  0.2230E-05  0.1341E-05
      5.768  0.1383E-01  0.1277E-03  0.1277E-03  0.1277E-03  0.4224E-04  0.4224E-04  0.4785E-05  0.4224E-04  0.4785E-05
      6.198  0.1885E-01  0.2503E-03  0.2503E-03  0.2503E-03  0.6648E-04  0.6648E-04  0.6470E-04  0.6648E-04  0.6470E-04
      6.629  0.3626E-01  0.6241E-03  0.6241E-03  0.6241E-03  0.4387E-03  0.4387E-03  0.1026E-03  0.4387E-03  0.1026E-03
      7.059  0.2773E-01  0.6738E-03  0.6738E-03  0.6738E-03  0.4533E-03  0.4533E-03  0.3697E-03  0.4533E-03  0.3697E-03
      7.490  0.5145E-01  0.1374E-02  0.1374E-02  0.1374E-02  0.2138E-02  0.2138E-02  0.7224E-03  0.2138E-02  0.7224E-03
      7.920  0.6831E-01  0.1810E-02  0.1810E-02  0.1810E-02  0.1481E-01  0.1481E-01  0.9742E-02  0.1481E-01  0.9742E-02
      8.351  0.1209E+00  0.3391E-02  0.3391E-02  0.3391E-02  0.5171E-01  0.5171E-01  0.6063E-01  0.5171E-01  0.6063E-01
      8.781  0.1277E+00  0.5230E-02  0.5230E-02  0.5230E-02  0.9359E-01  0.9359E-01  0.8339E-01  0.9359E-01  0.8339E-01
      9.212  0.1263E+00  0.6989E-02  0.6989E-02  0.6989E-02  0.1364E+00  0.1364E+00  0.8731E-01  0.1364E+00  0.8731E-01
      9.642  0.7197E-01  0.5846E-02  0.5846E-02  0.5846E-02  0.1438E+00  0.1438E+00  0.8712E-01  0.1438E+00  0.8712E-01
     10.073  0.4558E-01  0.6948E-02  0.6948E-02  0.6948E-02  0.1092E+00  0.1092E+00  0.1147E+00  0.1092E+00  0.1147E+00
     10.503  0.7163E-02  0.5155E-02  0.5155E-02  0.5155E-02  0.8565E-01  0.8565E-01  0.5024E-01  0.8565E-01  0.5024E-01
     10.934  0.8111E-02  0.7169E-02  0.7169E-02  0.7169E-02  0.8689E-01  0.8689E-01  0.8415E-01  0.8689E-01  0.8415E-01
     11.364  0.1282E-01  0.1169E-01  0.1169E-01  0.1169E-01  0.1460E+00  0.1460E+00  0.1445E+00  0.1460E+00  0.1445E+00
     11.795  0.1375E-01  0.6856E-02  0.6856E-02  0.6856E-02  0.1220E+00  0.1220E+00  0.9516E-01  0.1220E+00  0.9516E-01
     12.225  0.1564E-01  0.8368E-02  0.8368E-02  0.8368E-02  0.1329E+00  0.1329E+00  0.1156E+00  0.1329E+00  0.1156E+00
     12.656  0.2552E-01  0.1214E-01  0.1214E-01  0.1214E-01  0.1676E+00  0.1676E+00  0.1261E+00  0.1676E+00  0.1261E+00
     13.086  0.2375E-01  0.1068E-01  0.1068E-01  0.1068E-01  0.1625E+00  0.1625E+00  0.1302E+00  0.1625E+00  0.1302E+00
     13.517  0.2878E-01  0.1644E-01  0.1644E-01  0.1644E-01  0.2646E+00  0.2646E+00  0.1591E+00  0.2646E+00  0.1591E+00
     13.947  0.1763E-01  0.9268E-02  0.9268E-02  0.9268E-02  0.1320E+00  0.1320E+00  0.1169E+00  0.1320E+00  0.1169E+00
     14.377  0.9693E-02  0.9347E-02  0.9347E-02  0.9347E-02  0.6958E-01  0.6958E-01  0.7988E-01  0.6958E-01  0.7988E-01
     14.808  0.1107E-01  0.9302E-02  0.9302E-02  0.9302E-02  0.9430E-01  0.9430E-01  0.1429E+00  0.9430E-01  0.1429E+00
     15.238  0.8671E-02  0.7143E-02  0.7143E-02  0.7143E-02  0.7122E-01  0.7122E-01  0.1964E+00  0.7122E-01  0.1964E+00
     15.669  0.1461E-01  0.1079E-01  0.1079E-01  0.1079E-01  0.9205E-01  0.9205E-01  0.2824E+00  0.9205E-01  0.2824E+00
     16.099  0.4521E-02  0.4022E-02  0.4022E-02  0.4022E-02  0.4724E-01  0.4724E-01  0.1334E+00  0.4724E-01  0.1334E+00
     16.530  0.1167E-01  0.6976E-02  0.6976E-02  0.6976E-02  0.9426E-01  0.9426E-01  0.2343E+00  0.9426E-01  0.2343E+00
     16.960  0.1485E-02  0.3846E-02  0.3846E-02  0.3846E-02  0.3669E-01  0.3669E-01  0.1050E+00  0.3669E-01  0.1050E+00
     17.391  0.5675E-02  0.3905E-02  0.3905E-02  0.3905E-02  0.1220E+00  0.1220E+00  0.1580E+00  0.1220E+00  0.1580E+00
     17.821  0.4903E-02  0.3045E-02  0.3045E-02  0.3045E-02  0.7391E-01  0.7391E-01  0.1006E+00  0.7391E-01  0.1006E+00
     18.252  0.4490E-02  0.3154E-02  0.3154E-02  0.3154E-02  0.1739E+00  0.1739E+00  0.1718E+00  0.1739E+00  0.1718E+00
     18.682  0.5075E-02  0.3325E-02  0.3325E-02  0.3325E-02  0.1624E+00  0.1624E+00  0.1306E+00  0.1624E+00  0.1306E+00
     19.113  0.9323E-02  0.3465E-02  0.3465E-02  0.3465E-02  0.2619E+00  0.2619E+00  0.1253E+00  0.2619E+00  0.1253E+00
     19.543  0.5357E-02  0.1648E-02  0.1648E-02  0.1648E-02  0.1124E+00  0.1124E+00  0.3080E-01  0.1124E+00  0.3080E-01
     19.974  0.4576E-02  0.2302E-02  0.2302E-02  0.2302E-02  0.1545E-01  0.1545E-01  0.1657E-01  0.1545E-01  0.1657E-01
     20.404  0.2011E-01  0.7907E-02  0.7907E-02  0.7907E-02  0.5079E-01  0.5079E-01  0.4128E-01  0.5079E-01  0.4128E-01
     20.835  0.9485E-02  0.2890E-02  0.2890E-02  0.2890E-02  0.1839E-01  0.1839E-01  0.1550E-01  0.1839E-01  0.1550E-01
     21.265  0.3670E-02  0.4342E-02  0.4342E-02  0.4342E-02  0.1379E-01  0.1379E-01  0.1144E-01  0.1379E-01  0.1144E-01
     21.696  0.3153E-01  0.1153E-01  0.1153E-01  0.1153E-01  0.5106E-01  0.5106E-01  0.4035E-01  0.5106E-01  0.4035E-01
     22.126  0.1101E-01  0.4602E-02  0.4602E-02  0.4602E-02  0.1723E-01  0.1723E-01  0.1025E-01  0.1723E-01  0.1025E-01
     22.557  0.1478E-01  0.3904E-02  0.3904E-02  0.3904E-02  0.1502E-01  0.1502E-01  0.1305E-01  0.1502E-01  0.1305E-01
     22.987  0.2105E-01  0.9662E-02  0.9662E-02  0.9662E-02  0.2853E-01  0.2853E-01  0.1297E-01  0.2853E-01  0.1297E-01
     23.418  0.3714E-01  0.1017E-01  0.1017E-01  0.1017E-01  0.2910E-01  0.2910E-01  0.1726E-01  0.2910E-01  0.1726E-01
     23.848  0.8159E-02  0.5510E-02  0.5510E-02  0.5510E-02  0.9231E-02  0.9231E-02  0.8022E-02  0.9231E-02  0.8022E-02
     24.279  0.1957E-01  0.1179E-01  0.1179E-01  0.1179E-01  0.2236E-01  0.2236E-01  0.1223E-01  0.2236E-01  0.1223E-01
     24.709  0.2647E-01  0.7593E-02  0.7593E-02  0.7593E-02  0.1619E-01  0.1619E-01  0.3964E-02  0.1619E-01  0.3964E-02
     25.140  0.3092E-01  0.5459E-02  0.5459E-02  0.5459E-02  0.9499E-02  0.9499E-02  0.4425E-02  0.9499E-02  0.4425E-02