    1    1  100    1
  0.1129784E+02  0.2518663E-09  0.2518663E-09  0.2518663E-09  0.5000000E-15
  1.000000000000000E-004
  CAR 
 Pt-fcc                                  
     16    110     24
 
  0.5000000E-01  0.5000000E-01  0.5000000E-01  0.2000000E-02
      1        -34.851820   1.000000
      2        -34.822677   1.000000
      3        -34.822677   1.000000
      4          5.001264   1.000000
      5         12.626904   1.000000
      6         12.765355   1.000000
      7         12.765355   1.000000
      8         16.104451   1.000000
      9         16.104451   1.000000
     10         32.242566   0.000000
     11         38.089202   0.000000
     12         38.921845   0.000000
     13         38.921845   0.000000
     14         46.009472   0.000000
     15         56.153318   0.000000
     16         56.906703   0.000000
     17         56.906703   0.000000
     18         58.218195   0.000000
     19         62.544895   0.000000
     20         62.544895   0.000000
     21         63.697699   0.000000
     22         68.050059   0.000000
     23         68.050059   0.000000
     24         74.227981   0.000000
 
  0.1500000E+00  0.5000000E-01  0.5000000E-01  0.6000000E-02
      1        -35.014620   1.000000
      2        -34.868032   1.000000
      3        -34.834176   1.000000
      4          5.707542   1.000000
      5         12.242964   1.000000
      6         13.037488   1.000000
      7         13.107479   1.000000
      8         15.695754   1.000000
      9         16.176235   1.000000
     10         33.457333   0.000000
     11         36.347097   0.000000
     12         39.468801   0.000000
     13         40.505182   0.000000
     14         48.665459   0.000000
     15         51.780207   0.000000
     16         53.408606   0.000000
     17         55.399760   0.000000
     18         58.220813   0.000000
     19         59.902968   0.000000
     20         63.950066   0.000000
     21         65.430023   0.000000
     22         67.481405   0.000000
     23         69.328294   0.000000
     24         75.404643   0.000000
 
  0.2500000E+00  0.5000000E-01  0.5000000E-01  0.6000000E-02
      1        -35.373500   1.000000
      2        -34.928260   1.000000
      3        -34.877198   1.000000
      4          7.096019   1.000000
      5         11.945991   1.000000
      6         13.321766   1.000000
      7         13.374602   1.000000
      8         15.624359   1.000000
      9         16.569053   1.000000
     10         33.470292   0.000000
     11         35.946443   0.000000
     12         41.763274   0.000000
     13         43.567359   0.000000
     14         45.252912   0.000000
     15         48.758088   0.000000
     16         50.008118   0.000000
     17         55.144027   0.000000
     18         58.221194   0.000000
     19         59.896040   0.000000
     20         64.139708   0.000000
     21         64.998268   0.000000
     22         69.715085   0.000000
     23         69.796603   0.000000
     24         75.798872   0.000000
 
  0.3500000E+00  0.5000000E-01  0.5000000E-01  0.6000000E-02
      1        -35.773889   1.000000
      2        -34.986614   1.000000
      3        -34.935329   1.000000
      4          7.959411   1.000000
      5         12.914774   1.000000
      6         13.102204   1.000000
      7         13.155489   1.000000
      8         16.690208   1.000000
      9         17.780712   1.000000
     10         31.150576   0.000000
     11         35.261388   0.000000
     12         42.273195   0.000000
     13         44.649684   0.000000
     14         44.734672   0.000000
     15         47.404210   0.000000
     16         47.724410   0.000000
     17         58.217304   0.000000
     18         59.965980   0.000000
     19         61.307762   0.000000
     20         64.044019   0.000000
     21         65.058793   0.000000
     22         68.817604   0.000000
     23         70.456116   0.000000
     24         74.795419   0.000000
 
  0.4500000E+00  0.5000000E-01  0.5000000E-01  0.6000000E-02
      1        -36.065252   1.000000
      2        -35.022771   1.000000
      3        -34.985638   1.000000
      4          7.951397   1.000000
      5         12.582373   1.000000
      6         12.741839   1.000000
      7         15.475158   1.000000
      8         18.125669   1.000000
      9         19.138082   0.000000
     10         28.566114   0.000000
     11         32.635680   0.000000
     12         39.765626   0.000000
     13         40.873851   0.000000
     14         49.173355   0.000000
     15         50.986236   0.000000
     16         51.502671   0.000000
     17         58.209152   0.000000
     18         59.728579   0.000000
     19         61.507896   0.000000
     20         62.347073   0.000000
     21         67.320041   0.000000
     22         69.318181   0.000000
     23         70.194615   0.000000
     24         71.983631   0.000000
 
 -0.4500000E+00  0.5000000E-01  0.5000000E-01  0.6000000E-02
      1        -36.145733   1.000000
      2        -35.022626   1.000000
      3        -35.009213   1.000000
      4          7.890676   1.000000
      5         12.435924   1.000000
      6         12.662417   1.000000
      7         16.419196   1.000000
      8         18.867549   0.001631
      9         19.525141   0.000000
     10         27.277908   0.000000
     11         31.984662   0.000000
     12         39.348439   0.000000
     13         39.416055   0.000000
     14         51.956595   0.000000
     15         52.345659   0.000000
     16         53.302970   0.000000
     17         58.208941   0.000000
     18         58.462881   0.000000
     19         59.838583   0.000000
     20         60.946784   0.000000
     21         68.224867   0.000000
     22         68.669656   0.000000
     23         72.181539   0.000000
     24         72.565655   0.000000
 
 -0.3500000E+00  0.5000000E-01  0.5000000E-01  0.6000000E-02
      1        -35.988867   1.000000
      2        -34.997461   1.000000
      3        -34.987759   1.000000
      4          7.984558   1.000000
      5         12.640424   1.000000
      6         12.901104   1.000000
      7         14.613480   1.000000
      8         18.127554   1.000000
      9         18.349541   1.000000
     10         29.460235   0.000000
     11         33.329908   0.000000
     12         40.646553   0.000000
     13         41.664737   0.000000
     14         48.451610   0.000000
     15         48.695204   0.000000
     16         50.543300   0.000000
     17         58.208339   0.000000
     18         59.509510   0.000000
     19         63.013307   0.000000
     20         63.184055   0.000000
     21         66.771082   0.000000
     22         67.685479   0.000000
     23         70.686826   0.000000
     24         72.968558   0.000000
 
 -0.2500000E+00  0.5000000E-01  0.5000000E-01  0.6000000E-02
      1        -35.646362   1.000000
      2        -34.954841   1.000000
      3        -34.929720   1.000000
      4          7.799280   1.000000
      5         12.436769   1.000000
      6         13.102641   1.000000
      7         13.284391   1.000000
      8         16.444744   1.000000
      9         17.146932   1.000000
     10         31.926260   0.000000
     11         36.043089   0.000000
     12         43.474590   0.000000
     13         43.568888   0.000000
     14         45.554072   0.000000
     15         46.487726   0.000000
     16         47.306360   0.000000
     17         58.214474   0.000000
     18         59.040838   0.000000
     19         60.264498   0.000000
     20         63.495775   0.000000
     21         66.613164   0.000000
     22         67.434537   0.000000
     23         71.446829   0.000000
     24         76.078088   0.000000
 
 -0.1500000E+00  0.5000000E-01  0.5000000E-01  0.6000000E-02
      1        -35.240063   1.000000
      2        -34.896737   1.000000
      3        -34.872418   1.000000
      4          6.615458   1.000000
      5         11.930531   1.000000
      6         13.311722   1.000000
      7         13.355818   1.000000
      8         15.543046   1.000000
      9         16.330262   1.000000
     10         34.158787   0.000000
     11         35.460572   0.000000
     12         41.118731   0.000000
     13         41.989609   0.000000
     14         47.351013   0.000000
     15         49.479270   0.000000
     16         52.031193   0.000000
     17         53.508159   0.000000
     18         58.219321   0.000000
     19         59.772044   0.000000
     20         63.637385   0.000000
     21         66.769722   0.000000
     22         66.841248   0.000000
     23         70.892236   0.000000
     24         75.611094   0.000000
 
 -0.5000000E-01  0.5000000E-01  0.5000000E-01  0.6000000E-02
      1        -34.925366   1.000000
      2        -34.846282   1.000000
      3        -34.837756   1.000000
      4          5.364429   1.000000
      5         12.362849   1.000000
      6         12.955949   1.000000
      7         12.969304   1.000000
      8         15.769661   1.000000
      9         16.226546   1.000000
     10         32.885395   0.000000
     11         37.314547   0.000000
     12         39.161211   0.000000
     13         39.433386   0.000000
     14         47.719354   0.000000
     15         53.782099   0.000000
     16         54.211363   0.000000
     17         56.996893   0.000000
     18         58.220841   0.000000
     19         59.758422   0.000000
     20         64.461272   0.000000
     21         65.411346   0.000000
     22         65.902337   0.000000
     23         69.710869   0.000000
     24         75.100276   0.000000
 
  0.1500000E+00  0.1500000E+00  0.5000000E-01  0.6000000E-02
      1        -35.050326   1.000000
      2        -34.891554   1.000000
      3        -34.881480   1.000000
      4          6.055323   1.000000
      5         11.859421   1.000000
      6         13.357906   1.000000
      7         13.371056   1.000000
      8         15.193056   1.000000
      9         16.463198   1.000000
     10         34.097039   0.000000
     11         36.718341   0.000000
     12         39.547161   0.000000
     13         39.918087   0.000000
     14         50.067983   0.000000
     15         51.282902   0.000000
     16         51.486519   0.000000
     17         55.886628   0.000000
     18         57.499312   0.000000
     19         58.223575   0.000000
     20         62.384572   0.000000
     21         66.897432   0.000000
     22         66.991786   0.000000
     23         71.218142   0.000000
     24         77.269851   0.000000
 
  0.2500000E+00  0.1500000E+00  0.5000000E-01  0.1200000E-01
      1        -35.301615   1.000000
      2        -34.978774   1.000000
      3        -34.915501   1.000000
      4          7.246213   1.000000
      5         11.308900   1.000000
      6         13.487476   1.000000
      7         13.926937   1.000000
      8         15.015657   1.000000
      9         16.905983   1.000000
     10         35.196151   0.000000
     11         36.153231   0.000000
     12         40.019359   0.000000
     13         41.698155   0.000000
     14         46.257073   0.000000
     15         49.037189   0.000000
     16         52.986153   0.000000
     17         55.313330   0.000000
     18         56.158465   0.000000
     19         58.215888   0.000000
     20         60.769677   0.000000
     21         65.401996   0.000000
     22         70.215171   0.000000
     23         73.044156   0.000000
     24         77.606148   0.000000
 
  0.3500000E+00  0.1500000E+00  0.5000000E-01  0.1200000E-01
      1        -35.652758   1.000000
      2        -35.056781   1.000000
      3        -34.971669   1.000000
      4          8.435050   1.000000
      5         11.527169   1.000000
      6         12.770669   1.000000
      7         13.924323   1.000000
      8         16.375238   1.000000
      9         18.085014   1.000000
     10         32.826204   0.000000
     11         36.622143   0.000000
     12         40.520583   0.000000
     13         41.443940   0.000000
     14         46.172287   0.000000
     15         48.230396   0.000000
     16         50.148026   0.000000
     17         55.381510   0.000000
     18         58.215043   0.000000
     19         60.073400   0.000000
     20         61.975170   0.000000
     21         64.826278   0.000000
     22         69.491887   0.000000
     23         74.003362   0.000000
     24         75.286470   0.000000
 
  0.4500000E+00  0.1500000E+00  0.5000000E-01  0.1200000E-01
      1        -35.951123   1.000000
      2        -35.115173   1.000000
      3        -35.028606   1.000000
      4          8.601574   1.000000
      5         12.098412   1.000000
      6         13.215235   1.000000
      7         13.595802   1.000000
      8         18.165021   1.000000
      9         19.847054   0.000000
     10         29.610858   0.000000
     11         34.227779   0.000000
     12         38.944404   0.000000
     13         41.545914   0.000000
     14         47.209065   0.000000
     15         50.647799   0.000000
     16         51.960658   0.000000
     17         55.776121   0.000000
     18         58.209828   0.000000
     19         61.636129   0.000000
     20         62.734299   0.000000
     21         66.492312   0.000000
     22         68.346244   0.000000
     23         70.411266   0.000000
     24         73.222734   0.000000
 
 -0.4500000E+00  0.1500000E+00  0.5000000E-01  0.1200000E-01
      1        -36.085682   1.000000
      2        -35.152217   1.000000
      3        -35.046485   1.000000
      4          8.526637   1.000000
      5         11.839143   1.000000
      6         13.261136   1.000000
      7         14.741701   1.000000
      8         18.723473   0.871434
      9         21.701760   0.000000
     10         26.867131   0.000000
     11         33.346459   0.000000
     12         38.548339   0.000000
     13         39.361003   0.000000
     14         50.374278   0.000000
     15         51.272319   0.000000
     16         54.481595   0.000000
     17         57.795960   0.000000
     18         58.218170   0.000000
     19         59.917213   0.000000
     20         62.664981   0.000000
     21         64.613283   0.000000
     22         66.093029   0.000000
     23         71.626409   0.000000
     24         74.204812   0.000000
 
 -0.3500000E+00  0.1500000E+00  0.5000000E-01  0.1200000E-01
      1        -36.012899   1.000000
      2        -35.158065   1.000000
      3        -35.014174   1.000000
      4          8.619837   1.000000
      5         12.020327   1.000000
      6         13.307618   1.000000
      7         14.108598   1.000000
      8         17.868844   1.000000
      9         20.914504   0.000000
     10         28.574365   0.000000
     11         33.796466   0.000000
     12         38.218621   0.000000
     13         41.278056   0.000000
     14         47.305876   0.000000
     15         51.641578   0.000000
     16         52.973500   0.000000
     17         57.807468   0.000000
     18         58.218383   0.000000
     19         61.560542   0.000000
     20         63.022553   0.000000
     21         63.812454   0.000000
     22         68.050343   0.000000
     23         70.790943   0.000000
     24         72.497092   0.000000
 
 -0.2500000E+00  0.1500000E+00  0.5000000E-01  0.1200000E-01
      1        -35.759235   1.000000
      2        -35.117239   1.000000
      3        -34.954189   1.000000
      4          8.665767   1.000000
      5         12.118491   1.000000
      6         12.608837   1.000000
      7         13.713080   1.000000
      8         16.236362   1.000000
      9         19.121060   0.000000
     10         31.876792   0.000000
     11         35.783951   0.000000
     12         39.500988   0.000000
     13         42.346142   0.000000
     14         45.620844   0.000000
     15         49.772754   0.000000
     16         50.424215   0.000000
     17         55.631064   0.000000
     18         58.214641   0.000000
     19         60.594826   0.000000
     20         63.174067   0.000000
     21         64.949869   0.000000
     22         69.255012   0.000000
     23         72.529411   0.000000
     24         73.297530   0.000000
 
 -0.1500000E+00  0.1500000E+00  0.5000000E-01  0.1200000E-01
      1        -35.423142   1.000000
      2        -35.030743   1.000000
      3        -34.894527   1.000000
      4          7.737125   1.000000
      5         11.405550   1.000000
      6         13.239404   1.000000
      7         13.960120   1.000000
      8         15.006956   1.000000
      9         17.421323   1.000000
     10         34.203040   0.000000
     11         36.650716   0.000000
     12         40.184594   0.000000
     13         42.100205   0.000000
     14         45.194993   0.000000
     15         49.656553   0.000000
     16         52.353133   0.000000
     17         54.986300   0.000000
     18         56.537980   0.000000
     19         58.214547   0.000000
     20         61.965794   0.000000
     21         64.099738   0.000000
     22         71.733726   0.000000
     23         73.463829   0.000000
     24         76.112388   0.000000
 
 -0.5000000E-01  0.1500000E+00  0.5000000E-01  0.1200000E-01
      1        -35.145163   1.000000
      2        -34.914235   1.000000
      3        -34.859885   1.000000
      4          6.361236   1.000000
      5         11.859526   1.000000
      6         13.350354   1.000000
      7         13.380377   1.000000
      8         15.283880   1.000000
      9         16.442768   1.000000
     10         34.509032   0.000000
     11         35.668684   0.000000
     12         39.836021   0.000000
     13         41.498622   0.000000
     14         47.981415   0.000000
     15         51.052185   0.000000
     16         52.201688   0.000000
     17         54.907046   0.000000
     18         57.514605   0.000000
     19         58.223001   0.000000
     20         63.393663   0.000000
     21         64.784333   0.000000
     22         69.062495   0.000000
     23         71.188383   0.000000
     24         76.804994   0.000000
 
  0.2500000E+00  0.2500000E+00  0.5000000E-01  0.6000000E-02
      1        -35.400760   1.000000
      2        -35.025862   1.000000
      3        -35.024767   1.000000
      4          7.956021   1.000000
      5         10.554825   1.000000
      6         13.714566   1.000000
      7         14.721570   1.000000
      8         15.087229   1.000000
      9         17.214322   1.000000
     10         36.530667   0.000000
     11         37.761575   0.000000
     12         39.333232   0.000000
     13         39.622160   0.000000
     14         47.038034   0.000000
     15         47.698968   0.000000
     16         49.039647   0.000000
     17         56.832926   0.000000
     18         58.061908   0.000000
     19         58.212425   0.000000
     20         58.371482   0.000000
     21         67.909627   0.000000
     22         69.362354   0.000000
     23         70.921676   0.000000
     24         81.259137   0.000000
 
  0.3500000E+00  0.2500000E+00  0.5000000E-01  0.1200000E-01
      1        -35.633414   1.000000
      2        -35.135794   1.000000
      3        -35.074980   1.000000
      4          8.845672   1.000000
      5         10.120552   1.000000
      6         13.174991   1.000000
      7         15.440519   1.000000
      8         16.416639   1.000000
      9         18.173804   1.000000
     10         35.008845   0.000000
     11         37.691577   0.000000
     12         38.190147   0.000000
     13         40.235391   0.000000
     14         46.293187   0.000000
     15         47.574036   0.000000
     16         49.248983   0.000000
     17         55.778025   0.000000
     18         57.068362   0.000000
     19         58.212189   0.000000
     20         62.268761   0.000000
     21         66.381864   0.000000
     22         69.508825   0.000000
     23         72.159270   0.000000
     24         77.971333   0.000000
 
  0.4500000E+00  0.2500000E+00  0.5000000E-01  0.1200000E-01
      1        -35.853087   1.000000
      2        -35.245543   1.000000
      3        -35.126011   1.000000
      4          9.155148   1.000000
      5         10.639989   1.000000
      6         12.725335   1.000000
      7         15.129708   1.000000
      8         18.412371   1.000000
      9         20.296905   0.000000
     10         30.886272   0.000000
     11         36.067852   0.000000
     12         36.805357   0.000000
     13         41.399154   0.000000
     14         46.721181   0.000000
     15         49.449804   0.000000
     16         51.976570   0.000000
     17         55.245973   0.000000
     18         57.355683   0.000000
     19         58.213860   0.000000
     20         61.597481   0.000000
     21         67.380038   0.000000
     22         70.540069   0.000000
     23         71.438900   0.000000
     24         75.244965   0.000000
 
 -0.4500000E+00  0.2500000E+00  0.5000000E-01  0.1200000E-01
      1        -35.961026   1.000000
      2        -35.359187   1.000000
      3        -35.131506   1.000000
      4          9.293195   1.000000
      5         11.060710   1.000000
      6         13.089434   1.000000
      7         14.678433   1.000000
      8         18.791857   0.211563
      9         23.597356   0.000000
     10         26.850915   0.000000
     11         35.002489   0.000000
     12         37.045400   0.000000
     13         39.606820   0.000000
     14         48.373507   0.000000
     15         51.060754   0.000000
     16         53.364222   0.000000
     17         55.978643   0.000000
     18         58.212652   0.000000
     19         60.221415   0.000000
     20         60.662484   0.000000
     21         66.450519   0.000000
     22         67.740275   0.000000
     23         71.950118   0.000000
     24         73.941484   0.000000
 
 -0.3500000E+00  0.2500000E+00  0.5000000E-01  0.1200000E-01
      1        -35.929673   1.000000
      2        -35.423298   1.000000
      3        -35.087453   1.000000
      4          9.690654   1.000000
      5         11.186606   1.000000
      6         13.076068   1.000000
      7         14.442361   1.000000
      8         17.772013   1.000000
      9         23.356895   0.000000
     10         28.078892   0.000000
     11         34.486594   0.000000
     12         36.996874   0.000000
     13         40.338947   0.000000
     14         46.707900   0.000000
     15         49.799187   0.000000
     16         54.875953   0.000000
     17         58.209542   0.000000
     18         59.894400   0.000000
     19         60.644934   0.000000
     20         62.485917   0.000000
     21         63.987907   0.000000
     22         64.761215   0.000000
     23         70.620962   0.000000
     24         73.603333   0.000000
 
 -0.2500000E+00  0.2500000E+00  0.5000000E-01  0.1200000E-01
      1        -35.806699   1.000000
      2        -35.370088   1.000000
      3        -35.015435   1.000000
      4         10.090875   1.000000
      5         11.510633   1.000000
      6         11.850573   1.000000
      7         14.598795   1.000000
      8         16.166963   1.000000
      9         21.528980   0.000000
     10         31.296416   0.000000
     11         35.391540   0.000000
     12         36.784696   0.000000
     13         42.446917   0.000000
     14         44.257821   0.000000
     15         50.186474   0.000000
     16         55.289678   0.000000
     17         56.110195   0.000000
     18         57.475092   0.000000
     19         58.220515   0.000000
     20         63.692604   0.000000
     21         66.109287   0.000000
     22         69.453389   0.000000
     23         69.918538   0.000000
     24         71.906202   0.000000
 
 -0.1500000E+00  0.2500000E+00  0.5000000E-01  0.1200000E-01
      1        -35.666212   1.000000
      2        -35.186929   1.000000
      3        -34.946155   1.000000
      4          9.126305   1.000000
      5         11.276034   1.000000
      6         12.549516   1.000000
      7         14.386941   1.000000
      8         15.285437   1.000000
      9         19.340818   0.000000
     10         33.064112   0.000000
     11         37.099026   0.000000
     12         38.392301   0.000000
     13         40.486936   0.000000
     14         46.606748   0.000000
     15         50.501293   0.000000
     16         52.009018   0.000000
     17         53.351373   0.000000
     18         58.203114   0.000000
     19         58.379867   0.000000
     20         62.715745   0.000000
     21         64.923231   0.000000
     22         70.781419   0.000000
     23         73.384249   0.000000
     24         73.967445   0.000000
 
 -0.5000000E-01  0.2500000E+00  0.5000000E-01  0.1200000E-01
      1        -35.517153   1.000000
      2        -34.984861   1.000000
      3        -34.908759   1.000000
      4          7.740849   1.000000
      5         11.793664   1.000000
      6         13.194863   1.000000
      7         13.565220   1.000000
      8         15.710687   1.000000
      9         17.254868   1.000000
     10         33.050723   0.000000
     11         36.529167   0.000000
     12         41.836449   0.000000
     13         42.617606   0.000000
     14         45.503937   0.000000
     15         47.602934   0.000000
     16         49.781316   0.000000
     17         57.338052   0.000000
     18         58.109342   0.000000
     19         58.222818   0.000000
     20         63.141460   0.000000
     21         64.743703   0.000000
     22         69.657800   0.000000
     23         72.689039   0.000000
     24         76.236153   0.000000
 
  0.3500000E+00  0.3500000E+00  0.5000000E-01  0.6000000E-02
      1        -35.763376   1.000000
      2        -35.182786   1.000000
      3        -35.173655   1.000000
      4          8.637893   1.000000
      5          9.356850   1.000000
      6         14.773218   1.000000
      7         16.611428   1.000000
      8         17.274501   1.000000
      9         18.158137   1.000000
     10         35.156067   0.000000
     11         35.854479   0.000000
     12         37.290918   0.000000
     13         42.134436   0.000000
     14         42.601036   0.000000
     15         49.434320   0.000000
     16         50.103901   0.000000
     17         52.726997   0.000000
     18         58.215504   0.000000
     19         59.217553   0.000000
     20         62.301867   0.000000
     21         68.633331   0.000000
     22         70.891230   0.000000
     23         71.038493   0.000000
     24         74.726840   0.000000
 
  0.4500000E+00  0.3500000E+00  0.5000000E-01  0.1200000E-01
      1        -35.901652   1.000000
      2        -35.284285   1.000000
      3        -35.224249   1.000000
      4          8.609407   1.000000
      5          9.176630   1.000000
      6         14.933612   1.000000
      7         17.248326   1.000000
      8         18.444037   1.000000
      9         20.192103   0.000000
     10         31.967991   0.000000
     11         33.970474   0.000000
     12         35.853276   0.000000
     13         42.724368   0.000000
     14         44.485786   0.000000
     15         49.305842   0.000000
     16         52.814352   0.000000
     17         54.213341   0.000000
     18         58.209069   0.000000
     19         58.990435   0.000000
     20         59.898461   0.000000
     21         68.249359   0.000000
     22         69.647376   0.000000
     23         72.064070   0.000000
     24         72.561169   0.000000
 
 -0.4500000E+00  0.3500000E+00  0.5000000E-01  0.1200000E-01
      1        -35.927398   1.000000
      2        -35.449921   1.000000
      3        -35.228475   1.000000
      4          8.808371   1.000000
      5          9.811259   1.000000
      6         14.277099   1.000000
      7         16.557379   1.000000
      8         19.029842   0.000000
      9         24.030317   0.000000
     10         27.773153   0.000000
     11         33.785215   0.000000
     12         34.742325   0.000000
     13         42.239757   0.000000
     14         47.515735   0.000000
     15         49.012182   0.000000
     16         52.709420   0.000000
     17         57.184884   0.000000
     18         58.211873   0.000000
     19         59.349399   0.000000
     20         60.136890   0.000000
     21         65.754734   0.000000
     22         68.599269   0.000000
     23         70.260859   0.000000
     24         72.641005   0.000000
 
 -0.3500000E+00  0.3500000E+00  0.5000000E-01  0.1200000E-01
      1        -35.806938   1.000000
      2        -35.646699   1.000000
      3        -35.178256   1.000000
      4          9.361872   1.000000
      5         10.823703   1.000000
      6         13.239994   1.000000
      7         15.791745   1.000000
      8         18.190387   1.000000
      9         24.814539   0.000000
     10         28.465450   0.000000
     11         31.961083   0.000000
     12         36.889349   0.000000
     13         40.839540   0.000000
     14         47.302551   0.000000
     15         49.395538   0.000000
     16         51.857811   0.000000
     17         58.214703   0.000000
     18         59.522777   0.000000
     19         61.450381   0.000000
     20         63.067464   0.000000
     21         64.314810   0.000000
     22         67.805271   0.000000
     23         69.041912   0.000000
     24         71.026831   0.000000
 
 -0.2500000E+00  0.3500000E+00  0.5000000E-01  0.1200000E-01
      1        -35.820917   1.000000
      2        -35.558312   1.000000
      3        -35.096337   1.000000
      4         10.092136   1.000000
      5         11.341325   1.000000
      6         12.255688   1.000000
      7         15.004864   1.000000