 vasp.6.3.2 27Jun22 (build Aug 12 2022 00:53:59) complex                        
  
 executed on               tv2STD date 2024.12.03  01:37:59
 running   24 mpi-ranks, with    1 threads/rank
 distrk:  each k-point on   24 cores,    1 groups
 distr:  one band on NCORE=   1 cores,   24 groups


--------------------------------------------------------------------------------------------------------


 INCAR:
   SYSTEM = Pt-fcc
   NWRITE = 2    write-flag
   ISTART = 0    job   : 0-new, 1-cont, 2-samecut
   ICHARG = 2    charge: 0-wave, 1-file, 2-atom, >10-const
   INIWAV = 1    electr: 0-lowe 1-rand  2-diag
   ENCUT = 425.0     energy cutoff in eV
   PREC = accurate      normal | accurate
   ADDGRID = .FALSE.  (use fine grid)
   NELM = 100     number of ELM steps
   EDIFF = 1E-06    energy stopping-criterion for ELM
   LREAL = .FALSE.      real-space projection (.FALSE., .TRUE., On, Auto)
   ALGO = Normal     Normal, Fast, Very_Fast
   LWAVE = .TRUE.
   LCHARG = .TRUE.
   NSW = 100       max number of geometry steps
   IBRION = 2     ionic relax: 0-MD, 1-quasi-Newton, 2-CG, 3-Damped MD
   EDIFFG = -0.02  force (eV/A) stopping-criterion for geometry steps
   ISIF = 2     (1:force\=y stress\=trace only ions\=y shape\=n volume\=n)
   ISYM = 1     (1-use symmetry, 0-no symmetry)
   ISMEAR = 0     (-1-Fermi, 1-Methfessel/Paxton)
   SIGMA = 0.05   broadening in eV
   LORBIT = 11

 POTCAR:    PAW_PBE Pt_pv 12Dec2005               
 POTCAR:    PAW_PBE Pt_pv 12Dec2005               
   SHA256 =  e5abf7e8cd8db70d0153315afc5ad66b6e3eeee29cc2d5b91b16730957c1d208 Pt_pv/POTCAR          
   COPYR  = (c) Copyright 12Dec2005 Georg Kresse                                                    
   COPYR  = This file is part of the software VASP. Any use, copying, and all other rights are regul
   COPYR  = If you do not have a valid VASP license, you may not use, copy or distribute this file. 
   VRHFIN =Pt: 5ps1d9                                                                               
   LEXCH  = PE                                                                                      
   EATOM  =  2428.2504 eV,  178.4714 Ry                                                             
                                                                                                    
   TITEL  = PAW_PBE Pt_pv 12Dec2005                                                                 
   LULTRA =        F    use ultrasoft PP ?                                                          
   IUNSCR =        1    unscreen: 0-lin 1-nonlin 2-no                                               
   RPACOR =    2.000    partial core radius                                                         
   POMASS =  195.080; ZVAL   =   16.000    mass and valenz                                          
   RCORE  =    2.200    outmost cutoff radius                                                       
   RWIGS  =    2.200; RWIGS  =    1.164    wigner-seitz radius (au A)                               
   ENMAX  =  294.607; ENMIN  =  220.955 eV                                                          
   ICORE  =        3    local potential                                                             
   LCOR   =        T    correct aug charges                                                         
   LPAW   =        T    paw PP                                                                      
   EAUG   =  527.014                                                                                
   DEXC   =    0.000                                                                                
   RMAX   =    2.247    core radius for proj-oper                                                   
   RAUG   =    1.300    factor for augmentation sphere                                              
   RDEP   =    2.279    radius for radial grids                                                     
   RDEPT  =    1.878    core radius for aug-charge                                                  
                                                                                                    
   Atomic configuration                                                                             
   16 entries                                                                                       
     n  l   j            E        occ.                                                              
     1  0  0.50    -78401.1885   2.0000                                                             
     2  0  0.50    -13770.7750   2.0000                                                             
     2  1  1.50    -11931.0468   6.0000                                                             
     3  0  0.50     -3234.7234   2.0000                                                             
     3  1  1.50     -2699.2216   6.0000                                                             
     3  2  2.50     -2119.5714  10.0000                                                             
     4  0  0.50      -695.1528   2.0000                                                             
     4  1  1.50      -519.6034   6.0000                                                             
     4  2  2.50      -306.6786  10.0000                                                             
     4  3  3.50       -70.1041  14.0000                                                             
     5  0  0.50      -101.7747   2.0000                                                             
     5  1  1.50       -55.9873   6.0000                                                             
     6  1  1.50        -6.8029   0.0000                                                             
     5  2  2.50        -6.1423   9.0000                                                             
     6  0  0.50        -5.6573   1.0000                                                             
     5  3  2.50        -1.3606   0.0000                                                             
   Description                                                                                      
     l       E           TYP  RCUT    TYP  RCUT                                                     
     1    -55.9873477     23  2.000                                                                 
     1     27.2116520     23  2.000                                                                 
     2     -6.1423404     23  2.200                                                                 
     2     -4.6754623     23  2.200                                                                 
     0     -5.6573207     23  2.200                                                                 
     0     47.6203910     23  2.200                                                                 
     3      6.8029130     23  2.200                                                                 
  local pseudopotential read in
  partial core-charges read in
  partial kinetic energy density read in
  atomic valenz-charges read in
  non local Contribution for L=           1  read in
    real space projection operators read in
  non local Contribution for L=           1  read in
    real space projection operators read in
  non local Contribution for L=           2  read in
    real space projection operators read in
  non local Contribution for L=           2  read in
    real space projection operators read in
  non local Contribution for L=           0  read in
    real space projection operators read in
  non local Contribution for L=           0  read in
    real space projection operators read in
    PAW grid and wavefunctions read in
 
   number of l-projection  operators is LMAX  =           6
   number of lm-projection operators is LMMAX =          18
 
  PAW_PBE Pt_pv 12Dec2005               :
 energy of atom  1       EATOM=-2428.2504
 kinetic energy error for atom=    0.0554 (will be added to EATOM!!)
 
 
 POSCAR: Pt
  positions in cartesian coordinates
  No initial velocities read in
 exchange correlation table for  LEXCH =        8
   RHO(1)=    0.500       N(1)  =     2000
   RHO(2)=  100.500       N(2)  =     4000
 


--------------------------------------------------------------------------------------------------------


 ion  position               nearest neighbor table
   1  0.000  0.000  0.000-
 
  LATTYP: Found a face centered cubic cell.
 ALAT       =     3.5619275330
  
  Lattice vectors:
  
 A1 = (   0.0000000000,   1.7809637665,   1.7809637665)
 A2 = (   1.7809637665,   0.0000000000,   1.7809637665)
 A3 = (   1.7809637665,   1.7809637665,   0.0000000000)


Analysis of symmetry for initial positions (statically):
=====================================================================
 Subroutine PRICEL returns:
 Original cell was already a primitive cell.
 

 Routine SETGRP: Setting up the symmetry group for a 
 face centered cubic supercell.


 Subroutine GETGRP returns: Found 48 space group operations
 (whereof 48 operations were pure point group operations)
 out of a pool of 48 trial point group operations.


The static configuration has the point symmetry O_h .


Analysis of symmetry for dynamics (positions and initial velocities):
=====================================================================
 Subroutine PRICEL returns:
 Original cell was already a primitive cell.
 

 Routine SETGRP: Setting up the symmetry group for a 
 face centered cubic supercell.


 Subroutine GETGRP returns: Found 48 space group operations
 (whereof 48 operations were pure point group operations)
 out of a pool of 48 trial point group operations.


The dynamic configuration has the point symmetry O_h .


 Subroutine INISYM returns: Found 48 space group operations
 (whereof 48 operations are pure point group operations),
 and found     1 'primitive' translations


----------------------------------------------------------------------------------------

                                     Primitive cell                                     

  volume of cell :      11.2978

  direct lattice vectors                    reciprocal lattice vectors
     0.000000000  1.780963766  1.780963766    -0.280746868  0.280746868  0.280746868
     1.780963766  0.000000000  1.780963766     0.280746868 -0.280746868  0.280746868
     1.780963766  1.780963766  0.000000000     0.280746868  0.280746868 -0.280746868

  length of vectors
     2.518663113  2.518663113  2.518663113     0.486267840  0.486267840  0.486267840

  position of ions in fractional coordinates (direct lattice)
     0.000000000  0.000000000  0.000000000

  ion indices of the primitive-cell ions
   primitive index   ion index
                 1           1

----------------------------------------------------------------------------------------

 
 
 KPOINTS: Automatic mesh                          

Automatic generation of k-mesh.
 Grid dimensions read from file:
 generate k-points for:   10   10   10

 Generating k-lattice:

  Cartesian coordinates                     Fractional coordinates (reciprocal lattice)
    -0.028074687  0.028074687  0.028074687     0.100000000 -0.000000000 -0.000000000
     0.028074687 -0.028074687  0.028074687     0.000000000  0.100000000  0.000000000
     0.028074687  0.028074687 -0.028074687     0.000000000  0.000000000  0.100000000

  Length of vectors
     0.048626784  0.048626784  0.048626784

  Shift w.r.t. Gamma in fractional coordinates (k-lattice)
     0.500000000  0.500000000  0.500000000

 
 Subroutine IBZKPT returns following result:
 ===========================================
 
 Found    110 irreducible k-points:
 
 Following reciprocal coordinates:
            Coordinates               Weight
  0.050000  0.050000  0.050000      8.000000
  0.150000  0.050000  0.050000     24.000000
  0.250000  0.050000  0.050000     24.000000
  0.350000  0.050000  0.050000     24.000000
  0.450000  0.050000  0.050000     24.000000
 -0.450000  0.050000  0.050000     24.000000
 -0.350000  0.050000  0.050000     24.000000
 -0.250000  0.050000  0.050000     24.000000
 -0.150000  0.050000  0.050000     24.000000
 -0.050000  0.050000  0.050000     24.000000
  0.150000  0.150000  0.050000     24.000000
  0.250000  0.150000  0.050000     48.000000
  0.350000  0.150000  0.050000     48.000000
  0.450000  0.150000  0.050000     48.000000
 -0.450000  0.150000  0.050000     48.000000
 -0.350000  0.150000  0.050000     48.000000
 -0.250000  0.150000  0.050000     48.000000
 -0.150000  0.150000  0.050000     48.000000
 -0.050000  0.150000  0.050000     48.000000
  0.250000  0.250000  0.050000     24.000000
  0.350000  0.250000  0.050000     48.000000
  0.450000  0.250000  0.050000     48.000000
 -0.450000  0.250000  0.050000     48.000000
 -0.350000  0.250000  0.050000     48.000000
 -0.250000  0.250000  0.050000     48.000000
 -0.150000  0.250000  0.050000     48.000000
 -0.050000  0.250000  0.050000     48.000000
  0.350000  0.350000  0.050000     24.000000
  0.450000  0.350000  0.050000     48.000000
 -0.450000  0.350000  0.050000     48.000000
 -0.350000  0.350000  0.050000     48.000000
 -0.250000  0.350000  0.050000     48.000000
 -0.150000  0.350000  0.050000     48.000000
 -0.050000  0.350000  0.050000     48.000000
  0.450000  0.450000  0.050000     24.000000
 -0.450000  0.450000  0.050000     48.000000
 -0.350000  0.450000  0.050000     48.000000
 -0.250000  0.450000  0.050000     48.000000
 -0.150000  0.450000  0.050000     48.000000
 -0.050000  0.450000  0.050000     48.000000
 -0.450000 -0.450000  0.050000     24.000000
 -0.350000 -0.450000  0.050000     48.000000
 -0.250000 -0.450000  0.050000     48.000000
 -0.150000 -0.450000  0.050000     48.000000
 -0.350000 -0.350000  0.050000     24.000000
 -0.250000 -0.350000  0.050000     48.000000
 -0.150000 -0.350000  0.050000     48.000000
 -0.250000 -0.250000  0.050000     24.000000
 -0.150000 -0.250000  0.050000     48.000000
 -0.150000 -0.150000  0.050000     24.000000
  0.150000  0.150000  0.150000      8.000000
  0.250000  0.150000  0.150000     24.000000
  0.350000  0.150000  0.150000     24.000000
  0.450000  0.150000  0.150000     24.000000
 -0.450000  0.150000  0.150000     24.000000
 -0.350000  0.150000  0.150000     24.000000
 -0.250000  0.150000  0.150000     24.000000
 -0.150000  0.150000  0.150000     24.000000
  0.250000  0.250000  0.150000     24.000000
  0.350000  0.250000  0.150000     48.000000
  0.450000  0.250000  0.150000     48.000000
 -0.450000  0.250000  0.150000     48.000000
 -0.350000  0.250000  0.150000     48.000000
 -0.250000  0.250000  0.150000     48.000000
 -0.150000  0.250000  0.150000     48.000000
  0.350000  0.350000  0.150000     24.000000
  0.450000  0.350000  0.150000     48.000000
 -0.450000  0.350000  0.150000     48.000000
 -0.350000  0.350000  0.150000     48.000000
 -0.250000  0.350000  0.150000     48.000000
 -0.150000  0.350000  0.150000     48.000000
  0.450000  0.450000  0.150000     24.000000
 -0.450000  0.450000  0.150000     48.000000
 -0.350000  0.450000  0.150000     48.000000
 -0.250000  0.450000  0.150000     48.000000
 -0.150000  0.450000  0.150000     48.000000
 -0.450000 -0.450000  0.150000     24.000000
 -0.350000 -0.450000  0.150000     48.000000
 -0.250000 -0.450000  0.150000     48.000000
 -0.350000 -0.350000  0.150000     24.000000
 -0.250000 -0.350000  0.150000     48.000000
 -0.250000 -0.250000  0.150000     24.000000
  0.250000  0.250000  0.250000      8.000000
  0.350000  0.250000  0.250000     24.000000
  0.450000  0.250000  0.250000     24.000000
 -0.450000  0.250000  0.250000     24.000000
 -0.350000  0.250000  0.250000     24.000000
 -0.250000  0.250000  0.250000     24.000000
  0.350000  0.350000  0.250000     24.000000
  0.450000  0.350000  0.250000     48.000000
 -0.450000  0.350000  0.250000     48.000000
 -0.350000  0.350000  0.250000     48.000000
 -0.250000  0.350000  0.250000     48.000000
  0.450000  0.450000  0.250000     24.000000
 -0.450000  0.450000  0.250000     48.000000
 -0.350000  0.450000  0.250000     48.000000
 -0.250000  0.450000  0.250000     48.000000
 -0.450000 -0.450000  0.250000     24.000000
 -0.350000 -0.450000  0.250000     48.000000
 -0.350000 -0.350000  0.250000     24.000000
  0.350000  0.350000  0.350000      8.000000
  0.450000  0.350000  0.350000     24.000000
 -0.450000  0.350000  0.350000     24.000000
 -0.350000  0.350000  0.350000     24.000000
  0.450000  0.450000  0.350000     24.000000
 -0.450000  0.450000  0.350000     48.000000
 -0.350000  0.450000  0.350000     48.000000
 -0.450000 -0.450000  0.350000     24.000000
  0.450000  0.450000  0.450000      8.000000
 -0.450000  0.450000  0.450000     24.000000
 
 Following cartesian coordinates:
            Coordinates               Weight
  0.014037  0.014037  0.014037      8.000000
 -0.014037  0.042112  0.042112     24.000000
 -0.042112  0.070187  0.070187     24.000000
 -0.070187  0.098261  0.098261     24.000000
 -0.098261  0.126336  0.126336     24.000000
  0.154411 -0.126336 -0.126336     24.000000
  0.126336 -0.098261 -0.098261     24.000000
  0.098261 -0.070187 -0.070187     24.000000
  0.070187 -0.042112 -0.042112     24.000000
  0.042112 -0.014037 -0.014037     24.000000
  0.014037  0.014037  0.070187     24.000000
 -0.014037  0.042112  0.098261     48.000000
 -0.042112  0.070187  0.126336     48.000000
 -0.070187  0.098261  0.154411     48.000000
  0.182485 -0.154411 -0.098261     48.000000
  0.154411 -0.126336 -0.070187     48.000000
  0.126336 -0.098261 -0.042112     48.000000
  0.098261 -0.070187 -0.014037     48.000000
  0.070187 -0.042112  0.014037     48.000000
  0.014037  0.014037  0.126336     24.000000
 -0.014037  0.042112  0.154411     48.000000
 -0.042112  0.070187  0.182485     48.000000
  0.210560 -0.182485 -0.070187     48.000000
  0.182485 -0.154411 -0.042112     48.000000
  0.154411 -0.126336 -0.014037     48.000000
  0.126336 -0.098261  0.014037     48.000000
  0.098261 -0.070187  0.042112     48.000000
  0.014037  0.014037  0.182485     24.000000
 -0.014037  0.042112  0.210560     48.000000
  0.238635 -0.210560 -0.042112     48.000000
  0.210560 -0.182485 -0.014037     48.000000
  0.182485 -0.154411  0.014037     48.000000
  0.154411 -0.126336  0.042112     48.000000
  0.126336 -0.098261  0.070187     48.000000
  0.014037  0.014037  0.238635     24.000000
  0.266710 -0.238635 -0.014037     48.000000
  0.238635 -0.210560  0.014037     48.000000
  0.210560 -0.182485  0.042112     48.000000
  0.182485 -0.154411  0.070187     48.000000
  0.154411 -0.126336  0.098261     48.000000
  0.014037  0.014037 -0.266710     24.000000
 -0.014037  0.042112 -0.238635     48.000000
 -0.042112  0.070187 -0.210560     48.000000
 -0.070187  0.098261 -0.182485     48.000000
  0.014037  0.014037 -0.210560     24.000000
 -0.014037  0.042112 -0.182485     48.000000
 -0.042112  0.070187 -0.154411     48.000000
  0.014037  0.014037 -0.154411     24.000000
 -0.014037  0.042112 -0.126336     48.000000
  0.014037  0.014037 -0.098261     24.000000
  0.042112  0.042112  0.042112      8.000000
  0.014037  0.070187  0.070187     24.000000
 -0.014037  0.098261  0.098261     24.000000
 -0.042112  0.126336  0.126336     24.000000
  0.210560 -0.126336 -0.126336     24.000000
  0.182485 -0.098261 -0.098261     24.000000
  0.154411 -0.070187 -0.070187     24.000000
  0.126336 -0.042112 -0.042112     24.000000
  0.042112  0.042112  0.098261     24.000000
  0.014037  0.070187  0.126336     48.000000
 -0.014037  0.098261  0.154411     48.000000
  0.238635 -0.154411 -0.098261     48.000000
  0.210560 -0.126336 -0.070187     48.000000
  0.182485 -0.098261 -0.042112     48.000000
  0.154411 -0.070187 -0.014037     48.000000
  0.042112  0.042112  0.154411     24.000000
  0.014037  0.070187  0.182485     48.000000
  0.266710 -0.182485 -0.070187     48.000000
  0.238635 -0.154411 -0.042112     48.000000
  0.210560 -0.126336 -0.014037     48.000000
  0.182485 -0.098261  0.014037     48.000000
  0.042112  0.042112  0.210560     24.000000
  0.294784 -0.210560 -0.042112     48.000000
  0.266710 -0.182485 -0.014037     48.000000
  0.238635 -0.154411  0.014037     48.000000
  0.210560 -0.126336  0.042112     48.000000
  0.042112  0.042112 -0.294784     24.000000
  0.014037  0.070187 -0.266710     48.000000
 -0.014037  0.098261 -0.238635     48.000000
  0.042112  0.042112 -0.238635     24.000000
  0.014037  0.070187 -0.210560     48.000000
  0.042112  0.042112 -0.182485     24.000000
  0.070187  0.070187  0.070187      8.000000
  0.042112  0.098261  0.098261     24.000000
  0.014037  0.126336  0.126336     24.000000
  0.266710 -0.126336 -0.126336     24.000000
  0.238635 -0.098261 -0.098261     24.000000
  0.210560 -0.070187 -0.070187     24.000000
  0.070187  0.070187  0.126336     24.000000
  0.042112  0.098261  0.154411     48.000000
  0.294784 -0.154411 -0.098261     48.000000
  0.266710 -0.126336 -0.070187     48.000000
  0.238635 -0.098261 -0.042112     48.000000
  0.070187  0.070187  0.182485     24.000000
  0.322859 -0.182485 -0.070187     48.000000
  0.294784 -0.154411 -0.042112     48.000000
  0.266710 -0.126336 -0.014037     48.000000
  0.070187  0.070187 -0.322859     24.000000
  0.042112  0.098261 -0.294784     48.000000
  0.070187  0.070187 -0.266710     24.000000
  0.098261  0.098261  0.098261      8.000000
  0.070187  0.126336  0.126336     24.000000
  0.322859 -0.126336 -0.126336     24.000000
  0.294784 -0.098261 -0.098261     24.000000
  0.098261  0.098261  0.154411     24.000000
  0.350934 -0.154411 -0.098261     48.000000
  0.322859 -0.126336 -0.070187     48.000000
  0.098261  0.098261 -0.350934     24.000000
  0.126336  0.126336  0.126336      8.000000
  0.379008 -0.126336 -0.126336     24.000000
 


--------------------------------------------------------------------------------------------------------




 Dimension of arrays:
   k-points           NKPTS =    110   k-points in BZ     NKDIM =    110   number of bands    NBANDS=     24
   number of dos      NEDOS =    301   number of ions     NIONS =      1
   non local maximal  LDIM  =      6   non local SUM 2l+1 LMDIM =     18
   total plane-waves  NPLWV =   5832
   max r-space proj   IRMAX =      1   max aug-charges    IRDMAX=  17773
   dimension x,y,z NGX =    18 NGY =   18 NGZ =   18
   dimension x,y,z NGXF=    36 NGYF=   36 NGZF=   36
   support grid    NGXF=    36 NGYF=   36 NGZF=   36
   ions per type =               1
   NGX,Y,Z   is equivalent  to a cutoff of  11.88, 11.88, 11.88 a.u.
   NGXF,Y,Z  is equivalent  to a cutoff of  23.76, 23.76, 23.76 a.u.

 SYSTEM =  Pt-fcc                                  
 POSCAR =  Pt                                      

 Startparameter for this run:
   NWRITE =      2    write-flag & timer
   PREC   = accura    normal or accurate (medium, high low for compatibility)
   ISTART =      0    job   : 0-new  1-cont  2-samecut
   ICHARG =      2    charge: 1-file 2-atom 10-const
   ISPIN  =      1    spin polarized calculation?
   LNONCOLLINEAR =      F non collinear calculations
   LSORBIT =      F    spin-orbit coupling
   INIWAV =      1    electr: 0-lowe 1-rand  2-diag
   LASPH  =      F    aspherical Exc in radial PAW
 Electronic Relaxation 1
   ENCUT  =  425.0 eV  31.24 Ry    5.59 a.u.   4.23  4.23  4.23*2*pi/ulx,y,z
   ENINI  =  425.0     initial cutoff
   ENAUG  =  527.0 eV  augmentation charge cutoff
   NELM   =    100;   NELMIN=  2; NELMDL= -5     # of ELM steps 
   EDIFF  = 0.1E-05   stopping-criterion for ELM
   LREAL  =      F    real-space projection
   NLSPLINE    = F    spline interpolate recip. space projectors
   LCOMPAT=      F    compatible to vasp.4.4
   GGA_COMPAT  = T    GGA compatible to vasp.4.4-vasp.4.6
   LMAXPAW     = -100 max onsite density
   LMAXMIX     =    2 max onsite mixed and CHGCAR
   VOSKOWN=      0    Vosko Wilk Nusair interpolation
   ROPT   =    0.00000
 Ionic relaxation
   EDIFFG = -.2E-01   stopping-criterion for IOM
   NSW    =    100    number of steps for IOM
   NBLOCK =      1;   KBLOCK =    100    inner block; outer block 
   IBRION =      2    ionic relax: 0-MD 1-quasi-New 2-CG
   NFREE  =      1    steps in history (QN), initial steepest desc. (CG)
   ISIF   =      2    stress and relaxation
   IWAVPR =     11    prediction:  0-non 1-charg 2-wave 3-comb
   ISYM   =      1    0-nonsym 1-usesym 2-fastsym
   LCORR  =      T    Harris-Foulkes like correction to forces

   POTIM  = 0.5000    time-step for ionic-motion
   TEIN   =    0.0    initial temperature
   TEBEG  =    0.0;   TEEND  =   0.0 temperature during run
   SMASS  =  -3.00    Nose mass-parameter (am)
   estimated Nose-frequenzy (Omega)   =  0.10E-29 period in steps = 0.13E+47 mass=  -0.145E-27a.u.
   SCALEE = 1.0000    scale energy and forces
   NPACO  =    256;   APACO  = 10.0  distance and # of slots for P.C.
   PSTRESS=    0.0 pullay stress

  Mass of Ions in am
   POMASS = 195.08
  Ionic Valenz
   ZVAL   =  16.00
  Atomic Wigner-Seitz radii
   RWIGS  =  -1.00
  virtual crystal weights 
   VCA    =   1.00
   NELECT =      16.0000    total number of electrons
   NUPDOWN=      -1.0000    fix difference up-down

 DOS related values:
   EMIN   =  10.00;   EMAX   =-10.00  energy-range for DOS
   EFERMI =   0.00
   ISMEAR =     0;   SIGMA  =   0.05  broadening in eV -4-tet -1-fermi 0-gaus

 Electronic relaxation 2 (details)
   IALGO  =     38    algorithm
   LDIAG  =      T    sub-space diagonalisation (order eigenvalues)
   LSUBROT=      F    optimize rotation matrix (better conditioning)
   TURBO    =      0    0=normal 1=particle mesh
   IRESTART =      0    0=no restart 2=restart with 2 vectors
   NREBOOT  =      0    no. of reboots
   NMIN     =      0    reboot dimension
   EREF     =   0.00    reference energy to select bands
   IMIX   =      4    mixing-type and parameters
     AMIX     =   0.40;   BMIX     =  1.00
     AMIX_MAG =   1.60;   BMIX_MAG =  1.00
     AMIN     =   0.10
     WC   =   100.;   INIMIX=   1;  MIXPRE=   1;  MAXMIX= -45

 Intra band minimization:
   WEIMIN = 0.0010     energy-eigenvalue tresh-hold
   EBREAK =  0.10E-07  absolut break condition
   DEPER  =   0.30     relativ break condition  

   TIME   =   0.40     timestep for ELM

  volume/ion in A,a.u.               =      11.30        76.24
  Fermi-wavevector in a.u.,A,eV,Ry     =   1.838441  3.474150 45.985869  3.379866
  Thomas-Fermi vector in A             =   2.891204
 
 Write flags
   LWAVE        =      T    write WAVECAR
   LDOWNSAMPLE  =      F    k-point downsampling of WAVECAR
   LCHARG       =      T    write CHGCAR
   LVTOT        =      F    write LOCPOT, total local potential
   LVHAR        =      F    write LOCPOT, Hartree potential only
   LELF         =      F    write electronic localiz. function (ELF)
   LORBIT       =     11    0 simple, 1 ext, 2 COOP (PROOUT), +10 PAW based schemes


 Dipole corrections
   LMONO  =      F    monopole corrections only (constant potential shift)
   LDIPOL =      F    correct potential (dipole corrections)
   IDIPOL =      0    1-x, 2-y, 3-z, 4-all directions 
   EPSILON=  1.0000000 bulk dielectric constant

 Exchange correlation treatment:
   GGA     =    --    GGA type
   LEXCH   =     8    internal setting for exchange type
   LIBXC   =     F    Libxc                    
   VOSKOWN =     0    Vosko Wilk Nusair interpolation
   LHFCALC =     F    Hartree Fock is set to
   LHFONE  =     F    Hartree Fock one center treatment
   AEXX    =    0.0000 exact exchange contribution

 Linear response parameters
   LEPSILON=     F    determine dielectric tensor
   LRPA    =     F    only Hartree local field effects (RPA)
   LNABLA  =     F    use nabla operator in PAW spheres
   LVEL    =     F    velocity operator in full k-point grid
   CSHIFT  =0.1000    complex shift for real part using Kramers Kronig
   OMEGAMAX=  -1.0    maximum frequency
   DEG_THRESHOLD= 0.2000000E-02 threshold for treating states as degnerate
   RTIME   =   -0.100 relaxation time in fs
  (WPLASMAI=    0.000 imaginary part of plasma frequency in eV, 0.658/RTIME)
   DFIELD  = 0.0000000 0.0000000 0.0000000 field for delta impulse in time
 
  Optional k-point grid parameters
   LKPOINTS_OPT  =     F    use optional k-point grid
   KPOINTS_OPT_MODE=     1    mode for optional k-point grid
 
 Orbital magnetization related:
   ORBITALMAG=     F  switch on orbital magnetization
   LCHIMAG   =     F  perturbation theory with respect to B field
   DQ        =  0.001000  dq finite difference perturbation B field
   LLRAUG    =     F  two centre corrections for induced B field



--------------------------------------------------------------------------------------------------------


 conjugate gradient relaxation of ions
 charge density and potential will be updated during run
 non-spin polarized calculation
 Variant of blocked Davidson
 Davidson routine will perform the subspace rotation
 perform sub-space diagonalisation
    after iterative eigenvector-optimisation
 modified Broyden-mixing scheme, WC =      100.0
 initial mixing is a Kerker type mixing with AMIX =  0.4000 and BMIX =      1.0000
 Hartree-type preconditioning will be used
 using additional bands           16
 reciprocal scheme for non local part
 use partial core corrections
 calculate Harris-corrections to forces 
   (improved forces if not selfconsistent)
 use gradient corrections 
 use of overlap-Matrix (Vanderbilt PP)
 Gauss-broadening in eV      SIGMA  =   0.05


--------------------------------------------------------------------------------------------------------


  energy-cutoff  :      425.00
  volume of cell :       11.30
      direct lattice vectors                 reciprocal lattice vectors
     0.000000000  1.780963766  1.780963766    -0.280746868  0.280746868  0.280746868
     1.780963766  0.000000000  1.780963766     0.280746868 -0.280746868  0.280746868
     1.780963766  1.780963766  0.000000000     0.280746868  0.280746868 -0.280746868

  length of vectors
     2.518663113  2.518663113  2.518663113     0.486267840  0.486267840  0.486267840


 
 k-points in units of 2pi/SCALE and weight: Automatic mesh                          
   0.01403734  0.01403734  0.01403734       0.002
  -0.01403734  0.04211203  0.04211203       0.006
  -0.04211203  0.07018672  0.07018672       0.006
  -0.07018672  0.09826140  0.09826140       0.006
  -0.09826140  0.12633609  0.12633609       0.006
   0.15441078 -0.12633609 -0.12633609       0.006
   0.12633609 -0.09826140 -0.09826140       0.006
   0.09826140 -0.07018672 -0.07018672       0.006
   0.07018672 -0.04211203 -0.04211203       0.006
   0.04211203 -0.01403734 -0.01403734       0.006
   0.01403734  0.01403734  0.07018672       0.006
  -0.01403734  0.04211203  0.09826140       0.012
  -0.04211203  0.07018672  0.12633609       0.012
  -0.07018672  0.09826140  0.15441078       0.012
   0.18248546 -0.15441078 -0.09826140       0.012
   0.15441078 -0.12633609 -0.07018672       0.012
   0.12633609 -0.09826140 -0.04211203       0.012
   0.09826140 -0.07018672 -0.01403734       0.012
   0.07018672 -0.04211203  0.01403734       0.012
   0.01403734  0.01403734  0.12633609       0.006
  -0.01403734  0.04211203  0.15441078       0.012
  -0.04211203  0.07018672  0.18248546       0.012
   0.21056015 -0.18248546 -0.07018672       0.012
   0.18248546 -0.15441078 -0.04211203       0.012
   0.15441078 -0.12633609 -0.01403734       0.012
   0.12633609 -0.09826140  0.01403734       0.012
   0.09826140 -0.07018672  0.04211203       0.012
   0.01403734  0.01403734  0.18248546       0.006
  -0.01403734  0.04211203  0.21056015       0.012
   0.23863484 -0.21056015 -0.04211203       0.012
   0.21056015 -0.18248546 -0.01403734       0.012
   0.18248546 -0.15441078  0.01403734       0.012
   0.15441078 -0.12633609  0.04211203       0.012
   0.12633609 -0.09826140  0.07018672       0.012
   0.01403734  0.01403734  0.23863484       0.006
   0.26670952 -0.23863484 -0.01403734       0.012
   0.23863484 -0.21056015  0.01403734       0.012
   0.21056015 -0.18248546  0.04211203       0.012
   0.18248546 -0.15441078  0.07018672       0.012
   0.15441078 -0.12633609  0.09826140       0.012
   0.01403734  0.01403734 -0.26670952       0.006
  -0.01403734  0.04211203 -0.23863484       0.012
  -0.04211203  0.07018672 -0.21056015       0.012
  -0.07018672  0.09826140 -0.18248546       0.012
   0.01403734  0.01403734 -0.21056015       0.006
  -0.01403734  0.04211203 -0.18248546       0.012
  -0.04211203  0.07018672 -0.15441078       0.012
   0.01403734  0.01403734 -0.15441078       0.006
  -0.01403734  0.04211203 -0.12633609       0.012
   0.01403734  0.01403734 -0.09826140       0.006
   0.04211203  0.04211203  0.04211203       0.002
   0.01403734  0.07018672  0.07018672       0.006
  -0.01403734  0.09826140  0.09826140       0.006
  -0.04211203  0.12633609  0.12633609       0.006
   0.21056015 -0.12633609 -0.12633609       0.006
   0.18248546 -0.09826140 -0.09826140       0.006
   0.15441078 -0.07018672 -0.07018672       0.006
   0.12633609 -0.04211203 -0.04211203       0.006
   0.04211203  0.04211203  0.09826140       0.006
   0.01403734  0.07018672  0.12633609       0.012
  -0.01403734  0.09826140  0.15441078       0.012
   0.23863484 -0.15441078 -0.09826140       0.012
   0.21056015 -0.12633609 -0.07018672       0.012
   0.18248546 -0.09826140 -0.04211203       0.012
   0.15441078 -0.07018672 -0.01403734       0.012
   0.04211203  0.04211203  0.15441078       0.006
   0.01403734  0.07018672  0.18248546       0.012
   0.26670952 -0.18248546 -0.07018672       0.012
   0.23863484 -0.15441078 -0.04211203       0.012
   0.21056015 -0.12633609 -0.01403734       0.012
   0.18248546 -0.09826140  0.01403734       0.012
   0.04211203  0.04211203  0.21056015       0.006
   0.29478421 -0.21056015 -0.04211203       0.012
   0.26670952 -0.18248546 -0.01403734       0.012
   0.23863484 -0.15441078  0.01403734       0.012
   0.21056015 -0.12633609  0.04211203       0.012
   0.04211203  0.04211203 -0.29478421       0.006
   0.01403734  0.07018672 -0.26670952       0.012
  -0.01403734  0.09826140 -0.23863484       0.012
   0.04211203  0.04211203 -0.23863484       0.006
   0.01403734  0.07018672 -0.21056015       0.012
   0.04211203  0.04211203 -0.18248546       0.006
   0.07018672  0.07018672  0.07018672       0.002
   0.04211203  0.09826140  0.09826140       0.006
   0.01403734  0.12633609  0.12633609       0.006
   0.26670952 -0.12633609 -0.12633609       0.006
   0.23863484 -0.09826140 -0.09826140       0.006
   0.21056015 -0.07018672 -0.07018672       0.006
   0.07018672  0.07018672  0.12633609       0.006
   0.04211203  0.09826140  0.15441078       0.012
   0.29478421 -0.15441078 -0.09826140       0.012
   0.26670952 -0.12633609 -0.07018672       0.012
   0.23863484 -0.09826140 -0.04211203       0.012
   0.07018672  0.07018672  0.18248546       0.006
   0.32285890 -0.18248546 -0.07018672       0.012
   0.29478421 -0.15441078 -0.04211203       0.012
   0.26670952 -0.12633609 -0.01403734       0.012
   0.07018672  0.07018672 -0.32285890       0.006
   0.04211203  0.09826140 -0.29478421       0.012
   0.07018672  0.07018672 -0.26670952       0.006
   0.09826140  0.09826140  0.09826140       0.002
   0.07018672  0.12633609  0.12633609       0.006
   0.32285890 -0.12633609 -0.12633609       0.006
   0.29478421 -0.09826140 -0.09826140       0.006
   0.09826140  0.09826140  0.15441078       0.006
   0.35093359 -0.15441078 -0.09826140       0.012
   0.32285890 -0.12633609 -0.07018672       0.012
   0.09826140  0.09826140 -0.35093359       0.006
   0.12633609  0.12633609  0.12633609       0.002
   0.37900827 -0.12633609 -0.12633609       0.006
 
 k-points in reciprocal lattice and weights: Automatic mesh                          
   0.05000000  0.05000000  0.05000000       0.002
   0.15000000  0.05000000  0.05000000       0.006
   0.25000000  0.05000000  0.05000000       0.006
   0.35000000  0.05000000  0.05000000       0.006
   0.45000000  0.05000000  0.05000000       0.006
  -0.45000000  0.05000000  0.05000000       0.006
  -0.35000000  0.05000000  0.05000000       0.006
  -0.25000000  0.05000000  0.05000000       0.006
  -0.15000000  0.05000000  0.05000000       0.006
  -0.05000000  0.05000000  0.05000000       0.006
   0.15000000  0.15000000  0.05000000       0.006
   0.25000000  0.15000000  0.05000000       0.012
   0.35000000  0.15000000  0.05000000       0.012
   0.45000000  0.15000000  0.05000000       0.012
  -0.45000000  0.15000000  0.05000000       0.012
  -0.35000000  0.15000000  0.05000000       0.012
  -0.25000000  0.15000000  0.05000000       0.012
  -0.15000000  0.15000000  0.05000000       0.012
  -0.05000000  0.15000000  0.05000000       0.012
   0.25000000  0.25000000  0.05000000       0.006
   0.35000000  0.25000000  0.05000000       0.012
   0.45000000  0.25000000  0.05000000       0.012
  -0.45000000  0.25000000  0.05000000       0.012
  -0.35000000  0.25000000  0.05000000       0.012
  -0.25000000  0.25000000  0.05000000       0.012
  -0.15000000  0.25000000  0.05000000       0.012
  -0.05000000  0.25000000  0.05000000       0.012
   0.35000000  0.35000000  0.05000000       0.006
   0.45000000  0.35000000  0.05000000       0.012
  -0.45000000  0.35000000  0.05000000       0.012
  -0.35000000  0.35000000  0.05000000       0.012
  -0.25000000  0.35000000  0.05000000       0.012
  -0.15000000  0.35000000  0.05000000       0.012
  -0.05000000  0.35000000  0.05000000       0.012
   0.45000000  0.45000000  0.05000000       0.006
  -0.45000000  0.45000000  0.05000000       0.012
  -0.35000000  0.45000000  0.05000000       0.012
  -0.25000000  0.45000000  0.05000000       0.012
  -0.15000000  0.45000000  0.05000000       0.012
  -0.05000000  0.45000000  0.05000000       0.012
  -0.45000000 -0.45000000  0.05000000       0.006
  -0.35000000 -0.45000000  0.05000000       0.012
  -0.25000000 -0.45000000  0.05000000       0.012
  -0.15000000 -0.45000000  0.05000000       0.012
  -0.35000000 -0.35000000  0.05000000       0.006
  -0.25000000 -0.35000000  0.05000000       0.012
  -0.15000000 -0.35000000  0.05000000       0.012
  -0.25000000 -0.25000000  0.05000000       0.006
  -0.15000000 -0.25000000  0.05000000       0.012
  -0.15000000 -0.15000000  0.05000000       0.006
   0.15000000  0.15000000  0.15000000       0.002
   0.25000000  0.15000000  0.15000000       0.006
   0.35000000  0.15000000  0.15000000       0.006
   0.45000000  0.15000000  0.15000000       0.006
  -0.45000000  0.15000000  0.15000000       0.006
  -0.35000000  0.15000000  0.15000000       0.006
  -0.25000000  0.15000000  0.15000000       0.006
  -0.15000000  0.15000000  0.15000000       0.006
   0.25000000  0.25000000  0.15000000       0.006
   0.35000000  0.25000000  0.15000000       0.012
   0.45000000  0.25000000  0.15000000       0.012
  -0.45000000  0.25000000  0.15000000       0.012
  -0.35000000  0.25000000  0.15000000       0.012
  -0.25000000  0.25000000  0.15000000       0.012
  -0.15000000  0.25000000  0.15000000       0.012
   0.35000000  0.35000000  0.15000000       0.006
   0.45000000  0.35000000  0.15000000       0.012
  -0.45000000  0.35000000  0.15000000       0.012
  -0.35000000  0.35000000  0.15000000       0.012
  -0.25000000  0.35000000  0.15000000       0.012
  -0.15000000  0.35000000  0.15000000       0.012
   0.45000000  0.45000000  0.15000000       0.006
  -0.45000000  0.45000000  0.15000000       0.012
  -0.35000000  0.45000000  0.15000000       0.012
  -0.25000000  0.45000000  0.15000000       0.012
  -0.15000000  0.45000000  0.15000000       0.012
  -0.45000000 -0.45000000  0.15000000       0.006
  -0.35000000 -0.45000000  0.15000000       0.012
  -0.25000000 -0.45000000  0.15000000       0.012
  -0.35000000 -0.35000000  0.15000000       0.006
  -0.25000000 -0.35000000  0.15000000       0.012
  -0.25000000 -0.25000000  0.15000000       0.006
   0.25000000  0.25000000  0.25000000       0.002
   0.35000000  0.25000000  0.25000000       0.006
   0.45000000  0.25000000  0.25000000       0.006
  -0.45000000  0.25000000  0.25000000       0.006
  -0.35000000  0.25000000  0.25000000       0.006
  -0.25000000  0.25000000  0.25000000       0.006
   0.35000000  0.35000000  0.25000000       0.006
   0.45000000  0.35000000  0.25000000       0.012
  -0.45000000  0.35000000  0.25000000       0.012
  -0.35000000  0.35000000  0.25000000       0.012
  -0.25000000  0.35000000  0.25000000       0.012
   0.45000000  0.45000000  0.25000000       0.006
  -0.45000000  0.45000000  0.25000000       0.012
  -0.35000000  0.45000000  0.25000000       0.012
  -0.25000000  0.45000000  0.25000000       0.012
  -0.45000000 -0.45000000  0.25000000       0.006
  -0.35000000 -0.45000000  0.25000000       0.012
  -0.35000000 -0.35000000  0.25000000       0.006
   0.35000000  0.35000000  0.35000000       0.002
   0.45000000  0.35000000  0.35000000       0.006
  -0.45000000  0.35000000  0.35000000       0.006
  -0.35000000  0.35000000  0.35000000       0.006
   0.45000000  0.45000000  0.35000000       0.006
  -0.45000000  0.45000000  0.35000000       0.012
  -0.35000000  0.45000000  0.35000000       0.012
  -0.45000000 -0.45000000  0.35000000       0.006
   0.45000000  0.45000000  0.45000000       0.002
  -0.45000000  0.45000000  0.45000000       0.006
 
 position of ions in fractional coordinates (direct lattice) 
   0.00000000  0.00000000  0.00000000
 
 position of ions in cartesian coordinates  (Angst):
   0.00000000  0.00000000  0.00000000
 


--------------------------------------------------------------------------------------------------------


 k-point   1 :   0.0500 0.0500 0.0500  plane waves:     238
 k-point   2 :   0.1500 0.0500 0.0500  plane waves:     228
 k-point   3 :   0.2500 0.0500 0.0500  plane waves:     223
 k-point   4 :   0.3500 0.0500 0.0500  plane waves:     223
 k-point   5 :   0.4500 0.0500 0.0500  plane waves:     228
 k-point   6 :  -0.4500 0.0500 0.0500  plane waves:     228
 k-point   7 :  -0.3500 0.0500 0.0500  plane waves:     228
 k-point   8 :  -0.2500 0.0500 0.0500  plane waves:     223
 k-point   9 :  -0.1500 0.0500 0.0500  plane waves:     224
 k-point  10 :  -0.0500 0.0500 0.0500  plane waves:     230
 k-point  11 :   0.1500 0.1500 0.0500  plane waves:     225
 k-point  12 :   0.2500 0.1500 0.0500  plane waves:     225
 k-point  13 :   0.3500 0.1500 0.0500  plane waves:     224
 k-point  14 :   0.4500 0.1500 0.0500  plane waves:     229
 k-point  15 :  -0.4500 0.1500 0.0500  plane waves:     228
 k-point  16 :  -0.3500 0.1500 0.0500  plane waves:     227
 k-point  17 :  -0.2500 0.1500 0.0500  plane waves:     224
 k-point  18 :  -0.1500 0.1500 0.0500  plane waves:     224
 k-point  19 :  -0.0500 0.1500 0.0500  plane waves:     224
 k-point  20 :   0.2500 0.2500 0.0500  plane waves:     224
 k-point  21 :   0.3500 0.2500 0.0500  plane waves:     223
 k-point  22 :   0.4500 0.2500 0.0500  plane waves:     224
 k-point  23 :  -0.4500 0.2500 0.0500  plane waves:     227
 k-point  24 :  -0.3500 0.2500 0.0500  plane waves:     228
 k-point  25 :  -0.2500 0.2500 0.0500  plane waves:     224
 k-point  26 :  -0.1500 0.2500 0.0500  plane waves:     222
 k-point  27 :  -0.0500 0.2500 0.0500  plane waves:     222
 k-point  28 :   0.3500 0.3500 0.0500  plane waves:     220
 k-point  29 :   0.4500 0.3500 0.0500  plane waves:     225
 k-point  30 :  -0.4500 0.3500 0.0500  plane waves:     224
 k-point  31 :  -0.3500 0.3500 0.0500  plane waves:     222
 k-point  32 :  -0.2500 0.3500 0.0500  plane waves:     228
 k-point  33 :  -0.1500 0.3500 0.0500  plane waves:     226
 k-point  34 :  -0.0500 0.3500 0.0500  plane waves:     223
 k-point  35 :   0.4500 0.4500 0.0500  plane waves:     222
 k-point  36 :  -0.4500 0.4500 0.0500  plane waves:     224
 k-point  37 :  -0.3500 0.4500 0.0500  plane waves:     224
 k-point  38 :  -0.2500 0.4500 0.0500  plane waves:     225
 k-point  39 :  -0.1500 0.4500 0.0500  plane waves:     228
 k-point  40 :  -0.0500 0.4500 0.0500  plane waves:     228
 k-point  41 :  -0.4500-0.4500 0.0500  plane waves:     222
 k-point  42 :  -0.3500-0.4500 0.0500  plane waves:     225
 k-point  43 :  -0.2500-0.4500 0.0500  plane waves:     226
 k-point  44 :  -0.1500-0.4500 0.0500  plane waves:     229
 k-point  45 :  -0.3500-0.3500 0.0500  plane waves:     222
 k-point  46 :  -0.2500-0.3500 0.0500  plane waves:     224
 k-point  47 :  -0.1500-0.3500 0.0500  plane waves:     224
 k-point  48 :  -0.2500-0.2500 0.0500  plane waves:     222
 k-point  49 :  -0.1500-0.2500 0.0500  plane waves:     224
 k-point  50 :  -0.1500-0.1500 0.0500  plane waves:     226
 k-point  51 :   0.1500 0.1500 0.1500  plane waves:     226
 k-point  52 :   0.2500 0.1500 0.1500  plane waves:     219
 k-point  53 :   0.3500 0.1500 0.1500  plane waves:     221
 k-point  54 :   0.4500 0.1500 0.1500  plane waves:     227
 k-point  55 :  -0.4500 0.1500 0.1500  plane waves:     228
 k-point  56 :  -0.3500 0.1500 0.1500  plane waves:     231
 k-point  57 :  -0.2500 0.1500 0.1500  plane waves:     229
 k-point  58 :  -0.1500 0.1500 0.1500  plane waves:     224
 k-point  59 :   0.2500 0.2500 0.1500  plane waves:     224
 k-point  60 :   0.3500 0.2500 0.1500  plane waves:     224
 k-point  61 :   0.4500 0.2500 0.1500  plane waves:     224
 k-point  62 :  -0.4500 0.2500 0.1500  plane waves:     229
 k-point  63 :  -0.3500 0.2500 0.1500  plane waves:     228
 k-point  64 :  -0.2500 0.2500 0.1500  plane waves:     226
 k-point  65 :  -0.1500 0.2500 0.1500  plane waves:     222
 k-point  66 :   0.3500 0.3500 0.1500  plane waves:     223
 k-point  67 :   0.4500 0.3500 0.1500  plane waves:     224
 k-point  68 :  -0.4500 0.3500 0.1500  plane waves:     222
 k-point  69 :  -0.3500 0.3500 0.1500  plane waves:     226
 k-point  70 :  -0.2500 0.3500 0.1500  plane waves:     224
 k-point  71 :  -0.1500 0.3500 0.1500  plane waves:     226
 k-point  72 :   0.4500 0.4500 0.1500  plane waves:     225
 k-point  73 :  -0.4500 0.4500 0.1500  plane waves:     223
 k-point  74 :  -0.3500 0.4500 0.1500  plane waves:     222
 k-point  75 :  -0.2500 0.4500 0.1500  plane waves:     225
 k-point  76 :  -0.1500 0.4500 0.1500  plane waves:     226
 k-point  77 :  -0.4500-0.4500 0.1500  plane waves:     227
 k-point  78 :  -0.3500-0.4500 0.1500  plane waves:     223
 k-point  79 :  -0.2500-0.4500 0.1500  plane waves:     223
 k-point  80 :  -0.3500-0.3500 0.1500  plane waves:     226
 k-point  81 :  -0.2500-0.3500 0.1500  plane waves:     223
 k-point  82 :  -0.2500-0.2500 0.1500  plane waves:     221
 k-point  83 :   0.2500 0.2500 0.2500  plane waves:     223
 k-point  84 :   0.3500 0.2500 0.2500  plane waves:     221
 k-point  85 :   0.4500 0.2500 0.2500  plane waves:     221
 k-point  86 :  -0.4500 0.2500 0.2500  plane waves:     224
 k-point  87 :  -0.3500 0.2500 0.2500  plane waves:     227
 k-point  88 :  -0.2500 0.2500 0.2500  plane waves:     226
 k-point  89 :   0.3500 0.3500 0.2500  plane waves:     226
 k-point  90 :   0.4500 0.3500 0.2500  plane waves:     227
 k-point  91 :  -0.4500 0.3500 0.2500  plane waves:     227
 k-point  92 :  -0.3500 0.3500 0.2500  plane waves:     226
 k-point  93 :  -0.2500 0.3500 0.2500  plane waves:     223
 k-point  94 :   0.4500 0.4500 0.2500  plane waves:     229
 k-point  95 :  -0.4500 0.4500 0.2500  plane waves:     225
 k-point  96 :  -0.3500 0.4500 0.2500  plane waves:     222
 k-point  97 :  -0.2500 0.4500 0.2500  plane waves:     221
 k-point  98 :  -0.4500-0.4500 0.2500  plane waves:     224
 k-point  99 :  -0.3500-0.4500 0.2500  plane waves:     225
 k-point 100 :  -0.3500-0.3500 0.2500  plane waves:     224
 k-point 101 :   0.3500 0.3500 0.3500  plane waves:     226
 k-point 102 :   0.4500 0.3500 0.3500  plane waves:     224
 k-point 103 :  -0.4500 0.3500 0.3500  plane waves:     228
 k-point 104 :  -0.3500 0.3500 0.3500  plane waves:     228
 k-point 105 :   0.4500 0.4500 0.3500  plane waves:     229
 k-point 106 :  -0.4500 0.4500 0.3500  plane waves:     228
 k-point 107 :  -0.3500 0.4500 0.3500  plane waves:     225
 k-point 108 :  -0.4500-0.4500 0.3500  plane waves:     227
 k-point 109 :   0.4500 0.4500 0.4500  plane waves:     229
 k-point 110 :  -0.4500 0.4500 0.4500  plane waves:     227

 maximum and minimum number of plane-waves per node :       238      219

 maximum number of plane-waves:       238
 maximum index in each direction: 
   IXMAX=    4   IYMAX=    4   IZMAX=    4
   IXMIN=   -4   IYMIN=   -4   IZMIN=   -4


 serial   3D FFT for wavefunctions
 parallel 3D FFT for charge:
    minimum data exchange during FFTs selected (reduces bandwidth)


 total amount of memory used by VASP MPI-rank0    34764. kBytes
=======================================================================

   base      :      30000. kBytes
   nonl-proj :       3805. kBytes
   fftplans  :        113. kBytes
   grid      :        367. kBytes
   one-center:         15. kBytes
   wavefun   :        464. kBytes
 
     INWAV:  cpu time      0.0000: real time      0.0003
 Broyden mixing: mesh for mixing (old mesh)
   NGX =  9   NGY =  9   NGZ =  9
  (NGX  = 36   NGY  = 36   NGZ  = 36)
  gives a total of    729 points

 initial charge density was supplied:
 charge density of overlapping atoms calculated
 number of electron      16.0000000 magnetization 
 keeping initial charge density in first step


--------------------------------------------------------------------------------------------------------


 Maximum index for augmentation-charges         1124 (set IRDMAX)


--------------------------------------------------------------------------------------------------------


 First call to EWALD:  gamma=   0.790
 Maximum number of real-space cells 3x 3x 3
 Maximum number of reciprocal cells 3x 3x 3

    FEWALD:  cpu time      0.0014: real time      0.0014


--------------------------------------- Iteration      1(   1)  ---------------------------------------


    POTLOK:  cpu time      0.0028: real time      0.0039
    SETDIJ:  cpu time      0.0023: real time      0.0023
     EDDAV:  cpu time      0.4990: real time      0.5019
       DOS:  cpu time      0.0010: real time      0.0010
    --------------------------------------------
      LOOP:  cpu time      0.5051: real time      0.5092

 eigenvalue-minimisations  :  6240
 total energy-change (2. order) : 0.1222774E+02  (-0.1192393E+04)
 number of electron      16.0000000 magnetization 
 augmentation part       16.0000000 magnetization 

 Free energy of the ion-electron system (eV)
  ---------------------------------------------------
  alpha Z        PSCENC =       212.36975509
  Ewald energy   TEWEN  =     -2372.50555823
  -Hartree energ DENC   =      -302.12546854
  -exchange      EXHF   =         0.00000000
  -V(xc)+E(xc)   XCENC  =        65.71051746
  PAW double counting   =      2065.75261637    -2030.83594803
  entropy T*S    EENTRO =        -0.00077567
  eigenvalues    EBANDS =       -54.33240413
  atomic energy  EATOM  =      2428.19501064
  Solvation  Ediel_sol  =         0.00000000
  ---------------------------------------------------
  free energy    TOTEN  =        12.22774497 eV

  energy without entropy =       12.22852064  energy(sigma->0) =       12.22813280


--------------------------------------------------------------------------------------------------------




--------------------------------------- Iteration      1(   2)  ---------------------------------------


     EDDAV:  cpu time      0.5933: real time      0.5971
       DOS:  cpu time      0.0005: real time      0.0005
    --------------------------------------------
      LOOP:  cpu time      0.5938: real time      0.5976

 eigenvalue-minimisations  :  6840
 total energy-change (2. order) :-0.1665939E+02  (-0.1640978E+02)
 number of electron      16.0000000 magnetization 
 augmentation part       16.0000000 magnetization 

 Free energy of the ion-electron system (eV)
  ---------------------------------------------------
  alpha Z        PSCENC =       212.36975509
  Ewald energy   TEWEN  =     -2372.50555823
  -Hartree energ DENC   =      -302.12546854
  -exchange      EXHF   =         0.00000000
  -V(xc)+E(xc)   XCENC  =        65.71051746
  PAW double counting   =      2065.75261637    -2030.83594803
  entropy T*S    EENTRO =        -0.00132313
  eigenvalues    EBANDS =       -70.99124463
  atomic energy  EATOM  =      2428.19501064
  Solvation  Ediel_sol  =         0.00000000
  ---------------------------------------------------
  free energy    TOTEN  =        -4.43164299 eV

  energy without entropy =       -4.43031986  energy(sigma->0) =       -4.43098143


--------------------------------------------------------------------------------------------------------




--------------------------------------- Iteration      1(   3)  ---------------------------------------


     EDDAV:  cpu time      0.7260: real time      0.7302
       DOS:  cpu time      0.0005: real time      0.0005
    --------------------------------------------
      LOOP:  cpu time      0.7265: real time      0.7307

 eigenvalue-minimisations  :  7464
 total energy-change (2. order) :-0.1888932E-01  (-0.1888930E-01)
 number of electron      16.0000000 magnetization 
 augmentation part       16.0000000 magnetization 

 Free energy of the ion-electron system (eV)
  ---------------------------------------------------
  alpha Z        PSCENC =       212.36975509
  Ewald energy   TEWEN  =     -2372.50555823
  -Hartree energ DENC   =      -302.12546854
  -exchange      EXHF   =         0.00000000
  -V(xc)+E(xc)   XCENC  =        65.71051746
  PAW double counting   =      2065.75261637    -2030.83594803
  entropy T*S    EENTRO =        -0.00132081
  eigenvalues    EBANDS =       -71.01013627
  atomic energy  EATOM  =      2428.19501064
  Solvation  Ediel_sol  =         0.00000000
  ---------------------------------------------------
  free energy    TOTEN  =        -4.45053231 eV

  energy without entropy =       -4.44921150  energy(sigma->0) =       -4.44987191


--------------------------------------------------------------------------------------------------------




--------------------------------------- Iteration      1(   4)  ---------------------------------------


     EDDAV:  cpu time      0.6973: real time      0.7014
       DOS:  cpu time      0.0005: real time      0.0005
    --------------------------------------------
      LOOP:  cpu time      0.6977: real time      0.7018

 eigenvalue-minimisations  :  7392
 total energy-change (2. order) :-0.6645045E-05  (-0.6645397E-05)
 number of electron      16.0000000 magnetization 
 augmentation part       16.0000000 magnetization 

 Free energy of the ion-electron system (eV)
  ---------------------------------------------------
  alpha Z        PSCENC =       212.36975509
  Ewald energy   TEWEN  =     -2372.50555823
  -Hartree energ DENC   =      -302.12546854
  -exchange      EXHF   =         0.00000000
  -V(xc)+E(xc)   XCENC  =        65.71051746
  PAW double counting   =      2065.75261637    -2030.83594803
  entropy T*S    EENTRO =        -0.00132080
  eigenvalues    EBANDS =       -71.01014292
  atomic energy  EATOM  =      2428.19501064
  Solvation  Ediel_sol  =         0.00000000
  ---------------------------------------------------
  free energy    TOTEN  =        -4.45053895 eV

  energy without entropy =       -4.44921815  energy(sigma->0) =       -4.44987855


--------------------------------------------------------------------------------------------------------




--------------------------------------- Iteration      1(   5)  ---------------------------------------


     EDDAV:  cpu time      0.6770: real time      0.6810
       DOS:  cpu time      0.0005: real time      0.0005
    CHARGE:  cpu time      0.0119: real time      0.0120
    MIXING:  cpu time      0.0002: real time      0.0002
    --------------------------------------------
      LOOP:  cpu time      0.6896: real time      0.6936

 eigenvalue-minimisations  :  7248
 total energy-change (2. order) :-0.1100489E-09  (-0.2100599E-09)
 number of electron      16.0000007 magnetization 
 augmentation part        4.0334803 magnetization 

 Broyden mixing:
  rms(total) = 0.31361E+01    rms(broyden)= 0.31361E+01
  rms(prec ) = 0.33576E+01
  weight for this iteration     100.00

 Free energy of the ion-electron system (eV)
  ---------------------------------------------------
  alpha Z        PSCENC =       212.36975509
  Ewald energy   TEWEN  =     -2372.50555823
  -Hartree energ DENC   =      -302.12546854
  -exchange      EXHF   =         0.00000000
  -V(xc)+E(xc)   XCENC  =        65.71051746
  PAW double counting   =      2065.75261637    -2030.83594803
  entropy T*S    EENTRO =        -0.00132080
  eigenvalues    EBANDS =       -71.01014292
  atomic energy  EATOM  =      2428.19501064
  Solvation  Ediel_sol  =         0.00000000
  ---------------------------------------------------
  free energy    TOTEN  =        -4.45053895 eV

  energy without entropy =       -4.44921815  energy(sigma->0) =       -4.44987855


--------------------------------------------------------------------------------------------------------




--------------------------------------- Iteration      1(   6)  ---------------------------------------


    POTLOK:  cpu time      0.0023: real time      0.0024
    SETDIJ:  cpu time      0.0020: real time      0.0020
     EDDAV:  cpu time      0.5500: real time      0.5531
       DOS:  cpu time      0.0004: real time      0.0004
    CHARGE:  cpu time      0.0116: real time      0.0116
    MIXING:  cpu time      0.0002: real time      0.0002
    --------------------------------------------
      LOOP:  cpu time      0.5665: real time      0.5699

 eigenvalue-minimisations  :  6408
 total energy-change (2. order) : 0.2098190E+00  (-0.4791762E-01)
 number of electron      16.0000007 magnetization 
 augmentation part        4.1000069 magnetization 

 Broyden mixing:
  rms(total) = 0.15083E+01    rms(broyden)= 0.15083E+01
  rms(prec ) = 0.15659E+01
  weight for this iteration     100.00

 eigenvalues of (default mixing * dielectric matrix)
  average eigenvalue GAMMA=   1.9215
  1.9215

 Free energy of the ion-electron system (eV)
  ---------------------------------------------------
  alpha Z        PSCENC =       212.36975509
  Ewald energy   TEWEN  =     -2372.50555823
  -Hartree energ DENC   =      -291.76811005
  -exchange      EXHF   =         0.00000000
  -V(xc)+E(xc)   XCENC  =        65.24649546
  PAW double counting   =      2527.87185714    -2495.25009418
  entropy T*S    EENTRO =        -0.00121323
  eigenvalues    EBANDS =       -78.39886264
  atomic energy  EATOM  =      2428.19501064
  Solvation  Ediel_sol  =         0.00000000
  ---------------------------------------------------
  free energy    TOTEN  =        -4.24071999 eV

  energy without entropy =       -4.23950676  energy(sigma->0) =       -4.24011338


--------------------------------------------------------------------------------------------------------




--------------------------------------- Iteration      1(   7)  ---------------------------------------


    POTLOK:  cpu time      0.0022: real time      0.0023
    SETDIJ:  cpu time      0.0018: real time      0.0018
     EDDAV:  cpu time      0.7227: real time      0.7268
       DOS:  cpu time      0.0005: real time      0.0005
    CHARGE:  cpu time      0.0114: real time      0.0114
    MIXING:  cpu time      0.0002: real time      0.0002
    --------------------------------------------
      LOOP:  cpu time      0.7388: real time      0.7431

 eigenvalue-minimisations  :  7632
 total energy-change (2. order) : 0.3411552E-01  (-0.1390708E-01)
 number of electron      16.0000007 magnetization 
 augmentation part        4.1343692 magnetization 

 Broyden mixing:
  rms(total) = 0.22963E+00    rms(broyden)= 0.22963E+00
  rms(prec ) = 0.24929E+00
  weight for this iteration     100.00

 eigenvalues of (default mixing * dielectric matrix)
  average eigenvalue GAMMA=   2.0056
  1.3984  2.6129

 Free energy of the ion-electron system (eV)
  ---------------------------------------------------
  alpha Z        PSCENC =       212.36975509
  Ewald energy   TEWEN  =     -2372.50555823
  -Hartree energ DENC   =      -285.83430117
  -exchange      EXHF   =         0.00000000
  -V(xc)+E(xc)   XCENC  =        64.97388627
  PAW double counting   =      3002.24357904    -2971.29585097
  entropy T*S    EENTRO =        -0.00140362
  eigenvalues    EBANDS =       -82.35172152
  atomic energy  EATOM  =      2428.19501064
  Solvation  Ediel_sol  =         0.00000000
  ---------------------------------------------------
  free energy    TOTEN  =        -4.20660447 eV

  energy without entropy =       -4.20520085  energy(sigma->0) =       -4.20590266


--------------------------------------------------------------------------------------------------------




--------------------------------------- Iteration      1(   8)  ---------------------------------------


    POTLOK:  cpu time      0.0020: real time      0.0022
    SETDIJ:  cpu time      0.0018: real time      0.0018
     EDDAV:  cpu time      0.4386: real time      0.4412
       DOS:  cpu time      0.0005: real time      0.0005
    CHARGE:  cpu time      0.0114: real time      0.0114
    MIXING:  cpu time      0.0002: real time      0.0002
    --------------------------------------------
      LOOP:  cpu time      0.4545: real time      0.4574

 eigenvalue-minimisations  :  5736
 total energy-change (2. order) : 0.2476703E-02  (-0.8560283E-03)
 number of electron      16.0000007 magnetization 
 augmentation part        4.1253578 magnetization 

 Broyden mixing:
  rms(total) = 0.28376E-01    rms(broyden)= 0.28376E-01
  rms(prec ) = 0.29214E-01
  weight for this iteration     100.00

 eigenvalues of (default mixing * dielectric matrix)
  average eigenvalue GAMMA=   1.6610
  2.4313  1.1584  1.3933

 Free energy of the ion-electron system (eV)
  ---------------------------------------------------
  alpha Z        PSCENC =       212.36975509
  Ewald energy   TEWEN  =     -2372.50555823
  -Hartree energ DENC   =      -286.56233346
  -exchange      EXHF   =         0.00000000
  -V(xc)+E(xc)   XCENC  =        64.99872090
  PAW double counting   =      3136.61529415    -3105.81191646
  entropy T*S    EENTRO =        -0.00137312
  eigenvalues    EBANDS =       -81.50172730
  atomic energy  EATOM  =      2428.19501064
  Solvation  Ediel_sol  =         0.00000000
  ---------------------------------------------------
  free energy    TOTEN  =        -4.20412777 eV

  energy without entropy =       -4.20275465  energy(sigma->0) =       -4.20344121


--------------------------------------------------------------------------------------------------------




--------------------------------------- Iteration      1(   9)  ---------------------------------------


    POTLOK:  cpu time      0.0020: real time      0.0022
    SETDIJ:  cpu time      0.0018: real time      0.0018
     EDDAV:  cpu time      0.7017: real time      0.7055
       DOS:  cpu time      0.0005: real time      0.0005
    CHARGE:  cpu time      0.0117: real time      0.0118
    MIXING:  cpu time      0.0002: real time      0.0002
    --------------------------------------------
      LOOP:  cpu time      0.7180: real time      0.7220

 eigenvalue-minimisations  :  7464
 total energy-change (2. order) : 0.3504562E-04  (-0.2247208E-05)
 number of electron      16.0000007 magnetization 
 augmentation part        4.1256711 magnetization 

 Broyden mixing:
  rms(total) = 0.11335E-02    rms(broyden)= 0.11331E-02
  rms(prec ) = 0.26493E-02
  weight for this iteration     100.00

 eigenvalues of (default mixing * dielectric matrix)
  average eigenvalue GAMMA=   1.8715
  1.0173  1.3736  2.6888  2.4064

 Free energy of the ion-electron system (eV)
  ---------------------------------------------------
  alpha Z        PSCENC =       212.36975509
  Ewald energy   TEWEN  =     -2372.50555823
  -Hartree energ DENC   =      -286.58873887
  -exchange      EXHF   =         0.00000000
  -V(xc)+E(xc)   XCENC  =        65.00040154
  PAW double counting   =      3124.02829990    -3093.18052116
  entropy T*S    EENTRO =        -0.00137149
  eigenvalues    EBANDS =       -81.52137014
  atomic energy  EATOM  =      2428.19501064
  Solvation  Ediel_sol  =         0.00000000
  ---------------------------------------------------
  free energy    TOTEN  =        -4.20409273 eV

  energy without entropy =       -4.20272124  energy(sigma->0) =       -4.20340698


--------------------------------------------------------------------------------------------------------




--------------------------------------- Iteration      1(  10)  ---------------------------------------


    POTLOK:  cpu time      0.0021: real time      0.0022
    SETDIJ:  cpu time      0.0019: real time      0.0019
     EDDAV:  cpu time      0.6369: real time      0.6406
       DOS:  cpu time      0.0005: real time      0.0005
    CHARGE:  cpu time      0.0114: real time      0.0114
    MIXING:  cpu time      0.0002: real time      0.0002
    --------------------------------------------
      LOOP:  cpu time      0.6530: real time      0.6569

 eigenvalue-minimisations  :  7080
 total energy-change (2. order) :-0.2237593E-05  (-0.2121748E-06)
 number of electron      16.0000007 magnetization 
 augmentation part        4.1257395 magnetization 

 Broyden mixing:
  rms(total) = 0.98089E-04    rms(broyden)= 0.97792E-04
  rms(prec ) = 0.19782E-03
  weight for this iteration     100.00

 eigenvalues of (default mixing * dielectric matrix)
  average eigenvalue GAMMA=   1.7420
  2.6328  2.3742  0.9793  1.3620  1.3620

 Free energy of the ion-electron system (eV)
  ---------------------------------------------------
  alpha Z        PSCENC =       212.36975509
  Ewald energy   TEWEN  =     -2372.50555823
  -Hartree energ DENC   =      -286.61425934
  -exchange      EXHF   =         0.00000000
  -V(xc)+E(xc)   XCENC  =        65.00147340
  PAW double counting   =      3125.60441048    -3094.73048390
  entropy T*S    EENTRO =        -0.00137054
  eigenvalues    EBANDS =       -81.52307256
  atomic energy  EATOM  =      2428.19501064
  Solvation  Ediel_sol  =         0.00000000
  ---------------------------------------------------
  free energy    TOTEN  =        -4.20409496 eV

  energy without entropy =       -4.20272442  energy(sigma->0) =       -4.20340969


--------------------------------------------------------------------------------------------------------




--------------------------------------- Iteration      1(  11)  ---------------------------------------


    POTLOK:  cpu time      0.0020: real time      0.0021
    SETDIJ:  cpu time      0.0019: real time      0.0019
     EDDAV:  cpu time      0.2473: real time      0.2487
       DOS:  cpu time      0.0005: real time      0.0005
    --------------------------------------------
      LOOP:  cpu time      0.2516: real time      0.2531

 eigenvalue-minimisations  :  3312
 total energy-change (2. order) :-0.6345363E-07  (-0.7570953E-09)
 number of electron      16.0000007 magnetization 
 augmentation part        4.1257395 magnetization 

 Free energy of the ion-electron system (eV)
  ---------------------------------------------------
  alpha Z        PSCENC =       212.36975509
  Ewald energy   TEWEN  =     -2372.50555823
  -Hartree energ DENC   =      -286.61463993
  -exchange      EXHF   =         0.00000000
  -V(xc)+E(xc)   XCENC  =        65.00147930
  PAW double counting   =      3125.64574358    -3094.77166322
  entropy T*S    EENTRO =        -0.00137053
  eigenvalues    EBANDS =       -81.52285174
  atomic energy  EATOM  =      2428.19501064
  Solvation  Ediel_sol  =         0.00000000
  ---------------------------------------------------
  free energy    TOTEN  =        -4.20409503 eV

  energy without entropy =       -4.20272450  energy(sigma->0) =       -4.20340976


--------------------------------------------------------------------------------------------------------




 average (electrostatic) potential at core
  the test charge radii are     0.9952
  (the norm of the test charge is              1.0000)
       1 -83.1937
 
 
 
 E-fermi :  18.7635     XC(G=0): -15.9578     alpha+bet :-23.2193

 Fermi energy:        18.7635373475

 k-point     1 :       0.0500    0.0500    0.0500
  band No.  band energies     occupation 
      1     -34.8518      2.00000
      2     -34.8227      2.00000
      3     -34.8227      2.00000
      4       5.0013      2.00000
      5      12.6269      2.00000
      6      12.7654      2.00000
      7      12.7654      2.00000
      8      16.1045      2.00000
      9      16.1045      2.00000
     10      32.2426      0.00000
     11      38.0892      0.00000
     12      38.9218      0.00000
     13      38.9218      0.00000
     14      46.0095      0.00000
     15      56.1533      0.00000
     16      56.9067      0.00000
     17      56.9067      0.00000
     18      58.2182      0.00000
     19      62.5449      0.00000
     20      62.5449      0.00000
     21      63.6977      0.00000
     22      68.0501      0.00000
     23      68.0501      0.00000
     24      74.2280      0.00000

 k-point     2 :       0.1500    0.0500    0.0500
  band No.  band energies     occupation 
      1     -35.0146      2.00000
      2     -34.8680      2.00000
      3     -34.8342      2.00000
      4       5.7075      2.00000
      5      12.2430      2.00000
      6      13.0375      2.00000
      7      13.1075      2.00000
      8      15.6958      2.00000
      9      16.1762      2.00000
     10      33.4573      0.00000
     11      36.3471      0.00000
     12      39.4688      0.00000
     13      40.5052      0.00000
     14      48.6655      0.00000
     15      51.7802      0.00000
     16      53.4086      0.00000
     17      55.3998      0.00000
     18      58.2208      0.00000
     19      59.9030      0.00000
     20      63.9501      0.00000
     21      65.4300      0.00000
     22      67.4814      0.00000
     23      69.3283      0.00000
     24      75.4046      0.00000

 k-point     3 :       0.2500    0.0500    0.0500
  band No.  band energies     occupation 
      1     -35.3735      2.00000
      2     -34.9283      2.00000
      3     -34.8772      2.00000
      4       7.0960      2.00000
      5      11.9460      2.00000
      6      13.3218      2.00000
      7      13.3746      2.00000
      8      15.6244      2.00000
      9      16.5691      2.00000
     10      33.4703      0.00000
     11      35.9464      0.00000
     12      41.7633      0.00000
     13      43.5674      0.00000
     14      45.2529      0.00000
     15      48.7581      0.00000
     16      50.0081      0.00000
     17      55.1440      0.00000
     18      58.2212      0.00000
     19      59.8960      0.00000
     20      64.1397      0.00000
     21      64.9983      0.00000
     22      69.7151      0.00000
     23      69.7966      0.00000
     24      75.7989      0.00000

 k-point     4 :       0.3500    0.0500    0.0500
  band No.  band energies     occupation 
      1     -35.7739      2.00000
      2     -34.9866      2.00000
      3     -34.9353      2.00000
      4       7.9594      2.00000
      5      12.9148      2.00000
      6      13.1022      2.00000
      7      13.1555      2.00000
      8      16.6902      2.00000
      9      17.7807      2.00000
     10      31.1506      0.00000
     11      35.2614      0.00000
     12      42.2732      0.00000
     13      44.6497      0.00000
     14      44.7347      0.00000
     15      47.4042      0.00000
     16      47.7244      0.00000
     17      58.2173      0.00000
     18      59.9660      0.00000
     19      61.3078      0.00000
     20      64.0440      0.00000
     21      65.0588      0.00000
     22      68.8176      0.00000
     23      70.4561      0.00000
     24      74.7954      0.00000

 k-point     5 :       0.4500    0.0500    0.0500
  band No.  band energies     occupation 
      1     -36.0653      2.00000
      2     -35.0228      2.00000
      3     -34.9856      2.00000
      4       7.9514      2.00000
      5      12.5824      2.00000
      6      12.7418      2.00000
      7      15.4752      2.00000
      8      18.1257      2.00000
      9      19.1381      0.00000
     10      28.5661      0.00000
     11      32.6357      0.00000
     12      39.7656      0.00000
     13      40.8739      0.00000
     14      49.1734      0.00000
     15      50.9862      0.00000
     16      51.5027      0.00000
     17      58.2092      0.00000
     18      59.7286      0.00000
     19      61.5079      0.00000
     20      62.3471      0.00000
     21      67.3200      0.00000
     22      69.3182      0.00000
     23      70.1946      0.00000
     24      71.9836      0.00000

 k-point     6 :      -0.4500    0.0500    0.0500
  band No.  band energies     occupation 
      1     -36.1457      2.00000
      2     -35.0226      2.00000
      3     -35.0092      2.00000
      4       7.8907      2.00000
      5      12.4359      2.00000
      6      12.6624      2.00000
      7      16.4192      2.00000
      8      18.8675      0.00326
      9      19.5251      0.00000
     10      27.2779      0.00000
     11      31.9847      0.00000
     12      39.3484      0.00000
     13      39.4161      0.00000
     14      51.9566      0.00000
     15      52.3457      0.00000
     16      53.3030      0.00000
     17      58.2089      0.00000
     18      58.4629      0.00000
     19      59.8386      0.00000
     20      60.9468      0.00000
     21      68.2249      0.00000
     22      68.6697      0.00000
     23      72.1815      0.00000
     24      72.5657      0.00000

 k-point     7 :      -0.3500    0.0500    0.0500
  band No.  band energies     occupation 
      1     -35.9889      2.00000
      2     -34.9975      2.00000
      3     -34.9878      2.00000
      4       7.9846      2.00000
      5      12.6404      2.00000
      6      12.9011      2.00000
      7      14.6135      2.00000
      8      18.1276      2.00000
      9      18.3495      2.00000
     10      29.4602      0.00000
     11      33.3299      0.00000
     12      40.6466      0.00000
     13      41.6647      0.00000
     14      48.4516      0.00000
     15      48.6952      0.00000
     16      50.5433      0.00000
     17      58.2083      0.00000
     18      59.5095      0.00000
     19      63.0133      0.00000
     20      63.1841      0.00000
     21      66.7711      0.00000
     22      67.6855      0.00000
     23      70.6868      0.00000
     24      72.9686      0.00000

 k-point     8 :      -0.2500    0.0500    0.0500
  band No.  band energies     occupation 
      1     -35.6464      2.00000
      2     -34.9548      2.00000
      3     -34.9297      2.00000
      4       7.7993      2.00000
      5      12.4368      2.00000
      6      13.1026      2.00000
      7      13.2844      2.00000
      8      16.4447      2.00000
      9      17.1469      2.00000
     10      31.9263      0.00000
     11      36.0431      0.00000
     12      43.4746      0.00000
     13      43.5689      0.00000
     14      45.5541      0.00000
     15      46.4877      0.00000
     16      47.3064      0.00000
     17      58.2145      0.00000
     18      59.0408      0.00000
     19      60.2645      0.00000
     20      63.4958      0.00000
     21      66.6132      0.00000
     22      67.4345      0.00000
     23      71.4468      0.00000
     24      76.0781      0.00000

 k-point     9 :      -0.1500    0.0500    0.0500
  band No.  band energies     occupation 
      1     -35.2401      2.00000
      2     -34.8967      2.00000
      3     -34.8724      2.00000
      4       6.6155      2.00000
      5      11.9305      2.00000
      6      13.3117      2.00000
      7      13.3558      2.00000
      8      15.5430      2.00000
      9      16.3303      2.00000
     10      34.1588      0.00000
     11      35.4606      0.00000
     12      41.1187      0.00000
     13      41.9896      0.00000
     14      47.3510      0.00000
     15      49.4793      0.00000
     16      52.0312      0.00000
     17      53.5082      0.00000
     18      58.2193      0.00000
     19      59.7720      0.00000
     20      63.6374      0.00000
     21      66.7697      0.00000
     22      66.8412      0.00000
     23      70.8922      0.00000
     24      75.6111      0.00000

 k-point    10 :      -0.0500    0.0500    0.0500
  band No.  band energies     occupation 
      1     -34.9254      2.00000
      2     -34.8463      2.00000
      3     -34.8378      2.00000
      4       5.3644      2.00000
      5      12.3628      2.00000
      6      12.9559      2.00000
      7      12.9693      2.00000
      8      15.7697      2.00000
      9      16.2265      2.00000
     10      32.8854      0.00000
     11      37.3145      0.00000
     12      39.1612      0.00000
     13      39.4334      0.00000
     14      47.7194      0.00000
     15      53.7821      0.00000
     16      54.2114      0.00000
     17      56.9969      0.00000
     18      58.2208      0.00000
     19      59.7584      0.00000
     20      64.4613      0.00000
     21      65.4113      0.00000
     22      65.9023      0.00000
     23      69.7109      0.00000
     24      75.1003      0.00000

 k-point    11 :       0.1500    0.1500    0.0500
  band No.  band energies     occupation 
      1     -35.0503      2.00000
      2     -34.8916      2.00000
      3     -34.8815      2.00000
      4       6.0553      2.00000
      5      11.8594      2.00000
      6      13.3579      2.00000
      7      13.3711      2.00000
      8      15.1931      2.00000
      9      16.4632      2.00000
     10      34.0970      0.00000
     11      36.7183      0.00000
     12      39.5472      0.00000
     13      39.9181      0.00000
     14      50.0680      0.00000
     15      51.2829      0.00000
     16      51.4865      0.00000
     17      55.8866      0.00000
     18      57.4993      0.00000
     19      58.2236      0.00000
     20      62.3846      0.00000
     21      66.8974      0.00000
     22      66.9918      0.00000
     23      71.2181      0.00000
     24      77.2699      0.00000

 k-point    12 :       0.2500    0.1500    0.0500
  band No.  band energies     occupation 
      1     -35.3016      2.00000
      2     -34.9788      2.00000
      3     -34.9155      2.00000
      4       7.2462      2.00000
      5      11.3089      2.00000
      6      13.4875      2.00000
      7      13.9269      2.00000
      8      15.0157      2.00000
      9      16.9060      2.00000
     10      35.1962      0.00000
     11      36.1532      0.00000
     12      40.0194      0.00000
     13      41.6982      0.00000
     14      46.2571      0.00000
     15      49.0372      0.00000
     16      52.9862      0.00000
     17      55.3133      0.00000
     18      56.1585      0.00000
     19      58.2159      0.00000
     20      60.7697      0.00000
     21      65.4020      0.00000
     22      70.2152      0.00000
     23      73.0442      0.00000
     24      77.6061      0.00000

 k-point    13 :       0.3500    0.1500    0.0500
  band No.  band energies     occupation 
      1     -35.6528      2.00000
      2     -35.0568      2.00000
      3     -34.9717      2.00000
      4       8.4351      2.00000
      5      11.5272      2.00000
      6      12.7707      2.00000
      7      13.9243      2.00000
      8      16.3752      2.00000
      9      18.0850      2.00000
     10      32.8262      0.00000
     11      36.6221      0.00000
     12      40.5206      0.00000
     13      41.4439      0.00000
     14      46.1723      0.00000
     15      48.2304      0.00000
     16      50.1480      0.00000
     17      55.3815      0.00000
     18      58.2150      0.00000
     19      60.0734      0.00000
     20      61.9752      0.00000
     21      64.8263      0.00000
     22      69.4919      0.00000
     23      74.0034      0.00000
     24      75.2865      0.00000

[...]
     13      42.9150      0.00000
     14      47.0581      0.00000
     15      50.2398      0.00000
     16      51.6512      0.00000
     17      57.8957      0.00000
     18      58.2093      0.00000
     19      59.9101      0.00000
     20      61.3977      0.00000
     21      64.7046      0.00000
     22      68.8097      0.00000
     23      70.4465      0.00000
     24      72.3881      0.00000

 k-point   100 :      -0.3500   -0.3500    0.2500
  band No.  band energies     occupation 
      1     -35.8741      2.00000
      2     -35.5865      2.00000
      3     -35.2058      2.00000
      4       8.9007      2.00000
      5      10.2350      2.00000
      6      14.1702      2.00000
      7      16.4188      2.00000
      8      18.5198      2.00000
      9      25.6028      0.00000
     10      27.0488      0.00000
     11      32.2853      0.00000
     12      35.8483      0.00000
     13      41.5516      0.00000
     14      48.2920      0.00000
     15      49.5744      0.00000
     16      50.2338      0.00000
     17      58.2084      0.00000
     18      60.1438      0.00000
     19      60.5003      0.00000
     20      62.1216      0.00000
     21      64.2924      0.00000
     22      68.3658      0.00000
     23      69.4951      0.00000
     24      71.6940      0.00000

 k-point   101 :       0.3500    0.3500    0.3500
  band No.  band energies     occupation 
      1     -35.8959      2.00000
      2     -34.9638      2.00000
      3     -34.9638      2.00000
      4       7.8816      2.00000
      5      12.8964      2.00000
      6      12.8964      2.00000
      7      14.1001      2.00000
      8      17.5919      2.00000
      9      17.5919      2.00000
     10      30.2190      0.00000
     11      34.1651      0.00000
     12      42.4933      0.00000
     13      42.4933      0.00000
     14      46.7512      0.00000
     15      48.0877      0.00000
     16      48.0877      0.00000
     17      58.2123      0.00000
     18      62.0451      0.00000
     19      62.0451      0.00000
     20      63.1903      0.00000
     21      65.7581      0.00000
     22      69.2262      0.00000
     23      69.2262      0.00000
     24      75.3423      0.00000

 k-point   102 :       0.4500    0.3500    0.3500
  band No.  band energies     occupation 
      1     -35.9652      2.00000
      2     -35.0920      2.00000
      3     -34.9758      2.00000
      4       8.3492      2.00000
      5      12.4421      2.00000
      6      13.0981      2.00000
      7      14.0364      2.00000
      8      17.3049      2.00000
      9      19.7776      0.00000
     10      29.6324      0.00000
     11      33.7949      0.00000
     12      39.2483      0.00000
     13      42.4655      0.00000
     14      46.2059      0.00000
     15      50.9986      0.00000
     16      51.1551      0.00000
     17      58.1032      0.00000
     18      58.2160      0.00000
     19      62.4907      0.00000
     20      63.2489      0.00000
     21      65.5040      0.00000
     22      68.2189      0.00000
     23      69.9004      0.00000
     24      72.2512      0.00000

 k-point   103 :      -0.4500    0.3500    0.3500
  band No.  band energies     occupation 
      1     -35.9320      2.00000
      2     -35.3484      2.00000
      3     -35.0384      2.00000
      4       9.4842      2.00000
      5      11.5378      2.00000
      6      13.1760      2.00000
      7      14.0138      2.00000
      8      17.2373      2.00000
      9      22.3250      0.00000
     10      28.9976      0.00000
     11      34.8830      0.00000
     12      36.7315      0.00000
     13      41.6272      0.00000
     14      45.5489      0.00000
     15      50.2380      0.00000
     16      54.7280      0.00000
     17      58.2105      0.00000
     18      59.7460      0.00000
     19      60.5087      0.00000
     20      62.6600      0.00000
     21      63.3468      0.00000
     22      66.0091      0.00000
     23      71.9397      0.00000
     24      73.1791      0.00000

 k-point   104 :      -0.3500    0.3500    0.3500
  band No.  band energies     occupation 
      1     -35.7991      2.00000
      2     -35.6362      2.00000
      3     -35.1267      2.00000
      4       9.6436      2.00000
      5      11.2651      2.00000
      6      12.7994      2.00000
      7      15.3246      2.00000
      8      17.5875      2.00000
      9      23.8592      0.00000
     10      29.6021      0.00000
     11      32.0625      0.00000
     12      39.0079      0.00000
     13      39.1270      0.00000
     14      46.6087      0.00000
     15      48.5674      0.00000
     16      53.2901      0.00000
     17      58.2068      0.00000
     18      61.3799      0.00000
     19      62.9707      0.00000
     20      63.2036      0.00000
     21      64.1119      0.00000
     22      64.9285      0.00000
     23      67.4522      0.00000
     24      72.9122      0.00000

 k-point   105 :       0.4500    0.4500    0.3500
  band No.  band energies     occupation 
      1     -36.0419      2.00000
      2     -35.0587      2.00000
      3     -35.0329      2.00000
      4       8.2639      2.00000
      5      12.2194      2.00000
      6      13.1151      2.00000
      7      14.4616      2.00000
      8      18.8338      0.04697
      9      19.5990      0.00000
     10      28.4875      0.00000
     11      33.2051      0.00000
     12      39.3427      0.00000
     13      40.5821      0.00000
     14      49.2867      0.00000
     15      50.6437      0.00000
     16      52.3917      0.00000
     17      57.2257      0.00000
     18      58.2128      0.00000
     19      61.4408      0.00000
     20      62.8299      0.00000
     21      66.4651      0.00000
     22      69.2746      0.00000
     23      69.8229      0.00000
     24      72.7730      0.00000

 k-point   106 :      -0.4500    0.4500    0.3500
  band No.  band energies     occupation 
      1     -36.0172      2.00000
      2     -35.2443      2.00000
      3     -35.0684      2.00000
      4       9.0284      2.00000
      5      11.4926      2.00000
      6      13.6024      2.00000
      7      13.9464      2.00000
      8      18.3872      2.00000
      9      22.3619      0.00000
     10      27.3923      0.00000
     11      34.3729      0.00000
     12      37.4856      0.00000
     13      40.1302      0.00000
     14      48.2501      0.00000
     15      51.2420      0.00000
     16      54.6017      0.00000
     17      57.3144      0.00000
     18      58.2182      0.00000
     19      60.1796      0.00000
     20      62.4647      0.00000
     21      63.9492      0.00000
     22      66.5887      0.00000
     23      71.7152      0.00000
     24      73.9024      0.00000

 k-point   107 :      -0.3500    0.4500    0.3500
  band No.  band energies     occupation 
      1     -35.8975      2.00000
      2     -35.4933      2.00000
      3     -35.1517      2.00000
      4       9.9338      2.00000
      5      10.8279      2.00000
      6      12.7646      2.00000
      7      14.9792      2.00000
      8      18.2551      2.00000
      9      24.7681      0.00000
     10      27.0987      0.00000
     11      34.1731      0.00000
     12      36.3775      0.00000
     13      40.3733      0.00000
     14      47.0902      0.00000
     15      50.4665      0.00000
     16      54.4938      0.00000
     17      57.3102      0.00000
     18      58.2119      0.00000
     19      59.5016      0.00000
     20      64.1310      0.00000
     21      64.6142      0.00000
     22      65.7955      0.00000
     23      69.5941      0.00000
     24      72.3608      0.00000

 k-point   108 :      -0.4500   -0.4500    0.3500
  band No.  band energies     occupation 
      1     -36.0058      2.00000
      2     -35.3157      2.00000
      3     -35.0945      2.00000
      4       9.1528      2.00000
      5      11.3082      2.00000
      6      13.6129      2.00000
      7      14.0940      2.00000
      8      18.6683      1.99292
      9      23.5032      0.00000
     10      26.4161      0.00000
     11      34.5817      0.00000
     12      38.2595      0.00000
     13      38.5734      0.00000
     14      49.4983      0.00000
     15      50.0068      0.00000
     16      54.9446      0.00000
     17      56.1699      0.00000
     18      58.2156      0.00000
     19      60.9838      0.00000
     20      61.9788      0.00000
     21      65.2823      0.00000
     22      65.9205      0.00000
     23      71.6202      0.00000
     24      74.1660      0.00000

 k-point   109 :       0.4500    0.4500    0.4500
  band No.  band energies     occupation 
      1     -36.1289      2.00000
      2     -34.9971      2.00000
      3     -34.9971      2.00000
      4       7.7961      2.00000
      5      12.5945      2.00000
      6      12.5945      2.00000
      7      16.6366      2.00000
      8      18.6888      1.96542
      9      18.6888      1.96542
     10      27.8132      0.00000
     11      31.9590      0.00000
     12      39.7774      0.00000
     13      39.7774      0.00000
     14      51.7460      0.00000
     15      51.8122      0.00000
     16      51.8122      0.00000
     17      58.2069      0.00000
     18      59.7471      0.00000
     19      60.6330      0.00000
     20      60.6330      0.00000
     21      70.0284      0.00000
     22      70.0284      0.00000
     23      71.2972      0.00000
     24      71.9047      0.00000

 k-point   110 :      -0.4500    0.4500    0.4500
  band No.  band energies     occupation 
      1     -36.1144      2.00000
      2     -35.0970      2.00000
      3     -35.0210      2.00000
      4       8.2262      2.00000
      5      12.1384      2.00000
      6      12.9400      2.00000
      7      15.4445      2.00000
      8      18.6196      1.99995
      9      20.8996      0.00000
     10      27.0873      0.00000
     11      32.7071      0.00000
     12      38.7369      0.00000
     13      39.6247      0.00000
     14      50.7186      0.00000
     15      51.7807      0.00000
     16      54.1166      0.00000
     17      58.2118      0.00000
     18      58.5923      0.00000
     19      60.7531      0.00000
     20      60.8708      0.00000
     21      65.8685      0.00000
     22      66.5354      0.00000
     23      72.6741      0.00000
     24      72.9230      0.00000


--------------------------------------------------------------------------------------------------------


 soft charge-density along one line, spin component           1
         0         1         2         3         4         5         6         7         8         9
 total charge-density along one line
 
 pseudopotential strength for first ion, spin component:           1
-29.419  -0.000  -0.000   8.459   0.000   0.000  -0.000   0.000
 -0.000 -29.419  -0.000   0.000   8.459   0.000   0.000  -0.000
 -0.000  -0.000 -29.419   0.000   0.000   8.459  -0.000   0.000
  8.459   0.000   0.000  17.180  -0.000  -0.000   0.000  -0.000
  0.000   8.459   0.000  -0.000  17.180  -0.000  -0.000   0.000
  0.000   0.000   8.459  -0.000  -0.000  17.180   0.000  -0.000
 -0.000   0.000  -0.000   0.000  -0.000   0.000  -2.232  -0.000
  0.000  -0.000   0.000  -0.000   0.000  -0.000  -0.000  -2.232
  0.000   0.000   0.000  -0.000  -0.000  -0.000   0.000  -0.000
  0.000   0.000   0.000  -0.000  -0.000  -0.000  -0.000  -0.000
  0.000   0.000  -0.000  -0.000  -0.000   0.000   0.000   0.000
 -0.000   0.000  -0.000   0.000  -0.000   0.000  -2.282  -0.000
  0.000  -0.000  -0.000  -0.000   0.000   0.000  -0.000  -2.282
  0.000   0.000   0.000  -0.000  -0.000   0.000   0.000  -0.000
 -0.000  -0.000   0.000   0.000  -0.000  -0.000  -0.000  -0.000
  0.000   0.000   0.000  -0.000  -0.000   0.000   0.000   0.000
  0.000  -0.000   0.000   0.000  -0.000   0.000   0.000   0.000
 -0.000   0.000  -0.000  -0.000   0.000  -0.000  -0.000  -0.000
 total augmentation occupancy for first ion, spin component:           1
  2.005   0.000   0.000  -0.023   0.000   0.000   0.000   0.000   0.000   0.000   0.000   0.000   0.000   0.000   0.000   0.000
  0.000   2.005  -0.000   0.000  -0.023  -0.000   0.000   0.000   0.000   0.000   0.000   0.000   0.000   0.000   0.000   0.000
  0.000  -0.000   2.005   0.000  -0.000  -0.023   0.000   0.000   0.000   0.000   0.000   0.000   0.000   0.000   0.000   0.000
 -0.023   0.000   0.000   0.091   0.000  -0.000   0.000   0.000   0.000   0.000   0.000   0.000   0.000   0.000   0.000   0.000
  0.000  -0.023  -0.000   0.000   0.091  -0.000   0.000   0.000   0.000   0.000   0.000   0.000   0.000   0.000   0.000   0.000
  0.000   0.000  -0.023   0.000  -0.000   0.091   0.000   0.000   0.000   0.000   0.000   0.000   0.000   0.000   0.000   0.000
  0.000   0.000   0.000   0.000   0.000   0.000  11.470  -0.000  -0.000   0.000  -0.000  -7.980   0.000  -0.000   0.000   0.000
  0.000   0.000   0.000   0.000   0.000   0.000  -0.000  11.470   0.000  -0.000   0.000   0.000  -7.980  -0.000   0.000   0.000
  0.000   0.000   0.000   0.000   0.000   0.000  -0.000   0.000   9.676   0.000   0.000   0.000  -0.000  -6.759  -0.000  -0.000
  0.000   0.000   0.000   0.000   0.000   0.000  -0.000  -0.000   0.000  11.470   0.000   0.000   0.000   0.000  -7.980  -0.000
  0.000   0.000   0.000   0.000   0.000   0.000  -0.000   0.000   0.000   0.000   9.676  -0.000  -0.000  -0.000  -0.000  -6.759
  0.000   0.000   0.000   0.000   0.000   0.000  -7.980  -0.000   0.000   0.000   0.000   6.408  -0.000  -0.000  -0.000   0.000
  0.000   0.000   0.000   0.000   0.000   0.000  -0.000  -7.980  -0.000   0.000   0.000  -0.000   6.408  -0.000  -0.000   0.000
  0.000   0.000   0.000   0.000   0.000   0.000   0.000   0.000  -6.759  -0.000  -0.000  -0.000  -0.000   5.829  -0.000   0.000
  0.000   0.000   0.000   0.000   0.000   0.000   0.000   0.000  -0.000  -7.980  -0.000  -0.000  -0.000   0.000   6.408   0.000
  0.000   0.000   0.000   0.000   0.000   0.000   0.000  -0.000  -0.000  -0.000  -6.759   0.000   0.000   0.000   0.000   5.829
  0.000   0.000   0.000   0.000   0.000   0.000   0.000  -0.000  -0.000  -0.000   0.000  -0.000   0.000   0.000  -0.000   0.000
  0.000   0.000   0.000   0.000   0.000   0.000   0.000  -0.000  -0.000   0.000  -0.000  -0.000  -0.000   0.000  -0.000   0.000


------------------------ aborting loop because EDIFF is reached ----------------------------------------





 total charge

# of ion       s       p       d       tot
------------------------------------------
    1        0.443   6.194   7.250  13.887
 
    CHARGE:  cpu time      0.0112: real time      0.0113
    FORLOC:  cpu time      0.0001: real time      0.0001
    FORNL :  cpu time      0.0051: real time      0.0052
    STRESS:  cpu time      0.0903: real time      0.0909
    FORCOR:  cpu time      0.0017: real time      0.0017
    FORHAR:  cpu time      0.0004: real time      0.0004
    MIXING:  cpu time      0.0002: real time      0.0002
    OFIELD:  cpu time      0.0000: real time      0.0000

  FORCE on cell =-STRESS in cart. coord.  units (eV):
  Direction    XX          YY          ZZ          XY          YZ          ZX
  --------------------------------------------------------------------------------------
  Alpha Z   212.36976   212.36976   212.36976
  Ewald    -790.83521  -790.83521  -790.83521    -0.00000    -0.00000    -0.00000
  Hartree    95.53797    95.53797    95.53797     0.00000     0.00000     0.00000
  E(xc)     -87.31813   -87.31813   -87.31813     0.00000     0.00000     0.00000
  Local     175.79993   175.79993   175.79993    -0.00000    -0.00000    -0.00000
  n-local   -22.22996   -18.02414   -25.26637     3.97781    -3.91133     0.01407
  augment    73.00964    73.00964    73.00964     0.00001     0.00001     0.00001
  Kinetic   355.00941   363.44377   351.25806     6.08443    -5.63067    -0.63505
  Fock        0.00000     0.00000     0.00000     0.00000     0.00000     0.00000
  -------------------------------------------------------------------------------------
  Total      13.29420    13.29420    13.29420     0.00000     0.00000     0.00000
  in kB    1885.28765  1885.28765  1885.28765     0.00000     0.00000     0.00000
  external pressure =     1885.29 kB  Pullay stress =        0.00 kB


 VOLUME and BASIS-vectors are now :
 -----------------------------------------------------------------------------
  energy-cutoff  :      425.00
  volume of cell :       11.30
      direct lattice vectors                 reciprocal lattice vectors
     0.000000000  1.780963766  1.780963766    -0.280746868  0.280746868  0.280746868
     1.780963766  0.000000000  1.780963766     0.280746868 -0.280746868  0.280746868
     1.780963766  1.780963766  0.000000000     0.280746868  0.280746868 -0.280746868

  length of vectors
     2.518663113  2.518663113  2.518663113     0.486267840  0.486267840  0.486267840


 FORCES acting on ions
    electron-ion (+dipol)            ewald-force                    non-local-force                 convergence-correction
 -----------------------------------------------------------------------------------------------
   -.322E-14 -.252E-14 0.337E-15   -.305E-14 0.485E-14 -.642E-14   0.000E+00 -.775E-25 -.517E-25   0.330E-14 -.233E-13 0.203E-13
 -----------------------------------------------------------------------------------------------
   -.322E-14 -.252E-14 0.337E-15   -.305E-14 0.485E-14 -.642E-14   0.000E+00 -.775E-25 -.517E-25   0.330E-14 -.233E-13 0.203E-13
 
 
 POSITION                                       TOTAL-FORCE (eV/Angst)
 -----------------------------------------------------------------------------------
      0.00000      0.00000      0.00000         0.000000     -0.000000      0.000000
 -----------------------------------------------------------------------------------
    total drift:                               -0.000000     -0.000000      0.000000


--------------------------------------------------------------------------------------------------------



  FREE ENERGIE OF THE ION-ELECTRON SYSTEM (eV)
  ---------------------------------------------------
  free  energy   TOTEN  =        -4.20409503 eV

  energy  without entropy=       -4.20272450  energy(sigma->0) =       -4.20340976
 


--------------------------------------------------------------------------------------------------------


    POTLOK:  cpu time      0.0042: real time      0.0043


--------------------------------------------------------------------------------------------------------




--------------------------------------------------------------------------------------------------------


  
 reached required accuracy - stopping structural energy minimisation
 writing wavefunctions
     LOOP+:  cpu time      6.7820: real time      6.8458
    4ORBIT:  cpu time      0.0000: real time      0.0000



 total charge

# of ion       s       p       d       tot
------------------------------------------
    1        0.443   6.194   7.250  13.887
 

 total amount of memory used by VASP MPI-rank0    34764. kBytes
=======================================================================

   base      :      30000. kBytes
   nonl-proj :       3805. kBytes
   fftplans  :        113. kBytes
   grid      :        367. kBytes
   one-center:         15. kBytes
   wavefun   :        464. kBytes
 
  
  
 General timing and accounting informations for this job:
 ========================================================
  
                  Total CPU time used (sec):        7.899
                            User time (sec):        7.390
                          System time (sec):        0.510
                         Elapsed time (sec):       10.590
  
                   Maximum memory used (kb):      225584.
                   Average memory used (kb):          N/A
  
                          Minor page faults:        24628
                          Major page faults:           52
                 Voluntary context switches:         2622
