PROCAR lm decomposed
# of k-points:  110         # of bands:   24         # of ions:    1

 k-point     1 :    0.05000000 0.05000000 0.05000000     weight = 0.00200000

band     1 # energy  -34.85181968 # occ.  2.00000000
 
ion      s     py     pz     px    dxy    dyz    dz2    dxz  x2-y2    tot
    1  0.000  0.334  0.334  0.334  0.000  0.000  0.000  0.000  0.000  1.001
 
band     2 # energy  -34.82267703 # occ.  2.00000000
 
ion      s     py     pz     px    dxy    dyz    dz2    dxz  x2-y2    tot
    1  0.000  0.548  0.009  0.445  0.000  0.000  0.000  0.000  0.000  1.002
 
band     3 # energy  -34.82267703 # occ.  2.00000000
 
ion      s     py     pz     px    dxy    dyz    dz2    dxz  x2-y2    tot
    1  0.000  0.120  0.659  0.223  0.000  0.000  0.000  0.000  0.000  1.002
 
band     4 # energy    5.00126403 # occ.  2.00000000
 
ion      s     py     pz     px    dxy    dyz    dz2    dxz  x2-y2    tot
    1  0.541  0.001  0.001  0.001  0.000  0.000  0.000  0.000  0.000  0.543
 
band     5 # energy   12.62690373 # occ.  2.00000000
 
ion      s     py     pz     px    dxy    dyz    dz2    dxz  x2-y2    tot
    1  0.000  0.000  0.000  0.000  0.295  0.295  0.000  0.295  0.000  0.886
 
band     6 # energy   12.76535473 # occ.  2.00000000
 
ion      s     py     pz     px    dxy    dyz    dz2    dxz  x2-y2    tot
    1  0.000  0.000  0.000  0.000  0.594  0.149  0.000  0.149  0.000  0.892
 
band     7 # energy   12.76535473 # occ.  2.00000000
 
ion      s     py     pz     px    dxy    dyz    dz2    dxz  x2-y2    tot
    1  0.000  0.000  0.000  0.000  0.000  0.446  0.000  0.446  0.000  0.892
 
band     8 # energy   16.10445132 # occ.  2.00000000
 
ion      s     py     pz     px    dxy    dyz    dz2    dxz  x2-y2    tot
    1  0.000  0.000  0.000  0.000  0.000  0.000  0.941  0.000  0.000  0.941
 
band     9 # energy   16.10445132 # occ.  2.00000000
 
ion      s     py     pz     px    dxy    dyz    dz2    dxz  x2-y2    tot
    1  0.000  0.000  0.000  0.000  0.000  0.000  0.000  0.000  0.941  0.941
 
band    10 # energy   32.24256638 # occ.  0.00000000
 
ion      s     py     pz     px    dxy    dyz    dz2    dxz  x2-y2    tot
    1  0.000  0.000  0.000  0.000  0.002  0.002  0.000  0.002  0.000  0.007
 
band    11 # energy   38.08920220 # occ.  0.00000000
 
ion      s     py     pz     px    dxy    dyz    dz2    dxz  x2-y2    tot
    1  0.007  0.016  0.016  0.016  0.001  0.001  0.000  0.001  0.000  0.059
 
band    12 # energy   38.92184540 # occ.  0.00000000
 
ion      s     py     pz     px    dxy    dyz    dz2    dxz  x2-y2    tot
    1  0.000  0.009  0.036  0.009  0.001  0.000  0.005  0.000  0.000  0.060
 
band    13 # energy   38.92184540 # occ.  0.00000000
 
ion      s     py     pz     px    dxy    dyz    dz2    dxz  x2-y2    tot
    1  0.000  0.027  0.000  0.027  0.000  0.000  0.000  0.000  0.005  0.060
 
band    14 # energy   46.00947241 # occ.  0.00000000
 
ion      s     py     pz     px    dxy    dyz    dz2    dxz  x2-y2    tot
    1  0.040  0.003  0.003  0.003  0.000  0.000  0.000  0.000  0.000  0.051
 
band    15 # energy   56.15331757 # occ.  0.00000000
 
ion      s     py     pz     px    dxy    dyz    dz2    dxz  x2-y2    tot
    1  0.005  0.059  0.059  0.059  0.182  0.182  0.000  0.182  0.000  0.729
 
band    16 # energy   56.90670294 # occ.  0.00000000
 
ion      s     py     pz     px    dxy    dyz    dz2    dxz  x2-y2    tot
    1  0.000  0.013  0.047  0.011  0.430  0.098  0.002  0.118  0.000  0.719
 
band    17 # energy   56.90670294 # occ.  0.00000000
 
ion      s     py     pz     px    dxy    dyz    dz2    dxz  x2-y2    tot
    1  0.000  0.035  0.000  0.037  0.000  0.333  0.000  0.313  0.002  0.719
 
band    18 # energy   58.21819518 # occ.  0.00000000
 
ion      s     py     pz     px    dxy    dyz    dz2    dxz  x2-y2    tot
    1  6.292  0.000  0.000  0.000  0.000  0.000  0.000  0.000  0.000  6.292
 
band    19 # energy   62.54489532 # occ.  0.00000000
 
ion      s     py     pz     px    dxy    dyz    dz2    dxz  x2-y2    tot
    1  0.000  0.137  0.531  0.129  0.053  0.013  0.047  0.014  0.000  0.923
 
band    20 # energy   62.54489532 # occ.  0.00000000
 
ion      s     py     pz     px    dxy    dyz    dz2    dxz  x2-y2    tot
    1  0.000  0.394  0.000  0.402  0.000  0.040  0.000  0.039  0.047  0.923
 
band    21 # energy   63.69769898 # occ.  0.00000000
 
ion      s     py     pz     px    dxy    dyz    dz2    dxz  x2-y2    tot
    1  0.024  0.235  0.235  0.235  0.068  0.068  0.000  0.068  0.000  0.936
 
band    22 # energy   68.05005908 # occ.  0.00000000
 
ion      s     py     pz     px    dxy    dyz    dz2    dxz  x2-y2    tot
    1  0.000  0.012  0.048  0.012  0.001  0.000  0.560  0.000  0.000  0.634
 
band    23 # energy   68.05005908 # occ.  0.00000000
 
ion      s     py     pz     px    dxy    dyz    dz2    dxz  x2-y2    tot
    1  0.000  0.036  0.000  0.036  0.000  0.000  0.000  0.000  0.560  0.634
 
band    24 # energy   74.22798143 # occ.  0.00000000
 
ion      s     py     pz     px    dxy    dyz    dz2    dxz  x2-y2    tot
    1  0.000  0.000  0.000  0.000  0.000  0.000  0.000  0.000  0.000  0.000
 

 k-point     2 :    0.15000000 0.05000000 0.05000000     weight = 0.00600000

band     1 # energy  -35.01462000 # occ.  2.00000000
 
ion      s     py     pz     px    dxy    dyz    dz2    dxz  x2-y2    tot
    1  0.001  0.456  0.456  0.084  0.000  0.000  0.000  0.000  0.000  0.997
 
band     2 # energy  -34.86803213 # occ.  2.00000000
 
ion      s     py     pz     px    dxy    dyz    dz2    dxz  x2-y2    tot
    1  0.000  0.042  0.042  0.916  0.000  0.000  0.000  0.000  0.000  1.001
 
band     3 # energy  -34.83417627 # occ.  2.00000000
 
ion      s     py     pz     px    dxy    dyz    dz2    dxz  x2-y2    tot
    1  0.000  0.501  0.501  0.000  0.000  0.000  0.000  0.000  0.000  1.002
 
band     4 # energy    5.70754234 # occ.  2.00000000
 
ion      s     py     pz     px    dxy    dyz    dz2    dxz  x2-y2    tot
    1  0.519  0.007  0.007  0.001  0.001  0.004  0.000  0.001  0.000  0.539
 
band     5 # energy   12.24296409 # occ.  2.00000000
 
ion      s     py     pz     px    dxy    dyz    dz2    dxz  x2-y2    tot
    1  0.001  0.000  0.000  0.004  0.414  0.029  0.000  0.414  0.000  0.861
 
band     6 # energy   13.03748830 # occ.  2.00000000
 
ion      s     py     pz     px    dxy    dyz    dz2    dxz  x2-y2    tot
    1  0.000  0.000  0.000  0.000  0.443  0.000  0.004  0.443  0.001  0.892
 
band     7 # energy   13.10747940 # occ.  2.00000000
 
ion      s     py     pz     px    dxy    dyz    dz2    dxz  x2-y2    tot
    1  0.001  0.002  0.002  0.000  0.016  0.826  0.006  0.016  0.019  0.886
 
band     8 # energy   15.69575405 # occ.  2.00000000
 
ion      s     py     pz     px    dxy    dyz    dz2    dxz  x2-y2    tot
    1  0.000  0.000  0.000  0.000  0.002  0.000  0.688  0.002  0.229  0.923
 
band     9 # energy   16.17623489 # occ.  2.00000000
 
ion      s     py     pz     px    dxy    dyz    dz2    dxz  x2-y2    tot
    1  0.001  0.000  0.000  0.000  0.001  0.025  0.227  0.001  0.681  0.935
 
band    10 # energy   33.45733322 # occ.  0.00000000
 
ion      s     py     pz     px    dxy    dyz    dz2    dxz  x2-y2    tot
    1  0.000  0.000  0.000  0.000  0.019  0.002  0.000  0.019  0.000  0.040
 
band    11 # energy   36.34709749 # occ.  0.00000000
 
ion      s     py     pz     px    dxy    dyz    dz2    dxz  x2-y2    tot
    1  0.026  0.017  0.017  0.005  0.003  0.012  0.002  0.003  0.006  0.090
 
band    12 # energy   39.46880105 # occ.  0.00000000
 
ion      s     py     pz     px    dxy    dyz    dz2    dxz  x2-y2    tot
    1  0.000  0.002  0.002  0.064  0.008  0.001  0.002  0.008  0.006  0.092
 
band    13 # energy   40.50518176 # occ.  0.00000000
 
ion      s     py     pz     px    dxy    dyz    dz2    dxz  x2-y2    tot
    1  0.000  0.025  0.025  0.000  0.000  0.000  0.031  0.000  0.010  0.091
 
band    14 # energy   48.66545900 # occ.  0.00000000
 
ion      s     py     pz     px    dxy    dyz    dz2    dxz  x2-y2    tot
    1  0.007  0.053  0.053  0.007  0.003  0.044  0.000  0.003  0.000  0.171
 
band    15 # energy   51.78020726 # occ.  0.00000000
 
ion      s     py     pz     px    dxy    dyz    dz2    dxz  x2-y2    tot
    1  0.050  0.086  0.086  0.001  0.002  0.239  0.003  0.002  0.009  0.478
 
band    16 # energy   53.40860560 # occ.  0.00000000
 
ion      s     py     pz     px    dxy    dyz    dz2    dxz  x2-y2    tot
    1  0.003  0.000  0.000  0.253  0.178  0.015  0.001  0.178  0.002  0.630
 
band    17 # energy   55.39976011 # occ.  0.00000000
 
ion      s     py     pz     px    dxy    dyz    dz2    dxz  x2-y2    tot
    1  0.000  0.052  0.052  0.000  0.250  0.000  0.012  0.250  0.004  0.619
 
band    18 # energy   58.22081273 # occ.  0.00000000
 
ion      s     py     pz     px    dxy    dyz    dz2    dxz  x2-y2    tot
    1  6.295  0.000  0.000  0.000  0.000  0.000  0.000  0.000  0.000  6.295
 
band    19 # energy   59.90296777 # occ.  0.00000000
 
ion      s     py     pz     px    dxy    dyz    dz2    dxz  x2-y2    tot
    1  0.000  0.287  0.287  0.000  0.062  0.000  0.100  0.062  0.033  0.830
 
band    20 # energy   63.95006620 # occ.  0.00000000
 
ion      s     py     pz     px    dxy    dyz    dz2    dxz  x2-y2    tot
    1  0.064  0.169  0.169  0.048  0.001  0.338  0.021  0.001  0.062  0.872
 
band    21 # energy   65.43002320 # occ.  0.00000000
 
ion      s     py     pz     px    dxy    dyz    dz2    dxz  x2-y2    tot
    1  0.030  0.041  0.041  0.012  0.034  0.003  0.074  0.034  0.223  0.493
 
band    22 # energy   67.48140537 # occ.  0.00000000
 
ion      s     py     pz     px    dxy    dyz    dz2    dxz  x2-y2    tot
    1  0.012  0.000  0.000  0.579  0.155  0.021  0.006  0.155  0.018  0.947
 
band    23 # energy   69.32829417 # occ.  0.00000000
 
ion      s     py     pz     px    dxy    dyz    dz2    dxz  x2-y2    tot
    1  0.000  0.119  0.119  0.000  0.003  0.000  0.231  0.003  0.077  0.552
 
band    24 # energy   75.40464337 # occ.  0.00000000
 
ion      s     py     pz     px    dxy    dyz    dz2    dxz  x2-y2    tot
    1  0.000  0.001  0.001  0.000  0.022  0.000  0.053  0.022  0.018  0.117
 

 k-point     3 :    0.25000000 0.05000000 0.05000000     weight = 0.00600000

band     1 # energy  -35.37349959 # occ.  2.00000000
 
ion      s     py     pz     px    dxy    dyz    dz2    dxz  x2-y2    tot
    1  0.001  0.389  0.389  0.210  0.000  0.000  0.000  0.000  0.000  0.989
 
band     2 # energy  -34.92826018 # occ.  2.00000000
 
ion      s     py     pz     px    dxy    dyz    dz2    dxz  x2-y2    tot
    1  0.000  0.106  0.106  0.788  0.000  0.000  0.000  0.000  0.000  1.000
 
band     3 # energy  -34.87719751 # occ.  2.00000000
 
ion      s     py     pz     px    dxy    dyz    dz2    dxz  x2-y2    tot
    1  0.000  0.500  0.500  0.000  0.000  0.000  0.000  0.000  0.000  1.001
 
band     4 # energy    7.09601917 # occ.  2.00000000
 
ion      s     py     pz     px    dxy    dyz    dz2    dxz  x2-y2    tot
    1  0.446  0.013  0.013  0.004  0.022  0.035  0.000  0.022  0.001  0.556
 
band     5 # energy   11.94599066 # occ.  2.00000000
 
ion      s     py     pz     px    dxy    dyz    dz2    dxz  x2-y2    tot
    1  0.021  0.007  0.007  0.013  0.342  0.056  0.000  0.342  0.000  0.789
 
band     6 # energy   13.32176633 # occ.  2.00000000
 
ion      s     py     pz     px    dxy    dyz    dz2    dxz  x2-y2    tot
    1  0.001  0.003  0.003  0.000  0.035  0.591  0.052  0.035  0.156  0.876
 
band     7 # energy   13.37460196 # occ.  2.00000000
 
ion      s     py     pz     px    dxy    dyz    dz2    dxz  x2-y2    tot
    1  0.000  0.000  0.000  0.000  0.360  0.000  0.126  0.360  0.042  0.889
 
band     8 # energy   15.62435882 # occ.  2.00000000
 
ion      s     py     pz     px    dxy    dyz    dz2    dxz  x2-y2    tot
    1  0.000  0.001  0.001  0.000  0.086  0.000  0.550  0.086  0.183  0.907
 
band     9 # energy   16.56905308 # occ.  2.00000000
 
ion      s     py     pz     px    dxy    dyz    dz2    dxz  x2-y2    tot
    1  0.003  0.001  0.001  0.000  0.012  0.187  0.177  0.012  0.531  0.923
 
band    10 # energy   33.47029235 # occ.  0.00000000
 
ion      s     py     pz     px    dxy    dyz    dz2    dxz  x2-y2    tot
    1  0.044  0.010  0.010  0.008  0.001  0.012  0.002  0.001  0.005  0.093
 
band    11 # energy   35.94644277 # occ.  0.00000000
 
ion      s     py     pz     px    dxy    dyz    dz2    dxz  x2-y2    tot
    1  0.021  0.009  0.009  0.011  0.069  0.042  0.000  0.069  0.001  0.231
 
band    12 # energy   41.76327379 # occ.  0.00000000
 
ion      s     py     pz     px    dxy    dyz    dz2    dxz  x2-y2    tot
    1  0.000  0.002  0.002  0.093  0.018  0.007  0.012  0.018  0.035  0.187
 
band    13 # energy   43.56735940 # occ.  0.00000000
 
ion      s     py     pz     px    dxy    dyz    dz2    dxz  x2-y2    tot
    1  0.000  0.019  0.019  0.000  0.003  0.000  0.081  0.003  0.027  0.151
 
band    14 # energy   45.25291193 # occ.  0.00000000
 
ion      s     py     pz     px    dxy    dyz    dz2    dxz  x2-y2    tot
    1  0.051  0.128  0.128  0.003  0.001  0.113  0.001  0.001  0.002  0.429
 
band    15 # energy   48.75808822 # occ.  0.00000000
 
ion      s     py     pz     px    dxy    dyz    dz2    dxz  x2-y2    tot
    1  0.005  0.000  0.000  0.207  0.065  0.024  0.007  0.065  0.020  0.392
 
band    16 # energy   50.00811770 # occ.  0.00000000
 
ion      s     py     pz     px    dxy    dyz    dz2    dxz  x2-y2    tot
    1  0.000  0.114  0.114  0.000  0.111  0.000  0.023  0.111  0.008  0.481
 
band    17 # energy   55.14402730 # occ.  0.00000000
 
ion      s     py     pz     px    dxy    dyz    dz2    dxz  x2-y2    tot
    1  0.052  0.001  0.001  0.003  0.003  0.000  0.002  0.003  0.005  0.069
 
band    18 # energy   58.22119383 # occ.  0.00000000
 
ion      s     py     pz     px    dxy    dyz    dz2    dxz  x2-y2    tot
    1  6.291  0.000  0.000  0.000  0.000  0.000  0.000  0.000  0.000  6.291
 
band    19 # energy   59.89604039 # occ.  0.00000000
 
ion      s     py     pz     px    dxy    dyz    dz2    dxz  x2-y2    tot
    1  0.000  0.184  0.184  0.000  0.140  0.000  0.104  0.140  0.035  0.788
 
band    20 # energy   64.13970783 # occ.  0.00000000
 
ion      s     py     pz     px    dxy    dyz    dz2    dxz  x2-y2    tot
    1  0.013  0.032  0.032  0.061  0.023  0.331  0.068  0.023  0.204  0.788
 
band    21 # energy   64.99826779 # occ.  0.00000000
 
ion      s     py     pz     px    dxy    dyz    dz2    dxz  x2-y2    tot
    1  0.111  0.087  0.087  0.065  0.047  0.041  0.011  0.047  0.034  0.530
 
band    22 # energy   69.71508476 # occ.  0.00000000
 
ion      s     py     pz     px    dxy    dyz    dz2    dxz  x2-y2    tot
    1  0.067  0.012  0.012  0.369  0.170  0.065  0.000  0.170  0.001  0.864
 
band    23 # energy   69.79660275 # occ.  0.00000000
 
ion      s     py     pz     px    dxy    dyz    dz2    dxz  x2-y2    tot
    1  0.000  0.155  0.155  0.000  0.014  0.000  0.123  0.014  0.041  0.501
 
band    24 # energy   75.79887218 # occ.  0.00000000
 
ion      s     py     pz     px    dxy    dyz    dz2    dxz  x2-y2    tot
    1  0.000  0.001  0.001  0.000  0.012  0.000  0.063  0.012  0.021  0.110
 

 k-point     4 :    0.35000000 0.05000000 0.05000000     weight = 0.00600000

band     1 # energy  -35.77388912 # occ.  2.00000000
 
ion      s     py     pz     px    dxy    dyz    dz2    dxz  x2-y2    tot
    1  0.001  0.357  0.357  0.265  0.000  0.000  0.000  0.000  0.000  0.979
 
band     2 # energy  -34.98661386 # occ.  2.00000000
 
ion      s     py     pz     px    dxy    dyz    dz2    dxz  x2-y2    tot
    1  0.000  0.135  0.135  0.728  0.000  0.000  0.000  0.000  0.000  0.999
 
band     3 # energy  -34.93532932 # occ.  2.00000000
 
ion      s     py     pz     px    dxy    dyz    dz2    dxz  x2-y2    tot
    1  0.000  0.500  0.500  0.000  0.000  0.000  0.000  0.000  0.000  1.000
 
band     4 # energy    7.95941149 # occ.  2.00000000
 
ion      s     py     pz     px    dxy    dyz    dz2    dxz  x2-y2    tot
    1  0.284  0.008  0.008  0.001  0.117  0.122  0.000  0.117  0.001  0.659
 
band     5 # energy   12.91477385 # occ.  2.00000000
 
ion      s     py     pz     px    dxy    dyz    dz2    dxz  x2-y2    tot
    1  0.027  0.005  0.005  0.015  0.190  0.158  0.056  0.190  0.169  0.816
 
band     6 # energy   13.10220366 # occ.  2.00000000
 
ion      s     py     pz     px    dxy    dyz    dz2    dxz  x2-y2    tot
    1  0.000  0.000  0.000  0.000  0.223  0.000  0.325  0.223  0.108  0.879
 
band     7 # energy   13.15548892 # occ.  2.00000000
 
ion      s     py     pz     px    dxy    dyz    dz2    dxz  x2-y2    tot
    1  0.066  0.029  0.029  0.022  0.053  0.211  0.050  0.053  0.149  0.662
 
band     8 # energy   16.69020816 # occ.  2.00000000
 
ion      s     py     pz     px    dxy    dyz    dz2    dxz  x2-y2    tot
    1  0.000  0.001  0.001  0.000  0.229  0.000  0.342  0.229  0.114  0.916
 
band     9 # energy   17.78071230 # occ.  2.00000000
 
ion      s     py     pz     px    dxy    dyz    dz2    dxz  x2-y2    tot
    1  0.009  0.005  0.005  0.000  0.029  0.366  0.120  0.029  0.359  0.922
 
band    10 # energy   31.15057630 # occ.  0.00000000
 
ion      s     py     pz     px    dxy    dyz    dz2    dxz  x2-y2    tot
    1  0.124  0.015  0.015  0.016  0.027  0.048  0.002  0.027  0.005  0.276
 
band    11 # energy   35.26138802 # occ.  0.00000000
 
ion      s     py     pz     px    dxy    dyz    dz2    dxz  x2-y2    tot
    1  0.071  0.030  0.030  0.031  0.085  0.055  0.000  0.085  0.000  0.387
 
band    12 # energy   42.27319515 # occ.  0.00000000
 
ion      s     py     pz     px    dxy    dyz    dz2    dxz  x2-y2    tot
    1  0.011  0.058  0.058  0.106  0.036  0.036  0.000  0.036  0.001  0.341
 
band    13 # energy   44.64968435 # occ.  0.00000000
 
ion      s     py     pz     px    dxy    dyz    dz2    dxz  x2-y2    tot
    1  0.000  0.089  0.089  0.000  0.038  0.000  0.048  0.038  0.016  0.318
 
band    14 # energy   44.73467156 # occ.  0.00000000
 
ion      s     py     pz     px    dxy    dyz    dz2    dxz  x2-y2    tot
    1  0.011  0.002  0.002  0.108  0.002  0.021  0.017  0.002  0.051  0.216
 
band    15 # energy   47.40420959 # occ.  0.00000000
 
ion      s     py     pz     px    dxy    dyz    dz2    dxz  x2-y2    tot
    1  0.025  0.015  0.015  0.027  0.001  0.000  0.019  0.001  0.058  0.161
 
band    16 # energy   47.72440985 # occ.  0.00000000
 
ion      s     py     pz     px    dxy    dyz    dz2    dxz  x2-y2    tot
    1  0.000  0.042  0.042  0.000  0.030  0.000  0.120  0.030  0.040  0.303
 
band    17 # energy   58.21730406 # occ.  0.00000000
 
ion      s     py     pz     px    dxy    dyz    dz2    dxz  x2-y2    tot
    1  6.297  0.000  0.000  0.000  0.000  0.000  0.000  0.000  0.000  6.297
 
band    18 # energy   59.96597964 # occ.  0.00000000
 
ion      s     py     pz     px    dxy    dyz    dz2    dxz  x2-y2    tot
    1  0.000  0.174  0.174  0.000  0.125  0.000  0.098  0.125  0.033  0.730
 
band    19 # energy   61.30776239 # occ.  0.00000000
 
ion      s     py     pz     px    dxy    dyz    dz2    dxz  x2-y2    tot
    1  0.060  0.001  0.001  0.005  0.000  0.046  0.009  0.000  0.026  0.148
 
band    20 # energy   64.04401937 # occ.  0.00000000
 
ion      s     py     pz     px    dxy    dyz    dz2    dxz  x2-y2    tot
    1  0.002  0.032  0.032  0.079  0.031  0.238  0.058  0.031  0.175  0.678
 
band    21 # energy   65.05879342 # occ.  0.00000000
 
ion      s     py     pz     px    dxy    dyz    dz2    dxz  x2-y2    tot
    1  0.113  0.027  0.027  0.091  0.090  0.044  0.004  0.090  0.012  0.498
 
band    22 # energy   68.81760429 # occ.  0.00000000
 
ion      s     py     pz     px    dxy    dyz    dz2    dxz  x2-y2    tot
    1  0.015  0.080  0.080  0.212  0.060  0.091  0.000  0.060  0.000  0.598
 
band    23 # energy   70.45611617 # occ.  0.00000000
 
ion      s     py     pz     px    dxy    dyz    dz2    dxz  x2-y2    tot
    1  0.000  0.169  0.169  0.000  0.018  0.000  0.076  0.018  0.025  0.476
 
band    24 # energy   74.79541890 # occ.  0.00000000
 
ion      s     py     pz     px    dxy    dyz    dz2    dxz  x2-y2    tot
    1  0.000  0.003  0.003  0.000  0.029  0.000  0.084  0.029  0.028  0.176
 

 k-point     5 :    0.45000000 0.05000000 0.05000000     weight = 0.00600000

band     1 # energy  -36.06525185 # occ.  2.00000000
 
ion      s     py     pz     px    dxy    dyz    dz2    dxz  x2-y2    tot
    1  0.000  0.336  0.336  0.301  0.000  0.000  0.000  0.000  0.000  0.973
 
band     2 # energy  -35.02277052 # occ.  2.00000000
 
ion      s     py     pz     px    dxy    dyz    dz2    dxz  x2-y2    tot
    1  0.000  0.154  0.154  0.689  0.000  0.000  0.000  0.000  0.000  0.998
 
band     3 # energy  -34.98563768 # occ.  2.00000000
 
ion      s     py     pz     px    dxy    dyz    dz2    dxz  x2-y2    tot
    1  0.000  0.499  0.499  0.000  0.000  0.000  0.000  0.000  0.000  0.999
 
band     4 # energy    7.95139750 # occ.  2.00000000
 
ion      s     py     pz     px    dxy    dyz    dz2    dxz  x2-y2    tot
    1  0.190  0.002  0.002  0.000  0.176  0.177  0.000  0.176  0.000  0.724
 
band     5 # energy   12.58237321 # occ.  2.00000000
 
ion      s     py     pz     px    dxy    dyz    dz2    dxz  x2-y2    tot
    1  0.000  0.001  0.001  0.000  0.056  0.254  0.124  0.056  0.373  0.864
 
band     6 # energy   12.74183855 # occ.  2.00000000
 
ion      s     py     pz     px    dxy    dyz    dz2    dxz  x2-y2    tot
    1  0.000  0.000  0.000  0.000  0.179  0.000  0.386  0.179  0.129  0.872
 
band     7 # energy   15.47515762 # occ.  2.00000000
 
ion      s     py     pz     px    dxy    dyz    dz2    dxz  x2-y2    tot
    1  0.055  0.061  0.061  0.063  0.089  0.008  0.010  0.089  0.031  0.469
 
band     8 # energy   18.12566855 # occ.  2.00000000
 
ion      s     py     pz     px    dxy    dyz    dz2    dxz  x2-y2    tot
    1  0.000  0.001  0.001  0.000  0.284  0.000  0.282  0.284  0.094  0.946
 
band     9 # energy   19.13808225 # occ.  0.00000000
 
ion      s     py     pz     px    dxy    dyz    dz2    dxz  x2-y2    tot
    1  0.014  0.014  0.014  0.006  0.038  0.403  0.090  0.038  0.271  0.889
 
band    10 # energy   28.56611448 # occ.  0.00000000
 
ion      s     py     pz     px    dxy    dyz    dz2    dxz  x2-y2    tot
    1  0.331  0.013  0.013  0.016  0.101  0.111  0.001  0.101  0.002  0.689
 
band    11 # energy   32.63568020 # occ.  0.00000000
 
ion      s     py     pz     px    dxy    dyz    dz2    dxz  x2-y2    tot
    1  0.025  0.012  0.012  0.012  0.026  0.005  0.001  0.026  0.002  0.122
 
band    12 # energy   39.76562588 # occ.  0.00000000
 
ion      s     py     pz     px    dxy    dyz    dz2    dxz  x2-y2    tot
    1  0.001  0.036  0.036  0.148  0.019  0.003  0.000  0.019  0.000  0.262
 
band    13 # energy   40.87385145 # occ.  0.00000000
 
ion      s     py     pz     px    dxy    dyz    dz2    dxz  x2-y2    tot
    1  0.000  0.104  0.104  0.000  0.011  0.000  0.017  0.011  0.006  0.254
 
band    14 # energy   49.17335542 # occ.  0.00000000
 
ion      s     py     pz     px    dxy    dyz    dz2    dxz  x2-y2    tot
    1  0.009  0.000  0.000  0.056  0.001  0.074  0.038  0.001  0.113  0.291
 
band    15 # energy   50.98623626 # occ.  0.00000000
 
ion      s     py     pz     px    dxy    dyz    dz2    dxz  x2-y2    tot
    1  0.037  0.016  0.016  0.001  0.050  0.000  0.027  0.050  0.082  0.279
 
band    16 # energy   51.50267065 # occ.  0.00000000
 
ion      s     py     pz     px    dxy    dyz    dz2    dxz  x2-y2    tot
    1  0.000  0.008  0.008  0.000  0.055  0.000  0.257  0.055  0.086  0.468
 
band    17 # energy   58.20915191 # occ.  0.00000000
 
ion      s     py     pz     px    dxy    dyz    dz2    dxz  x2-y2    tot
    1  6.289  0.000  0.000  0.000  0.000  0.000  0.000  0.000  0.000  6.289
 
band    18 # energy   59.72857946 # occ.  0.00000000
 
ion      s     py     pz     px    dxy    dyz    dz2    dxz  x2-y2    tot
    1  0.000  0.194  0.194  0.000  0.048  0.000  0.032  0.048  0.011  0.527
 
band    19 # energy   61.50789618 # occ.  0.00000000
 
ion      s     py     pz     px    dxy    dyz    dz2    dxz  x2-y2    tot
    1  0.070  0.010  0.010  0.048  0.044  0.124  0.002  0.044  0.006  0.358
 
band    20 # energy   62.34707274 # occ.  0.00000000
 
ion      s     py     pz     px    dxy    dyz    dz2    dxz  x2-y2    tot
    1  0.005  0.056  0.056  0.135  0.025  0.070  0.042  0.025  0.126  0.540
 
band    21 # energy   67.32004116 # occ.  0.00000000
 
ion      s     py     pz     px    dxy    dyz    dz2    dxz  x2-y2    tot
    1  0.008  0.082  0.082  0.180  0.013  0.060  0.001  0.013  0.003  0.444
 
band    22 # energy   69.31818134 # occ.  0.00000000
 
ion      s     py     pz     px    dxy    dyz    dz2    dxz  x2-y2    tot
    1  0.037  0.000  0.000  0.007  0.001  0.004  0.000  0.001  0.000  0.052
 
band    23 # energy   70.19461465 # occ.  0.00000000
 
ion      s     py     pz     px    dxy    dyz    dz2    dxz  x2-y2    tot
    1  0.000  0.097  0.097  0.000  0.020  0.000  0.032  0.020  0.011  0.276
 
band    24 # energy   71.98363136 # occ.  0.00000000
 
ion      s     py     pz     px    dxy    dyz    dz2    dxz  x2-y2    tot
    1  0.000  0.086  0.086  0.000  0.124  0.000  0.001  0.124  0.000  0.420
 

 k-point     6 :   -0.45000000 0.05000000 0.05000000     weight = 0.00600000

band     1 # energy  -36.14573274 # occ.  2.00000000
 
ion      s     py     pz     px    dxy    dyz    dz2    dxz  x2-y2    tot
    1  0.000  0.320  0.320  0.331  0.000  0.000  0.000  0.000  0.000  0.971
 
band     2 # energy  -35.02262556 # occ.  2.00000000
 
ion      s     py     pz     px    dxy    dyz    dz2    dxz  x2-y2    tot
    1  0.000  0.170  0.170  0.658  0.000  0.000  0.000  0.000  0.000  0.998
 
band     3 # energy  -35.00921302 # occ.  2.00000000
 
ion      s     py     pz     px    dxy    dyz    dz2    dxz  x2-y2    tot
    1  0.000  0.499  0.499  0.000  0.000  0.000  0.000  0.000  0.000  0.998
 
band     4 # energy    7.89067617 # occ.  2.00000000
 
ion      s     py     pz     px    dxy    dyz    dz2    dxz  x2-y2    tot
    1  0.173  0.000  0.000  0.002  0.183  0.196  0.000  0.183  0.000  0.736
 
band     5 # energy   12.43592360 # occ.  2.00000000
 
ion      s     py     pz     px    dxy    dyz    dz2    dxz  x2-y2    tot
    1  0.000  0.001  0.001  0.000  0.060  0.214  0.131  0.060  0.394  0.861
 
band     6 # energy   12.66241659 # occ.  2.00000000
 
ion      s     py     pz     px    dxy    dyz    dz2    dxz  x2-y2    tot
    1  0.000  0.000  0.000  0.000  0.176  0.000  0.389  0.176  0.130  0.871
 
band     7 # energy   16.41919564 # occ.  2.00000000
 
ion      s     py     pz     px    dxy    dyz    dz2    dxz  x2-y2    tot
    1  0.003  0.068  0.068  0.066  0.020  0.148  0.017  0.020  0.052  0.464
 
band     8 # energy   18.86754936 # occ.  0.00326201
 
ion      s     py     pz     px    dxy    dyz    dz2    dxz  x2-y2    tot
    1  0.000  0.000  0.000  0.000  0.294  0.000  0.285  0.294  0.095  0.969
 
band     9 # energy   19.52514114 # occ.  0.00000000
 
ion      s     py     pz     px    dxy    dyz    dz2    dxz  x2-y2    tot
    1  0.001  0.024  0.024  0.030  0.083  0.252  0.075  0.083  0.225  0.796
 
band    10 # energy   27.27790782 # occ.  0.00000000
 
ion      s     py     pz     px    dxy    dyz    dz2    dxz  x2-y2    tot
    1  0.444  0.001  0.001  0.000  0.140  0.136  0.000  0.140  0.000  0.864
 
band    11 # energy   31.98466159 # occ.  0.00000000
 
ion      s     py     pz     px    dxy    dyz    dz2    dxz  x2-y2    tot
    1  0.001  0.006  0.006  0.008  0.000  0.008  0.001  0.000  0.003  0.032
 
band    12 # energy   39.34843897 # occ.  0.00000000
 
ion      s     py     pz     px    dxy    dyz    dz2    dxz  x2-y2    tot
    1  0.000  0.108  0.108  0.000  0.000  0.000  0.003  0.000  0.001  0.221
 
band    13 # energy   39.41605457 # occ.  0.00000000
 
ion      s     py     pz     px    dxy    dyz    dz2    dxz  x2-y2    tot
    1  0.001  0.036  0.036  0.140  0.003  0.010  0.002  0.003  0.007  0.239
 
band    14 # energy   51.95659512 # occ.  0.00000000
 
ion      s     py     pz     px    dxy    dyz    dz2    dxz  x2-y2    tot
    1  0.000  0.008  0.008  0.000  0.064  0.000  0.278  0.064  0.093  0.513
 
band    15 # energy   52.34565869 # occ.  0.00000000
 
ion      s     py     pz     px    dxy    dyz    dz2    dxz  x2-y2    tot
    1  0.001  0.000  0.000  0.005  0.026  0.079  0.098  0.026  0.293  0.528
 
band    16 # energy   53.30296978 # occ.  0.00000000
 
ion      s     py     pz     px    dxy    dyz    dz2    dxz  x2-y2    tot
    1  0.071  0.005  0.005  0.000  0.072  0.100  0.001  0.072  0.004  0.329
 
band    17 # energy   58.20894097 # occ.  0.00000000
 
ion      s     py     pz     px    dxy    dyz    dz2    dxz  x2-y2    tot
    1  6.247  0.001  0.001  0.000  0.000  0.000  0.000  0.000  0.000  6.249
 
band    18 # energy   58.46288127 # occ.  0.00000000
 
ion      s     py     pz     px    dxy    dyz    dz2    dxz  x2-y2    tot
    1  0.045  0.056  0.056  0.010  0.018  0.000  0.002  0.018  0.006  0.212
 
band    19 # energy   59.83858252 # occ.  0.00000000
 
ion      s     py     pz     px    dxy    dyz    dz2    dxz  x2-y2    tot
    1  0.015  0.046  0.046  0.271  0.001  0.000  0.002  0.001  0.006  0.387
 
band    20 # energy   60.94678442 # occ.  0.00000000
 
ion      s     py     pz     px    dxy    dyz    dz2    dxz  x2-y2    tot
    1  0.000  0.174  0.174  0.000  0.007  0.000  0.036  0.007  0.012  0.409
 
band    21 # energy   68.22486658 # occ.  0.00000000
 
ion      s     py     pz     px    dxy    dyz    dz2    dxz  x2-y2    tot
    1  0.000  0.116  0.116  0.000  0.077  0.000  0.000  0.077  0.000  0.387
 
band    22 # energy   68.66965561 # occ.  0.00000000
 
ion      s     py     pz     px    dxy    dyz    dz2    dxz  x2-y2    tot
    1  0.013  0.031  0.031  0.119  0.019  0.075  0.000  0.019  0.001  0.308
 