<?xml version="1.0" encoding="ISO-8859-1"?>
<modeling>
 <generator>
  <i name="program" type="string">vasp </i>
  <i name="version" type="string">6.3.2  </i>
  <i name="subversion" type="string">27Jun22 (build Aug 12 2022 00:53:59) complex                          parallel </i>
  <i name="platform" type="string">tv2STD </i>
  <i name="date" type="string">2024 12 03 </i>
  <i name="time" type="string">01:37:59 </i>
 </generator>
 <incar>
  <i type="string" name="SYSTEM">Pt-fcc</i>
  <i type="int" name="ISTART">     0</i>
  <i type="string" name="PREC">accurate      normal | accurate</i>
  <i type="string" name="ALGO">Normal     Normal, Fast, Very_Fast</i>
  <i type="logical" name="ADDGRID"> F  </i>
  <i type="int" name="ICHARG">     2</i>
  <i type="int" name="INIWAV">     1</i>
  <i type="int" name="NELM">   100</i>
  <i type="int" name="IBRION">     2</i>
  <i name="EDIFF">      0.00000100</i>
  <i name="EDIFFG">     -0.02000000</i>
  <i type="int" name="NSW">   100</i>
  <i type="int" name="ISIF">     2</i>
  <i type="int" name="ISYM">     1</i>
  <i name="ENCUT">    425.00000000</i>
  <i type="logical" name="LREAL"> F  </i>
  <i type="int" name="ISMEAR">     0</i>
  <i name="SIGMA">      0.05000000</i>
  <i type="int" name="NWRITE">     2</i>
  <i type="logical" name="LWAVE"> T  </i>
  <i type="logical" name="LCHARG"> T  </i>
  <i type="int" name="LORBIT">    11</i>
 </incar>
 <primitive_cell>
  <structure name="primitive_cell" >
   <crystal>
    <varray name="basis" >
     <v>       0.00000000       1.78096377       1.78096377 </v>
     <v>       1.78096377       0.00000000       1.78096377 </v>
     <v>       1.78096377       1.78096377       0.00000000 </v>
    </varray>
    <i name="volume">     11.29783551 </i>
    <varray name="rec_basis" >
     <v>      -0.28074687       0.28074687       0.28074687 </v>
     <v>       0.28074687      -0.28074687       0.28074687 </v>
     <v>       0.28074687       0.28074687      -0.28074687 </v>
    </varray>
   </crystal>
   <varray name="positions" >
    <v>       0.00000000       0.00000000       0.00000000 </v>
   </varray>
  </structure>
  <varray name="primitive_index" >
   <v type="int" >        1 </v>
  </varray>
 </primitive_cell>
 <kpoints>
  <generation param="Monkhorst-Pack">
   <v type="int" name="divisions">      10       10       10 </v>
   <v name="usershift">      0.00000000       0.00000000       0.00000000 </v>
   <v name="genvec1">      0.10000000      -0.00000000      -0.00000000 </v>
   <v name="genvec2">      0.00000000       0.10000000       0.00000000 </v>
   <v name="genvec3">      0.00000000       0.00000000       0.10000000 </v>
   <v name="shift">      0.50000000       0.50000000       0.50000000 </v>
  </generation>
  <varray name="kpointlist" >
   <v>       0.05000000       0.05000000       0.05000000 </v>
   <v>       0.15000000       0.05000000       0.05000000 </v>
   <v>       0.25000000       0.05000000       0.05000000 </v>
   <v>       0.35000000       0.05000000       0.05000000 </v>
   <v>       0.45000000       0.05000000       0.05000000 </v>
   <v>      -0.45000000       0.05000000       0.05000000 </v>
   <v>      -0.35000000       0.05000000       0.05000000 </v>
   <v>      -0.25000000       0.05000000       0.05000000 </v>
   <v>      -0.15000000       0.05000000       0.05000000 </v>
   <v>      -0.05000000       0.05000000       0.05000000 </v>
   <v>       0.15000000       0.15000000       0.05000000 </v>
   <v>       0.25000000       0.15000000       0.05000000 </v>
   <v>       0.35000000       0.15000000       0.05000000 </v>
   <v>       0.45000000       0.15000000       0.05000000 </v>
   <v>      -0.45000000       0.15000000       0.05000000 </v>
   <v>      -0.35000000       0.15000000       0.05000000 </v>
   <v>      -0.25000000       0.15000000       0.05000000 </v>
   <v>      -0.15000000       0.15000000       0.05000000 </v>
   <v>      -0.05000000       0.15000000       0.05000000 </v>
   <v>       0.25000000       0.25000000       0.05000000 </v>
   <v>       0.35000000       0.25000000       0.05000000 </v>
   <v>       0.45000000       0.25000000       0.05000000 </v>
   <v>      -0.45000000       0.25000000       0.05000000 </v>
   <v>      -0.35000000       0.25000000       0.05000000 </v>
   <v>      -0.25000000       0.25000000       0.05000000 </v>
   <v>      -0.15000000       0.25000000       0.05000000 </v>
   <v>      -0.05000000       0.25000000       0.05000000 </v>
   <v>       0.35000000       0.35000000       0.05000000 </v>
   <v>       0.45000000       0.35000000       0.05000000 </v>
   <v>      -0.45000000       0.35000000       0.05000000 </v>
   <v>      -0.35000000       0.35000000       0.05000000 </v>
   <v>      -0.25000000       0.35000000       0.05000000 </v>
   <v>      -0.15000000       0.35000000       0.05000000 </v>
   <v>      -0.05000000       0.35000000       0.05000000 </v>
   <v>       0.45000000       0.45000000       0.05000000 </v>
   <v>      -0.45000000       0.45000000       0.05000000 </v>
   <v>      -0.35000000       0.45000000       0.05000000 </v>
   <v>      -0.25000000       0.45000000       0.05000000 </v>
   <v>      -0.15000000       0.45000000       0.05000000 </v>
   <v>      -0.05000000       0.45000000       0.05000000 </v>
   <v>      -0.45000000      -0.45000000       0.05000000 </v>
   <v>      -0.35000000      -0.45000000       0.05000000 </v>
   <v>      -0.25000000      -0.45000000       0.05000000 </v>
   <v>      -0.15000000      -0.45000000       0.05000000 </v>
   <v>      -0.35000000      -0.35000000       0.05000000 </v>
   <v>      -0.25000000      -0.35000000       0.05000000 </v>
   <v>      -0.15000000      -0.35000000       0.05000000 </v>
   <v>      -0.25000000      -0.25000000       0.05000000 </v>
   <v>      -0.15000000      -0.25000000       0.05000000 </v>
   <v>      -0.15000000      -0.15000000       0.05000000 </v>
   <v>       0.15000000       0.15000000       0.15000000 </v>
   <v>       0.25000000       0.15000000       0.15000000 </v>
   <v>       0.35000000       0.15000000       0.15000000 </v>
   <v>       0.45000000       0.15000000       0.15000000 </v>
   <v>      -0.45000000       0.15000000       0.15000000 </v>
   <v>      -0.35000000       0.15000000       0.15000000 </v>
   <v>      -0.25000000       0.15000000       0.15000000 </v>
   <v>      -0.15000000       0.15000000       0.15000000 </v>
   <v>       0.25000000       0.25000000       0.15000000 </v>
   <v>       0.35000000       0.25000000       0.15000000 </v>
   <v>       0.45000000       0.25000000       0.15000000 </v>
   <v>      -0.45000000       0.25000000       0.15000000 </v>
   <v>      -0.35000000       0.25000000       0.15000000 </v>
   <v>      -0.25000000       0.25000000       0.15000000 </v>
   <v>      -0.15000000       0.25000000       0.15000000 </v>
   <v>       0.35000000       0.35000000       0.15000000 </v>
   <v>       0.45000000       0.35000000       0.15000000 </v>
   <v>      -0.45000000       0.35000000       0.15000000 </v>
   <v>      -0.35000000       0.35000000       0.15000000 </v>
   <v>      -0.25000000       0.35000000       0.15000000 </v>
   <v>      -0.15000000       0.35000000       0.15000000 </v>
   <v>       0.45000000       0.45000000       0.15000000 </v>
   <v>      -0.45000000       0.45000000       0.15000000 </v>
   <v>      -0.35000000       0.45000000       0.15000000 </v>
   <v>      -0.25000000       0.45000000       0.15000000 </v>
   <v>      -0.15000000       0.45000000       0.15000000 </v>
   <v>      -0.45000000      -0.45000000       0.15000000 </v>
   <v>      -0.35000000      -0.45000000       0.15000000 </v>
   <v>      -0.25000000      -0.45000000       0.15000000 </v>
   <v>      -0.35000000      -0.35000000       0.15000000 </v>
   <v>      -0.25000000      -0.35000000       0.15000000 </v>
   <v>      -0.25000000      -0.25000000       0.15000000 </v>
   <v>       0.25000000       0.25000000       0.25000000 </v>
   <v>       0.35000000       0.25000000       0.25000000 </v>
   <v>       0.45000000       0.25000000       0.25000000 </v>
   <v>      -0.45000000       0.25000000       0.25000000 </v>
   <v>      -0.35000000       0.25000000       0.25000000 </v>
   <v>      -0.25000000       0.25000000       0.25000000 </v>
   <v>       0.35000000       0.35000000       0.25000000 </v>
   <v>       0.45000000       0.35000000       0.25000000 </v>
   <v>      -0.45000000       0.35000000       0.25000000 </v>
   <v>      -0.35000000       0.35000000       0.25000000 </v>
   <v>      -0.25000000       0.35000000       0.25000000 </v>
   <v>       0.45000000       0.45000000       0.25000000 </v>
   <v>      -0.45000000       0.45000000       0.25000000 </v>
   <v>      -0.35000000       0.45000000       0.25000000 </v>
   <v>      -0.25000000       0.45000000       0.25000000 </v>
   <v>      -0.45000000      -0.45000000       0.25000000 </v>
   <v>      -0.35000000      -0.45000000       0.25000000 </v>
   <v>      -0.35000000      -0.35000000       0.25000000 </v>
   <v>       0.35000000       0.35000000       0.35000000 </v>
   <v>       0.45000000       0.35000000       0.35000000 </v>
   <v>      -0.45000000       0.35000000       0.35000000 </v>
   <v>      -0.35000000       0.35000000       0.35000000 </v>
   <v>       0.45000000       0.45000000       0.35000000 </v>
   <v>      -0.45000000       0.45000000       0.35000000 </v>
   <v>      -0.35000000       0.45000000       0.35000000 </v>
   <v>      -0.45000000      -0.45000000       0.35000000 </v>
   <v>       0.45000000       0.45000000       0.45000000 </v>
   <v>      -0.45000000       0.45000000       0.45000000 </v>
  </varray>
  <varray name="weights" >
   <v>       0.00200000 </v>
   <v>       0.00600000 </v>
   <v>       0.00600000 </v>
   <v>       0.00600000 </v>
   <v>       0.00600000 </v>
   <v>       0.00600000 </v>
   <v>       0.00600000 </v>
   <v>       0.00600000 </v>
   <v>       0.00600000 </v>
   <v>       0.00600000 </v>
   <v>       0.00600000 </v>
   <v>       0.01200000 </v>
   <v>       0.01200000 </v>
   <v>       0.01200000 </v>
   <v>       0.01200000 </v>
   <v>       0.01200000 </v>
   <v>       0.01200000 </v>
   <v>       0.01200000 </v>
   <v>       0.01200000 </v>
   <v>       0.00600000 </v>
   <v>       0.01200000 </v>
   <v>       0.01200000 </v>
   <v>       0.01200000 </v>
   <v>       0.01200000 </v>
   <v>       0.01200000 </v>
   <v>       0.01200000 </v>
   <v>       0.01200000 </v>
   <v>       0.00600000 </v>
   <v>       0.01200000 </v>
   <v>       0.01200000 </v>
   <v>       0.01200000 </v>
   <v>       0.01200000 </v>
   <v>       0.01200000 </v>
   <v>       0.01200000 </v>
   <v>       0.00600000 </v>
   <v>       0.01200000 </v>
   <v>       0.01200000 </v>
   <v>       0.01200000 </v>
   <v>       0.01200000 </v>
   <v>       0.01200000 </v>
   <v>       0.00600000 </v>
   <v>       0.01200000 </v>
   <v>       0.01200000 </v>
   <v>       0.01200000 </v>
   <v>       0.00600000 </v>
   <v>       0.01200000 </v>
   <v>       0.01200000 </v>
   <v>       0.00600000 </v>
   <v>       0.01200000 </v>
   <v>       0.00600000 </v>
   <v>       0.00200000 </v>
   <v>       0.00600000 </v>
   <v>       0.00600000 </v>
   <v>       0.00600000 </v>
   <v>       0.00600000 </v>
   <v>       0.00600000 </v>
   <v>       0.00600000 </v>
   <v>       0.00600000 </v>
   <v>       0.00600000 </v>
   <v>       0.01200000 </v>
   <v>       0.01200000 </v>
   <v>       0.01200000 </v>
   <v>       0.01200000 </v>
   <v>       0.01200000 </v>
   <v>       0.01200000 </v>
   <v>       0.00600000 </v>
   <v>       0.01200000 </v>
   <v>       0.01200000 </v>
   <v>       0.01200000 </v>
   <v>       0.01200000 </v>
   <v>       0.01200000 </v>
   <v>       0.00600000 </v>
   <v>       0.01200000 </v>
   <v>       0.01200000 </v>
   <v>       0.01200000 </v>
   <v>       0.01200000 </v>
   <v>       0.00600000 </v>
   <v>       0.01200000 </v>
   <v>       0.01200000 </v>
   <v>       0.00600000 </v>
   <v>       0.01200000 </v>
   <v>       0.00600000 </v>
   <v>       0.00200000 </v>
   <v>       0.00600000 </v>
   <v>       0.00600000 </v>
   <v>       0.00600000 </v>
   <v>       0.00600000 </v>
   <v>       0.00600000 </v>
   <v>       0.00600000 </v>
   <v>       0.01200000 </v>
   <v>       0.01200000 </v>
   <v>       0.01200000 </v>
   <v>       0.01200000 </v>
   <v>       0.00600000 </v>
   <v>       0.01200000 </v>
   <v>       0.01200000 </v>
   <v>       0.01200000 </v>
   <v>       0.00600000 </v>
   <v>       0.01200000 </v>
   <v>       0.00600000 </v>
   <v>       0.00200000 </v>
   <v>       0.00600000 </v>
   <v>       0.00600000 </v>
   <v>       0.00600000 </v>
   <v>       0.00600000 </v>
   <v>       0.01200000 </v>
   <v>       0.01200000 </v>
   <v>       0.00600000 </v>
   <v>       0.00200000 </v>
   <v>       0.00600000 </v>
  </varray>
 </kpoints>
 <parameters>
  <separator name="general" >
   <i type="string" name="SYSTEM">Pt-fcc</i>
   <i type="logical" name="LCOMPAT"> F  </i>
  </separator>
  <separator name="electronic" >
   <i type="string" name="PREC">accura</i>
   <i name="ENMAX">    425.00000000</i>
   <i name="ENAUG">    527.01400000</i>
   <i name="EDIFF">      0.00000100</i>
   <i type="int" name="IALGO">    38</i>
   <i type="int" name="IWAVPR">    11</i>
   <i type="int" name="NBANDS">    24</i>
   <i type="int" name="NBANDSLOW">    -1</i>
   <i type="int" name="NBANDSHIGH">    -1</i>
   <i name="NELECT">     16.00000000</i>
   <i type="int" name="TURBO">     0</i>
   <i type="int" name="IRESTART">     0</i>
   <i type="int" name="NREBOOT">     0</i>
   <i type="int" name="NMIN">     0</i>
   <i name="EREF">      0.00000000</i>
   <separator name="electronic smearing" >
    <i type="int" name="ISMEAR">     0</i>
    <i name="SIGMA">      0.05000000</i>
    <i name="KSPACING">      0.50000000</i>
    <i type="logical" name="KGAMMA"> T  </i>
    <i type="logical" name="KBLOWUP"> T  </i>
   </separator>
   <separator name="electronic projectors" >
    <i type="logical" name="LREAL"> F  </i>
    <v name="ROPT">      0.00000000</v>
    <i type="int" name="LMAXPAW">  -100</i>
    <i type="int" name="LMAXMIX">     2</i>
    <i type="logical" name="NLSPLINE"> F  </i>
   </separator>
   <separator name="electronic startup" >
    <i type="int" name="ISTART">     0</i>
    <i type="int" name="ICHARG">     2</i>
    <i type="int" name="INIWAV">     1</i>
   </separator>
   <separator name="electronic spin" >
    <i type="int" name="ISPIN">     1</i>
    <i type="logical" name="LNONCOLLINEAR"> F  </i>
    <v name="MAGMOM">      1.00000000</v>
    <i name="NUPDOWN">     -1.00000000</i>
    <i type="logical" name="LSORBIT"> F  </i>
    <v name="SAXIS">      0.00000000      0.00000000      1.00000000</v>
    <i type="logical" name="LSPIRAL"> F  </i>
    <v name="QSPIRAL">      0.00000000      0.00000000      0.00000000</v>
    <i type="logical" name="LZEROZ"> F  </i>
   </separator>
   <separator name="electronic exchange-correlation" >
    <i type="logical" name="LASPH"> F  </i>
    <i type="logical" name="LMETAGGA"> F  </i>
   </separator>
   <separator name="electronic convergence" >
    <i type="int" name="NELM">   100</i>
    <i type="int" name="NELMDL">    -5</i>
    <i type="int" name="NELMIN">     2</i>
    <i name="ENINI">    425.00000000</i>
    <separator name="electronic convergence detail" >
     <i type="logical" name="LDIAG"> T  </i>
     <i type="logical" name="LSUBROT"> F  </i>
     <i name="WEIMIN">      0.00100000</i>
     <i name="EBREAK">      0.00000001</i>
     <i name="DEPER">      0.30000000</i>
     <i type="int" name="NRMM">     4</i>
     <i name="TIME">      0.40000000</i>
    </separator>
   </separator>
   <separator name="electronic mixer" >
    <i name="AMIX">      0.40000000</i>
    <i name="BMIX">      1.00000000</i>
    <i name="AMIN">      0.10000000</i>
    <i name="AMIX_MAG">      1.60000000</i>
    <i name="BMIX_MAG">      1.00000000</i>
    <separator name="electronic mixer details" >
     <i type="int" name="IMIX">     4</i>
     <i type="logical" name="MIXFIRST"> F  </i>
     <i type="int" name="MAXMIX">   -45</i>
     <i name="WC">    100.00000000</i>
     <i type="int" name="INIMIX">     1</i>
     <i type="int" name="MIXPRE">     1</i>
     <i type="int" name="MREMOVE">     5</i>
    </separator>
   </separator>
   <separator name="electronic dipolcorrection" >
    <i type="logical" name="LDIPOL"> F  </i>
    <i type="logical" name="LMONO"> F  </i>
    <i type="int" name="IDIPOL">     0</i>
    <i name="EPSILON">      1.00000000</i>
    <v name="DIPOL">   -100.00000000   -100.00000000   -100.00000000</v>
    <i name="EFIELD">      0.00000000</i>
   </separator>
  </separator>
  <separator name="grids" >
   <i type="int" name="NGX">    18</i>
   <i type="int" name="NGY">    18</i>
   <i type="int" name="NGZ">    18</i>
   <i type="int" name="NGXF">    36</i>
   <i type="int" name="NGYF">    36</i>
   <i type="int" name="NGZF">    36</i>
   <i type="logical" name="ADDGRID"> F  </i>
  </separator>
  <separator name="ionic" >
   <i type="int" name="NSW">   100</i>
   <i type="int" name="IBRION">     2</i>
   <i type="int" name="MDALGO">     0</i>
   <i type="int" name="ISIF">     2</i>
   <i name="PSTRESS">      0.00000000</i>
   <i name="EDIFFG">     -0.02000000</i>
   <i type="int" name="NFREE">     1</i>
   <i name="POTIM">      0.50000000</i>
   <i name="SMASS">     -3.00000000</i>
   <i name="SCALEE">      1.00000000</i>
  </separator>
  <separator name="ionic md" >
   <i name="TEBEG">      0.00010000</i>
   <i name="TEEND">      0.00010000</i>
   <i type="int" name="NBLOCK">     1</i>
   <i type="int" name="KBLOCK">   100</i>
   <i type="int" name="NPACO">   256</i>
   <i name="APACO">     10.00000000</i>
  </separator>
  <separator name="symmetry" >
   <i type="int" name="ISYM">     1</i>
   <i name="SYMPREC">      0.00001000</i>
  </separator>
  <separator name="dos" >
   <i type="int" name="LORBIT">    11</i>
   <v name="RWIGS">     -1.00000000</v>
   <i type="int" name="NEDOS">   301</i>
   <i name="EMIN">     10.00000000</i>
   <i name="EMAX">    -10.00000000</i>
   <i name="EFERMI">      0.00000000</i>
  </separator>
  <separator name="writing" >
   <i type="int" name="NWRITE">     2</i>
   <i type="logical" name="LWAVE"> T  </i>
   <i type="logical" name="LDOWNSAMPLE"> F  </i>
   <i type="logical" name="LCHARG"> T  </i>
   <i type="logical" name="LPARD"> F  </i>
   <i type="logical" name="LVTOT"> F  </i>
   <i type="logical" name="LVHAR"> F  </i>
   <i type="logical" name="LELF"> F  </i>
   <i type="logical" name="LOPTICS"> F  </i>
   <v name="STM">      0.00000000      0.00000000      0.00000000      0.00000000      0.00000000      0.00000000      0.00000000</v>
  </separator>
  <separator name="performance" >
   <i type="int" name="NPAR">    24</i>
   <i type="int" name="NSIM">     4</i>
   <i type="int" name="NBLK">    -1</i>
   <i type="logical" name="LPLANE"> T  </i>
   <i type="logical" name="LSCALAPACK"> T  </i>
   <i type="logical" name="LSCAAWARE"> T  </i>
   <i type="logical" name="LSCALU"> F  </i>
   <i type="logical" name="LASYNC"> F  </i>
   <i type="logical" name="LORBITALREAL"> F  </i>
  </separator>
  <separator name="miscellaneous" >
   <i type="int" name="IDIOT">     3</i>
   <i type="int" name="PHON_NSTRUCT">    -1</i>
   <i type="logical" name="LMUSIC"> F  </i>
   <v name="POMASS">    195.08000000</v>
   <v name="DARWINR">      0.00000000</v>
   <v name="DARWINV">      1.00000000</v>
   <i type="logical" name="LCORR"> T  </i>
  </separator>
  <i type="logical" name="GGA_COMPAT"> T  </i>
  <i type="logical" name="LBERRY"> F  </i>
  <i type="int" name="ICORELEVEL">     0</i>
  <i type="logical" name="LDAU"> F  </i>
  <i type="int" name="I_CONSTRAINED_M">     0</i>
  <separator name="electronic exchange-correlation" >
   <i type="string" name="GGA">--</i>
   <i type="int" name="VOSKOWN">     0</i>
   <i type="logical" name="LHFCALC"> F  </i>
   <i type="string" name="PRECFOCK"></i>
   <i type="logical" name="LSYMGRAD"> F  </i>
   <i type="logical" name="LHFONE"> F  </i>
   <i type="logical" name="LRHFCALC"> F  </i>
   <i type="logical" name="LTHOMAS"> F  </i>
   <i type="logical" name="LMODELHF"> F  </i>
   <i type="logical" name="LFOCKACE"> F  </i>
   <i name="ENCUT4O">     -1.00000000</i>
   <i type="int" name="EXXOEP">     0</i>
   <i type="int" name="FOURORBIT">     0</i>
   <i name="AEXX">      0.00000000</i>
   <i name="HFALPHA">      0.00000000</i>
   <i name="MCALPHA">      0.00000000</i>
   <i name="ALDAX">      1.00000000</i>
   <i name="AGGAX">      1.00000000</i>
   <i name="ALDAC">      1.00000000</i>
   <i name="AGGAC">      1.00000000</i>
   <i type="int" name="NKREDX">     1</i>
   <i type="int" name="NKREDY">     1</i>
   <i type="int" name="NKREDZ">     1</i>
   <i type="logical" name="SHIFTRED"> F  </i>
   <i type="logical" name="ODDONLY"> F  </i>
   <i type="logical" name="EVENONLY"> F  </i>
   <i type="int" name="LMAXFOCK">     0</i>
   <i type="int" name="NMAXFOCKAE">     0</i>
   <i type="logical" name="LFOCKAEDFT"> F  </i>
   <i name="HFSCREEN">      0.00000000</i>
   <i name="HFSCREENC">      0.00000000</i>
   <i type="int" name="NBANDSGWLOW">     0</i>
  </separator>
  <separator name="vdW DFT" >
   <i type="logical" name="LUSE_VDW"> F  </i>
   <i name="Zab_VDW">     -0.84910000</i>
   <i name="PARAM1">      0.12340000</i>
   <i name="PARAM2">      1.00000000</i>
   <i name="PARAM3">      0.00000000</i>
  </separator>
  <separator name="model GW" >
   <i type="int" name="MODEL_GW">     0</i>
   <i name="MODEL_EPS0">      6.77870131</i>
   <i name="MODEL_ALPHA">      1.00000000</i>
  </separator>
  <separator name="linear response parameters" >
   <i type="logical" name="LEPSILON"> F  </i>
   <i type="logical" name="LRPA"> F  </i>
   <i type="logical" name="LNABLA"> F  </i>
   <i type="logical" name="LVEL"> F  </i>
   <i name="CSHIFT">      0.10000000</i>
   <i name="OMEGAMAX">     -1.00000000</i>
   <i name="DEG_THRESHOLD">      0.00200000</i>
   <i name="RTIME">     -0.10000000</i>
   <i name="WPLASMAI">      0.00000000</i>
   <v name="DFIELD">      0.00000000      0.00000000      0.00000000</v>
   <v name="WPLASMA">      0.00000000      0.00000000      0.00000000      0.00000000      0.00000000      0.00000000      0.00000000      0.00000000      0.00000000</v>
  </separator>
  <separator name="orbital magnetization" >
   <i type="logical" name="NUCIND"> F  </i>
   <v name="MAGPOS">      0.00000000      0.00000000      0.00000000</v>
   <i type="logical" name="LNICSALL"> T  </i>
   <i type="logical" name="ORBITALMAG"> F  </i>
   <i type="logical" name="LMAGBLOCH"> F  </i>
   <i type="logical" name="LCHIMAG"> F  </i>
   <i type="logical" name="LGAUGE"> T  </i>
   <i type="int" name="MAGATOM">     0</i>
   <v name="MAGDIPOL">      0.00000000      0.00000000      0.00000000</v>
   <v name="AVECCONST">      0.00000000      0.00000000      0.00000000</v>
  </separator>
  <separator name="response functions" >
   <i type="logical" name="LFINITE_TEMPERATURE"> F  </i>
   <i type="logical" name="LADDER"> F  </i>
   <i type="logical" name="LRPAFORCE"> F  </i>
   <i type="logical" name="LFXC"> F  </i>
   <i type="logical" name="LHARTREE"> T  </i>
   <i type="int" name="IBSE">     0</i>
   <v type="int" name="KPOINT">    -1     0     0     0</v>
   <i type="logical" name="LTCTC"> F  </i>
   <i type="logical" name="LTCTE"> F  </i>
   <i type="logical" name="LTETE"> F  </i>
   <i type="logical" name="LTRIPLET"> F  </i>
   <i type="logical" name="LFXCEPS"> F  </i>
   <i type="logical" name="LFXHEG"> F  </i>
   <i type="int" name="NATURALO">     2</i>
   <i type="logical" name="LHOLEGF"> F  </i>
   <i type="logical" name="L2ORDER"> F  </i>
   <i type="logical" name="LDMP1"> F  </i>
   <i type="logical" name="LMP2LT"> F  </i>
   <i type="logical" name="LSMP2LT"> F  </i>
   <i type="logical" name="LGWLF"> F  </i>
   <i name="ENCUTGW">     -2.00000000</i>
   <i name="ENCUTGWSOFT">     -2.00000000</i>
   <i name="ENCUTLF">     -1.00000000</i>
   <i type="logical" name="LESF_SPLINES"> F  </i>
   <i type="int" name="LMAXMP2">    -1</i>
   <i name="SCISSOR">      0.00000000</i>
   <i type="int" name="NOMEGA">     0</i>
   <i type="int" name="NOMEGAR">     0</i>
   <i type="int" name="NBANDSGW">    -1</i>
   <i type="int" name="NBANDSO">    -1</i>
   <i type="int" name="NBANDSV">    -1</i>
   <i type="int" name="NELMGW">     1</i>
   <i type="int" name="NELMHF">     1</i>
   <i type="int" name="DIM">     3</i>
   <i type="int" name="IESPILON">     4</i>
   <i type="int" name="ANTIRES">     0</i>
   <i name="OMEGAMAX">    -30.00000000</i>
   <i name="OMEGAMIN">    -30.00000000</i>
   <i name="OMEGATL">   -200.00000000</i>
   <i type="int" name="OMEGAGRID">     0</i>
   <i name="CSHIFT">     -0.10000000</i>
   <i type="logical" name="LSELFENERGY"> F  </i>
   <i type="logical" name="LSPECTRAL"> F  </i>
   <i type="logical" name="LSPECTRALGW"> F  </i>
   <i type="logical" name="LSINGLES"> F  </i>
   <i type="logical" name="LFERMIGW"> F  </i>
   <i type="logical" name="ODDONLYGW"> F  </i>
   <i type="logical" name="EVENONLYGW"> F  </i>
   <i type="int" name="NKREDLFX">     1</i>
   <i type="int" name="NKREDLFY">     1</i>
   <i type="int" name="NKREDLFZ">     1</i>
   <i type="int" name="MAXMEM">  2800</i>
   <i type="int" name="TELESCOPE">     0</i>
   <i type="int" name="NTAUPAR">    -1</i>
   <i type="int" name="NOMEGAPAR">    -1</i>
   <i name="DAMP_NEWTON">      0.80000001</i>
   <i name="LAMBDA">      1.00000000</i>
  </separator>
  <separator name="External order field" >
   <i name="OFIELD_KAPPA">      0.00000000</i>
   <v name="OFIELD_K">      0.00000000      0.00000000      0.00000000</v>
   <i name="OFIELD_Q6_NEAR">      0.00000000</i>
   <i name="OFIELD_Q6_FAR">      0.00000000</i>
   <i name="OFIELD_A">      0.00000000</i>
  </separator>
  <separator name="optional k-points parameters" >
   <i type="int" name="KPOINTS_OPT_MODE">     1</i>
   <i type="logical" name="LKPOINTS_OPT"> F  </i>
  </separator>
 </parameters>
 <atominfo>
  <atoms>       1 </atoms>
  <types>       1 </types>
  <array name="atoms" >
   <dimension dim="1">ion</dimension>
   <field type="string">element</field>
   <field type="int">atomtype</field>
   <set>
    <rc><c>Pt</c><c>   1</c></rc>
   </set>
  </array>
  <array name="atomtypes" >
   <dimension dim="1">type</dimension>
   <field type="int">atomspertype</field>
   <field type="string">element</field>
   <field>mass</field>
   <field>valence</field>
   <field type="string">pseudopotential</field>
   <set>
    <rc><c>   1</c><c>Pt</c><c>    195.08000000</c><c>     16.00000000</c><c>  PAW_PBE Pt_pv 12Dec2005               </c></rc>
   </set>
  </array>
 </atominfo>
 <structure name="initialpos" >
  <crystal>
   <varray name="basis" >
    <v>       0.00000000       1.78096377       1.78096377 </v>
    <v>       1.78096377       0.00000000       1.78096377 </v>
    <v>       1.78096377       1.78096377       0.00000000 </v>
   </varray>
   <i name="volume">     11.29783551 </i>
   <varray name="rec_basis" >
    <v>      -0.28074687       0.28074687       0.28074687 </v>
    <v>       0.28074687      -0.28074687       0.28074687 </v>
    <v>       0.28074687       0.28074687      -0.28074687 </v>
   </varray>
  </crystal>
  <varray name="positions" >
   <v>       0.00000000       0.00000000       0.00000000 </v>
  </varray>
 </structure>
 <calculation>
  <scstep>
   <time name="dav">    0.50    0.50</time>
   <time name="total">    0.51    0.51</time>
   <energy>
    <i name="alphaZ">    212.36975509 </i>
    <i name="ewald">  -2372.50555823 </i>
    <i name="hartreedc">   -302.12546854 </i>
    <i name="XCdc">     65.71051746 </i>
    <i name="pawpsdc">   2065.75261637 </i>
    <i name="pawaedc">  -2030.83594803 </i>
    <i name="eentropy">     -0.00077567 </i>
    <i name="bandstr">    -54.33240413 </i>
    <i name="atom">   2428.19501064 </i>
    <i name="e_fr_energy">     12.22774497 </i>
    <i name="e_wo_entrp">     12.22852064 </i>
    <i name="e_0_energy">     12.22813280 </i>
   </energy>
  </scstep>
  <scstep>
   <time name="dav">    0.59    0.60</time>
   <time name="total">    0.59    0.60</time>
   <energy>
    <i name="e_fr_energy">     -4.43164299 </i>
    <i name="e_wo_entrp">     -4.43031986 </i>
    <i name="e_0_energy">     -4.43098143 </i>
   </energy>
  </scstep>
  <scstep>
   <time name="dav">    0.73    0.73</time>
   <time name="total">    0.73    0.73</time>
   <energy>
    <i name="e_fr_energy">     -4.45053231 </i>
    <i name="e_wo_entrp">     -4.44921150 </i>
    <i name="e_0_energy">     -4.44987191 </i>
   </energy>
  </scstep>
  <scstep>
   <time name="dav">    0.70    0.70</time>
   <time name="total">    0.70    0.70</time>
   <energy>
    <i name="e_fr_energy">     -4.45053895 </i>
    <i name="e_wo_entrp">     -4.44921815 </i>
    <i name="e_0_energy">     -4.44987855 </i>
   </energy>
  </scstep>
  <scstep>
   <time name="dav">    0.68    0.68</time>
   <time name="total">    0.69    0.69</time>
   <energy>
    <i name="e_fr_energy">     -4.45053895 </i>
    <i name="e_wo_entrp">     -4.44921815 </i>
    <i name="e_0_energy">     -4.44987855 </i>
   </energy>
  </scstep>
  <scstep>
   <time name="dav">    0.55    0.55</time>
   <time name="total">    0.57    0.57</time>
   <energy>
    <i name="e_fr_energy">     -4.24071999 </i>
    <i name="e_wo_entrp">     -4.23950676 </i>
    <i name="e_0_energy">     -4.24011338 </i>
   </energy>
  </scstep>
  <scstep>
   <time name="dav">    0.72    0.73</time>
   <time name="total">    0.74    0.74</time>
   <energy>
    <i name="e_fr_energy">     -4.20660447 </i>
    <i name="e_wo_entrp">     -4.20520085 </i>
    <i name="e_0_energy">     -4.20590266 </i>
   </energy>
  </scstep>
  <scstep>
   <time name="dav">    0.44    0.44</time>
   <time name="total">    0.45    0.46</time>
   <energy>
    <i name="e_fr_energy">     -4.20412777 </i>
    <i name="e_wo_entrp">     -4.20275465 </i>
    <i name="e_0_energy">     -4.20344121 </i>
   </energy>
  </scstep>
  <scstep>
   <time name="dav">    0.70    0.71</time>
   <time name="total">    0.72    0.72</time>
   <energy>
    <i name="e_fr_energy">     -4.20409273 </i>
    <i name="e_wo_entrp">     -4.20272124 </i>
    <i name="e_0_energy">     -4.20340698 </i>
   </energy>
  </scstep>
  <scstep>
   <time name="dav">    0.64    0.64</time>
   <time name="total">    0.65    0.66</time>
   <energy>
    <i name="e_fr_energy">     -4.20409496 </i>
    <i name="e_wo_entrp">     -4.20272442 </i>
    <i name="e_0_energy">     -4.20340969 </i>
   </energy>
  </scstep>
  <scstep>
   <time name="dav">    0.25    0.25</time>
   <time name="total">    0.25    0.25</time>
   <energy>
    <i name="alphaZ">    212.36975509 </i>
    <i name="ewald">  -2372.50555823 </i>
    <i name="hartreedc">   -286.61463993 </i>
    <i name="XCdc">     65.00147930 </i>
    <i name="pawpsdc">   3125.64574358 </i>
    <i name="pawaedc">  -3094.77166322 </i>
    <i name="eentropy">     -0.00137053 </i>
    <i name="bandstr">    -81.52285174 </i>
    <i name="atom">   2428.19501064 </i>
    <i name="e_fr_energy">     -4.20409503 </i>
    <i name="e_wo_entrp">     -4.20272450 </i>
    <i name="e_0_energy">     -4.20340976 </i>
   </energy>
  </scstep>
  <structure>
   <crystal>
    <varray name="basis" >
     <v>       0.00000000       1.78096377       1.78096377 </v>
     <v>       1.78096377       0.00000000       1.78096377 </v>
     <v>       1.78096377       1.78096377       0.00000000 </v>
    </varray>
    <i name="volume">     11.29783551 </i>
    <varray name="rec_basis" >
     <v>      -0.28074687       0.28074687       0.28074687 </v>
     <v>       0.28074687      -0.28074687       0.28074687 </v>
     <v>       0.28074687       0.28074687      -0.28074687 </v>
    </varray>
   </crystal>
   <varray name="positions" >
    <v>       0.00000000       0.00000000       0.00000000 </v>
   </varray>
  </structure>
  <varray name="forces" >
   <v>       0.00000000      -0.00000000       0.00000000 </v>
  </varray>
  <varray name="stress" >
   <v>    1885.28764897       0.00000000       0.00000000 </v>
   <v>       0.00000000    1885.28764897       0.00000000 </v>
   <v>      -0.00000000       0.00000000    1885.28764897 </v>
  </varray>
  <energy>
   <i name="e_fr_energy">     -4.20409503 </i>
   <i name="e_wo_entrp">     -4.20272450 </i>
   <i name="e_0_energy">     -4.20340976 </i>
  </energy>
  <time name="totalsc">    6.78    6.85</time>
  <eigenvalues>
   <array>
    <dimension dim="1">band</dimension>
    <dimension dim="2">kpoint</dimension>
    <dimension dim="3">spin</dimension>
    <field>eigene</field>
    <field>occ</field>
    <set>
     <set comment="spin 1">
      <set comment="kpoint 1">
       <r>  -34.8518    1.0000 </r>
       <r>  -34.8227    1.0000 </r>
       <r>  -34.8227    1.0000 </r>
       <r>    5.0013    1.0000 </r>
       <r>   12.6269    1.0000 </r>
       <r>   12.7654    1.0000 </r>
       <r>   12.7654    1.0000 </r>
       <r>   16.1045    1.0000 </r>
       <r>   16.1045    1.0000 </r>
       <r>   32.2426    0.0000 </r>
       <r>   38.0892    0.0000 </r>
       <r>   38.9218    0.0000 </r>
       <r>   38.9218    0.0000 </r>
       <r>   46.0095    0.0000 </r>
       <r>   56.1533    0.0000 </r>
       <r>   56.9067    0.0000 </r>
       <r>   56.9067    0.0000 </r>
       <r>   58.2182    0.0000 </r>
       <r>   62.5449    0.0000 </r>
       <r>   62.5449    0.0000 </r>
       <r>   63.6977    0.0000 </r>
       <r>   68.0501    0.0000 </r>
       <r>   68.0501    0.0000 </r>
       <r>   74.2280    0.0000 </r>
      </set>
      <set comment="kpoint 2">
       <r>  -35.0146    1.0000 </r>
       <r>  -34.8680    1.0000 </r>
       <r>  -34.8342    1.0000 </r>
       <r>    5.7075    1.0000 </r>
       <r>   12.2430    1.0000 </r>
       <r>   13.0375    1.0000 </r>
       <r>   13.1075    1.0000 </r>
       <r>   15.6958    1.0000 </r>
       <r>   16.1762    1.0000 </r>
       <r>   33.4573    0.0000 </r>
       <r>   36.3471    0.0000 </r>
       <r>   39.4688    0.0000 </r>
       <r>   40.5052    0.0000 </r>
       <r>   48.6655    0.0000 </r>
       <r>   51.7802    0.0000 </r>
       <r>   53.4086    0.0000 </r>
       <r>   55.3998    0.0000 </r>
       <r>   58.2208    0.0000 </r>
       <r>   59.9030    0.0000 </r>
       <r>   63.9501    0.0000 </r>
       <r>   65.4300    0.0000 </r>
       <r>   67.4814    0.0000 </r>
       <r>   69.3283    0.0000 </r>
       <r>   75.4046    0.0000 </r>
      </set>
      <set comment="kpoint 3">
       <r>  -35.3735    1.0000 </r>
       <r>  -34.9283    1.0000 </r>
       <r>  -34.8772    1.0000 </r>
       <r>    7.0960    1.0000 </r>
       <r>   11.9460    1.0000 </r>
       <r>   13.3218    1.0000 </r>
       <r>   13.3746    1.0000 </r>
       <r>   15.6244    1.0000 </r>
       <r>   16.5691    1.0000 </r>
       <r>   33.4703    0.0000 </r>
       <r>   35.9464    0.0000 </r>
       <r>   41.7633    0.0000 </r>
       <r>   43.5674    0.0000 </r>
       <r>   45.2529    0.0000 </r>
       <r>   48.7581    0.0000 </r>
       <r>   50.0081    0.0000 </r>
       <r>   55.1440    0.0000 </r>
       <r>   58.2212    0.0000 </r>
       <r>   59.8960    0.0000 </r>
       <r>   64.1397    0.0000 </r>
       <r>   64.9983    0.0000 </r>
       <r>   69.7151    0.0000 </r>
       <r>   69.7966    0.0000 </r>
       <r>   75.7989    0.0000 </r>
      </set>
      <set comment="kpoint 4">
       <r>  -35.7739    1.0000 </r>
       <r>  -34.9866    1.0000 </r>
       <r>  -34.9353    1.0000 </r>
       <r>    7.9594    1.0000 </r>
       <r>   12.9148    1.0000 </r>
       <r>   13.1022    1.0000 </r>
       <r>   13.1555    1.0000 </r>
       <r>   16.6902    1.0000 </r>
       <r>   17.7807    1.0000 </r>
       <r>   31.1506    0.0000 </r>
       <r>   35.2614    0.0000 </r>
       <r>   42.2732    0.0000 </r>
       <r>   44.6497    0.0000 </r>
       <r>   44.7347    0.0000 </r>
       <r>   47.4042    0.0000 </r>
       <r>   47.7244    0.0000 </r>
       <r>   58.2173    0.0000 </r>
       <r>   59.9660    0.0000 </r>
       <r>   61.3078    0.0000 </r>
       <r>   64.0440    0.0000 </r>
       <r>   65.0588    0.0000 </r>
       <r>   68.8176    0.0000 </r>
       <r>   70.4561    0.0000 </r>
       <r>   74.7954    0.0000 </r>
      </set>
      <set comment="kpoint 5">
       <r>  -36.0653    1.0000 </r>
       <r>  -35.0228    1.0000 </r>
       <r>  -34.9856    1.0000 </r>
       <r>    7.9514    1.0000 </r>
       <r>   12.5824    1.0000 </r>
       <r>   12.7418    1.0000 </r>
       <r>   15.4752    1.0000 </r>
       <r>   18.1257    1.0000 </r>
       <r>   19.1381    0.0000 </r>
       <r>   28.5661    0.0000 </r>
       <r>   32.6357    0.0000 </r>
       <r>   39.7656    0.0000 </r>
       <r>   40.8739    0.0000 </r>
       <r>   49.1734    0.0000 </r>
       <r>   50.9862    0.0000 </r>
       <r>   51.5027    0.0000 </r>
       <r>   58.2092    0.0000 </r>
       <r>   59.7286    0.0000 </r>
       <r>   61.5079    0.0000 </r>
       <r>   62.3471    0.0000 </r>
       <r>   67.3200    0.0000 </r>
       <r>   69.3182    0.0000 </r>
       <r>   70.1946    0.0000 </r>
       <r>   71.9836    0.0000 </r>
      </set>
      <set comment="kpoint 6">
       <r>  -36.1457    1.0000 </r>
       <r>  -35.0226    1.0000 </r>
       <r>  -35.0092    1.0000 </r>
       <r>    7.8907    1.0000 </r>
       <r>   12.4359    1.0000 </r>
       <r>   12.6624    1.0000 </r>
       <r>   16.4192    1.0000 </r>
       <r>   18.8675    0.0016 </r>
       <r>   19.5251    0.0000 </r>
       <r>   27.2779    0.0000 </r>
       <r>   31.9847    0.0000 </r>
       <r>   39.3484    0.0000 </r>
       <r>   39.4161    0.0000 </r>
       <r>   51.9566    0.0000 </r>
       <r>   52.3457    0.0000 </r>
       <r>   53.3030    0.0000 </r>
       <r>   58.2089    0.0000 </r>
       <r>   58.4629    0.0000 </r>
       <r>   59.8386    0.0000 </r>
       <r>   60.9468    0.0000 </r>
       <r>   68.2249    0.0000 </r>
       <r>   68.6697    0.0000 </r>
       <r>   72.1815    0.0000 </r>
       <r>   72.5657    0.0000 </r>
      </set>
      <set comment="kpoint 7">
       <r>  -35.9889    1.0000 </r>
       <r>  -34.9975    1.0000 </r>
       <r>  -34.9878    1.0000 </r>
       <r>    7.9846    1.0000 </r>
       <r>   12.6404    1.0000 </r>
       <r>   12.9011    1.0000 </r>
       <r>   14.6135    1.0000 </r>
       <r>   18.1276    1.0000 </r>
       <r>   18.3495    1.0000 </r>
       <r>   29.4602    0.0000 </r>
       <r>   33.3299    0.0000 </r>
       <r>   40.6466    0.0000 </r>
       <r>   41.6647    0.0000 </r>
       <r>   48.4516    0.0000 </r>
       <r>   48.6952    0.0000 </r>
       <r>   50.5433    0.0000 </r>
       <r>   58.2083    0.0000 </r>
       <r>   59.5095    0.0000 </r>
       <r>   63.0133    0.0000 </r>
       <r>   63.1841    0.0000 </r>
       <r>   66.7711    0.0000 </r>
       <r>   67.6855    0.0000 </r>
       <r>   70.6868    0.0000 </r>
       <r>   72.9686    0.0000 </r>
      </set>
      <set comment="kpoint 8">
       <r>  -35.6464    1.0000 </r>
       <r>  -34.9548    1.0000 </r>
       <r>  -34.9297    1.0000 </r>
       <r>    7.7993    1.0000 </r>
       <r>   12.4368    1.0000 </r>
       <r>   13.1026    1.0000 </r>
       <r>   13.2844    1.0000 </r>
       <r>   16.4447    1.0000 </r>
       <r>   17.1469    1.0000 </r>
       <r>   31.9263    0.0000 </r>
       <r>   36.0431    0.0000 </r>
       <r>   43.4746    0.0000 </r>
       <r>   43.5689    0.0000 </r>
       <r>   45.5541    0.0000 </r>
       <r>   46.4877    0.0000 </r>
       <r>   47.3064    0.0000 </r>
       <r>   58.2145    0.0000 </r>
       <r>   59.0408    0.0000 </r>
       <r>   60.2645    0.0000 </r>
       <r>   63.4958    0.0000 </r>
       <r>   66.6132    0.0000 </r>
       <r>   67.4345    0.0000 </r>
       <r>   71.4468    0.0000 </r>
       <r>   76.0781    0.0000 </r>
      </set>
      <set comment="kpoint 9">
       <r>  -35.2401    1.0000 </r>
       <r>  -34.8967    1.0000 </r>
       <r>  -34.8724    1.0000 </r>
       <r>    6.6155    1.0000 </r>
       <r>   11.9305    1.0000 </r>
       <r>   13.3117    1.0000 </r>
       <r>   13.3558    1.0000 </r>
       <r>   15.5430    1.0000 </r>
       <r>   16.3303    1.0000 </r>
       <r>   34.1588    0.0000 </r>
       <r>   35.4606    0.0000 </r>
       <r>   41.1187    0.0000 </r>
       <r>   41.9896    0.0000 </r>
       <r>   47.3510    0.0000 </r>
       <r>   49.4793    0.0000 </r>
       <r>   52.0312    0.0000 </r>
       <r>   53.5082    0.0000 </r>
       <r>   58.2193    0.0000 </r>
       <r>   59.7720    0.0000 </r>
       <r>   63.6374    0.0000 </r>
       <r>   66.7697    0.0000 </r>
       <r>   66.8412    0.0000 </r>
       <r>   70.8922    0.0000 </r>
       <r>   75.6111    0.0000 </r>
      </set>
      <set comment="kpoint 10">
       <r>  -34.9254    1.0000 </r>
       <r>  -34.8463    1.0000 </r>
       <r>  -34.8378    1.0000 </r>
       <r>    5.3644    1.0000 </r>
       <r>   12.3628    1.0000 </r>
       <r>   12.9559    1.0000 </r>
       <r>   12.9693    1.0000 </r>
       <r>   15.7697    1.0000 </r>
       <r>   16.2265    1.0000 </r>
       <r>   32.8854    0.0000 </r>
       <r>   37.3145    0.0000 </r>
       <r>   39.1612    0.0000 </r>
       <r>   39.4334    0.0000 </r>
       <r>   47.7194    0.0000 </r>
       <r>   53.7821    0.0000 </r>
       <r>   54.2114    0.0000 </r>
       <r>   56.9969    0.0000 </r>
       <r>   58.2208    0.0000 </r>
       <r>   59.7584    0.0000 </r>
       <r>   64.4613    0.0000 </r>
       <r>   65.4113    0.0000 </r>
       <r>   65.9023    0.0000 </r>
       <r>   69.7109    0.0000 </r>
       <r>   75.1003    0.0000 </r>
      </set>
      <set comment="kpoint 11">
       <r>  -35.0503    1.0000 </r>
       <r>  -34.8916    1.0000 </r>
       <r>  -34.8815    1.0000 </r>
       <r>    6.0553    1.0000 </r>
       <r>   11.8594    1.0000 </r>
       <r>   13.3579    1.0000 </r>
       <r>   13.3711    1.0000 </r>
       <r>   15.1931    1.0000 </r>
       <r>   16.4632    1.0000 </r>
       <r>   34.0970    0.0000 </r>
       <r>   36.7183    0.0000 </r>
       <r>   39.5472    0.0000 </r>
       <r>   39.9181    0.0000 </r>
       <r>   50.0680    0.0000 </r>
       <r>   51.2829    0.0000 </r>
       <r>   51.4865    0.0000 </r>
       <r>   55.8866    0.0000 </r>
       <r>   57.4993    0.0000 </r>
       <r>   58.2236    0.0000 </r>
       <r>   62.3846    0.0000 </r>
       <r>   66.8974    0.0000 </r>
       <r>   66.9918    0.0000 </r>
       <r>   71.2181    0.0000 </r>
       <r>   77.2699    0.0000 </r>
      </set>
      <set comment="kpoint 12">
       <r>  -35.3016    1.0000 </r>
       <r>  -34.9788    1.0000 </r>
       <r>  -34.9155    1.0000 </r>
       <r>    7.2462    1.0000 </r>
       <r>   11.3089    1.0000 </r>
       <r>   13.4875    1.0000 </r>
       <r>   13.9269    1.0000 </r>
       <r>   15.0157    1.0000 </r>
       <r>   16.9060    1.0000 </r>
       <r>   35.1962    0.0000 </r>
       <r>   36.1532    0.0000 </r>
       <r>   40.0194    0.0000 </r>
       <r>   41.6982    0.0000 </r>
       <r>   46.2571    0.0000 </r>
       <r>   49.0372    0.0000 </r>
       <r>   52.9862    0.0000 </r>
       <r>   55.3133    0.0000 </r>
       <r>   56.1585    0.0000 </r>
       <r>   58.2159    0.0000 </r>
       <r>   60.7697    0.0000 </r>
       <r>   65.4020    0.0000 </r>
       <r>   70.2152    0.0000 </r>
       <r>   73.0442    0.0000 </r>
       <r>   77.6061    0.0000 </r>
      </set>
      <set comment="kpoint 13">
       <r>  -35.6528    1.0000 </r>
       <r>  -35.0568    1.0000 </r>
       <r>  -34.9717    1.0000 </r>
       <r>    8.4351    1.0000 </r>
       <r>   11.5272    1.0000 </r>
       <r>   12.7707    1.0000 </r>
       <r>   13.9243    1.0000 </r>
       <r>   16.3752    1.0000 </r>
       <r>   18.0850    1.0000 </r>
       <r>   32.8262    0.0000 </r>
       <r>   36.6221    0.0000 </r>
       <r>   40.5206    0.0000 </r>
       <r>   41.4439    0.0000 </r>
       <r>   46.1723    0.0000 </r>
       <r>   48.2304    0.0000 </r>
       <r>   50.1480    0.0000 </r>
       <r>   55.3815    0.0000 </r>
       <r>   58.2150    0.0000 </r>
       <r>   60.0734    0.0000 </r>
       <r>   61.9752    0.0000 </r>
       <r>   64.8263    0.0000 </r>
       <r>   69.4919    0.0000 </r>
       <r>   74.0034    0.0000 </r>
       <r>   75.2865    0.0000 </r>
      </set>
      <set comment="kpoint 14">
       <r>  -35.9511    1.0000 </r>
       <r>  -35.1152    1.0000 </r>
       <r>  -35.0286    1.0000 </r>
       <r>    8.6016    1.0000 </r>
       <r>   12.0984    1.0000 </r>
       <r>   13.2152    1.0000 </r>
       <r>   13.5958    1.0000 </r>
       <r>   18.1650    1.0000 </r>
       <r>   19.8471    0.0000 </r>
       <r>   29.6109    0.0000 </r>
       <r>   34.2278    0.0000 </r>
       <r>   38.9444    0.0000 </r>
       <r>   41.5459    0.0000 </r>
       <r>   47.2091    0.0000 </r>
       <r>   50.6478    0.0000 </r>
       <r>   51.9607    0.0000 </r>
       <r>   55.7761    0.0000 </r>
       <r>   58.2098    0.0000 </r>
       <r>   61.6361    0.0000 </r>
       <r>   62.7343    0.0000 </r>
       <r>   66.4923    0.0000 </r>
       <r>   68.3462    0.0000 </r>
       <r>   70.4113    0.0000 </r>
       <r>   73.2227    0.0000 </r>
      </set>
      <set comment="kpoint 15">
       <r>  -36.0857    1.0000 </r>
       <r>  -35.1522    1.0000 </r>
       <r>  -35.0465    1.0000 </r>
       <r>    8.5266    1.0000 </r>
       <r>   11.8391    1.0000 </r>
       <r>   13.2611    1.0000 </r>
       <r>   14.7417    1.0000 </r>
       <r>   18.7235    0.8714 </r>
       <r>   21.7018    0.0000 </r>
       <r>   26.8671    0.0000 </r>
       <r>   33.3465    0.0000 </r>
       <r>   38.5483    0.0000 </r>
       <r>   39.3610    0.0000 </r>
       <r>   50.3743    0.0000 </r>
       <r>   51.2723    0.0000 </r>
       <r>   54.4816    0.0000 </r>
       <r>   57.7960    0.0000 </r>
       <r>   58.2182    0.0000 </r>
       <r>   59.9172    0.0000 </r>
       <r>   62.6650    0.0000 </r>
       <r>   64.6133    0.0000 </r>
       <r>   66.0930    0.0000 </r>
       <r>   71.6264    0.0000 </r>
       <r>   74.2048    0.0000 </r>
      </set>
      <set comment="kpoint 16">
       <r>  -36.0129    1.0000 </r>
       <r>  -35.1581    1.0000 </r>
       <r>  -35.0142    1.0000 </r>
       <r>    8.6198    1.0000 </r>
       <r>   12.0203    1.0000 </r>
       <r>   13.3076    1.0000 </r>
       <r>   14.1086    1.0000 </r>
       <r>   17.8688    1.0000 </r>
       <r>   20.9145    0.0000 </r>
       <r>   28.5744    0.0000 </r>
       <r>   33.7965    0.0000 </r>
       <r>   38.2186    0.0000 </r>
       <r>   41.2781    0.0000 </r>
       <r>   47.3059    0.0000 </r>
       <r>   51.6416    0.0000 </r>
       <r>   52.9735    0.0000 </r>
       <r>   57.8075    0.0000 </r>
       <r>   58.2184    0.0000 </r>
       <r>   61.5605    0.0000 </r>
       <r>   63.0226    0.0000 </r>
       <r>   63.8125    0.0000 </r>
       <r>   68.0503    0.0000 </r>
       <r>   70.7909    0.0000 </r>
       <r>   72.4971    0.0000 </r>
      </set>
      <set comment="kpoint 17">
       <r>  -35.7592    1.0000 </r>
       <r>  -35.1172    1.0000 </r>
       <r>  -34.9542    1.0000 </r>
       <r>    8.6658    1.0000 </r>
       <r>   12.1185    1.0000 </r>
       <r>   12.6088    1.0000 </r>
       <r>   13.7131    1.0000 </r>
       <r>   16.2364    1.0000 </r>
       <r>   19.1211    0.0000 </r>
       <r>   31.8768    0.0000 </r>
       <r>   35.7840    0.0000 </r>
       <r>   39.5010    0.0000 </r>
       <r>   42.3461    0.0000 </r>
       <r>   45.6208    0.0000 </r>
       <r>   49.7728    0.0000 </r>
       <r>   50.4242    0.0000 </r>
       <r>   55.6311    0.0000 </r>
       <r>   58.2146    0.0000 </r>
       <r>   60.5948    0.0000 </r>
       <r>   63.1741    0.0000 </r>
       <r>   64.9499    0.0000 </r>
       <r>   69.2550    0.0000 </r>
       <r>   72.5294    0.0000 </r>
       <r>   73.2975    0.0000 </r>
      </set>
      <set comment="kpoint 18">
       <r>  -35.4231    1.0000 </r>
       <r>  -35.0307    1.0000 </r>
       <r>  -34.8945    1.0000 </r>
       <r>    7.7371    1.0000 </r>
       <r>   11.4056    1.0000 </r>
       <r>   13.2394    1.0000 </r>
       <r>   13.9601    1.0000 </r>
       <r>   15.0070    1.0000 </r>
       <r>   17.4213    1.0000 </r>
       <r>   34.2030    0.0000 </r>
       <r>   36.6507    0.0000 </r>
       <r>   40.1846    0.0000 </r>
       <r>   42.1002    0.0000 </r>
       <r>   45.1950    0.0000 </r>
       <r>   49.6566    0.0000 </r>
       <r>   52.3531    0.0000 </r>
       <r>   54.9863    0.0000 </r>
       <r>   56.5380    0.0000 </r>
       <r>   58.2145    0.0000 </r>
       <r>   61.9658    0.0000 </r>
       <r>   64.0997    0.0000 </r>
       <r>   71.7337    0.0000 </r>
       <r>   73.4638    0.0000 </r>
       <r>   76.1124    0.0000 </r>
      </set>
      <set comment="kpoint 19">
       <r>  -35.1452    1.0000 </r>
       <r>  -34.9142    1.0000 </r>
       <r>  -34.8599    1.0000 </r>
       <r>    6.3612    1.0000 </r>
       <r>   11.8595    1.0000 </r>
       <r>   13.3504    1.0000 </r>
       <r>   13.3804    1.0000 </r>
       <r>   15.2839    1.0000 </r>
       <r>   16.4428    1.0000 </r>
       <r>   34.5090    0.0000 </r>
       <r>   35.6687    0.0000 </r>
       <r>   39.8360    0.0000 </r>
       <r>   41.4986    0.0000 </r>
       <r>   47.9814    0.0000 </r>
       <r>   51.0522    0.0000 </r>
       <r>   52.2017    0.0000 </r>
       <r>   54.9070    0.0000 </r>
       <r>   57.5146    0.0000 </r>
       <r>   58.2230    0.0000 </r>
       <r>   63.3937    0.0000 </r>
       <r>   64.7843    0.0000 </r>
       <r>   69.0625    0.0000 </r>
       <r>   71.1884    0.0000 </r>
       <r>   76.8050    0.0000 </r>
      </set>
      <set comment="kpoint 20">
       <r>  -35.4008    1.0000 </r>
       <r>  -35.0259    1.0000 </r>
       <r>  -35.0248    1.0000 </r>
       <r>    7.9560    1.0000 </r>
       <r>   10.5548    1.0000 </r>
       <r>   13.7146    1.0000 </r>
       <r>   14.7216    1.0000 </r>
       <r>   15.0872    1.0000 </r>
       <r>   17.2143    1.0000 </r>
       <r>   36.5307    0.0000 </r>
       <r>   37.7616    0.0000 </r>
       <r>   39.3332    0.0000 </r>
       <r>   39.6222    0.0000 </r>
       <r>   47.0380    0.0000 </r>
       <r>   47.6990    0.0000 </r>
       <r>   49.0396    0.0000 </r>
       <r>   56.8329    0.0000 </r>
       <r>   58.0619    0.0000 </r>
       <r>   58.2124    0.0000 </r>
       <r>   58.3715    0.0000 </r>
       <r>   67.9096    0.0000 </r>
       <r>   69.3624    0.0000 </r>
       <r>   70.9217    0.0000 </r>
       <r>   81.2591    0.0000 </r>
      </set>
      <set comment="kpoint 21">
       <r>  -35.6334    1.0000 </r>
       <r>  -35.1358    1.0000 </r>
       <r>  -35.0750    1.0000 </r>
       <r>    8.8457    1.0000 </r>
       <r>   10.1206    1.0000 </r>
       <r>   13.1750    1.0000 </r>
       <r>   15.4405    1.0000 </r>
       <r>   16.4166    1.0000 </r>
       <r>   18.1738    1.0000 </r>
       <r>   35.0088    0.0000 </r>
       <r>   37.6916    0.0000 </r>
       <r>   38.1901    0.0000 </r>
       <r>   40.2354    0.0000 </r>
       <r>   46.2932    0.0000 </r>
       <r>   47.5740    0.0000 </r>
       <r>   49.2490    0.0000 </r>
       <r>   55.7780    0.0000 </r>
       <r>   57.0684    0.0000 </r>
       <r>   58.2122    0.0000 </r>
       <r>   62.2688    0.0000 </r>
       <r>   66.3819    0.0000 </r>
       <r>   69.5088    0.0000 </r>
       <r>   72.1593    0.0000 </r>
       <r>   77.9713    0.0000 </r>
      </set>
      <set comment="kpoint 22">
       <r>  -35.8531    1.0000 </r>
       <r>  -35.2455    1.0000 </r>
       <r>  -35.1260    1.0000 </r>
       <r>    9.1551    1.0000 </r>
       <r>   10.6400    1.0000 </r>
       <r>   12.7253    1.0000 </r>
       <r>   15.1297    1.0000 </r>
       <r>   18.4124    1.0000 </r>
       <r>   20.2969    0.0000 </r>
       <r>   30.8863    0.0000 </r>
       <r>   36.0679    0.0000 </r>
       <r>   36.8054    0.0000 </r>
       <r>   41.3992    0.0000 </r>
       <r>   46.7212    0.0000 </r>
       <r>   49.4498    0.0000 </r>
       <r>   51.9766    0.0000 </r>
       <r>   55.2460    0.0000 </r>
       <r>   57.3557    0.0000 </r>
       <r>   58.2139    0.0000 </r>
       <r>   61.5975    0.0000 </r>
       <r>   67.3800    0.0000 </r>
       <r>   70.5401    0.0000 </r>
       <r>   71.4389    0.0000 </r>
       <r>   75.2450    0.0000 </r>
      </set>
      <set comment="kpoint 23">
       <r>  -35.9610    1.0000 </r>
       <r>  -35.3592    1.0000 </r>
       <r>  -35.1315    1.0000 </r>
       <r>    9.2932    1.0000 </r>
       <r>   11.0607    1.0000 </r>
       <r>   13.0894    1.0000 </r>
       <r>   14.6784    1.0000 </r>
       <r>   18.7919    0.2116 </r>
       <r>   23.5974    0.0000 </r>
       <r>   26.8509    0.0000 </r>
       <r>   35.0025    0.0000 </r>
       <r>   37.0454    0.0000 </r>
       <r>   39.6068    0.0000 </r>
       <r>   48.3735    0.0000 </r>
       <r>   51.0608    0.0000 </r>
       <r>   53.3642    0.0000 </r>
       <r>   55.9786    0.0000 </r>
       <r>   58.2127    0.0000 </r>
       <r>   60.2214    0.0000 </r>
       <r>   60.6625    0.0000 </r>
       <r>   66.4505    0.0000 </r>
       <r>   67.7403    0.0000 </r>
       <r>   71.9501    0.0000 </r>
       <r>   73.9415    0.0000 </r>
      </set>
      <set comment="kpoint 24">
       <r>  -35.9297    1.0000 </r>
       <r>  -35.4233    1.0000 </r>
       <r>  -35.0875    1.0000 </r>
       <r>    9.6907    1.0000 </r>
       <r>   11.1866    1.0000 </r>
       <r>   13.0761    1.0000 </r>
       <r>   14.4424    1.0000 </r>
       <r>   17.7720    1.0000 </r>
       <r>   23.3569    0.0000 </r>
       <r>   28.0789    0.0000 </r>
       <r>   34.4866    0.0000 </r>
       <r>   36.9969    0.0000 </r>
       <r>   40.3389    0.0000 </r>
       <r>   46.7079    0.0000 </r>
       <r>   49.7992    0.0000 </r>
       <r>   54.8760    0.0000 </r>
       <r>   58.2095    0.0000 </r>
       <r>   59.8944    0.0000 </r>
       <r>   60.6449    0.0000 </r>
       <r>   62.4859    0.0000 </r>
       <r>   63.9879    0.0000 </r>
       <r>   64.7612    0.0000 </r>
       <r>   70.6210    0.0000 </r>
       <r>   73.6033    0.0000 </r>
      </set>
      <set comment="kpoint 25">
       <r>  -35.8067    1.0000 </r>
       <r>  -35.3701    1.0000 </r>
       <r>  -35.0154    1.0000 </r>
       <r>   10.0909    1.0000 </r>
       <r>   11.5106    1.0000 </r>
       <r>   11.8506    1.0000 </r>
       <r>   14.5988    1.0000 </r>
       <r>   16.1670    1.0000 </r>
       <r>   21.5290    0.0000 </r>
       <r>   31.2964    0.0000 </r>
       <r>   35.3915    0.0000 </r>
       <r>   36.7847    0.0000 </r>
       <r>   42.4469    0.0000 </r>
       <r>   44.2578    0.0000 </r>
       <r>   50.1865    0.0000 </r>
       <r>   55.2897    0.0000 </r>
       <r>   56.1102    0.0000 </r>
       <r>   57.4751    0.0000 </r>
       <r>   58.2205    0.0000 </r>
       <r>   63.6926    0.0000 </r>
       <r>   66.1093    0.0000 </r>
       <r>   69.4534    0.0000 </r>
       <r>   69.9185    0.0000 </r>
       <r>   71.9062    0.0000 </r>
      </set>
      <set comment="kpoint 26">
       <r>  -35.6662    1.0000 </r>
       <r>  -35.1869    1.0000 </r>
       <r>  -34.9462    1.0000 </r>
       <r>    9.1263    1.0000 </r>
       <r>   11.2760    1.0000 </r>
       <r>   12.5495    1.0000 </r>
       <r>   14.3869    1.0000 </r>
       <r>   15.2854    1.0000 </r>
       <r>   19.3408    0.0000 </r>
       <r>   33.0641    0.0000 </r>
       <r>   37.0990    0.0000 </r>
       <r>   38.3923    0.0000 </r>
       <r>   40.4869    0.0000 </r>
       <r>   46.6067    0.0000 </r>
       <r>   50.5013    0.0000 </r>
       <r>   52.0090    0.0000 </r>
       <r>   53.3514    0.0000 </r>
       <r>   58.2031    0.0000 </r>
       <r>   58.3799    0.0000 </r>
       <r>   62.7157    0.0000 </r>
       <r>   64.9232    0.0000 </r>
       <r>   70.7814    0.0000 </r>
       <r>   73.3842    0.0000 </r>
       <r>   73.9674    0.0000 </r>
      </set>
      <set comment="kpoint 27">
       <r>  -35.5172    1.0000 </r>
       <r>  -34.9849    1.0000 </r>
       <r>  -34.9088    1.0000 </r>
       <r>    7.7408    1.0000 </r>
       <r>   11.7937    1.0000 </r>
       <r>   13.1949    1.0000 </r>
       <r>   13.5652    1.0000 </r>
       <r>   15.7107    1.0000 </r>
       <r>   17.2549    1.0000 </r>
       <r>   33.0507    0.0000 </r>
       <r>   36.5292    0.0000 </r>
       <r>   41.8364    0.0000 </r>
       <r>   42.6176    0.0000 </r>
       <r>   45.5039    0.0000 </r>
       <r>   47.6029    0.0000 </r>
       <r>   49.7813    0.0000 </r>
       <r>   57.3381    0.0000 </r>
       <r>   58.1093    0.0000 </r>
       <r>   58.2228    0.0000 </r>
       <r>   63.1415    0.0000 </r>
       <r>   64.7437    0.0000 </r>
       <r>   69.6578    0.0000 </r>
       <r>   72.6890    0.0000 </r>
       <r>   76.2362    0.0000 </r>
      </set>
      <set comment="kpoint 28">
       <r>  -35.7634    1.0000 </r>
       <r>  -35.1828    1.0000 </r>
       <r>  -35.1737    1.0000 </r>
       <r>    8.6379    1.0000 </r>
       <r>    9.3569    1.0000 </r>
       <r>   14.7732    1.0000 </r>
       <r>   16.6114    1.0000 </r>
       <r>   17.2745    1.0000 </r>
       <r>   18.1581    1.0000 </r>
       <r>   35.1561    0.0000 </r>
       <r>   35.8545    0.0000 </r>
       <r>   37.2909    0.0000 </r>
       <r>   42.1344    0.0000 </r>
       <r>   42.6010    0.0000 </r>
       <r>   49.4343    0.0000 </r>
       <r>   50.1039    0.0000 </r>
       <r>   52.7270    0.0000 </r>
       <r>   58.2155    0.0000 </r>
       <r>   59.2176    0.0000 </r>
       <r>   62.3019    0.0000 </r>
       <r>   68.6333    0.0000 </r>
       <r>   70.8912    0.0000 </r>
       <r>   71.0385    0.0000 </r>
       <r>   74.7268    0.0000 </r>
      </set>
      <set comment="kpoint 29">
       <r>  -35.9017    1.0000 </r>
       <r>  -35.2843    1.0000 </r>
       <r>  -35.2242    1.0000 </r>
       <r>    8.6094    1.0000 </r>
       <r>    9.1766    1.0000 </r>
       <r>   14.9336    1.0000 </r>
       <r>   17.2483    1.0000 </r>
       <r>   18.4440    1.0000 </r>
       <r>   20.1921    0.0000 </r>
       <r>   31.9680    0.0000 </r>
       <r>   33.9705    0.0000 </r>
       <r>   35.8533    0.0000 </r>
       <r>   42.7244    0.0000 </r>
       <r>   44.4858    0.0000 </r>
       <r>   49.3058    0.0000 </r>
       <r>   52.8144    0.0000 </r>
       <r>   54.2133    0.0000 </r>
       <r>   58.2091    0.0000 </r>
       <r>   58.9904    0.0000 </r>
       <r>   59.8985    0.0000 </r>
       <r>   68.2494    0.0000 </r>
       <r>   69.6474    0.0000 </r>
       <r>   72.0641    0.0000 </r>
       <r>   72.5612    0.0000 </r>
      </set>
      <set comment="kpoint 30">
       <r>  -35.9274    1.0000 </r>
       <r>  -35.4499    1.0000 </r>
       <r>  -35.2285    1.0000 </r>
       <r>    8.8084    1.0000 </r>
       <r>    9.8113    1.0000 </r>
       <r>   14.2771    1.0000 </r>
       <r>   16.5574    1.0000 </r>
       <r>   19.0298    0.0000 </r>
       <r>   24.0303    0.0000 </r>
       <r>   27.7732    0.0000 </r>
       <r>   33.7852    0.0000 </r>
       <r>   34.7423    0.0000 </r>
       <r>   42.2398    0.0000 </r>
       <r>   47.5157    0.0000 </r>
       <r>   49.0122    0.0000 </r>
       <r>   52.7094    0.0000 </r>
       <r>   57.1849    0.0000 </r>
       <r>   58.2119    0.0000 </r>
       <r>   59.3494    0.0000 </r>
       <r>   60.1369    0.0000 </r>
       <r>   65.7547    0.0000 </r>
       <r>   68.5993    0.0000 </r>
       <r>   70.2609    0.0000 </r>
       <r>   72.6410    0.0000 </r>
      </set>
      <set comment="kpoint 31">
       <r>  -35.8069    1.0000 </r>
       <r>  -35.6467    1.0000 </r>
       <r>  -35.1783    1.0000 </r>
       <r>    9.3619    1.0000 </r>
       <r>   10.8237    1.0000 </r>
       <r>   13.2400    1.0000 </r>
       <r>   15.7917    1.0000 </r>
       <r>   18.1904    1.0000 </r>
       <r>   24.8145    0.0000 </r>
       <r>   28.4654    0.0000 </r>
       <r>   31.9611    0.0000 </r>
       <r>   36.8893    0.0000 </r>
       <r>   40.8395    0.0000 </r>
       <r>   47.3026    0.0000 </r>
       <r>   49.3955    0.0000 </r>
       <r>   51.8578    0.0000 </r>
       <r>   58.2147    0.0000 </r>
       <r>   59.5228    0.0000 </r>
       <r>   61.4504    0.0000 </r>
       <r>   63.0675    0.0000 </r>
       <r>   64.3148    0.0000 </r>
       <r>   67.8053    0.0000 </r>
       <r>   69.0419    0.0000 </r>
       <r>   71.0268    0.0000 </r>
      </set>
      <set comment="kpoint 32">
       <r>  -35.8209    1.0000 </r>
       <r>  -35.5583    1.0000 </r>
       <r>  -35.0963    1.0000 </r>
       <r>   10.0921    1.0000 </r>
       <r>   11.3413    1.0000 </r>
       <r>   12.2557    1.0000 </r>
       <r>   15.0049    1.0000 </r>
       <r>   17.1981    1.0000 </r>
       <r>   23.2542    0.0000 </r>
       <r>   30.1242    0.0000 </r>
       <r>   32.8198    0.0000 </r>
       <r>   37.6382    0.0000 </r>
       <r>   41.1124    0.0000 </r>
       <r>   45.0613    0.0000 </r>
       <r>   49.2499    0.0000 </r>
       <r>   54.6197    0.0000 </r>
       <r>   58.2075    0.0000 </r>
       <r>   60.4453    0.0000 </r>
       <r>   61.5736    0.0000 </r>
       <r>   61.8978    0.0000 </r>
       <r>   64.4447    0.0000 </r>
       <r>   65.8547    0.0000 </r>
       <r>   68.1917    0.0000 </r>
       <r>   73.7789    0.0000 </r>
      </set>
      <set comment="kpoint 33">
       <r>  -35.9023    1.0000 </r>
       <r>  -35.2724    1.0000 </r>
       <r>  -35.0151    1.0000 </r>
       <r>    9.3083    1.0000 </r>
       <r>   11.7816    1.0000 </r>
       <r>   12.7869    1.0000 </r>
       <r>   13.9698    1.0000 </r>
       <r>   16.9795    1.0000 </r>
       <r>   21.3474    0.0000 </r>
       <r>   29.9488    0.0000 </r>
       <r>   35.1052    0.0000 </r>
       <r>   37.1085    0.0000 </r>
       <r>   42.5850    0.0000 </r>
       <r>   44.8151    0.0000 </r>
       <r>   50.9406    0.0000 </r>
       <r>   53.7496    0.0000 </r>
       <r>   56.7498    0.0000 </r>
       <r>   58.2133    0.0000 </r>
       <r>   59.9889    0.0000 </r>
       <r>   63.4135    0.0000 </r>
       <r>   64.6938    0.0000 </r>
       <r>   68.6018    0.0000 </r>
       <r>   70.0366    0.0000 </r>
       <r>   73.0373    0.0000 </r>
      </set>
      <set comment="kpoint 34">
       <r>  -35.8800    1.0000 </r>
       <r>  -35.0402    1.0000 </r>
       <r>  -34.9693    1.0000 </r>
       <r>    8.2346    1.0000 </r>
       <r>   12.6258    1.0000 </r>
       <r>   13.1688    1.0000 </r>
       <r>   13.3982    1.0000 </r>
       <r>   17.2422    1.0000 </r>
       <r>   18.7197    0.8927 </r>
       <r>   30.5426    0.0000 </r>
       <r>   34.4622    0.0000 </r>
       <r>   40.4847    0.0000 </r>
       <r>   42.9290    0.0000 </r>
       <r>   45.9941    0.0000 </r>
       <r>   48.9285    0.0000 </r>
       <r>   49.9816    0.0000 </r>
       <r>   57.9032    0.0000 </r>
       <r>   58.2244    0.0000 </r>
       <r>   62.8596    0.0000 </r>
       <r>   63.8681    0.0000 </r>
       <r>   65.1494    0.0000 </r>
       <r>   67.5644    0.0000 </r>
       <r>   71.6102    0.0000 </r>
       <r>   73.0379    0.0000 </r>
      </set>
      <set comment="kpoint 35">
       <r>  -36.0099    1.0000 </r>
       <r>  -35.2958    1.0000 </r>
       <r>  -35.2784    1.0000 </r>
       <r>    8.0122    1.0000 </r>
       <r>    8.6058    1.0000 </r>
       <r>   17.5791    1.0000 </r>
       <r>   18.3121    1.0000 </r>
       <r>   19.1169    0.0000 </r>
       <r>   20.0589    0.0000 </r>
       <r>   31.4475    0.0000 </r>
       <r>   32.3083    0.0000 </r>
       <r>   33.6167    0.0000 </r>
       <r>   42.2664    0.0000 </r>
       <r>   46.1990    0.0000 </r>
       <r>   49.2977    0.0000 </r>
       <r>   54.7943    0.0000 </r>
       <r>   55.1162    0.0000 </r>
       <r>   58.1108    0.0000 </r>
       <r>   58.2142    0.0000 </r>
       <r>   60.5180    0.0000 </r>
       <r>   66.5013    0.0000 </r>
       <r>   66.7118    0.0000 </r>
       <r>   70.5945    0.0000 </r>
       <r>   71.9783    0.0000 </r>
      </set>
      <set comment="kpoint 36">
       <r>  -36.0287    1.0000 </r>
       <r>  -35.3644    1.0000 </r>
       <r>  -35.2984    1.0000 </r>
       <r>    8.0903    1.0000 </r>
       <r>    8.7302    1.0000 </r>
       <r>   16.8349    1.0000 </r>
       <r>   18.1497    1.0000 </r>
       <r>   19.4727    0.0000 </r>
       <r>   22.8351    0.0000 </r>
       <r>   29.2869    0.0000 </r>
       <r>   31.4970    0.0000 </r>
       <r>   32.9537    0.0000 </r>
       <r>   43.6055    0.0000 </r>
       <r>   46.7933    0.0000 </r>
       <r>   48.5560    0.0000 </r>
       <r>   54.8708    0.0000 </r>
       <r>   57.9376    0.0000 </r>
       <r>   58.2073    0.0000 </r>
       <r>   58.6855    0.0000 </r>
       <r>   60.2501    0.0000 </r>
       <r>   64.5068    0.0000 </r>
       <r>   65.9957    0.0000 </r>
       <r>   67.9638    0.0000 </r>
       <r>   70.3620    0.0000 </r>
      </set>
      <set comment="kpoint 37">
       <r>  -35.9315    1.0000 </r>
       <r>  -35.5075    1.0000 </r>
       <r>  -35.2503    1.0000 </r>
       <r>    8.6560    1.0000 </r>
       <r>    9.6548    1.0000 </r>
       <r>   14.8450    1.0000 </r>
       <r>   16.9563    1.0000 </r>
       <r>   18.9996    0.0000 </r>
       <r>   25.6319    0.0000 </r>
       <r>   26.9024    0.0000 </r>
       <r>   32.3450    0.0000 </r>
       <r>   34.2395    0.0000 </r>
       <r>   43.0699    0.0000 </r>
       <r>   47.9239    0.0000 </r>
       <r>   48.4882    0.0000 </r>
       <r>   51.9016    0.0000 </r>
       <r>   58.2083    0.0000 </r>
       <r>   58.7750    0.0000 </r>
       <r>   60.0478    0.0000 </r>
       <r>   61.2638    0.0000 </r>
       <r>   64.3581    0.0000 </r>
       <r>   67.3075    0.0000 </r>
       <r>   69.6405    0.0000 </r>
       <r>   71.1352    0.0000 </r>
      </set>
      <set comment="kpoint 38">
       <r>  -35.8996    1.0000 </r>
       <r>  -35.5081    1.0000 </r>
       <r>  -35.1625    1.0000 </r>
       <r>    9.3896    1.0000 </r>
       <r>   10.8572    1.0000 </r>
       <r>   13.1524    1.0000 </r>
       <r>   15.3193    1.0000 </r>
       <r>   18.5108    1.0000 </r>
       <r>   25.2585    0.0000 </r>
       <r>   26.3931    0.0000 </r>
       <r>   33.9222    0.0000 </r>
       <r>   36.8355    0.0000 </r>
       <r>   39.9968    0.0000 </r>
       <r>   47.9784    0.0000 </r>
       <r>   50.0382    0.0000 </r>
       <r>   52.5390    0.0000 </r>
       <r>   57.7164    0.0000 </r>
       <r>   58.2136    0.0000 </r>
       <r>   60.9745    0.0000 </r>
       <r>   61.6357    0.0000 </r>
       <r>   65.7535    0.0000 </r>
       <r>   67.4219    0.0000 </r>
       <r>   70.5457    0.0000 </r>
       <r>   72.6996    0.0000 </r>
      </set>
      <set comment="kpoint 39">
       <r>  -36.0263    1.0000 </r>
       <r>  -35.2771    1.0000 </r>
       <r>  -35.0708    1.0000 </r>
       <r>    9.0784    1.0000 </r>
       <r>   11.4282    1.0000 </r>
       <r>   13.7966    1.0000 </r>
       <r>   13.9444    1.0000 </r>
       <r>   18.3806    1.0000 </r>
       <r>   23.0233    0.0000 </r>
       <r>   26.7613    0.0000 </r>
       <r>   34.3688    0.0000 </r>
       <r>   37.5431    0.0000 </r>
       <r>   39.5658    0.0000 </r>
       <r>   48.9011    0.0000 </r>
       <r>   50.4465    0.0000 </r>
       <r>   55.2468    0.0000 </r>
       <r>   58.0346    0.0000 </r>
       <r>   58.2131    0.0000 </r>
       <r>   60.4371    0.0000 </r>
       <r>   63.2926    0.0000 </r>
       <r>   63.8651    0.0000 </r>
       <r>   64.3906    0.0000 </r>
       <r>   71.7168    0.0000 </r>
       <r>   74.0956    0.0000 </r>
      </set>
      <set comment="kpoint 40">
       <r>  -36.0994    1.0000 </r>
       <r>  -35.0677    1.0000 </r>
       <r>  -35.0135    1.0000 </r>
       <r>    8.1374    1.0000 </r>
       <r>   12.2659    1.0000 </r>
       <r>   12.8962    1.0000 </r>
       <r>   15.3727    1.0000 </r>
       <r>   18.5853    1.0000 </r>
       <r>   20.1966    0.0000 </r>
       <r>   27.6677    0.0000 </r>
       <r>   32.6500    0.0000 </r>
       <r>   38.9979    0.0000 </r>
       <r>   40.0867    0.0000 </r>
       <r>   50.0436    0.0000 </r>
       <r>   52.0515    0.0000 </r>
       <r>   52.9251    0.0000 </r>
       <r>   58.2060    0.0000 </r>
       <r>   58.7988    0.0000 </r>
       <r>   60.0608    0.0000 </r>
       <r>   62.2928    0.0000 </r>
       <r>   65.9553    0.0000 </r>
       <r>   68.2289    0.0000 </r>
       <r>   71.7834    0.0000 </r>
       <r>   72.1935    0.0000 </r>
      </set>
      <set comment="kpoint 41">
       <r>  -36.0631    1.0000 </r>
       <r>  -35.3206    1.0000 </r>
       <r>  -35.3014    1.0000 </r>
       <r>    7.8210    1.0000 </r>
       <r>    8.4495    1.0000 </r>
       <r>   18.4213    1.0000 </r>
       <r>   18.6486    0.9994 </r>
       <r>   19.5096    0.0000 </r>
       <r>   21.1341    0.0000 </r>
       <r>   30.3535    0.0000 </r>
       <r>   31.3949    0.0000 </r>
       <r>   32.1681    0.0000 </r>
       <r>   42.7859    0.0000 </r>
       <r>   47.1988    0.0000 </r>
       <r>   48.8024    0.0000 </r>
       <r>   56.1837    0.0000 </r>
       <r>   57.7126    0.0000 </r>
       <r>   57.9690    0.0000 </r>
       <r>   58.2085    0.0000 </r>
       <r>   60.7707    0.0000 </r>
       <r>   63.1657    0.0000 </r>
       <r>   63.8899    0.0000 </r>
       <r>   70.0319    0.0000 </r>
       <r>   72.2119    0.0000 </r>
      </set>
      <set comment="kpoint 42">
       <r>  -35.9854    1.0000 </r>
       <r>  -35.3365    1.0000 </r>
       <r>  -35.2732    1.0000 </r>
       <r>    8.2831    1.0000 </r>
       <r>    8.8805    1.0000 </r>
       <r>   16.0600    1.0000 </r>
       <r>   17.9162    1.0000 </r>
       <r>   19.0701    0.0000 </r>
       <r>   21.6644    0.0000 </r>
       <r>   30.3261    0.0000 </r>
       <r>   32.4293    0.0000 </r>
       <r>   34.1805    0.0000 </r>
       <r>   43.0948    0.0000 </r>
       <r>   45.9202    0.0000 </r>
       <r>   48.9504    0.0000 </r>
       <r>   54.6518    0.0000 </r>
       <r>   55.6767    0.0000 </r>
       <r>   58.2089    0.0000 </r>
       <r>   58.3464    0.0000 </r>
       <r>   60.1383    0.0000 </r>
       <r>   66.4220    0.0000 </r>
       <r>   67.7805    0.0000 </r>
       <r>   69.2098    0.0000 </r>
       <r>   71.3012    0.0000 </r>
      </set>
      <set comment="kpoint 43">
       <r>  -35.9053    1.0000 </r>
       <r>  -35.3548    1.0000 </r>
       <r>  -35.1867    1.0000 </r>
       <r>    9.0301    1.0000 </r>
       <r>   10.1419    1.0000 </r>
       <r>   13.4589    1.0000 </r>
       <r>   15.8781    1.0000 </r>
       <r>   18.9094    0.0000 </r>
       <r>   22.0582    0.0000 </r>
       <r>   29.2214    0.0000 </r>
       <r>   35.2740    0.0000 </r>
       <r>   35.6370    0.0000 </r>
       <r>   41.5181    0.0000 </r>
       <r>   47.0366    0.0000 </r>
       <r>   49.4164    0.0000 </r>
       <r>   52.8655    0.0000 </r>
       <r>   56.3116    0.0000 </r>
       <r>   57.9084    0.0000 </r>
       <r>   58.2140    0.0000 </r>
       <r>   59.7776    0.0000 </r>
       <r>   67.2569    0.0000 </r>
       <r>   69.3995    0.0000 </r>
       <r>   72.9531    0.0000 </r>
       <r>   73.5863    0.0000 </r>
      </set>
      <set comment="kpoint 44">
       <r>  -35.9789    1.0000 </r>
       <r>  -35.2226    1.0000 </r>
       <r>  -35.0867    1.0000 </r>
       <r>    8.9943    1.0000 </r>
       <r>   11.5141    1.0000 </r>
       <r>   13.1220    1.0000 </r>
       <r>   14.0662    1.0000 </r>
       <r>   18.7421    0.7278 </r>
       <r>   21.4949    0.0000 </r>
       <r>   28.2515    0.0000 </r>
       <r>   34.6702    0.0000 </r>
       <r>   37.7995    0.0000 </r>
       <r>   40.3478    0.0000 </r>
       <r>   48.1060    0.0000 </r>
       <r>   51.9419    0.0000 </r>
       <r>   52.7373    0.0000 </r>
       <r>   55.1904    0.0000 </r>
       <r>   58.2102    0.0000 </r>
       <r>   60.3852    0.0000 </r>
       <r>   61.0915    0.0000 </r>
       <r>   66.3880    0.0000 </r>
       <r>   68.9515    0.0000 </r>
       <r>   71.3584    0.0000 </r>
       <r>   74.0622    0.0000 </r>
      </set>
      <set comment="kpoint 45">
       <r>  -35.9081    1.0000 </r>
       <r>  -35.2481    1.0000 </r>
       <r>  -35.2342    1.0000 </r>
       <r>    8.3363    1.0000 </r>
       <r>    8.9128    1.0000 </r>
       <r>   16.2039    1.0000 </r>
       <r>   17.5773    1.0000 </r>
       <r>   18.6333    0.9999 </r>
       <r>   18.6380    0.9998 </r>
       <r>   33.1802    0.0000 </r>
       <r>   33.8947    0.0000 </r>
       <r>   35.7284    0.0000 </r>
       <r>   41.7694    0.0000 </r>
       <r>   44.4644    0.0000 </r>
       <r>   50.0342    0.0000 </r>
       <r>   52.3127    0.0000 </r>
       <r>   52.8028    0.0000 </r>
       <r>   58.2131    0.0000 </r>
       <r>   59.8713    0.0000 </r>
       <r>   60.0995    0.0000 </r>
       <r>   70.2247    0.0000 </r>
       <r>   70.4732    0.0000 </r>
       <r>   70.8633    0.0000 </r>
       <r>   71.6066    0.0000 </r>
      </set>
      <set comment="kpoint 46">
       <r>  -35.7814    1.0000 </r>
       <r>  -35.2149    1.0000 </r>
       <r>  -35.1560    1.0000 </r>
       <r>    8.9083    1.0000 </r>
       <r>    9.6013    1.0000 </r>
       <r>   13.8227    1.0000 </r>
       <r>   16.3491    1.0000 </r>
       <r>   17.5209    1.0000 </r>
       <r>   19.0089    0.0000 </r>
       <r>   33.7908    0.0000 </r>
       <r>   35.8689    0.0000 </r>
       <r>   37.0303    0.0000 </r>
       <r>   42.0343    0.0000 </r>
       <r>   44.2357    0.0000 </r>
       <r>   48.7559    0.0000 </r>
       <r>   50.7720    0.0000 </r>
       <r>   54.2874    0.0000 </r>
       <r>   57.9123    0.0000 </r>
       <r>   58.2112    0.0000 </r>
       <r>   62.0170    0.0000 </r>
       <r>   67.9752    0.0000 </r>
       <r>   70.2011    0.0000 </r>
       <r>   71.8831    0.0000 </r>
       <r>   74.6683    0.0000 </r>
      </set>
      <set comment="kpoint 47">
       <r>  -35.7678    1.0000 </r>
       <r>  -35.1435    1.0000 </r>
       <r>  -35.0502    1.0000 </r>
       <r>    8.9751    1.0000 </r>
       <r>   11.1644    1.0000 </r>
       <r>   12.4465    1.0000 </r>
       <r>   14.4547    1.0000 </r>
       <r>   17.4434    1.0000 </r>
       <r>   19.0258    0.0000 </r>
       <r>   32.2462    0.0000 </r>
       <r>   36.2203    0.0000 </r>
       <r>   38.6021    0.0000 </r>
       <r>   41.3482    0.0000 </r>
       <r>   46.5224    0.0000 </r>
       <r>   49.2759    0.0000 </r>
       <r>   50.7870    0.0000 </r>
       <r>   54.4249    0.0000 </r>
       <r>   58.2138    0.0000 </r>
       <r>   58.5957    0.0000 </r>
       <r>   63.2806    0.0000 </r>
       <r>   66.0814    0.0000 </r>
       <r>   68.4832    0.0000 </r>
       <r>   72.7641    0.0000 </r>
       <r>   75.6972    0.0000 </r>
      </set>
      <set comment="kpoint 48">
       <r>  -35.5894    1.0000 </r>
       <r>  -35.1061    1.0000 </r>
       <r>  -35.1019    1.0000 </r>
       <r>    8.5941    1.0000 </r>
       <r>    9.9150    1.0000 </r>
       <r>   13.8376    1.0000 </r>
       <r>   15.6236    1.0000 </r>
       <r>   16.0711    1.0000 </r>
       <r>   17.6779    1.0000 </r>
       <r>   36.5014    0.0000 </r>
       <r>   37.8465    0.0000 </r>
       <r>   38.1774    0.0000 </r>
       <r>   40.0456    0.0000 </r>
       <r>   44.7870    0.0000 </r>
       <r>   48.0873    0.0000 </r>
       <r>   48.5663    0.0000 </r>
       <r>   54.5021    0.0000 </r>
       <r>   58.2122    0.0000 </r>
       <r>   58.6270    0.0000 </r>
       <r>   62.0159    0.0000 </r>
       <r>   67.0981    0.0000 </r>
       <r>   70.1879    0.0000 </r>
       <r>   70.6049    0.0000 </r>
       <r>   78.7817    0.0000 </r>
      </set>
      <set comment="kpoint 49">
       <r>  -35.4693    1.0000 </r>
       <r>  -35.0549    1.0000 </r>
       <r>  -34.9908    1.0000 </r>
       <r>    8.1902    1.0000 </r>
       <r>   10.7045    1.0000 </r>
       <r>   13.2314    1.0000 </r>
       <r>   14.6223    1.0000 </r>
       <r>   15.4708    1.0000 </r>
       <r>   17.4908    1.0000 </r>
       <r>   35.2129    0.0000 </r>
       <r>   37.7593    0.0000 </r>
       <r>   39.5195    0.0000 </r>
       <r>   40.3048    0.0000 </r>
       <r>   46.2932    0.0000 </r>
       <r>   48.0316    0.0000 </r>
       <r>   50.0675    0.0000 </r>
       <r>   56.3956    0.0000 </r>
       <r>   57.8028    0.0000 </r>
       <r>   58.2128    0.0000 </r>
       <r>   59.3079    0.0000 </r>
       <r>   65.8476    0.0000 </r>
       <r>   70.5730    0.0000 </r>
       <r>   72.4698    0.0000 </r>
       <r>   78.9498    0.0000 </r>
      </set>
      <set comment="kpoint 50">
       <r>  -35.2148    1.0000 </r>
       <r>  -34.9536    1.0000 </r>
       <r>  -34.9471    1.0000 </r>
       <r>    6.9851    1.0000 </r>
       <r>   11.2262    1.0000 </r>
       <r>   13.8144    1.0000 </r>
       <r>   13.9606    1.0000 </r>
       <r>   14.6727    1.0000 </r>
       <r>   16.7996    1.0000 </r>
       <r>   35.7530    0.0000 </r>
       <r>   36.4909    0.0000 </r>
       <r>   39.7984    0.0000 </r>
       <r>   40.1659    0.0000 </r>
       <r>   48.4029    0.0000 </r>
       <r>   48.8783    0.0000 </r>
       <r>   52.2805    0.0000 </r>
       <r>   54.3824    0.0000 </r>
       <r>   57.7132    0.0000 </r>
       <r>   58.2151    0.0000 </r>
       <r>   59.5049    0.0000 </r>
       <r>   67.7497    0.0000 </r>
       <r>   68.3524    0.0000 </r>
       <r>   71.6049    0.0000 </r>
       <r>   80.2671    0.0000 </r>
      </set>
      <set comment="kpoint 51">
       <r>  -35.1069    1.0000 </r>
       <r>  -34.8555    1.0000 </r>
       <r>  -34.8555    1.0000 </r>
       <r>    6.0206    1.0000 </r>
       <r>   12.1895    1.0000 </r>
       <r>   13.1388    1.0000 </r>
       <r>   13.1388    1.0000 </r>
       <r>   15.9175    1.0000 </r>
       <r>   15.9175    1.0000 </r>
       <r>   33.8530    0.0000 </r>
       <r>   35.5615    0.0000 </r>
       <r>   40.7426    0.0000 </r>
       <r>   40.7426    0.0000 </r>
       <r>   48.6657    0.0000 </r>
       <r>   51.9788    0.0000 </r>
       <r>   52.4335    0.0000 </r>
       <r>   52.4335    0.0000 </r>
       <r>   58.2208    0.0000 </r>
       <r>   62.5468    0.0000 </r>
       <r>   62.5468    0.0000 </r>
       <r>   66.6791    0.0000 </r>
       <r>   67.8983    0.0000 </r>
       <r>   67.8983    0.0000 </r>
       <r>   74.6386    0.0000 </r>
      </set>
      <set comment="kpoint 52">
       <r>  -35.2769    1.0000 </r>
       <r>  -34.9633    1.0000 </r>
       <r>  -34.8593    1.0000 </r>
       <r>    6.9438    1.0000 </r>
       <r>   11.7296    1.0000 </r>
       <r>   13.3645    1.0000 </r>
       <r>   13.5453    1.0000 </r>
       <r>   15.1429    1.0000 </r>
       <r>   16.7534    1.0000 </r>
       <r>   34.5953    0.0000 </r>
       <r>   35.5769    0.0000 </r>
       <r>   40.1292    0.0000 </r>
       <r>   43.3135    0.0000 </r>
       <r>   45.1104    0.0000 </r>
       <r>   50.6964    0.0000 </r>
       <r>   53.1508    0.0000 </r>
       <r>   53.9758    0.0000 </r>
       <r>   56.7890    0.0000 </r>
       <r>   58.2266    0.0000 </r>
       <r>   62.8710    0.0000 </r>
       <r>   64.7179    0.0000 </r>
[...]
       </set>
       <set comment="band 3">
        <r>  0.0000  0.4989  0.0000  0.4989  0.0000  0.0000  0.0000  0.0000  0.0000 </r>
       </set>
       <set comment="band 4">
        <r>  0.1760  0.0000  0.0088  0.0000  0.2261  0.1540  0.0051  0.1540  0.0000 </r>
       </set>
       <set comment="band 5">
        <r>  0.0002  0.0023  0.0000  0.0023  0.1234  0.0766  0.5542  0.0766  0.0000 </r>
       </set>
       <set comment="band 6">
        <r>  0.0000  0.0014  0.0000  0.0014  0.0000  0.1873  0.0000  0.1873  0.4948 </r>
       </set>
       <set comment="band 7">
        <r>  0.0451  0.0420  0.0429  0.0420  0.3429  0.0108  0.0585  0.0108  0.0000 </r>
       </set>
       <set comment="band 8">
        <r>  0.0000  0.0002  0.0000  0.0002  0.0000  0.2780  0.0000  0.2780  0.4115 </r>
       </set>
       <set comment="band 9">
        <r>  0.0317  0.0218  0.0463  0.0218  0.1108  0.1364  0.2540  0.1364  0.0000 </r>
       </set>
       <set comment="band 10">
        <r>  0.3376  0.0198  0.0122  0.0198  0.0895  0.1087  0.0035  0.1087  0.0000 </r>
       </set>
       <set comment="band 11">
        <r>  0.0155  0.0081  0.0161  0.0081  0.0384  0.0022  0.0187  0.0022  0.0000 </r>
       </set>
       <set comment="band 12">
        <r>  0.0000  0.1194  0.0000  0.1194  0.0000  0.0127  0.0000  0.0127  0.0088 </r>
       </set>
       <set comment="band 13">
        <r>  0.0055  0.0343  0.1302  0.0343  0.0721  0.0061  0.0498  0.0061  0.0000 </r>
       </set>
       <set comment="band 14">
        <r>  0.0000  0.0133  0.0000  0.0133  0.0000  0.0355  0.0000  0.0355  0.2207 </r>
       </set>
       <set comment="band 15">
        <r>  0.0150  0.0448  0.0012  0.0448  0.0002  0.0307  0.0541  0.0307  0.0000 </r>
       </set>
       <set comment="band 16">
        <r>  0.0168  0.0031  0.0001  0.0031  0.1423  0.0000  0.2811  0.0000  0.0000 </r>
       </set>
       <set comment="band 17">
        <r>  0.1455  0.0577  0.2000  0.0577  0.0201  0.0443  0.0074  0.0443  0.0000 </r>
       </set>
       <set comment="band 18">
        <r>  6.2314  0.0002  0.0011  0.0002  0.0002  0.0001  0.0000  0.0001  0.0000 </r>
       </set>
       <set comment="band 19">
        <r>  0.0290  0.0074  0.0540  0.0074  0.0177  0.0563  0.0000  0.0563  0.0000 </r>
       </set>
       <set comment="band 20">
        <r>  0.0000  0.0173  0.0000  0.0173  0.0000  0.0865  0.0000  0.0865  0.1248 </r>
       </set>
       <set comment="band 21">
        <r>  0.0000  0.2886  0.0000  0.2886  0.0000  0.0033  0.0000  0.0033  0.0573 </r>
       </set>
       <set comment="band 22">
        <r>  0.0006  0.0092  0.1208  0.0092  0.0409  0.0019  0.0580  0.0019  0.0000 </r>
       </set>
       <set comment="band 23">
        <r>  0.0023  0.0004  0.0336  0.0004  0.0624  0.0025  0.0025  0.0025  0.0000 </r>
       </set>
       <set comment="band 24">
        <r>  0.1151  0.0002  0.0267  0.0002  0.2792  0.0130  0.0061  0.0130  0.0000 </r>
       </set>
      </set>
      <set comment="kpoint 106">
       <set comment="band 1">
        <r>  0.0001  0.2943  0.4006  0.2791  0.0001  0.0001  0.0001  0.0000  0.0000 </r>
       </set>
       <set comment="band 2">
        <r>  0.0001  0.0037  0.3670  0.6217  0.0002  0.0001  0.0000  0.0002  0.0000 </r>
       </set>
       <set comment="band 3">
        <r>  0.0000  0.6919  0.2182  0.0869  0.0000  0.0000  0.0001  0.0000  0.0000 </r>
       </set>
       <set comment="band 4">
        <r>  0.1352  0.0004  0.0115  0.0066  0.2552  0.2010  0.0075  0.1122  0.0018 </r>
       </set>
       <set comment="band 5">
        <r>  0.0001  0.0107  0.0002  0.0004  0.0647  0.1350  0.4529  0.0014  0.1233 </r>
       </set>
       <set comment="band 6">
        <r>  0.0078  0.0147  0.0106  0.0310  0.1029  0.1643  0.1675  0.1220  0.1360 </r>
       </set>
       <set comment="band 7">
        <r>  0.0087  0.0164  0.0309  0.0073  0.2312  0.0217  0.0127  0.1284  0.3081 </r>
       </set>
       <set comment="band 8">
        <r>  0.0014  0.0004  0.0033  0.0013  0.0919  0.0825  0.0734  0.4549  0.2325 </r>
       </set>
       <set comment="band 9">
        <r>  0.0540  0.0312  0.0628  0.0345  0.0351  0.2650  0.1423  0.0061  0.0752 </r>
       </set>
       <set comment="band 10">
        <r>  0.3774  0.0145  0.0076  0.0253  0.1078  0.0662  0.0035  0.1140  0.0199 </r>
       </set>
       <set comment="band 11">
        <r>  0.0013  0.0000  0.0158  0.0142  0.0338  0.0196  0.0501  0.0027  0.0111 </r>
       </set>
       <set comment="band 12">
        <r>  0.0136  0.0273  0.0563  0.1664  0.0430  0.0126  0.0038  0.0449  0.0399 </r>
       </set>
       <set comment="band 13">
        <r>  0.0035  0.1401  0.0853  0.0008  0.0302  0.0037  0.0719  0.0007  0.0000 </r>
       </set>
       <set comment="band 14">
        <r>  0.0032  0.0014  0.0063  0.0380  0.0159  0.0603  0.0000  0.0124  0.1283 </r>
       </set>
       <set comment="band 15">
        <r>  0.0041  0.0005  0.0190  0.0030  0.1112  0.0022  0.1930  0.0317  0.0021 </r>
       </set>
       <set comment="band 16">
        <r>  0.0645  0.0485  0.0013  0.0072  0.0515  0.0000  0.0144  0.0593  0.0153 </r>
       </set>
       <set comment="band 17">
        <r>  0.2024  0.1223  0.0754  0.0236  0.0004  0.0696  0.0288  0.0113  0.0439 </r>
       </set>
       <set comment="band 18">
        <r>  6.1996  0.0010  0.0005  0.0001  0.0000  0.0005  0.0002  0.0002  0.0001 </r>
       </set>
       <set comment="band 19">
        <r>  0.0067  0.0318  0.0896  0.0058  0.0084  0.0120  0.0121  0.0219  0.0269 </r>
       </set>
       <set comment="band 20">
        <r>  0.0005  0.0183  0.0074  0.0262  0.0009  0.1184  0.0184  0.0029  0.0019 </r>
       </set>
       <set comment="band 21">
        <r>  0.0442  0.1699  0.0033  0.1228  0.0053  0.0192  0.0375  0.0024  0.1007 </r>
       </set>
       <set comment="band 22">
        <r>  0.0000  0.0030  0.0267  0.0022  0.0762  0.0016  0.0144  0.0002  0.0161 </r>
       </set>
       <set comment="band 23">
        <r>  0.0237  0.0217  0.0454  0.0000  0.0134  0.0010  0.0100  0.0347  0.0604 </r>
       </set>
       <set comment="band 24">
        <r>  0.0118  0.0129  0.1133  0.0359  0.0200  0.0466  0.0166  0.0013  0.0015 </r>
       </set>
      </set>
      <set comment="kpoint 107">
       <set comment="band 1">
        <r>  0.0000  0.2470  0.3536  0.3763  0.0002  0.0002  0.0001  0.0000  0.0001 </r>
       </set>
       <set comment="band 2">
        <r>  0.0001  0.0512  0.3555  0.5798  0.0003  0.0002  0.0000  0.0002  0.0001 </r>
       </set>
       <set comment="band 3">
        <r>  0.0000  0.6916  0.2764  0.0270  0.0000  0.0000  0.0002  0.0000  0.0000 </r>
       </set>
       <set comment="band 4">
        <r>  0.0642  0.0007  0.0081  0.0076  0.0611  0.4097  0.0634  0.0296  0.1137 </r>
       </set>
       <set comment="band 5">
        <r>  0.0153  0.0222  0.0129  0.0039  0.1450  0.0244  0.3146  0.0264  0.1495 </r>
       </set>
       <set comment="band 6">
        <r>  0.0002  0.0136  0.0190  0.0424  0.3726  0.2106  0.0148  0.0299  0.0149 </r>
       </set>
       <set comment="band 7">
        <r>  0.0026  0.0005  0.0081  0.0042  0.0062  0.0007  0.2907  0.1397  0.4091 </r>
       </set>
       <set comment="band 8">
        <r>  0.0094  0.0001  0.0000  0.0010  0.1560  0.0313  0.0576  0.6063  0.0774 </r>
       </set>
       <set comment="band 9">
        <r>  0.2026  0.0257  0.0688  0.0259  0.0042  0.2032  0.0801  0.0119  0.0148 </r>
       </set>
       <set comment="band 10">
        <r>  0.2434  0.0148  0.0143  0.0825  0.1489  0.0010  0.0190  0.0952  0.0802 </r>
       </set>
       <set comment="band 11">
        <r>  0.0460  0.0208  0.0290  0.1409  0.0767  0.0027  0.0278  0.0445  0.1320 </r>
       </set>
       <set comment="band 12">
        <r>  0.0165  0.0185  0.1397  0.0071  0.0001  0.0771  0.1376  0.0080  0.0002 </r>
       </set>
       <set comment="band 13">
        <r>  0.0001  0.1545  0.0158  0.0070  0.0076  0.0424  0.0331  0.0000  0.0015 </r>
       </set>
       <set comment="band 14">
        <r>  0.0076  0.0013  0.0042  0.0140  0.0854  0.0627  0.0049  0.0090  0.0408 </r>
       </set>
       <set comment="band 15">
        <r>  0.0006  0.0001  0.0059  0.0158  0.0466  0.0113  0.0518  0.0184  0.0049 </r>
       </set>
       <set comment="band 16">
        <r>  0.1459  0.1245  0.0039  0.0029  0.0370  0.0424  0.0046  0.0074  0.0108 </r>
       </set>
       <set comment="band 17">
        <r>  0.0414  0.0921  0.0080  0.0041  0.0008  0.0227  0.0139  0.0269  0.0003 </r>
       </set>
       <set comment="band 18">
        <r>  6.2584  0.0001  0.0002  0.0001  0.0000  0.0003  0.0000  0.0001  0.0006 </r>
       </set>
       <set comment="band 19">
        <r>  0.1198  0.0436  0.0552  0.0213  0.0000  0.0893  0.0057  0.0028  0.1704 </r>
       </set>
       <set comment="band 20">
        <r>  0.0004  0.0025  0.0115  0.0010  0.0097  0.0003  0.0116  0.0002  0.0029 </r>
       </set>
       <set comment="band 21">
        <r>  0.0006  0.0159  0.0091  0.0346  0.0289  0.0289  0.0007  0.0107  0.0423 </r>
       </set>
       <set comment="band 22">
        <r>  0.0010  0.0926  0.0586  0.0000  0.0012  0.0369  0.1579  0.0049  0.0077 </r>
       </set>
       <set comment="band 23">
        <r>  0.0104  0.0003  0.0459  0.0556  0.0179  0.0359  0.0087  0.0159  0.0121 </r>
       </set>
       <set comment="band 24">
        <r>  0.0140  0.0079  0.0429  0.0037  0.0014  0.0000  0.0171  0.0187  0.0269 </r>
       </set>
      </set>
      <set comment="kpoint 108">
       <set comment="band 1">
        <r>  0.0000  0.2808  0.4126  0.2808  0.0001  0.0000  0.0001  0.0000  0.0000 </r>
       </set>
       <set comment="band 2">
        <r>  0.0001  0.2097  0.5712  0.2097  0.0001  0.0002  0.0001  0.0002  0.0000 </r>
       </set>
       <set comment="band 3">
        <r>  0.0000  0.4982  0.0000  0.4982  0.0000  0.0000  0.0000  0.0000  0.0001 </r>
       </set>
       <set comment="band 4">
        <r>  0.1099  0.0020  0.0108  0.0020  0.3812  0.0915  0.0567  0.0915  0.0000 </r>
       </set>
       <set comment="band 5">
        <r>  0.0032  0.0126  0.0013  0.0126  0.0038  0.0760  0.5634  0.0760  0.0000 </r>
       </set>
       <set comment="band 6">
        <r>  0.0098  0.0228  0.0462  0.0228  0.2998  0.1271  0.0333  0.1271  0.0000 </r>
       </set>
       <set comment="band 7">
        <r>  0.0000  0.0031  0.0000  0.0031  0.0000  0.1428  0.0000  0.1428  0.5781 </r>
       </set>
       <set comment="band 8">
        <r>  0.0000  0.0002  0.0000  0.0002  0.0000  0.3262  0.0000  0.3262  0.3066 </r>
       </set>
       <set comment="band 9">
        <r>  0.0036  0.0521  0.0868  0.0521  0.1240  0.0442  0.1840  0.0442  0.0000 </r>
       </set>
       <set comment="band 10">
        <r>  0.4453  0.0017  0.0048  0.0017  0.0743  0.1292  0.0106  0.1292  0.0000 </r>
       </set>
       <set comment="band 11">
        <r>  0.0087  0.0005  0.0554  0.0005  0.0125  0.0243  0.1152  0.0243  0.0000 </r>
       </set>
       <set comment="band 12">
        <r>  0.0196  0.0542  0.0968  0.0542  0.1058  0.0187  0.0287  0.0187  0.0000 </r>
       </set>
       <set comment="band 13">
        <r>  0.0000  0.1307  0.0000  0.1307  0.0000  0.0009  0.0000  0.0009  0.0851 </r>
       </set>
       <set comment="band 14">
        <r>  0.0000  0.0099  0.0000  0.0099  0.0000  0.0657  0.0000  0.0657  0.1401 </r>
       </set>
       <set comment="band 15">
        <r>  0.0057  0.0007  0.0444  0.0007  0.1112  0.0000  0.1293  0.0000  0.0000 </r>
       </set>
       <set comment="band 16">
        <r>  0.1872  0.0580  0.0219  0.0580  0.0091  0.0288  0.0257  0.0288  0.0000 </r>
       </set>
       <set comment="band 17">
        <r>  0.0283  0.0374  0.0089  0.0374  0.0149  0.0333  0.0135  0.0333  0.0000 </r>
       </set>
       <set comment="band 18">
        <r>  6.2637  0.0000  0.0000  0.0000  0.0001  0.0001  0.0000  0.0001  0.0000 </r>
       </set>
       <set comment="band 19">
        <r>  0.0332  0.0015  0.0547  0.0015  0.0967  0.0026  0.1422  0.0026  0.0000 </r>
       </set>
       <set comment="band 20">
        <r>  0.0000  0.0029  0.0000  0.0029  0.0000  0.0264  0.0000  0.0264  0.0006 </r>
       </set>
       <set comment="band 21">
        <r>  0.0000  0.2331  0.0000  0.2331  0.0000  0.0000  0.0000  0.0000  0.1864 </r>
       </set>
       <set comment="band 22">
        <r>  0.0000  0.0035  0.0313  0.0035  0.0762  0.0045  0.0051  0.0045  0.0000 </r>
       </set>
       <set comment="band 23">
        <r>  0.0638  0.0084  0.0477  0.0084  0.1771  0.0254  0.0076  0.0254  0.0000 </r>
       </set>
       <set comment="band 24">
        <r>  0.0000  0.0812  0.0000  0.0812  0.0000  0.0081  0.0000  0.0081  0.0305 </r>
       </set>
      </set>
      <set comment="kpoint 109">
       <set comment="band 1">
        <r>  0.0001  0.3237  0.3237  0.3237  0.0000  0.0000  0.0000  0.0000  0.0000 </r>
       </set>
       <set comment="band 2">
        <r>  0.0000  0.6337  0.2266  0.1382  0.0000  0.0000  0.0000  0.0000  0.0000 </r>
       </set>
       <set comment="band 3">
        <r>  0.0000  0.0320  0.4391  0.5275  0.0000  0.0000  0.0000  0.0000  0.0000 </r>
       </set>
       <set comment="band 4">
        <r>  0.1817  0.0003  0.0003  0.0003  0.1834  0.1834  0.0000  0.1834  0.0000 </r>
       </set>
       <set comment="band 5">
        <r>  0.0000  0.0000  0.0000  0.0000  0.2395  0.0598  0.5124  0.0600  0.0000 </r>
       </set>
       <set comment="band 6">
        <r>  0.0000  0.0000  0.0000  0.0000  0.0000  0.1797  0.0000  0.1796  0.5124 </r>
       </set>
       <set comment="band 7">
        <r>  0.0309  0.0856  0.0856  0.0856  0.0140  0.0140  0.0000  0.0140  0.0000 </r>
       </set>
       <set comment="band 8">
        <r>  0.0000  0.0001  0.0003  0.0001  0.3840  0.0962  0.3867  0.0957  0.0000 </r>
       </set>
       <set comment="band 9">
        <r>  0.0000  0.0002  0.0000  0.0002  0.0000  0.2877  0.0000  0.2882  0.3867 </r>
       </set>
       <set comment="band 10">
        <r>  0.3994  0.0064  0.0064  0.0064  0.1280  0.1280  0.0000  0.1280  0.0000 </r>
       </set>
       <set comment="band 11">
        <r>  0.0110  0.0085  0.0085  0.0085  0.0070  0.0070  0.0000  0.0070  0.0000 </r>
       </set>
       <set comment="band 12">
        <r>  0.0000  0.0481  0.1391  0.0241  0.0059  0.0010  0.0019  0.0020  0.0000 </r>
       </set>
       <set comment="band 13">
        <r>  0.0000  0.0928  0.0018  0.1168  0.0001  0.0050  0.0000  0.0039  0.0019 </r>
       </set>
       <set comment="band 14">
        <r>  0.0540  0.0110  0.0110  0.0110  0.0578  0.0578  0.0000  0.0578  0.0000 </r>
       </set>
       <set comment="band 15">
        <r>  0.0000  0.0026  0.0102  0.0025  0.0746  0.0183  0.3693  0.0190  0.0000 </r>
       </set>
       <set comment="band 16">
        <r>  0.0000  0.0076  0.0000  0.0077  0.0000  0.0563  0.0000  0.0556  0.3693 </r>
       </set>
       <set comment="band 17">
        <r>  6.2845  0.0000  0.0000  0.0000  0.0000  0.0000  0.0000  0.0000  0.0000 </r>
       </set>
       <set comment="band 18">
        <r>  0.0303  0.0296  0.0296  0.0296  0.0390  0.0390  0.0000  0.0390  0.0000 </r>
       </set>
       <set comment="band 19">
        <r>  0.0000  0.0808  0.2369  0.0417  0.0331  0.0058  0.0537  0.0113  0.0006 </r>
       </set>
       <set comment="band 20">
        <r>  0.0000  0.1588  0.0027  0.1979  0.0004  0.0277  0.0006  0.0222  0.0537 </r>
       </set>
       <set comment="band 21">
        <r>  0.0000  0.2437  0.0916  0.0510  0.0134  0.0075  0.0033  0.0356  0.0060 </r>
       </set>
       <set comment="band 22">
        <r>  0.0000  0.0138  0.1659  0.2065  0.0243  0.0302  0.0060  0.0020  0.0033 </r>
       </set>
       <set comment="band 23">
        <r>  0.0582  0.0039  0.0039  0.0039  0.0035  0.0035  0.0000  0.0035  0.0000 </r>
       </set>
       <set comment="band 24">
        <r>  0.0000  0.0106  0.0040  0.0022  0.0941  0.0529  0.0003  0.2516  0.0006 </r>
       </set>
      </set>
      <set comment="kpoint 110">
       <set comment="band 1">
        <r>  0.0000  0.3244  0.3244  0.3228  0.0000  0.0000  0.0000  0.0000  0.0000 </r>
       </set>
       <set comment="band 2">
        <r>  0.0001  0.1655  0.1655  0.6651  0.0001  0.0000  0.0000  0.0001  0.0000 </r>
       </set>
       <set comment="band 3">
        <r>  0.0000  0.4990  0.4990  0.0000  0.0000  0.0000  0.0000  0.0000  0.0000 </r>
       </set>
       <set comment="band 4">
        <r>  0.1613  0.0015  0.0015  0.0038  0.1741  0.2176  0.0002  0.1741  0.0005 </r>
       </set>
       <set comment="band 5">
        <r>  0.0001  0.0022  0.0022  0.0001  0.0579  0.1803  0.1338  0.0579  0.4015 </r>
       </set>
       <set comment="band 6">
        <r>  0.0000  0.0007  0.0007  0.0000  0.1659  0.0000  0.4026  0.1659  0.1342 </r>
       </set>
       <set comment="band 7">
        <r>  0.0013  0.0516  0.0516  0.0528  0.0693  0.1791  0.0222  0.0693  0.0667 </r>
       </set>
       <set comment="band 8">
        <r>  0.0000  0.0003  0.0003  0.0000  0.3024  0.0000  0.2658  0.3024  0.0886 </r>
       </set>
       <set comment="band 9">
        <r>  0.0068  0.0394  0.0394  0.0431  0.0362  0.2470  0.0660  0.0362  0.1979 </r>
       </set>
       <set comment="band 10">
        <r>  0.4424  0.0007  0.0007  0.0041  0.1369  0.1175  0.0009  0.1369  0.0027 </r>
       </set>
       <set comment="band 11">
        <r>  0.0003  0.0053  0.0053  0.0100  0.0073  0.0102  0.0037  0.0073  0.0112 </r>
       </set>
       <set comment="band 12">
        <r>  0.0032  0.0393  0.0393  0.1472  0.0194  0.0137  0.0045  0.0194  0.0134 </r>
       </set>
       <set comment="band 13">
        <r>  0.0000  0.1111  0.1111  0.0000  0.0006  0.0000  0.0230  0.0006  0.0077 </r>
       </set>
       <set comment="band 14">
        <r>  0.0000  0.0002  0.0002  0.0413  0.0014  0.0974  0.0621  0.0014  0.1864 </r>
       </set>
       <set comment="band 15">
        <r>  0.0000  0.0084  0.0084  0.0000  0.0761  0.0000  0.2497  0.0761  0.0832 </r>
       </set>
       <set comment="band 16">
        <r>  0.0885  0.0008  0.0008  0.0010  0.0965  0.0212  0.0067  0.0965  0.0201 </r>
       </set>
       <set comment="band 17">
        <r>  6.2825  0.0000  0.0000  0.0001  0.0000  0.0000  0.0000  0.0000  0.0001 </r>
       </set>
       <set comment="band 18">
        <r>  0.0016  0.0828  0.0828  0.0004  0.0000  0.0326  0.0001  0.0000  0.0003 </r>
       </set>
       <set comment="band 19">
        <r>  0.0577  0.0233  0.0233  0.2025  0.0000  0.0472  0.0316  0.0000  0.0948 </r>
       </set>
       <set comment="band 20">
        <r>  0.0000  0.1857  0.1857  0.0000  0.0000  0.0000  0.0348  0.0000  0.0116 </r>
       </set>
       <set comment="band 21">
        <r>  0.0158  0.0223  0.0223  0.0717  0.0114  0.0926  0.0003  0.0114  0.0008 </r>
       </set>
       <set comment="band 22">
        <r>  0.0000  0.0546  0.0546  0.0000  0.0619  0.0000  0.0072  0.0619  0.0024 </r>
       </set>
       <set comment="band 23">
        <r>  0.0695  0.0004  0.0004  0.0326  0.0129  0.1802  0.0003  0.0129  0.0008 </r>
       </set>
       <set comment="band 24">
        <r>  0.0000  0.1174  0.1174  0.0000  0.0438  0.0000  0.0000  0.0438  0.0000 </r>
       </set>
      </set>
     </set>
    </set>
   </array>
  </projected>
 </calculation>
 <structure name="finalpos" >
  <crystal>
   <varray name="basis" >
    <v>       0.00000000       1.78096377       1.78096377 </v>
    <v>       1.78096377       0.00000000       1.78096377 </v>
    <v>       1.78096377       1.78096377       0.00000000 </v>
   </varray>
   <i name="volume">     11.29783551 </i>
   <varray name="rec_basis" >
    <v>      -0.28074687       0.28074687       0.28074687 </v>
    <v>       0.28074687      -0.28074687       0.28074687 </v>
    <v>       0.28074687       0.28074687      -0.28074687 </v>
   </varray>
  </crystal>
  <varray name="positions" >
   <v>       0.00000000       0.00000000       0.00000000 </v>
  </varray>
 </structure>
</modeling>
