Pt-hcc                                  
   1.00000000000000     
     2.973210    0.000000    0.000000
    -1.486605    2.574875    0.000000
     0.000000    0.000000    5.151017
   Pt
     2
Direct
  0.000000  0.000000  0.000000
  0.333333  0.666667  0.500000
 
   48   48   72
  345.67      345.34      343.84      339.85      331.59      317.37      296.20      268.18      234.59      197.77    
  160.58      125.82      95.675      71.355      53.011      39.899      30.700      24.032      19.233      15.867    
  13.557      12.013      11.034      10.492      10.319      10.492      11.034      12.013      13.557      15.867    
  19.233      24.032      30.700      39.899      53.011      71.355      95.675      125.82      160.58      197.77    
  234.59      268.18      296.20      317.37      331.59      339.85      343.84      345.34      345.34      345.34    
  344.42      341.66      335.46      324.10      306.21      281.36      250.26      214.78      177.57      141.51    
  109.10      82.037      60.968      45.545      34.688      26.954      21.321      17.321      14.545      12.661    
  11.427      10.683      10.332      10.332      10.683      11.427      12.661      14.545      17.321      21.321    
  26.953      34.688      45.545      60.968      82.037      109.10      141.51      177.57      214.78      250.26    
  281.36      306.21      324.10      335.47      341.66      344.42      343.84      344.42      343.84      341.66    
  336.65      327.22      311.91      289.91      261.46      227.91      191.57      155.18      121.43      92.321    
  68.949      51.375      38.817      29.964      23.511      18.865      15.602      13.358      11.855      10.899    
  10.370      10.200      10.370      10.899      11.855      13.358      15.602      18.865      23.511      29.964    
  38.817      51.375      68.949      92.321      121.43      155.18      191.57      227.91      261.46      289.91    
  311.91      327.22      336.65      341.66      339.85      341.67      341.67      339.85      335.46      327.22    
  313.75      294.10      268.14      236.79      201.93      166.08      131.88      101.53      76.445      57.067    
  42.933      32.941      25.721      20.450      16.701      14.090      12.310      11.139      10.430      10.095    
  10.095      10.430      11.139      12.310      14.090      16.701      20.450      25.721      32.941      42.933    
  57.067      76.445      101.53      131.88      166.08      201.93      236.79      268.14      294.10      313.75    
  327.22      335.47      331.59      335.48      336.67      335.48      331.59      324.10      311.91      294.10    
  270.35      241.25      208.28      173.64      139.81      109.03      82.933      62.244      46.812      35.773    
  27.851      22.012      17.804      14.836      12.783      11.397      10.511      10.016      9.8574      10.016    
  10.511      11.397      12.783      14.836      17.804      22.012      27.851      35.773      46.812      62.244    
  82.933      109.03      139.81      173.64      208.28      241.25      270.35      294.10      311.91      324.10    
  317.37      324.12      327.25      327.25      324.12      317.37      306.21      289.91      268.14      241.25    
  210.42      177.51      144.76      114.33      87.943      66.528      50.195      38.320      29.792      23.479    
  18.864      15.568      13.256      11.666      10.609      9.9629      9.6563      9.6563      9.9629      10.609    
  11.666      13.256      15.568      18.864      23.479      29.792      38.320      50.195      66.528      87.943    
  114.33      144.76      177.51      210.42      241.25      268.14      289.91      306.21      296.20      306.23    
  311.95      313.79      311.95      306.23      296.20      281.36      261.46      236.79      208.28      177.51    
  146.44      117.07      91.106      69.589      52.828      40.419      31.438      24.773      19.830      16.254    
  13.712      11.934      10.719      9.9326      9.4901      9.3472      9.4901      9.9327      10.719      11.934    
  13.712      16.254      19.830      24.773      31.438      40.419      52.828      69.589      91.106      117.07    
  146.44      177.51      208.28      236.79      261.46      281.36      268.18      281.37      289.95      294.14    
  294.14      289.95      281.37      268.18      250.26      227.91      201.93      173.64      144.76      117.07    
  92.187      71.183      54.500      41.919      32.697      25.820      20.650      16.858      14.128      12.189    
  10.835      9.9221      9.3571      9.0865      9.0865      9.3571      9.9221      10.835      12.189      14.128    
  16.858      20.650      25.820      32.697      41.919      54.500      71.183      92.187      117.07      144.76    
  173.64      201.93      227.91      250.26      234.59      250.27      261.48      268.17      270.39      268.17    
  261.48      250.27      234.59      214.79      191.57      166.08      139.81      114.33      91.106      71.183    
  55.074      42.701      33.490      26.556      21.274      17.347      14.481      12.417      10.948      9.9268    
  9.2545      8.8716      8.7471      8.8716      9.2545      9.9268      10.948      12.417      14.481      17.347    
  21.274      26.556      33.490      42.701      55.074      71.183      91.106      114.33      139.81      166.08    
  191.57      214.78      197.77      214.78      227.91      236.79      241.26      241.26      236.79      227.91    
  214.78      197.77      177.57      155.18      131.88      109.03      87.943      69.589      54.500      42.701    
  33.760      26.936      21.666      17.692      14.752      12.603      11.049      9.9410      9.1790      8.6998    
  8.4679      8.4679      8.6998      9.1790      9.9410      11.049      12.603      14.752      17.692      21.666    
  26.936      33.760      42.701      54.500      69.589      87.943      109.03      131.88      155.18      177.57    
  160.58      177.56      191.54      201.90      208.26      210.39      208.26      201.90      191.54      177.56    
  160.58      141.51      121.43      101.53      82.933      66.528      52.828      41.919      33.490      26.936    
  21.799      17.870      14.922      12.736      11.129      9.9588      9.1266      8.5680      8.2454      8.1397    
  8.2454      8.5680      9.1266      9.9588      11.129      12.736      14.922      17.870      21.799      26.936    
  33.490      41.919      52.828      66.528      82.933      101.53      121.43      141.51      125.82      141.48    
  155.13      166.02      173.58      177.44      177.44      173.58      166.02      155.13      141.48      125.82    
  109.10      92.321      76.445      62.244      50.195      40.419      32.697      26.556      21.666      17.870    
  14.980      12.805      11.180      9.9745      9.0932      8.4731      8.0764      7.8823      7.8823      8.0763    
  8.4731      9.0932      9.9745      11.180      12.805      14.980      17.870      21.666      26.556      32.697    
  40.419      50.195      62.244      76.445      92.321      109.10      95.675      109.06      121.36      131.79    
  139.71      144.64      146.32      144.64      139.71      131.79      121.36      109.06      95.675      82.037    
  68.949      57.067      46.812      38.320      31.438      25.820      21.274      17.692      14.922      12.805    
  11.198      9.9836      9.0748      8.4120      7.9581      7.6922      7.6046      7.6922      7.9580      8.4120    
  9.0748      9.9836      11.198      12.805      14.922      17.692      21.274      25.820      31.438      38.320    
  46.812      57.067      68.949      82.037      71.355      81.997      92.243      101.42      108.90      114.19    
  116.92      116.92      114.19      108.90      101.42      92.243      81.997      71.355      60.968      51.375    
  42.934      35.773      29.792      24.773      20.650      17.347      14.752      12.736      11.180      9.9836    
  9.0690      8.3821      7.8881      7.5670      7.4084      7.4084      7.5669      7.8881      8.3821      9.0690    
  9.9836      11.180      12.736      14.752      17.347      20.650      24.773      29.792      35.773      42.933    
  51.375      60.968      53.011      60.928      68.869      76.328      82.787      87.775      90.925      92.001    
  90.925      87.775      82.787      76.328      68.869      60.928      53.011      45.545      38.818      32.941    
  27.851      23.479      19.830      16.858      14.481      12.603      11.129      9.9745      9.0748      8.3821    
  7.8650      7.5048      7.2915      7.2209      7.2915      7.5047      7.8650      8.3821      9.0748      9.9745    
  11.129      12.603      14.481      16.858      19.830      23.479      27.851      32.941      38.817      45.545    
  39.899      45.509      51.300      56.954      62.097      66.354      69.396      70.981      70.981      69.396    
  66.354      62.097      56.954      51.300      45.509      39.899      34.688      29.964      25.721      22.012    
  18.864      16.254      14.128      12.417      11.049      9.9588      9.0932      8.4120      7.8881      7.5047    
  7.2527      7.1275      7.1275      7.2527      7.5047      7.8881      8.4120      9.0932      9.9588      11.049    
  12.417      14.128      16.254      18.864      22.012      25.721      29.964      34.688      30.700      34.658    
  38.752      42.832      46.677      50.030      52.640      54.299      54.868      54.299      52.640      50.030    
  46.677      42.832      38.752      34.658      30.700      26.954      23.511      20.450      17.804      15.568    
  13.712      12.189      10.948      9.9410      9.1267      8.4731      7.9580      7.5669      7.2915      7.1275    
  7.0730      7.1275      7.2915      7.5669      7.9580      8.4731      9.1266      9.9410      10.948      12.189    
  13.712      15.568      17.804      20.450      23.511      26.953      24.032      26.929      29.910      32.856    
  35.656      38.174      40.249      41.732      42.505      42.505      41.732      40.249      38.174      35.656    
  32.856      29.910      26.929      24.032      21.321      18.865      16.701      14.836      13.256      11.934    
  10.835      9.9268      9.1790      8.5680      8.0763      7.6922      7.4084      7.2208      7.1275      7.1275    
  7.2209      7.4084      7.6922      8.0763      8.5680      9.1790      9.9268      10.835      11.934      13.256    
  14.836      16.701      18.865      21.321      19.233      21.302      23.469      25.653      27.756      29.671    
  31.294      32.535      33.316      33.582      33.316      32.535      31.294      29.671      27.756      25.653    
  23.469      21.302      19.233      17.321      15.602      14.090      12.783      11.665      10.719      9.9221    
  9.2545      8.6998      8.2454      7.8823      7.6046      7.4084      7.2915      7.2527      7.2915      7.4084    
  7.6046      7.8823      8.2454      8.6998      9.2545      9.9221      10.719      11.666      12.783      14.090    
  15.602      17.321      15.867      17.308      18.834      20.398      21.938      23.383      24.657      25.686    
  26.410      26.784      26.784      26.410      25.686      24.657      23.383      21.938      20.398      18.834    
  17.307      15.867      14.545      13.358      12.310      11.397      10.609      9.9326      9.3571      8.8716    
  8.4679      8.1397      7.8823      7.6922      7.5669      7.5047      7.5048      7.5670      7.6922      7.8823    
  8.1397      8.4679      8.8716      9.3571      9.9327      10.609      11.397      12.310      13.358      14.545    
  13.557      14.536      15.580      16.663      17.749      18.792      19.741      20.546      21.159      21.543    
  21.674      21.543      21.159      20.546      19.741      18.792      17.749      16.663      15.580      14.535    
  13.557      12.661      11.855      11.139      10.511      9.9629      9.4902      9.0865      8.7471      8.4679    
  8.2454      8.0763      7.9580      7.8881      7.8650      7.8881      7.9581      8.0764      8.2454      8.4679    
  8.7471      9.0865      9.4901      9.9629      10.511      11.139      11.855      12.661      12.013      12.654    
  13.343      14.064      14.797      15.516      16.189      16.781      17.261      17.598      17.772      17.772    
  17.598      17.261      16.781      16.189      15.516      14.797      14.064      13.342      12.654      12.013    
  11.427      10.899      10.430      10.016      9.6563      9.3473      9.0865      8.8716      8.6998      8.5680    
  8.4731      8.4120      8.3821      8.3821      8.4120      8.4731      8.5680      8.6998      8.8716      9.0865    
  9.3472      9.6563      10.016      10.430      10.899      11.427      11.034      11.423      11.844      12.293    
  12.757      13.221      13.668      14.075      14.421      14.685      14.851      14.907      14.851      14.685    
  14.421      14.075      13.668      13.221      12.756      12.293      11.844      11.423      11.034      10.683    
  10.370      10.095      9.8574      9.6563      9.4902      9.3571      9.2545      9.1790      9.1267      9.0932    
  9.0748      9.0690      9.0748      9.0932      9.1266      9.1790      9.2545      9.3571      9.4901      9.6563    
  9.8574      10.095      10.370      10.683      10.492      10.679      10.892      11.128      11.380      11.643    
  11.906      12.155      12.378      12.560      12.689      12.756      12.756      12.689      12.560      12.378    
  12.155      11.906      11.643      11.380      11.128      10.892      10.680      10.492      10.333      10.200    
  10.095      10.016      9.9629      9.9326      9.9221      9.9268      9.9410      9.9588      9.9745      9.9836    
  9.9836      9.9745      9.9588      9.9410      9.9268      9.9221      9.9326      9.9629      10.016      10.095    
  10.200      10.332      10.319      10.330      10.364      10.422      10.500      10.596      10.703      10.816    
  10.927      11.025      11.103      11.153      11.170      11.153      11.103      11.025      10.927      10.816    
  10.703      10.596      10.500      10.422      10.364      10.330      10.319      10.333      10.370      10.430    
  10.511      10.609      10.719      10.835      10.948      11.049      11.129      11.180      11.198      11.180    
  11.129      11.049      10.948      10.835      10.719      10.609      10.511      10.430      10.370      10.332    
  10.492      10.330      10.195      10.089      10.009      9.9555      9.9250      9.9143      9.9187      9.9327    
  9.9503      9.9657      9.9746      9.9746      9.9657      9.9503      9.9327      9.9187      9.9143      9.9250    
  9.9556      10.009      10.089      10.195      10.330      10.492      10.683      10.899      11.139      11.397    
  11.665      11.934      12.189      12.417      12.603      12.736      12.805      12.805      12.736      12.603    
  12.417      12.189      11.934      11.666      11.397      11.139      10.899      10.683      11.034      10.679    
  10.364      10.089      9.8517      9.6517      9.4872      9.3562      9.2556      9.1820      9.1312      9.0989    
  9.0813      9.0757      9.0813      9.0989      9.1312      9.1820      9.2556      9.3562      9.4873      9.6517    
  9.8517      10.089      10.364      10.680      11.034      11.427      11.855      12.310      12.783      13.256    
  13.712      14.128      14.481      14.752      14.922      14.980      14.922      14.752      14.481      14.128    
  13.712      13.256      12.783      12.310      11.855      11.427      12.013      11.423      10.892      10.422    
  10.009      9.6517      9.3459      9.0890      8.8781      8.7101      8.5819      8.4899      8.4307      8.4019    
  8.4019      8.4307      8.4899      8.5819      8.7101      8.8781      9.0890      9.3459      9.6517      10.009    
  10.422      10.892      11.423      12.013      12.661      13.358      14.090      14.836      15.568      16.254    
  16.858      17.347      17.692      17.870      17.870      17.692      17.347      16.858      16.254      15.568    
  14.836      14.090      13.358      12.661      13.557      12.654      11.844      11.128      10.500      9.9555    
  9.4873      9.0890      8.7553      8.4819      8.2647      8.1004      7.9856      7.9179      7.8956      7.9179    
  7.9856      8.1004      8.2647      8.4819      8.7553      9.0890      9.4873      9.9556      10.500      11.128    
  11.844      12.654      13.557      14.545      15.602      16.701      17.804      18.864      19.830      20.650    
  21.274      21.666      21.799      21.666      21.274      20.650      19.830      18.864      17.804      16.701    
  15.602      14.545      15.867      14.536      13.343      12.293      11.381      10.596      9.9250      9.3562    
  8.8781      8.4819      8.1609      7.9100      7.7252      7.6036      7.5434      7.5434      7.6036      7.7252    
  7.9099      8.1609      8.4819      8.8781      9.3562      9.9250      10.596      11.380      12.293      13.342    
  14.535      15.867      17.321      18.865      20.450      22.012      23.479      24.773      25.820      26.556    
  26.936      26.936      26.556      25.820      24.773      23.479      22.012      20.450      18.865      17.321    
  19.233      17.308      15.580      14.064      12.757      11.643      10.703      9.9143      9.2556      8.7101    
  8.2647      7.9100      7.6393      7.4486      7.3351      7.2975      7.3351      7.4486      7.6393      7.9099    
  8.2647      8.7101      9.2556      9.9143      10.703      11.643      12.756      14.064      15.580      17.307    
  19.233      21.321      23.511      25.721      27.851      29.792      31.438      32.697      33.490      33.760    
  33.490      32.697      31.438      29.792      27.851      25.721      23.511      21.321      24.032      21.302    
  18.834      16.663      14.797      13.221      11.906      10.816      9.9187      9.1820      8.5819      8.1004    
  7.7252      7.4486      7.2661      7.1754      7.1754      7.2661      7.4486      7.7252      8.1004      8.5819    
  9.1820      9.9187      10.816      11.906      13.221      14.797      16.663      18.834      21.302      24.032    
  26.954      29.964      32.941      35.773      38.320      40.419      41.919      42.701      42.701      41.919    
  40.419      38.320      35.773      32.941      29.964      26.954      30.700      26.929      23.469      20.398    
  17.749      15.516      13.668      12.155      10.927      9.9327      9.1312      8.4898      7.9856      7.6036    
  7.3351      7.1754      7.1224      7.1754      7.3351      7.6036      7.9856      8.4899      9.1312      9.9327    
  10.927      12.155      13.668      15.516      17.749      20.398      23.469      26.929      30.700      34.688    
  38.818      42.934      46.812      50.195      52.828      54.500      55.074      54.500      52.828      50.195    
  46.812      42.933      38.817      34.688      39.899      34.658      29.910      25.653      21.938      18.792    
  16.189      14.075      12.378      11.025      9.9503      9.0989      8.4307      7.9179      7.5434      7.2975    
  7.1754      7.1754      7.2975      7.5434      7.9179      8.4307      9.0989      9.9503      11.025      12.378    
  14.075      16.189      18.792      21.938      25.653      29.910      34.658      39.899      45.545      51.375    
  57.067      62.244      66.528      69.589      71.183      71.183      69.589      66.528      62.244      57.067    
  51.375      45.545      53.011      45.509      38.752      32.856      27.756      23.383      19.741      16.781    
  14.421      12.560      11.103      9.9657      9.0813      8.4019      7.8956      7.5434      7.3351      7.2661    
  7.3351      7.5434      7.8956      8.4019      9.0813      9.9657      11.103      12.560      14.421      16.781    
  19.741      23.383      27.756      32.856      38.752      45.509      53.011      60.968      68.949      76.445    
  82.933      87.943      91.106      92.187      91.106      87.943      82.933      76.445      68.949      60.968    
  71.355      60.928      51.300      42.832      35.656      29.671      24.657      20.546      17.261      14.685    
  12.689      11.153      9.9746      9.0757      8.4019      7.9179      7.6036      7.4486      7.4486      7.6036    
  7.9179      8.4019      9.0757      9.9746      11.153      12.689      14.685      17.261      20.546      24.657    
  29.671      35.656      42.832      51.300      60.928      71.355      82.037      92.321      101.53      109.03    
  114.33      117.07      117.07      114.33      109.03      101.53      92.321      82.037      95.675      81.997    
  68.869      56.954      46.677      38.174      31.294      25.686      21.159      17.598      14.851      12.757    
  11.170      9.9746      9.0813      8.4307      7.9856      7.7252      7.6393      7.7252      7.9856      8.4307    
  9.0813      9.9746      11.170      12.756      14.851      17.598      21.159      25.686      31.294      38.174    
  46.677      56.954      68.869      81.997      95.675      109.10      121.43      131.88      139.81      144.76    
  146.44      144.76      139.81      131.88      121.43      109.10      125.82      109.06      92.243      76.328    
  62.097      50.030      40.249      32.535      26.410      21.543      17.772      14.907      12.757      11.153    
  9.9657      9.0989      8.4898      8.1004      7.9100      7.9100      8.1004      8.4899      9.0989      9.9657    
  11.153      12.756      14.907      17.772      21.543      26.410      32.535      40.249      50.030      62.097    
  76.328      92.243      109.06      125.82      141.51      155.18      166.08      173.64      177.51      177.51    
  173.64      166.08      155.18      141.51      160.58      141.48      121.36      101.42      82.787      66.354    
  52.640      41.732      33.316      26.784      21.674      17.772      14.851      12.689      11.103      9.9503    
  9.1312      8.5819      8.2647      8.1609      8.2647      8.5819      9.1312      9.9503      11.103      12.689    
  14.851      17.772      21.674      26.784      33.316      41.732      52.640      66.354      82.787      101.42    
  121.36      141.48      160.58      177.57      191.57      201.93      208.28      210.42      208.28      201.93    
  191.57      177.57      197.77      177.56      155.13      131.79      108.90      87.775      69.396      54.299    
  42.505      33.582      26.784      21.543      17.598      14.685      12.560      11.025      9.9327      9.1820    
  8.7101      8.4819      8.4819      8.7101      9.1820      9.9327      11.025      12.560      14.685      17.598    
  21.543      26.784      33.582      42.505      54.299      69.396      87.775      108.90      131.79      155.13    
  177.56      197.77      214.79      227.91      236.79      241.25      241.25      236.79      227.91      214.78    
  234.59      214.78      191.54      166.02      139.71      114.19      90.925      70.981      54.868      42.505    
  33.316      26.410      21.159      17.261      14.421      12.378      10.927      9.9187      9.2556      8.8781    
  8.7553      8.8781      9.2556      9.9187      10.927      12.378      14.421      17.261      21.159      26.410    
  33.316      42.505      54.868      70.981      90.925      114.19      139.71      166.02      191.54      214.78    
  234.59      250.26      261.46      268.14      270.35      268.14      261.46      250.26      268.18      250.27    
  227.91      201.90      173.58      144.64      116.92      92.001      70.981      54.299      41.732      32.535    
  25.686      20.546      16.781      14.075      12.155      10.816      9.9143      9.3562      9.0890      9.0890    
  9.3562      9.9143      10.816      12.155      14.075      16.781      20.546      25.686      32.535      41.732    
  54.299      70.981      92.001      116.92      144.64      173.58      201.90      227.91      250.27      268.18    
  281.36      289.91      294.10      294.10      289.91      281.36      296.20      281.37      261.48      236.79    
  208.26      177.44      146.32      116.92      90.925      69.396      52.640      40.249      31.294      24.657    
  19.741      16.189      13.668      11.906      10.703      9.9250      9.4873      9.3459      9.4872      9.9250    
  10.703      11.906      13.668      16.189      19.741      24.657      31.294      40.249      52.640      69.396    
  90.925      116.92      146.32      177.44      208.26      236.79      261.48      281.37      296.20      306.21    
  311.91      313.75      311.91      306.21      317.37      306.23      289.95      268.17      241.26      210.39    
  177.44      144.64      114.19      87.775      66.354      50.030      38.174      29.671      23.383      18.792    
  15.516      13.221      11.643      10.596      9.9555      9.6517      9.6517      9.9555      10.596      11.643    
  13.221      15.516      18.792      23.383      29.671      38.174      50.030      66.354      87.775      114.19    
  144.64      177.44      210.39      241.26      268.17      289.95      306.23      317.37      324.10      327.22    
  327.22      324.10      331.59      324.12      311.95      294.14      270.39      241.26      208.26      173.58    
  139.71      108.90      82.787      62.097      46.677      35.656      27.756      21.938      17.749      14.797    
  12.757      11.381      10.500      10.009      9.8517      10.009      10.500      11.380      12.757      14.797    
  17.749      21.938      27.756      35.656      46.677      62.097      82.787      108.90      139.71      173.58    
  208.26      241.26      270.39      294.14      311.95      324.12      331.59      335.46      336.65      335.46    
  339.85      335.48      327.25      313.79      294.14      268.17      236.79      201.90      166.02      131.79    
  101.42      76.328      56.954      42.832      32.856      25.653      20.398      16.663      14.064      12.293    
  11.128      10.422      10.089      10.089      10.422      11.128      12.293      14.064      16.663      20.398    
  25.653      32.856      42.832      56.954      76.328      101.42      131.79      166.02      201.90      236.79    
  268.17      294.14      313.79      327.25      335.48      339.85      341.66      341.66      343.84      341.67    
  336.67      327.25      311.95      289.95      261.48      227.91      191.54      155.13      121.36      92.243    
  68.869      51.300      38.752      29.910      23.469      18.834      15.580      13.343      11.844      10.892    
  10.364      10.195      10.364      10.892      11.844      13.343      15.580      18.834      23.469      29.910    
  38.752      51.300      68.869      92.243      121.36      155.13      191.54      227.91      261.48      289.95    
  311.95      327.25      336.67      341.67      343.84      344.42      345.34      344.42      341.67      335.48    
  324.12      306.23      281.37      250.27      214.78      177.56      141.48      109.06      81.997      60.928    
  45.509      34.658      26.929      21.302      17.308      14.536      12.654      11.423      10.679      10.330    
  10.330      10.679      11.423      12.654      14.536      17.308      21.302      26.929      34.658      45.509    
  60.928      81.997      109.06      141.48      177.56      214.78      250.27      281.37      306.23      324.12    
  335.48      341.67      344.42      345.34      345.39      344.98      343.25      338.91      330.23      315.60    
  294.09      265.85      232.21      195.50      158.55      124.12      94.348      70.381      52.336      39.446    
  30.387      23.805      19.069      15.746      13.464      11.937      10.968      10.431      10.259      10.431    
  10.968      11.937      13.464      15.746      19.069      23.805      30.387      39.446      52.336      70.381    
  94.348      124.12      158.55      195.50      232.21      265.85      294.09      315.60      330.23      338.91    
  343.25      344.98      344.98      344.98      343.90      340.85      334.27      322.49      304.23      279.11    
  247.89      212.44      175.42      139.65      107.60      80.900      60.159      44.995      34.317      26.688    
  21.129      17.181      14.439      12.577      11.356      10.619      10.272      10.272      10.619      11.356    
  12.577      14.439      17.181      21.129      26.688      34.317      44.995      60.159      80.900      107.60    
  139.65      175.42      212.44      247.89      279.11      304.23      322.49      334.27      340.85      343.90    
  343.25      343.91      343.25      340.85      335.51      325.71      310.03      287.74      259.11      225.54    
  189.32      153.20      119.77      91.036      68.010      50.725      38.379      29.658      23.289      18.704    
  15.483      13.265      11.779      10.833      10.308      10.140      10.308      10.833      11.779      13.265    
  15.483      18.704      23.289      29.658      38.379      50.725      68.010      91.036      119.77      153.20    
  189.32      225.54      259.11      287.74      310.03      325.71      335.51      340.85      338.91      340.86    