Pt-hcc                                  
   1.00000000000000     
     2.973210    0.000000    0.000000
    -1.486605    2.574875    0.000000
     0.000000    0.000000    5.151017
   Pt
     2
Direct
  0.000000  0.000000  0.000000
  0.333333  0.666667  0.500000
 
   48   48   72
 0.34566770674E+03 0.34533515721E+03 0.34384320709E+03 0.33985388102E+03 0.33158532740E+03
 0.31736666578E+03 0.29620092330E+03 0.26817558939E+03 0.23459334264E+03 0.19777412697E+03
 0.16058225780E+03 0.12582100471E+03 0.95675355238E+02 0.71355287728E+02 0.53011308276E+02
 0.39898958211E+02 0.30699882865E+02 0.24031847179E+02 0.19233187231E+02 0.15867467975E+02
 0.13557205826E+02 0.12013269837E+02 0.11034168229E+02 0.10492409174E+02 0.10319036113E+02
 0.10492408866E+02 0.11034167749E+02 0.12013269385E+02 0.13557205578E+02 0.15867467986E+02
 0.19233187413E+02 0.24031847334E+02 0.30699882791E+02 0.39898957819E+02 0.53011307667E+02
 0.71355287190E+02 0.95675355161E+02 0.12582100544E+03 0.16058225948E+03 0.19777412946E+03
 0.23459334555E+03 0.26817559214E+03 0.29620092536E+03 0.31736666684E+03 0.33158532743E+03
 0.33985388035E+03 0.34384320621E+03 0.34533515662E+03 0.34533515662E+03 0.34533513053E+03
 0.34441835192E+03 0.34165548574E+03 0.33546491897E+03 0.32409865964E+03 0.30621163034E+03
 0.28135726972E+03 0.25026159475E+03 0.21478492984E+03 0.17757412352E+03 0.14150731993E+03
 0.10909903350E+03 0.82037468999E+02 0.60968074614E+02 0.45545138277E+02 0.34688306060E+02
 0.26953500364E+02 0.21320847636E+02 0.17321467656E+02 0.14545406862E+02 0.12661187408E+02
 0.11427216616E+02 0.10682756491E+02 0.10332424946E+02 0.10332427099E+02 0.10682761781E+02
 0.11427222147E+02 0.12661190073E+02 0.14545405029E+02 0.17321462157E+02 0.21320841539E+02
 0.26953497529E+02 0.34688309150E+02 0.45545147161E+02 0.60968086069E+02 0.82037478007E+02
 0.10909903583E+03 0.14150731482E+03 0.17757411547E+03 0.21478492817E+03 0.25026161110E+03
 0.28135731379E+03 0.30621170562E+03 0.32409876066E+03 0.33546503115E+03 0.34165558861E+03
 0.34441842432E+03 0.34384320621E+03 0.34442238671E+03 0.34384312191E+03 0.34165543941E+03
 0.33664659023E+03 0.32721851384E+03 0.31190874170E+03 0.28991345662E+03 0.26146043009E+03
 0.22791350255E+03 0.19156685729E+03 0.15518487618E+03 0.12142580913E+03 0.92320698669E+02
 0.68949095674E+02 0.51375100082E+02 0.38817470592E+02 0.29963816922E+02 0.23510807919E+02
 0.18865112976E+02 0.15602369141E+02 0.13358269626E+02 0.11854968036E+02 0.10899391196E+02
 0.10369653126E+02 0.10199952357E+02 0.10369660822E+02 0.10899402494E+02 0.11854976850E+02
 0.13358271062E+02 0.15602362190E+02 0.18865101325E+02 0.23510798371E+02 0.29963816036E+02
 0.38817481112E+02 0.51375118927E+02 0.68949114741E+02 0.92320708412E+02 0.12142580367E+03
 0.15518485777E+03 0.19156683784E+03 0.22791350123E+03 0.26146046718E+03 0.28991354561E+03
 0.31190888253E+03 0.32721869002E+03 0.33664677136E+03 0.34165558861E+03 0.33985388035E+03
 0.34166615594E+03 0.34166610985E+03 0.33985375341E+03 0.33546485390E+03 0.32721850271E+03
 0.31374774636E+03 0.29409628206E+03 0.26813785261E+03 0.23678774332E+03 0.20193174378E+03
 0.16608450397E+03 0.13187700500E+03 0.10152708419E+03 0.76444678784E+02 0.57066826089E+02
 0.42933453853E+02 0.32940890141E+02 0.25720765056E+02 0.20449772173E+02 0.16700970317E+02
 0.14090237166E+02 0.12310434632E+02 0.11139284907E+02 0.10429695294E+02 0.10094781081E+02
 0.10094786478E+02 0.10429708684E+02 0.11139299286E+02 0.12310442361E+02 0.14090233933E+02
 0.16700957598E+02 0.20449756824E+02 0.25720756124E+02 0.32940894224E+02 0.42933471248E+02
 0.57066849671E+02 0.76444696602E+02 0.10152708495E+03 0.13187698434E+03 0.16608446872E+03
 0.20193171194E+03 0.23678773916E+03 0.26813789816E+03 0.29409638799E+03 0.31374790566E+03
 0.32721869002E+03 0.33546503115E+03 0.33158532743E+03 0.33548241978E+03 0.33667072948E+03
 0.33548235459E+03 0.33158521497E+03 0.32409863085E+03 0.31190876774E+03 0.29409631305E+03
 0.27035168267E+03 0.24124846637E+03 0.20828124443E+03 0.17364408708E+03 0.13980960074E+03
 0.10903386628E+03 0.82932972304E+02 0.62243872719E+02 0.46812043401E+02 0.35773064101E+02
 0.27850915204E+02 0.22012274105E+02 0.17803602814E+02 0.14835981545E+02 0.12782575505E+02
 0.11397250965E+02 0.10510518795E+02 0.10016204392E+02 0.98573631558E+01 0.10016214946E+02
 0.10510534525E+02 0.11397263766E+02 0.12782578587E+02 0.14835972947E+02 0.17803586652E+02
 0.22012258832E+02 0.27850909543E+02 0.35773072453E+02 0.46812062918E+02 0.62243893596E+02
 0.82932981572E+02 0.10903385368E+03 0.13980956439E+03 0.17364403622E+03 0.20828119786E+03
 0.24124844652E+03 0.27035170737E+03 0.29409638799E+03 0.31190888253E+03 0.32409876066E+03
 0.31736666684E+03 0.32412057975E+03 0.32725392169E+03 0.32725391012E+03 0.32412054989E+03
 0.31736663141E+03 0.30621168047E+03 0.28991354373E+03 0.26813792491E+03 0.24124849774E+03
 0.21041744904E+03 0.17750831567E+03 0.14475568117E+03 0.11433396314E+03 0.87943164707E+02
 0.66527996190E+02 0.50194518730E+02 0.38319535202E+02 0.29792296810E+02 0.23479147067E+02
 0.18863890133E+02 0.15567941570E+02 0.13256061534E+02 0.11665513276E+02 0.10608709807E+02
 0.99628936423E+01 0.96562823585E+01 0.96562871200E+01 0.99629055624E+01 0.10608722919E+02
 0.11665520847E+02 0.13256059342E+02 0.15567930064E+02 0.18863874460E+02 0.23479134795E+02
 0.29792294331E+02 0.38319544309E+02 0.50194535041E+02 0.66528010171E+02 0.87943165192E+02
 0.11433394189E+03 0.14475563678E+03 0.17750825496E+03 0.21041738535E+03 0.24124844652E+03
 0.26813789816E+03 0.28991354561E+03 0.30621170562E+03 0.29620092536E+03 0.30623356497E+03
 0.31194864752E+03 0.31379453610E+03 0.31194867213E+03 0.30623361285E+03 0.29620099345E+03
 0.28135739688E+03 0.26146055785E+03 0.23678782844E+03 0.20828127660E+03 0.17750831562E+03
 0.14643526544E+03 0.11707410201E+03 0.91105751668E+02 0.69588688796E+02 0.52827536842E+02
 0.40419148960E+02 0.31438423312E+02 0.24772931452E+02 0.19830061477E+02 0.16253609736E+02
 0.13711719142E+02 0.11933609837E+02 0.10719170842E+02 0.99326423402E+01 0.94901426091E+01
 0.93472336050E+01 0.94901480540E+01 0.99326506283E+01 0.10719177907E+02 0.11933611938E+02
 0.13711714578E+02 0.16253599713E+02 0.19830049768E+02 0.24772922890E+02 0.31438421719E+02
 0.40419155236E+02 0.52827548058E+02 0.69588698583E+02 0.91105751919E+02 0.11707408519E+03
 0.14643522689E+03 0.17750825496E+03 0.20828119786E+03 0.23678773916E+03 0.26146046718E+03
 0.28135731379E+03 0.26817559214E+03 0.28137402621E+03 0.28994835293E+03 0.29414268204E+03
 0.29414271210E+03 0.28994843758E+03 0.28137415023E+03 0.26817573433E+03 0.25026174934E+03
 0.22791361728E+03 0.20193179483E+03 0.17364408350E+03 0.14475565351E+03 0.11707408106E+03
 0.92186600448E+02 0.71183097609E+02 0.54500320684E+02 0.41919153801E+02 0.32697268292E+02
 0.25819618637E+02 0.20649589814E+02 0.16858088789E+02 0.14127724917E+02 0.12188768275E+02
 0.10835047801E+02 0.99221139531E+01 0.93570698234E+01 0.90865065949E+01 0.90865070808E+01
 0.93570711637E+01 0.99221157397E+01 0.10835049312E+02 0.12188768521E+02 0.14127722965E+02
 0.16858084235E+02 0.20649583333E+02 0.25819612179E+02 0.32697264777E+02 0.41919156054E+02
 0.54500329981E+02 0.71183112111E+02 0.92186614415E+02 0.11707408519E+03 0.14475563678E+03
 0.17364403622E+03 0.20193171194E+03 0.22791350123E+03 0.25026161110E+03 0.23459334555E+03
 0.25026859081E+03 0.26148068058E+03 0.26817010395E+03 0.27038869186E+03 0.26817017457E+03
 0.26148080547E+03 0.25026874212E+03 0.23459349177E+03 0.21478504274E+03 0.19156690555E+03
 0.16608448828E+03 0.13980954651E+03 0.11433390403E+03 0.91105711973E+02 0.71183082901E+02
 0.55074035357E+02 0.42701298618E+02 0.33489553092E+02 0.26556068707E+02 0.21274419255E+02
 0.17347387542E+02 0.14481467592E+02 0.12416800392E+02 0.10948007590E+02 0.99267567143E+01
 0.92544879780E+01 0.88715891113E+01 0.87471091755E+01 0.88715855550E+01 0.92544829760E+01
 0.99267532717E+01 0.10948007837E+02 0.12416804201E+02 0.14481472438E+02 0.17347389778E+02
 0.21274416360E+02 0.26556061304E+02 0.33489545705E+02 0.42701298327E+02 0.55074048732E+02
 0.71183112111E+02 0.91105751919E+02 0.11433394189E+03 0.13980956439E+03 0.16608446872E+03
 0.19156683784E+03 0.21478492817E+03 0.19777412946E+03 0.21477935256E+03 0.22791188595E+03
 0.23679385129E+03 0.24126024118E+03 0.24126027200E+03 0.23679393487E+03 0.22791199846E+03
 0.21477946294E+03 0.19777420913E+03 0.17757414689E+03 0.15518483877E+03 0.13187692716E+03
 0.10903377943E+03 0.87943096081E+02 0.69588650545E+02 0.54500308709E+02 0.42701299298E+02
 0.33760207420E+02 0.26936365450E+02 0.21665998199E+02 0.17691976245E+02 0.14751841041E+02
 0.12603446602E+02 0.11048910286E+02 0.99410086356E+01 0.91790201859E+01 0.86997735260E+01
 0.84678943330E+01 0.84678904832E+01 0.86997641186E+01 0.91790105709E+01 0.99410045048E+01
 0.11048914611E+02 0.12603457776E+02 0.14751853449E+02 0.17691982985E+02 0.21665995020E+02
 0.26936353789E+02 0.33760195179E+02 0.42701298327E+02 0.54500329981E+02 0.69588698583E+02
 0.87943165192E+02 0.10903385368E+03 0.13187698434E+03 0.15518485777E+03 0.17757411547E+03
 0.16058225948E+03 0.17755553126E+03 0.19154029725E+03 0.20190455364E+03 0.20825624622E+03
 0.21039367140E+03 0.20825627830E+03 0.20190460443E+03 0.19154034491E+03 0.17755555354E+03
 0.16058224174E+03 0.14150725517E+03 0.12142571349E+03 0.10152698459E+03 0.82932893161E+02
 0.66527950021E+02 0.52827522060E+02 0.41919158765E+02 0.33489563937E+02 0.26936372435E+02
 0.21799401608E+02 0.17870058719E+02 0.14921619455E+02 0.12735985053E+02 0.11128815918E+02
 0.99588340996E+01 0.91266486827E+01 0.85680366681E+01 0.82453606487E+01 0.81396872708E+01
 0.82453513450E+01 0.85680231814E+01 0.91266386945E+01 0.99588339207E+01 0.11128827106E+02
 0.12736003219E+02 0.14921636052E+02 0.17870065093E+02 0.21799393692E+02 0.26936353789E+02
 0.33489545705E+02 0.41919156054E+02 0.52827548058E+02 0.66528010171E+02 0.82932981572E+02
 0.10152708495E+03 0.12142580367E+03 0.14150731482E+03 0.12582100544E+03 0.14147757500E+03
 0.15513493514E+03 0.16602325424E+03 0.17357791274E+03 0.17744064862E+03 0.17744064910E+03
 0.17357791056E+03 0.16602324027E+03 0.15513489910E+03 0.14147751070E+03 0.12582091466E+03
 0.10909892925E+03 0.92320602892E+02 0.76444609883E+02 0.62243838572E+02 0.50194515699E+02
 0.40419165496E+02 0.32697291347E+02 0.26556088573E+02 0.21666010659E+02 0.17870063943E+02
 0.14979523899E+02 0.12804832676E+02 0.11180162144E+02 0.99745256026E+01 0.90931639621E+01
 0.84731429359E+01 0.80763554029E+01 0.78822936818E+01 0.78822883737E+01 0.80763422954E+01
 0.84731290680E+01 0.90931572579E+01 0.99745308616E+01 0.11180178466E+02 0.12804853314E+02
 0.14979539046E+02 0.17870065093E+02 0.21665995020E+02 0.26556061304E+02 0.32697264777E+02
 0.40419155236E+02 0.50194535041E+02 0.62243893596E+02 0.76444696602E+02 0.92320708412E+02
 0.10909903583E+03 0.95675355161E+02 0.10906166943E+03 0.12135795092E+03 0.13178707341E+03
 0.13970568424E+03 0.14464440515E+03 0.14632174525E+03 0.14464437936E+03 0.13970563317E+03
 0.13178699907E+03 0.12135785814E+03 0.10906156671E+03 0.95675254241E+02 0.82037391812E+02
 0.68949054396E+02 0.57066821428E+02 0.46812066085E+02 0.38319571129E+02 0.31438459856E+02
 0.25819648079E+02 0.21274439588E+02 0.17691988928E+02 0.14921626805E+02 0.12804836061E+02
 0.11197875628E+02 0.99836055610E+01 0.90748186571E+01 0.84119908310E+01 0.79580505024E+01
 0.76922323476E+01 0.76045823956E+01 0.76922233797E+01 0.79580369778E+01 0.84119795863E+01
 0.90748158242E+01 0.99836136065E+01 0.11197891868E+02 0.12804853314E+02 0.14921636052E+02
 0.17691982985E+02 0.21274416360E+02 0.25819612179E+02 0.31438421719E+02 0.38319544309E+02
 0.46812062918E+02 0.57066849671E+02 0.68949114741E+02 0.82037478007E+02 0.71355287190E+02
 0.81996746607E+02 0.92242690396E+02 0.10141822409E+03 0.10890209469E+03 0.11418741734E+03
 0.11692041437E+03 0.11692039455E+03 0.11418736129E+03 0.10890201199E+03 0.10141812863E+03
 0.92242597837E+02 0.81996671242E+02 0.71355239428E+02 0.60968070551E+02 0.51375134025E+02
 0.42933509621E+02 0.35773123246E+02 0.29792345813E+02 0.24772964976E+02 0.20649610017E+02
 0.17347399776E+02 0.14751850041E+02 0.12735992576E+02 0.11180167481E+02 0.99836076926E+01
 0.90690142039E+01 0.83821042092E+01 0.78881136865E+01 0.75669576994E+01 0.74084230991E+01
 0.74084195839E+01 0.75669485919E+01 0.78881027848E+01 0.83820961561E+01 0.90690126420E+01
 0.99836136065E+01 0.11180178466E+02 0.12736003219E+02 0.14751853449E+02 0.17347389778E+02
 0.20649583333E+02 0.24772922890E+02 0.29792294331E+02 0.35773072453E+02 0.42933471248E+02
 0.51375118927E+02 0.60968086069E+02 0.53011307667E+02 0.60928027602E+02 0.68869110822E+02
 0.76328444718E+02 0.82786878063E+02 0.87775202600E+02 0.90924586481E+02 0.92001036873E+02
 0.90924548597E+02 0.87775137104E+02 0.82786802562E+02 0.76328379134E+02 0.68869071958E+02
 0.60928024904E+02 0.53011341267E+02 0.45545208671E+02 0.38817556697E+02 0.32940969131E+02
 0.27850971648E+02 0.23479177384E+02 0.19830072205E+02 0.16858090512E+02 0.14481469197E+02
 0.12603451590E+02 0.11128822836E+02 0.99745307533E+01 0.90748198130E+01 0.83821026721E+01
 0.78649827406E+01 0.75047545646E+01 0.72915253144E+01 0.72208547512E+01 0.72915221922E+01
 0.75047489012E+01 0.78649757464E+01 0.83820961561E+01 0.90748158242E+01 0.99745308616E+01
 0.11128827106E+02 0.12603457776E+02 0.14481472438E+02 0.16858084235E+02 0.19830049768E+02
 0.23479134795E+02 0.27850909543E+02 0.32940894224E+02 0.38817481112E+02 0.45545147161E+02
 0.39898957819E+02 0.45508854909E+02 0.51300069361E+02 0.56954003653E+02 0.62097376538E+02
 0.66354433592E+02 0.69396333056E+02 0.70981151039E+02 0.70981136799E+02 0.69396296076E+02
 0.66354389153E+02 0.62097344151E+02 0.56954000428E+02 0.51300104261E+02 0.45508925855E+02
 0.39899052633E+02 0.34688409912E+02 0.29963904712E+02 0.25720819748E+02 0.22012293037E+02
 0.18863883091E+02 0.16253592276E+02 0.14127710526E+02 0.12416795334E+02 0.11048913287E+02
 0.99588393286E+01 0.90931656637E+01 0.84119868389E+01 0.78881064631E+01 0.75047490812E+01
 0.72526808277E+01 0.71274803169E+01 0.71274810957E+01 0.72526822211E+01 0.75047489012E+01
 0.78881027848E+01 0.84119795863E+01 0.90931572579E+01 0.99588339207E+01 0.11048914611E+02
 0.12416804201E+02 0.14127722965E+02 0.16253599713E+02 0.18863874460E+02 0.22012258832E+02
 0.25720756124E+02 0.29963816036E+02 0.34688309150E+02 0.30699882791E+02 0.34657578398E+02
 0.38752050764E+02 0.42832155734E+02 0.46676679720E+02 0.50029684598E+02 0.52640082904E+02
 0.54298685684E+02 0.54867574517E+02 0.54298673465E+02 0.52640067671E+02 0.50029680981E+02
 0.46676701784E+02 0.42832210960E+02 0.38752136501E+02 0.34657682112E+02 0.30699985800E+02
 0.26953580913E+02 0.23510849321E+02 0.20449772202E+02 0.17803573020E+02 0.15567900782E+02
 0.13711684426E+02 0.12188748615E+02 0.10948002567E+02 0.99410112595E+01 0.91266504576E+01
 0.84731382751E+01 0.79580390474E+01 0.75669435772E+01 0.72915140659E+01 0.71274751965E+01
 0.70729649996E+01 0.71274810957E+01 0.72915221922E+01 0.75669485919E+01 0.79580369778E+01
 0.84731290680E+01 0.91266386945E+01 0.99410045048E+01 0.10948007837E+02 0.12188768521E+02
 0.13711714578E+02 0.15567930064E+02 0.17803586652E+02 0.20449756824E+02 0.23510798371E+02
 0.26953497529E+02 0.24031847334E+02 0.26928849732E+02 0.29910101800E+02 0.32855663142E+02
 0.35656307441E+02 0.38173805804E+02 0.40249388258E+02 0.41732245301E+02 0.42505473608E+02
 0.42505473649E+02 0.41732248502E+02 0.40249402309E+02 0.38173839062E+02 0.35656364242E+02
 0.32855740448E+02 0.29910188649E+02 0.26928929907E+02 0.24031904628E+02 0.21320865100E+02
 0.18865089189E+02 0.16700917478E+02 0.14835919440E+02 0.13256008708E+02 0.11933576778E+02
 0.10835034824E+02 0.99267564706E+01 0.91790227222E+01 0.85680340685E+01 0.80763446588E+01
 0.76922156125E+01 0.74084057314E+01 0.72208419992E+01 0.71274751965E+01 0.71274803169E+01
 0.72208547512E+01 0.74084195839E+01 0.76922233797E+01 0.80763422954E+01 0.85680231814E+01
 0.91790105709E+01 0.99267532717E+01 0.10835049312E+02 0.11933611938E+02 0.13256059342E+02
 0.14835972947E+02 0.16700957598E+02 0.18865101325E+02 0.21320841539E+02 0.19233187413E+02
 0.21301936287E+02 0.23468779510E+02 0.25652743570E+02 0.27755803051E+02 0.29671049145E+02
 0.31294106520E+02 0.32534893195E+02 0.33315679858E+02 0.33582387357E+02 0.33315688933E+02
 0.32534913153E+02 0.31294139380E+02 0.29671094678E+02 0.27755856852E+02 0.25652796703E+02
 0.23468820295E+02 0.21301953633E+02 0.19233174536E+02 0.17321419483E+02 0.15602297875E+02
 0.14090161634E+02 0.12782513317E+02 0.11665474401E+02 0.10719155321E+02 0.99221142322E+01
 0.92544937728E+01 0.86997761758E+01 0.82453557538E+01 0.78822815146E+01 0.76045668061E+01
 0.74084057314E+01 0.72915140659E+01 0.72526808277E+01 0.72915253144E+01 0.74084230991E+01
 0.76045823956E+01 0.78822883737E+01 0.82453513450E+01 0.86997641186E+01 0.92544829760E+01
 0.99221157397E+01 0.10719177907E+02 0.11665520847E+02 0.12782578587E+02 0.14090233933E+02
 0.15602362190E+02 0.17321462157E+02 0.15867467986E+02 0.17307539578E+02 0.18833622121E+02
 0.20397911689E+02 0.21938455582E+02 0.23383302247E+02 0.24656676192E+02 0.25686244453E+02
 0.26410346865E+02 0.26784173294E+02 0.26784179390E+02 0.26410364305E+02 0.25686270588E+02
 0.24656706360E+02 0.23383329905E+02 0.21938472971E+02 0.20397911279E+02 0.18833598607E+02
 0.17307491806E+02 0.15867400023E+02 0.14545325769E+02 0.13358192322E+02 0.12310375914E+02
 0.11397218214E+02 0.10608701254E+02 0.99326496648E+01 0.93570828639E+01 0.88715998375E+01
 0.84678986928E+01 0.81396848976E+01 0.78822815146E+01 0.76922156125E+01 0.75669435772E+01
 0.75047490812E+01 0.75047545646E+01 0.75669576994E+01 0.76922323476E+01 0.78822936818E+01
 0.81396872708E+01 0.84678904832E+01 0.88715855550E+01 0.93570711637E+01 0.99326506283E+01
 0.10608722919E+02 0.11397263766E+02 0.12310442361E+02 0.13358271062E+02 0.14545405029E+02
 0.13557205578E+02 0.14535518598E+02 0.15579707319E+02 0.16663121199E+02 0.17748916777E+02
 0.18791744778E+02 0.19741057373E+02 0.20545640142E+02 0.21158700425E+02 0.21542744455E+02
 0.21673553067E+02 0.21542755737E+02 0.21158718784E+02 0.20545658200E+02 0.19741066426E+02
 0.18791736962E+02 0.17748887190E+02 0.16663069278E+02 0.15579637191E+02 0.14535438355E+02
 0.13557125543E+02 0.12661120519E+02 0.11854925793E+02 0.11139270714E+02 0.10510527680E+02
 0.99629154778E+01 0.94901670370E+01 0.90865268309E+01 0.87471230061E+01 0.84678986928E+01
 0.82453557538E+01 0.80763446588E+01 0.79580390474E+01 0.78881064631E+01 0.78649827406E+01
 0.78881136865E+01 0.79580505024E+01 0.80763554029E+01 0.82453606487E+01 0.84678943330E+01
 0.87471091755E+01 0.90865070808E+01 0.94901480540E+01 0.99629055624E+01 0.10510534525E+02
 0.11139299286E+02 0.11854976850E+02 0.12661190073E+02 0.12013269385E+02 0.12654369189E+02
 0.13342541147E+02 0.14063750889E+02 0.14797321771E+02 0.15516315422E+02 0.16189021180E+02
 0.16781465369E+02 0.17260623821E+02 0.17597862129E+02 0.17772078888E+02 0.17772083895E+02
 0.17597874282E+02 0.17260635518E+02 0.16781466916E+02 0.16189004169E+02 0.15516275760E+02
 0.14797261274E+02 0.14063677088E+02 0.13342465317E+02 0.12654303267E+02 0.12013222928E+02
 0.11427200051E+02 0.10899404208E+02 0.10429728996E+02 0.10016245923E+02 0.96563203738E+01
 0.93472623417E+01 0.90865268309E+01 0.88715998375E+01 0.86997761758E+01 0.85680340685E+01
 0.84731382751E+01 0.84119868389E+01 0.83821026721E+01 0.83821042092E+01 0.84119908310E+01
 0.84731429359E+01 0.85680366681E+01 0.86997735260E+01 0.88715891113E+01 0.90865065949E+01
 0.93472336050E+01 0.96562871200E+01 0.10016214946E+02 0.10429708684E+02 0.10899402494E+02
 0.11427222147E+02 0.11034167749E+02 0.11422565827E+02 0.11844333533E+02 0.12292597429E+02
 0.12756525865E+02 0.13221110393E+02 0.13667621724E+02 0.14074799844E+02 0.14420682254E+02
 0.14684828365E+02 0.14850598582E+02 0.14907118795E+02 0.14850606257E+02 0.14684838067E+02
 0.14420684999E+02 0.14074787037E+02 0.13667588940E+02 0.13221059643E+02 0.12756465631E+02
 0.12292540300E+02 0.11844292397E+02 0.11422549943E+02 0.11034180069E+02 0.10682798401E+02
 0.10369712666E+02 0.10094842381E+02 0.98574131923E+01 0.96563203738E+01 0.94901670370E+01
 0.93570828639E+01 0.92544937728E+01 0.91790227222E+01 0.91266504576E+01 0.90931656637E+01
 0.90748198130E+01 0.90690142039E+01 0.90748186571E+01 0.90931639621E+01 0.91266486827E+01
 0.91790201859E+01 0.92544879780E+01 0.93570698234E+01 0.94901426091E+01 0.96562823585E+01
 0.98573631558E+01 0.10094786478E+02 0.10369660822E+02 0.10682761781E+02 0.10492408866E+02
 0.10679472072E+02 0.10892186814E+02 0.11127567934E+02 0.11380497825E+02 0.11643311221E+02
 0.11905722578E+02 0.12155222023E+02 0.12377972313E+02 0.12560126273E+02 0.12689377803E+02
 0.12756485451E+02 0.12756489243E+02 0.12689386494E+02 0.12560133045E+02 0.12377969430E+02
 0.12155204648E+02 0.11905691628E+02 0.11643274040E+02 0.11380466225E+02 0.11127554361E+02
 0.10892200070E+02 0.10679514114E+02 0.10492474031E+02 0.10332503906E+02 0.10200027179E+02
 0.10094842381E+02 0.10016245923E+02 0.99629154778E+01 0.99326496648E+01 0.99221142322E+01
 0.99267564706E+01 0.99410112595E+01 0.99588393286E+01 0.99745307533E+01 0.99836076926E+01
 0.99836055610E+01 0.99745256026E+01 0.99588340996E+01 0.99410086356E+01 0.99267567143E+01
 0.99221139531E+01 0.99326423402E+01 0.99628936423E+01 0.10016204392E+02 0.10094781081E+02
 0.10199952357E+02 0.10332427099E+02 0.10319036113E+02 0.10329797450E+02 0.10364409877E+02
 0.10421845612E+02 0.10500050694E+02 0.10595581271E+02 0.10703325109E+02 0.10816458549E+02
 0.10926747085E+02 0.11025220764E+02 0.11103157411E+02 0.11153213106E+02 0.11170476755E+02
 0.11153219395E+02 0.11103166033E+02 0.11025225865E+02 0.10926744144E+02 0.10816447258E+02
 0.10703310625E+02 0.10595573036E+02 0.10500059294E+02 0.10421878680E+02 0.10364468752E+02
 0.10329875994E+02 0.10319122142E+02 0.10332503906E+02 0.10369712666E+02 0.10429728996E+02
 0.10510527680E+02 0.10608701254E+02 0.10719155321E+02 0.10835034824E+02 0.10948002567E+02
 0.11048913287E+02 0.11128822836E+02 0.11180167481E+02 0.11197875628E+02 0.11180162144E+02
 0.11128815918E+02 0.11048910286E+02 0.10948007590E+02 0.10835047801E+02 0.10719170842E+02
 0.10608709807E+02 0.10510518795E+02 0.10429695294E+02 0.10369653126E+02 0.10332424946E+02
 0.10492409174E+02 0.10329799890E+02 0.10195345436E+02 0.10088793664E+02 0.10009342393E+02
 0.99555316097E+01 0.99250052204E+01 0.99142877645E+01 0.99187285130E+01 0.99327258724E+01
 0.99502653370E+01 0.99657025010E+01 0.99746320212E+01 0.99746345897E+01 0.99657088305E+01
 0.99502721361E+01 0.99327299948E+01 0.99187292629E+01 0.99142882571E+01 0.99250119345E+01
 0.99555521903E+01 0.10009382357E+02 0.10088853455E+02 0.10195419093E+02 0.10329875994E+02
 0.10492474031E+02 0.10682798401E+02 0.10899404208E+02 0.11139270714E+02 0.11397218214E+02
 0.11665474401E+02 0.11933576778E+02 0.12188748615E+02 0.12416795334E+02 0.12603451590E+02
 0.12735992576E+02 0.12804836061E+02 0.12804832676E+02 0.12735985053E+02 0.12603446602E+02
 0.12416800392E+02 0.12188768275E+02 0.11933609837E+02 0.11665513276E+02 0.11397250965E+02
 0.11139284907E+02 0.10899391196E+02 0.10682756491E+02 0.11034168229E+02 0.10679478093E+02
 0.10364417912E+02 0.10088799102E+02 0.98516733982E+01 0.96517089715E+01 0.94872490068E+01
 0.93561562083E+01 0.92556090693E+01 0.91820248752E+01 0.91312328870E+01 0.90989250926E+01
 0.90813009408E+01 0.90757390416E+01 0.90813026861E+01 0.90989277153E+01 0.91312354947E+01
 0.91820277279E+01 0.92556143822E+01 0.93561679297E+01 0.94872714936E+01 0.96517448060E+01
 0.98517214234E+01 0.10088853455E+02 0.10364468752E+02 0.10679514114E+02 0.11034180069E+02
 0.11427200051E+02 0.11854925793E+02 0.12310375914E+02 0.12782513317E+02 0.13256008708E+02
 0.13711684426E+02 0.14127710526E+02 0.14481469197E+02 0.14751850041E+02 0.14921626805E+02
 0.14979523899E+02 0.14921619455E+02 0.14751841041E+02 0.14481467592E+02 0.14127724917E+02
 0.13711719142E+02 0.13256061534E+02 0.12782575505E+02 0.12310434632E+02 0.11854968036E+02
 0.11427216616E+02 0.12013269837E+02 0.11422572207E+02 0.10892198615E+02 0.10421859088E+02
 0.10009352759E+02 0.96517135324E+01 0.93458883386E+01 0.90889614623E+01 0.88780598874E+01
 0.87101461979E+01 0.85819052415E+01 0.84898567671E+01 0.84307095627E+01 0.84018582126E+01
 0.84018568496E+01 0.84307059721E+01 0.84898524216E+01 0.85819025021E+01 0.87101479885E+01
 0.88780690000E+01 0.90889795499E+01 0.93459147945E+01 0.96517448060E+01 0.10009382357E+02
 0.10421878680E+02 0.10892200070E+02 0.11422549943E+02 0.12013222928E+02 0.12661120519E+02
 0.13358192322E+02 0.14090161634E+02 0.14835919440E+02 0.15567900782E+02 0.16253592276E+02
 0.16858090512E+02 0.17347399776E+02 0.17691988928E+02 0.17870063943E+02 0.17870058719E+02
 0.17691976245E+02 0.17347387542E+02 0.16858088789E+02 0.16253609736E+02 0.15567941570E+02
 0.14835981545E+02 0.14090237166E+02 0.13358269626E+02 0.12661187408E+02 0.13557205826E+02
 0.12654372453E+02 0.11844342754E+02 0.11127582352E+02 0.10500066102E+02 0.99555430168E+01
 0.94872539804E+01 0.90889616937E+01 0.87553379418E+01 0.84818985932E+01 0.82647475797E+01
 0.81003716748E+01 0.79856281885E+01 0.79179360164E+01 0.78955719497E+01 0.79179288864E+01
 0.79856167412E+01 0.81003605871E+01 0.82647417785E+01 0.84819014532E+01 0.87553498830E+01
 0.90889795499E+01 0.94872714936E+01 0.99555521903E+01 0.10500059294E+02 0.11127554361E+02
 0.11844292397E+02 0.12654303267E+02 0.13557125543E+02 0.14545325769E+02 0.15602297875E+02
 0.16700917478E+02 0.17803573020E+02 0.18863883091E+02 0.19830072205E+02 0.20649610017E+02
 0.21274439588E+02 0.21666010659E+02 0.21799401608E+02 0.21665998199E+02 0.21274419255E+02
 0.20649589814E+02 0.19830061477E+02 0.18863890133E+02 0.17803602814E+02 0.16700970317E+02
 0.15602369141E+02 0.14545406862E+02 0.15867467975E+02 0.14535516894E+02 0.13342542675E+02
 0.12292605044E+02 0.11380510247E+02 0.10595593780E+02 0.99250128152E+01 0.93561569366E+01
 0.88780559371E+01 0.84818945955E+01 0.81609042746E+01 0.79099611091E+01 0.77251770192E+01
 0.76036487491E+01 0.75433916764E+01 0.75433861653E+01 0.76036344841E+01 0.77251598871E+01
 0.79099481681E+01 0.81609007498E+01 0.84819014532E+01 0.88780690000E+01 0.93561679297E+01
 0.99250119345E+01 0.10595573036E+02 0.11380466225E+02 0.12292540300E+02 0.13342465317E+02
 0.14535438355E+02 0.15867400023E+02 0.17321419483E+02 0.18865089189E+02 0.20449772202E+02
 0.22012293037E+02 0.23479177384E+02 0.24772964976E+02 0.25819648079E+02 0.26556088573E+02
 0.26936372435E+02 0.26936365450E+02 0.26556068707E+02 0.25819618637E+02 0.24772931452E+02
 0.23479147067E+02 0.22012274105E+02 0.20449772173E+02 0.18865112976E+02 0.17321467656E+02
 0.19233187231E+02 0.17307533776E+02 0.15579700077E+02 0.14063747335E+02 0.12756528575E+02
 0.11643318338E+02 0.10703331630E+02 0.99142889573E+01 0.92556035352E+01 0.87101364391E+01
 0.82647381525E+01 0.79099558228E+01 0.76393253892E+01 0.74485998523E+01 0.73351280190E+01
 0.72974546425E+01 0.73351165745E+01 0.74485820711E+01 0.76393091630E+01 0.79099481681E+01
 0.82647417785E+01 0.87101479885E+01 0.92556143822E+01 0.99142882571E+01 0.10703310625E+02
 0.11643274040E+02 0.12756465631E+02 0.14063677088E+02 0.15579637191E+02 0.17307491806E+02
 0.19233174536E+02 0.21320865100E+02 0.23510849321E+02 0.25720819748E+02 0.27850971648E+02
 0.29792345813E+02 0.31438459856E+02 0.32697291347E+02 0.33489563937E+02 0.33760207420E+02
 0.33489553092E+02 0.32697268292E+02 0.31438423312E+02 0.29792296810E+02 0.27850915204E+02
 0.25720765056E+02 0.23510807919E+02 0.21320847636E+02 0.24031847179E+02 0.21301929745E+02
 0.18833609934E+02 0.16663107977E+02 0.14797312824E+02 0.13221108030E+02 0.11905724583E+02
 0.10816459895E+02 0.99187247844E+01 0.91820149436E+01 0.85818915672E+01 0.81003585972E+01
 0.77251682386E+01 0.74485965110E+01 0.72661372159E+01 0.71754076540E+01 0.71754023809E+01
 0.72661240414E+01 0.74485820711E+01 0.77251598871E+01 0.81003605871E+01 0.85819025021E+01
 0.91820277279E+01 0.99187292629E+01 0.10816447258E+02 0.11905691628E+02 0.13221059643E+02
 0.14797261274E+02 0.16663069278E+02 0.18833598607E+02 0.21301953633E+02 0.24031904628E+02
 0.26953580913E+02 0.29963904712E+02 0.32940969131E+02 0.35773123246E+02 0.38319571129E+02
 0.40419165496E+02 0.41919158765E+02 0.42701299298E+02 0.42701298618E+02 0.41919153801E+02
 0.40419148960E+02 0.38319535202E+02 0.35773064101E+02 0.32940890141E+02 0.29963816922E+02
 0.26953500364E+02 0.30699882865E+02 0.26928846709E+02 0.23468769472E+02 0.20397895769E+02
 0.17748900263E+02 0.15516303975E+02 0.13667617566E+02 0.12155222752E+02 0.10926747612E+02
 0.99327217331E+01 0.91312227510E+01 0.84898428559E+01 0.79856148659E+01 0.76036400336E+01
 0.73351252892E+01 0.71754086544E+01 0.71223654303E+01 0.71754023809E+01 0.73351165745E+01
 0.76036344841E+01 0.79856167412E+01 0.84898524216E+01 0.91312354947E+01 0.99327299948E+01
 0.10926744144E+02 0.12155204648E+02 0.13667588940E+02 0.15516275760E+02 0.17748887190E+02
 0.20397911279E+02 0.23468820295E+02 0.26928929907E+02 0.30699985800E+02 0.34688409912E+02
 0.38817556697E+02 0.42933509621E+02 0.46812066085E+02 0.50194515699E+02 0.52827522060E+02
 0.54500308709E+02 0.55074035357E+02 0.54500320684E+02 0.52827536842E+02 0.50194518730E+02
 0.46812043401E+02 0.42933453853E+02 0.38817470592E+02 0.34688306060E+02 0.39898958211E+02
 0.34657581865E+02 0.29910100790E+02 0.25652734176E+02 0.21938439910E+02 0.18791729172E+02
 0.16189011823E+02 0.14074798913E+02 0.12377977044E+02 0.11025225566E+02 0.99502651712E+01
 0.90989182127E+01 0.84306982926E+01 0.79179254059E+01 0.75433865402E+01 0.72974565799E+01
 0.71754086544E+01 0.71754076540E+01 0.72974546425E+01 0.75433861653E+01 0.79179288864E+01
 0.84307059721E+01 0.90989277153E+01 0.99502721361E+01 0.11025225865E+02 0.12377969430E+02
 0.14074787037E+02 0.16189004169E+02 0.18791736962E+02 0.21938472971E+02 0.25652796703E+02
 0.29910188649E+02 0.34657682112E+02 0.39899052633E+02 0.45545208671E+02 0.51375134025E+02
 0.57066821428E+02 0.62243838572E+02 0.66527950021E+02 0.69588650545E+02 0.71183082901E+02
 0.71183097609E+02 0.69588688796E+02 0.66527996190E+02 0.62243872719E+02 0.57066826089E+02