   2   2   1   0
  0.1971718E+02  0.2973210E-09  0.2973210E-09  0.5151017E-09  0.5000000E-15
  1.000000000000000E-004
  CAR 
 Pt-hcc                                  
     29.79353396    -48.08845004  301      7.42353985      1.00000000
    -48.088  0.0000E+00  0.0000E+00
    -47.829  0.0000E+00  0.0000E+00
    -47.569  0.0000E+00  0.0000E+00
    -47.310  0.0000E+00  0.0000E+00
    -47.050  0.0000E+00  0.0000E+00
    -46.790  0.0000E+00  0.0000E+00
    -46.531  0.0000E+00  0.0000E+00
    -46.271  0.0000E+00  0.0000E+00
    -46.012  0.0000E+00  0.0000E+00
    -45.752  0.0000E+00  0.0000E+00
    -45.492  0.0000E+00  0.0000E+00
    -45.233  0.0000E+00  0.0000E+00
    -44.973  0.0000E+00  0.0000E+00
    -44.714  0.1026E-07  0.2664E-08
    -44.454  0.1532E+00  0.3978E-01
    -44.194  0.3081E+00  0.1198E+00
    -43.935  0.8776E-03  0.1200E+00
    -43.675  0.0000E+00  0.1200E+00
    -43.416  0.0000E+00  0.1200E+00
    -43.156  0.0000E+00  0.1200E+00
    -42.896  0.0000E+00  0.1200E+00
    -42.637  0.0000E+00  0.1200E+00
    -42.377  0.0000E+00  0.1200E+00
    -42.117  0.0000E+00  0.1200E+00
    -41.858  0.0000E+00  0.1200E+00
    -41.598  0.0000E+00  0.1200E+00
    -41.339  0.0000E+00  0.1200E+00
    -41.079  0.0000E+00  0.1200E+00
    -40.819  0.0000E+00  0.1200E+00
    -40.560  0.0000E+00  0.1200E+00
    -40.300  0.0000E+00  0.1200E+00
    -40.041  0.0000E+00  0.1200E+00
    -39.781  0.0000E+00  0.1200E+00
    -39.521  0.0000E+00  0.1200E+00
    -39.262  0.0000E+00  0.1200E+00
    -39.002  0.0000E+00  0.1200E+00
    -38.743  0.0000E+00  0.1200E+00
    -38.483  0.0000E+00  0.1200E+00
    -38.223  0.0000E+00  0.1200E+00
    -37.964  0.0000E+00  0.1200E+00
    -37.704  0.0000E+00  0.1200E+00
    -37.445  0.0000E+00  0.1200E+00
    -37.185  0.0000E+00  0.1200E+00
    -36.925  0.0000E+00  0.1200E+00
    -36.666  0.0000E+00  0.1200E+00
    -36.406  0.0000E+00  0.1200E+00
    -36.147  0.0000E+00  0.1200E+00
    -35.887  0.0000E+00  0.1200E+00
    -35.627  0.0000E+00  0.1200E+00
    -35.368  0.0000E+00  0.1200E+00
    -35.108  0.0000E+00  0.1200E+00
    -34.849  0.0000E+00  0.1200E+00
    -34.589  0.0000E+00  0.1200E+00
    -34.329  0.0000E+00  0.1200E+00
    -34.070  0.0000E+00  0.1200E+00
    -33.810  0.0000E+00  0.1200E+00
    -33.550  0.0000E+00  0.1200E+00
    -33.291  0.0000E+00  0.1200E+00
    -33.031  0.0000E+00  0.1200E+00
    -32.772  0.0000E+00  0.1200E+00
    -32.512  0.0000E+00  0.1200E+00
    -32.252  0.0000E+00  0.1200E+00
    -31.993  0.0000E+00  0.1200E+00
    -31.733  0.0000E+00  0.1200E+00
    -31.474  0.0000E+00  0.1200E+00
    -31.214  0.0000E+00  0.1200E+00
    -30.954  0.0000E+00  0.1200E+00
    -30.695  0.0000E+00  0.1200E+00
    -30.435  0.0000E+00  0.1200E+00
    -30.176  0.0000E+00  0.1200E+00
    -29.916  0.0000E+00  0.1200E+00
    -29.656  0.0000E+00  0.1200E+00
    -29.397  0.0000E+00  0.1200E+00
    -29.137  0.0000E+00  0.1200E+00
    -28.878  0.0000E+00  0.1200E+00
    -28.618  0.0000E+00  0.1200E+00
    -28.358  0.0000E+00  0.1200E+00
    -28.099  0.0000E+00  0.1200E+00
    -27.839  0.0000E+00  0.1200E+00
    -27.580  0.0000E+00  0.1200E+00
    -27.320  0.0000E+00  0.1200E+00
    -27.060  0.0000E+00  0.1200E+00
    -26.801  0.0000E+00  0.1200E+00
    -26.541  0.0000E+00  0.1200E+00
    -26.281  0.0000E+00  0.1200E+00
    -26.022  0.0000E+00  0.1200E+00
    -25.762  0.0000E+00  0.1200E+00
    -25.503  0.0000E+00  0.1200E+00
    -25.243  0.0000E+00  0.1200E+00
    -24.983  0.0000E+00  0.1200E+00
    -24.724  0.0000E+00  0.1200E+00
    -24.464  0.0000E+00  0.1200E+00
    -24.205  0.0000E+00  0.1200E+00
    -23.945  0.0000E+00  0.1200E+00
    -23.685  0.0000E+00  0.1200E+00
    -23.426  0.0000E+00  0.1200E+00
    -23.166  0.0000E+00  0.1200E+00
    -22.907  0.0000E+00  0.1200E+00
    -22.647  0.0000E+00  0.1200E+00
    -22.387  0.0000E+00  0.1200E+00
    -22.128  0.0000E+00  0.1200E+00
    -21.868  0.0000E+00  0.1200E+00
    -21.609  0.0000E+00  0.1200E+00
    -21.349  0.0000E+00  0.1200E+00
    -21.089  0.0000E+00  0.1200E+00
    -20.830  0.0000E+00  0.1200E+00
    -20.570  0.0000E+00  0.1200E+00
    -20.311  0.0000E+00  0.1200E+00
    -20.051  0.0000E+00  0.1200E+00
    -19.791  0.0000E+00  0.1200E+00
    -19.532  0.0000E+00  0.1200E+00
    -19.272  0.0000E+00  0.1200E+00
    -19.013  0.0000E+00  0.1200E+00
    -18.753  0.0000E+00  0.1200E+00
    -18.493  0.0000E+00  0.1200E+00
    -18.234  0.0000E+00  0.1200E+00
    -17.974  0.0000E+00  0.1200E+00
    -17.714  0.0000E+00  0.1200E+00
    -17.455  0.0000E+00  0.1200E+00
    -17.195  0.0000E+00  0.1200E+00
    -16.936  0.0000E+00  0.1200E+00
    -16.676  0.0000E+00  0.1200E+00
    -16.416  0.0000E+00  0.1200E+00
    -16.157  0.0000E+00  0.1200E+00
    -15.897  0.0000E+00  0.1200E+00
    -15.638  0.0000E+00  0.1200E+00
    -15.378  0.0000E+00  0.1200E+00
    -15.118  0.0000E+00  0.1200E+00
    -14.859  0.0000E+00  0.1200E+00
    -14.599  0.0000E+00  0.1200E+00
    -14.340  0.0000E+00  0.1200E+00
    -14.080  0.0000E+00  0.1200E+00
    -13.820  0.0000E+00  0.1200E+00
    -13.561  0.0000E+00  0.1200E+00
    -13.301  0.0000E+00  0.1200E+00
    -13.042  0.0000E+00  0.1200E+00
    -12.782  0.0000E+00  0.1200E+00
    -12.522  0.0000E+00  0.1200E+00
    -12.263  0.0000E+00  0.1200E+00
    -12.003  0.0000E+00  0.1200E+00
    -11.744  0.0000E+00  0.1200E+00
    -11.484  0.0000E+00  0.1200E+00
    -11.224  0.0000E+00  0.1200E+00
    -10.965  0.0000E+00  0.1200E+00
    -10.705  0.0000E+00  0.1200E+00
    -10.445  0.0000E+00  0.1200E+00
    -10.186  0.0000E+00  0.1200E+00
     -9.926  0.0000E+00  0.1200E+00
     -9.667  0.0000E+00  0.1200E+00
     -9.407  0.0000E+00  0.1200E+00
     -9.147  0.0000E+00  0.1200E+00
     -8.888  0.0000E+00  0.1200E+00
     -8.628  0.0000E+00  0.1200E+00
     -8.369  0.0000E+00  0.1200E+00
     -8.109  0.0000E+00  0.1200E+00
     -7.849  0.0000E+00  0.1200E+00
     -7.590  0.0000E+00  0.1200E+00
     -7.330  0.0000E+00  0.1200E+00
     -7.071  0.0000E+00  0.1200E+00
     -6.811  0.0000E+00  0.1200E+00
     -6.551  0.0000E+00  0.1200E+00
     -6.292  0.0000E+00  0.1200E+00
     -6.032  0.0000E+00  0.1200E+00
     -5.773  0.0000E+00  0.1200E+00
     -5.513  0.0000E+00  0.1200E+00
     -5.253  0.0000E+00  0.1200E+00
     -4.994  0.0000E+00  0.1200E+00
     -4.734  0.0000E+00  0.1200E+00
     -4.475  0.0000E+00  0.1200E+00
     -4.215  0.0000E+00  0.1200E+00
     -3.955  0.0000E+00  0.1200E+00
     -3.696  0.0000E+00  0.1200E+00
     -3.436  0.0000E+00  0.1200E+00
     -3.177  0.0000E+00  0.1200E+00
     -2.917  0.0000E+00  0.1200E+00
     -2.657  0.0000E+00  0.1200E+00
     -2.398  0.0000E+00  0.1200E+00
     -2.138  0.0000E+00  0.1200E+00
     -1.878  0.0000E+00  0.1200E+00
     -1.619  0.0000E+00  0.1200E+00
     -1.359  0.0000E+00  0.1200E+00
     -1.100  0.0000E+00  0.1200E+00
     -0.840  0.0000E+00  0.1200E+00
     -0.580  0.0000E+00  0.1200E+00
     -0.321  0.3084E-11  0.1200E+00
     -0.061  0.1182E-03  0.1200E+00
      0.198  0.6786E-03  0.1202E+00
      0.458  0.1418E-02  0.1206E+00
      0.718  0.1419E-02  0.1209E+00
      0.977  0.1955E-02  0.1215E+00
      1.237  0.3752E-02  0.1224E+00
      1.496  0.1358E-02  0.1228E+00
      1.756  0.3860E-02  0.1238E+00
      2.016  0.4301E-02  0.1249E+00
      2.275  0.6577E-02  0.1266E+00
      2.535  0.6953E-02  0.1284E+00
      2.794  0.1580E-01  0.1325E+00
      3.054  0.2753E-01  0.1397E+00
      3.314  0.2501E-01  0.1462E+00
      3.573  0.2798E-01  0.1534E+00
      3.833  0.2589E-01  0.1601E+00
      4.092  0.4895E-01  0.1728E+00
      4.352  0.3783E-01  0.1827E+00
      4.612  0.4336E-01  0.1939E+00
      4.871  0.3875E-01  0.2040E+00
      5.131  0.4838E-01  0.2165E+00
      5.391  0.5242E-01  0.2302E+00
      5.650  0.5297E-01  0.2439E+00
      5.910  0.4754E-01  0.2562E+00
      6.169  0.3237E-01  0.2646E+00
      6.429  0.3528E-01  0.2738E+00
      6.689  0.4312E-01  0.2850E+00
      6.948  0.3430E-01  0.2939E+00
      7.208  0.4354E-01  0.3052E+00
      7.467  0.6756E-01  0.3228E+00
      7.727  0.3300E-01  0.3313E+00
      7.987  0.9939E-02  0.3339E+00
      8.246  0.7577E-02  0.3359E+00
      8.506  0.3617E-02  0.3368E+00
      8.765  0.5181E-03  0.3369E+00
      9.025  0.9641E-02  0.3394E+00
      9.285  0.1521E-01  0.3434E+00
      9.544  0.4686E-02  0.3446E+00
      9.804  0.3342E-02  0.3455E+00
     10.063  0.5560E-02  0.3469E+00
     10.323  0.6200E-02  0.3485E+00
     10.583  0.6353E-02  0.3502E+00
     10.842  0.5797E-02  0.3517E+00
     11.102  0.1007E-01  0.3543E+00
     11.361  0.4748E-02  0.3555E+00
     11.621  0.8517E-02  0.3577E+00
     11.881  0.4468E-02  0.3589E+00
     12.140  0.3719E-02  0.3599E+00
     12.400  0.3875E-02  0.3609E+00
     12.659  0.1139E-01  0.3638E+00
     12.919  0.5879E-02  0.3654E+00
     13.179  0.9332E-02  0.3678E+00
     13.438  0.7887E-02  0.3698E+00
     13.698  0.5907E-02  0.3714E+00
     13.958  0.1174E-01  0.3744E+00
     14.217  0.6112E-02  0.3760E+00
     14.477  0.6915E-02  0.3778E+00
     14.736  0.5104E-02  0.3791E+00
     14.996  0.5116E-02  0.3804E+00
     15.256  0.1280E-01  0.3838E+00
     15.515  0.9651E-02  0.3863E+00
     15.775  0.4110E-02  0.3873E+00
     16.034  0.7892E-02  0.3894E+00
     16.294  0.8073E-02  0.3915E+00
     16.554  0.9188E-02  0.3939E+00
     16.813  0.6357E-02  0.3955E+00
     17.073  0.5750E-02  0.3970E+00
     17.332  0.1014E-01  0.3996E+00
     17.592  0.4790E-02  0.4009E+00
     17.852  0.7505E-02  0.4028E+00
     18.111  0.8475E-02  0.4050E+00
     18.371  0.1054E-01  0.4078E+00
     18.630  0.1337E-01  0.4112E+00
     18.890  0.6858E-02  0.4130E+00
     19.150  0.7096E-02  0.4149E+00
     19.409  0.6279E-02  0.4165E+00
     19.669  0.3994E-02  0.4175E+00
     19.928  0.1682E-01  0.4219E+00
     20.188  0.2055E-01  0.4272E+00
     20.448  0.1455E-01  0.4310E+00
     20.707  0.6882E-02  0.4328E+00
     20.967  0.1558E-01  0.4368E+00
     21.227  0.1025E-01  0.4395E+00
     21.486  0.1400E-01  0.4431E+00
     21.746  0.1995E-01  0.4483E+00
     22.005  0.1059E-01  0.4511E+00
     22.265  0.1386E-01  0.4547E+00
     22.525  0.8667E-02  0.4569E+00
     22.784  0.1421E-01  0.4606E+00
     23.044  0.8295E-02  0.4628E+00
     23.303  0.1771E-01  0.4674E+00
     23.563  0.7046E-02  0.4692E+00
     23.823  0.7701E-02  0.4712E+00
     24.082  0.4895E-02  0.4725E+00
     24.342  0.6640E-02  0.4742E+00
     24.601  0.6485E-02  0.4759E+00
     24.861  0.8269E-02  0.4780E+00
     25.121  0.3194E-02  0.4788E+00
     25.380  0.2357E-02  0.4794E+00
     25.640  0.5886E-03  0.4796E+00
     25.899  0.7375E-03  0.4798E+00
     26.159  0.6110E-03  0.4800E+00
     26.419  0.1923E-03  0.4800E+00
     26.678  0.0000E+00  0.4800E+00
     26.938  0.0000E+00  0.4800E+00
     27.197  0.0000E+00  0.4800E+00
     27.457  0.0000E+00  0.4800E+00
     27.717  0.0000E+00  0.4800E+00
     27.976  0.0000E+00  0.4800E+00
     28.236  0.0000E+00  0.4800E+00
     28.496  0.0000E+00  0.4800E+00
     28.755  0.0000E+00  0.4800E+00
     29.015  0.0000E+00  0.4800E+00
     29.274  0.0000E+00  0.4800E+00
     29.534  0.0000E+00  0.4800E+00
     29.794  0.0000E+00  0.4800E+00
     29.79353396    -48.08845004  301      7.42353985      1.00000000
    -48.088  0.0000E+00  0.0000E+00  0.0000E+00  0.0000E+00  0.0000E+00  0.0000E+00  0.0000E+00  0.0000E+00  0.0000E+00
    -47.829  0.0000E+00  0.0000E+00  0.0000E+00  0.0000E+00  0.0000E+00  0.0000E+00  0.0000E+00  0.0000E+00  0.0000E+00
    -47.569  0.0000E+00  0.0000E+00  0.0000E+00  0.0000E+00  0.0000E+00  0.0000E+00  0.0000E+00  0.0000E+00  0.0000E+00
    -47.310  0.0000E+00  0.0000E+00  0.0000E+00  0.0000E+00  0.0000E+00  0.0000E+00  0.0000E+00  0.0000E+00  0.0000E+00
    -47.050  0.0000E+00  0.0000E+00  0.0000E+00  0.0000E+00  0.0000E+00  0.0000E+00  0.0000E+00  0.0000E+00  0.0000E+00
    -46.790  0.0000E+00  0.0000E+00  0.0000E+00  0.0000E+00  0.0000E+00  0.0000E+00  0.0000E+00  0.0000E+00  0.0000E+00
    -46.531  0.0000E+00  0.0000E+00  0.0000E+00  0.0000E+00  0.0000E+00  0.0000E+00  0.0000E+00  0.0000E+00  0.0000E+00
    -46.271  0.0000E+00  0.0000E+00  0.0000E+00  0.0000E+00  0.0000E+00  0.0000E+00  0.0000E+00  0.0000E+00  0.0000E+00
    -46.012  0.0000E+00  0.0000E+00  0.0000E+00  0.0000E+00  0.0000E+00  0.0000E+00  0.0000E+00  0.0000E+00  0.0000E+00
    -45.752  0.0000E+00  0.0000E+00  0.0000E+00  0.0000E+00  0.0000E+00  0.0000E+00  0.0000E+00  0.0000E+00  0.0000E+00
    -45.492  0.0000E+00  0.0000E+00  0.0000E+00  0.0000E+00  0.0000E+00  0.0000E+00  0.0000E+00  0.0000E+00  0.0000E+00
    -45.233  0.0000E+00  0.0000E+00  0.0000E+00  0.0000E+00  0.0000E+00  0.0000E+00  0.0000E+00  0.0000E+00  0.0000E+00
    -44.973  0.0000E+00  0.0000E+00  0.0000E+00  0.0000E+00  0.0000E+00  0.0000E+00  0.0000E+00  0.0000E+00  0.0000E+00
    -44.714  0.8361E-12  0.2509E-06  0.4783E-08  0.2509E-06  0.3655E-12  0.4970E-13  0.6302E-12  0.4970E-13  0.3655E-12
    -44.454  0.3355E-04  0.3755E+01  0.7008E-01  0.3755E+01  0.1596E-04  0.1151E-05  0.1695E-04  0.1151E-05  0.1596E-04
    -44.194  0.2495E-04  0.3880E+01  0.7522E+01  0.3880E+01  0.1738E-04  0.1023E-04  0.1353E-04  0.1023E-04  0.1738E-04
    -43.935  0.2945E-07  0.1312E-03  0.4329E-01  0.1312E-03  0.2274E-08  0.2787E-07  0.2199E-07  0.2787E-07  0.2274E-08
    -43.675  0.0000E+00  0.0000E+00  0.0000E+00  0.0000E+00  0.0000E+00  0.0000E+00  0.0000E+00  0.0000E+00  0.0000E+00
    -43.416  0.0000E+00  0.0000E+00  0.0000E+00  0.0000E+00  0.0000E+00  0.0000E+00  0.0000E+00  0.0000E+00  0.0000E+00
    -43.156  0.0000E+00  0.0000E+00  0.0000E+00  0.0000E+00  0.0000E+00  0.0000E+00  0.0000E+00  0.0000E+00  0.0000E+00
    -42.896  0.0000E+00  0.0000E+00  0.0000E+00  0.0000E+00  0.0000E+00  0.0000E+00  0.0000E+00  0.0000E+00  0.0000E+00
    -42.637  0.0000E+00  0.0000E+00  0.0000E+00  0.0000E+00  0.0000E+00  0.0000E+00  0.0000E+00  0.0000E+00  0.0000E+00
    -42.377  0.0000E+00  0.0000E+00  0.0000E+00  0.0000E+00  0.0000E+00  0.0000E+00  0.0000E+00  0.0000E+00  0.0000E+00
    -42.117  0.0000E+00  0.0000E+00  0.0000E+00  0.0000E+00  0.0000E+00  0.0000E+00  0.0000E+00  0.0000E+00  0.0000E+00
    -41.858  0.0000E+00  0.0000E+00  0.0000E+00  0.0000E+00  0.0000E+00  0.0000E+00  0.0000E+00  0.0000E+00  0.0000E+00
    -41.598  0.0000E+00  0.0000E+00  0.0000E+00  0.0000E+00  0.0000E+00  0.0000E+00  0.0000E+00  0.0000E+00  0.0000E+00
    -41.339  0.0000E+00  0.0000E+00  0.0000E+00  0.0000E+00  0.0000E+00  0.0000E+00  0.0000E+00  0.0000E+00  0.0000E+00
    -41.079  0.0000E+00  0.0000E+00  0.0000E+00  0.0000E+00  0.0000E+00  0.0000E+00  0.0000E+00  0.0000E+00  0.0000E+00
    -40.819  0.0000E+00  0.0000E+00  0.0000E+00  0.0000E+00  0.0000E+00  0.0000E+00  0.0000E+00  0.0000E+00  0.0000E+00
    -40.560  0.0000E+00  0.0000E+00  0.0000E+00  0.0000E+00  0.0000E+00  0.0000E+00  0.0000E+00  0.0000E+00  0.0000E+00
    -40.300  0.0000E+00  0.0000E+00  0.0000E+00  0.0000E+00  0.0000E+00  0.0000E+00  0.0000E+00  0.0000E+00  0.0000E+00
    -40.041  0.0000E+00  0.0000E+00  0.0000E+00  0.0000E+00  0.0000E+00  0.0000E+00  0.0000E+00  0.0000E+00  0.0000E+00
    -39.781  0.0000E+00  0.0000E+00  0.0000E+00  0.0000E+00  0.0000E+00  0.0000E+00  0.0000E+00  0.0000E+00  0.0000E+00
    -39.521  0.0000E+00  0.0000E+00  0.0000E+00  0.0000E+00  0.0000E+00  0.0000E+00  0.0000E+00  0.0000E+00  0.0000E+00
    -39.262  0.0000E+00  0.0000E+00  0.0000E+00  0.0000E+00  0.0000E+00  0.0000E+00  0.0000E+00  0.0000E+00  0.0000E+00
    -39.002  0.0000E+00  0.0000E+00  0.0000E+00  0.0000E+00  0.0000E+00  0.0000E+00  0.0000E+00  0.0000E+00  0.0000E+00
    -38.743  0.0000E+00  0.0000E+00  0.0000E+00  0.0000E+00  0.0000E+00  0.0000E+00  0.0000E+00  0.0000E+00  0.0000E+00
    -38.483  0.0000E+00  0.0000E+00  0.0000E+00  0.0000E+00  0.0000E+00  0.0000E+00  0.0000E+00  0.0000E+00  0.0000E+00
    -38.223  0.0000E+00  0.0000E+00  0.0000E+00  0.0000E+00  0.0000E+00  0.0000E+00  0.0000E+00  0.0000E+00  0.0000E+00
    -37.964  0.0000E+00  0.0000E+00  0.0000E+00  0.0000E+00  0.0000E+00  0.0000E+00  0.0000E+00  0.0000E+00  0.0000E+00
    -37.704  0.0000E+00  0.0000E+00  0.0000E+00  0.0000E+00  0.0000E+00  0.0000E+00  0.0000E+00  0.0000E+00  0.0000E+00
    -37.445  0.0000E+00  0.0000E+00  0.0000E+00  0.0000E+00  0.0000E+00  0.0000E+00  0.0000E+00  0.0000E+00  0.0000E+00
    -37.185  0.0000E+00  0.0000E+00  0.0000E+00  0.0000E+00  0.0000E+00  0.0000E+00  0.0000E+00  0.0000E+00  0.0000E+00
    -36.925  0.0000E+00  0.0000E+00  0.0000E+00  0.0000E+00  0.0000E+00  0.0000E+00  0.0000E+00  0.0000E+00  0.0000E+00
    -36.666  0.0000E+00  0.0000E+00  0.0000E+00  0.0000E+00  0.0000E+00  0.0000E+00  0.0000E+00  0.0000E+00  0.0000E+00
    -36.406  0.0000E+00  0.0000E+00  0.0000E+00  0.0000E+00  0.0000E+00  0.0000E+00  0.0000E+00  0.0000E+00  0.0000E+00
    -36.147  0.0000E+00  0.0000E+00  0.0000E+00  0.0000E+00  0.0000E+00  0.0000E+00  0.0000E+00  0.0000E+00  0.0000E+00
    -35.887  0.0000E+00  0.0000E+00  0.0000E+00  0.0000E+00  0.0000E+00  0.0000E+00  0.0000E+00  0.0000E+00  0.0000E+00
    -35.627  0.0000E+00  0.0000E+00  0.0000E+00  0.0000E+00  0.0000E+00  0.0000E+00  0.0000E+00  0.0000E+00  0.0000E+00
    -35.368  0.0000E+00  0.0000E+00  0.0000E+00  0.0000E+00  0.0000E+00  0.0000E+00  0.0000E+00  0.0000E+00  0.0000E+00
    -35.108  0.0000E+00  0.0000E+00  0.0000E+00  0.0000E+00  0.0000E+00  0.0000E+00  0.0000E+00  0.0000E+00  0.0000E+00
    -34.849  0.0000E+00  0.0000E+00  0.0000E+00  0.0000E+00  0.0000E+00  0.0000E+00  0.0000E+00  0.0000E+00  0.0000E+00
    -34.589  0.0000E+00  0.0000E+00  0.0000E+00  0.0000E+00  0.0000E+00  0.0000E+00  0.0000E+00  0.0000E+00  0.0000E+00
    -34.329  0.0000E+00  0.0000E+00  0.0000E+00  0.0000E+00  0.0000E+00  0.0000E+00  0.0000E+00  0.0000E+00  0.0000E+00
    -34.070  0.0000E+00  0.0000E+00  0.0000E+00  0.0000E+00  0.0000E+00  0.0000E+00  0.0000E+00  0.0000E+00  0.0000E+00
    -33.810  0.0000E+00  0.0000E+00  0.0000E+00  0.0000E+00  0.0000E+00  0.0000E+00  0.0000E+00  0.0000E+00  0.0000E+00
    -33.550  0.0000E+00  0.0000E+00  0.0000E+00  0.0000E+00  0.0000E+00  0.0000E+00  0.0000E+00  0.0000E+00  0.0000E+00
    -33.291  0.0000E+00  0.0000E+00  0.0000E+00  0.0000E+00  0.0000E+00  0.0000E+00  0.0000E+00  0.0000E+00  0.0000E+00
    -33.031  0.0000E+00  0.0000E+00  0.0000E+00  0.0000E+00  0.0000E+00  0.0000E+00  0.0000E+00  0.0000E+00  0.0000E+00
    -32.772  0.0000E+00  0.0000E+00  0.0000E+00  0.0000E+00  0.0000E+00  0.0000E+00  0.0000E+00  0.0000E+00  0.0000E+00
    -32.512  0.0000E+00  0.0000E+00  0.0000E+00  0.0000E+00  0.0000E+00  0.0000E+00  0.0000E+00  0.0000E+00  0.0000E+00
    -32.252  0.0000E+00  0.0000E+00  0.0000E+00  0.0000E+00  0.0000E+00  0.0000E+00  0.0000E+00  0.0000E+00  0.0000E+00
    -31.993  0.0000E+00  0.0000E+00  0.0000E+00  0.0000E+00  0.0000E+00  0.0000E+00  0.0000E+00  0.0000E+00  0.0000E+00
    -31.733  0.0000E+00  0.0000E+00  0.0000E+00  0.0000E+00  0.0000E+00  0.0000E+00  0.0000E+00  0.0000E+00  0.0000E+00
    -31.474  0.0000E+00  0.0000E+00  0.0000E+00  0.0000E+00  0.0000E+00  0.0000E+00  0.0000E+00  0.0000E+00  0.0000E+00
    -31.214  0.0000E+00  0.0000E+00  0.0000E+00  0.0000E+00  0.0000E+00  0.0000E+00  0.0000E+00  0.0000E+00  0.0000E+00
    -30.954  0.0000E+00  0.0000E+00  0.0000E+00  0.0000E+00  0.0000E+00  0.0000E+00  0.0000E+00  0.0000E+00  0.0000E+00
    -30.695  0.0000E+00  0.0000E+00  0.0000E+00  0.0000E+00  0.0000E+00  0.0000E+00  0.0000E+00  0.0000E+00  0.0000E+00
    -30.435  0.0000E+00  0.0000E+00  0.0000E+00  0.0000E+00  0.0000E+00  0.0000E+00  0.0000E+00  0.0000E+00  0.0000E+00
    -30.176  0.0000E+00  0.0000E+00  0.0000E+00  0.0000E+00  0.0000E+00  0.0000E+00  0.0000E+00  0.0000E+00  0.0000E+00
    -29.916  0.0000E+00  0.0000E+00  0.0000E+00  0.0000E+00  0.0000E+00  0.0000E+00  0.0000E+00  0.0000E+00  0.0000E+00
    -29.656  0.0000E+00  0.0000E+00  0.0000E+00  0.0000E+00  0.0000E+00  0.0000E+00  0.0000E+00  0.0000E+00  0.0000E+00
    -29.397  0.0000E+00  0.0000E+00  0.0000E+00  0.0000E+00  0.0000E+00  0.0000E+00  0.0000E+00  0.0000E+00  0.0000E+00
    -29.137  0.0000E+00  0.0000E+00  0.0000E+00  0.0000E+00  0.0000E+00  0.0000E+00  0.0000E+00  0.0000E+00  0.0000E+00
    -28.878  0.0000E+00  0.0000E+00  0.0000E+00  0.0000E+00  0.0000E+00  0.0000E+00  0.0000E+00  0.0000E+00  0.0000E+00
    -28.618  0.0000E+00  0.0000E+00  0.0000E+00  0.0000E+00  0.0000E+00  0.0000E+00  0.0000E+00  0.0000E+00  0.0000E+00
    -28.358  0.0000E+00  0.0000E+00  0.0000E+00  0.0000E+00  0.0000E+00  0.0000E+00  0.0000E+00  0.0000E+00  0.0000E+00
    -28.099  0.0000E+00  0.0000E+00  0.0000E+00  0.0000E+00  0.0000E+00  0.0000E+00  0.0000E+00  0.0000E+00  0.0000E+00
    -27.839  0.0000E+00  0.0000E+00  0.0000E+00  0.0000E+00  0.0000E+00  0.0000E+00  0.0000E+00  0.0000E+00  0.0000E+00
    -27.580  0.0000E+00  0.0000E+00  0.0000E+00  0.0000E+00  0.0000E+00  0.0000E+00  0.0000E+00  0.0000E+00  0.0000E+00
    -27.320  0.0000E+00  0.0000E+00  0.0000E+00  0.0000E+00  0.0000E+00  0.0000E+00  0.0000E+00  0.0000E+00  0.0000E+00
    -27.060  0.0000E+00  0.0000E+00  0.0000E+00  0.0000E+00  0.0000E+00  0.0000E+00  0.0000E+00  0.0000E+00  0.0000E+00
    -26.801  0.0000E+00  0.0000E+00  0.0000E+00  0.0000E+00  0.0000E+00  0.0000E+00  0.0000E+00  0.0000E+00  0.0000E+00
    -26.541  0.0000E+00  0.0000E+00  0.0000E+00  0.0000E+00  0.0000E+00  0.0000E+00  0.0000E+00  0.0000E+00  0.0000E+00
    -26.281  0.0000E+00  0.0000E+00  0.0000E+00  0.0000E+00  0.0000E+00  0.0000E+00  0.0000E+00  0.0000E+00  0.0000E+00
    -26.022  0.0000E+00  0.0000E+00  0.0000E+00  0.0000E+00  0.0000E+00  0.0000E+00  0.0000E+00  0.0000E+00  0.0000E+00
    -25.762  0.0000E+00  0.0000E+00  0.0000E+00  0.0000E+00  0.0000E+00  0.0000E+00  0.0000E+00  0.0000E+00  0.0000E+00
    -25.503  0.0000E+00  0.0000E+00  0.0000E+00  0.0000E+00  0.0000E+00  0.0000E+00  0.0000E+00  0.0000E+00  0.0000E+00
    -25.243  0.0000E+00  0.0000E+00  0.0000E+00  0.0000E+00  0.0000E+00  0.0000E+00  0.0000E+00  0.0000E+00  0.0000E+00
    -24.983  0.0000E+00  0.0000E+00  0.0000E+00  0.0000E+00  0.0000E+00  0.0000E+00  0.0000E+00  0.0000E+00  0.0000E+00
    -24.724  0.0000E+00  0.0000E+00  0.0000E+00  0.0000E+00  0.0000E+00  0.0000E+00  0.0000E+00  0.0000E+00  0.0000E+00
    -24.464  0.0000E+00  0.0000E+00  0.0000E+00  0.0000E+00  0.0000E+00  0.0000E+00  0.0000E+00  0.0000E+00  0.0000E+00
    -24.205  0.0000E+00  0.0000E+00  0.0000E+00  0.0000E+00  0.0000E+00  0.0000E+00  0.0000E+00  0.0000E+00  0.0000E+00
    -23.945  0.0000E+00  0.0000E+00  0.0000E+00  0.0000E+00  0.0000E+00  0.0000E+00  0.0000E+00  0.0000E+00  0.0000E+00
    -23.685  0.0000E+00  0.0000E+00  0.0000E+00  0.0000E+00  0.0000E+00  0.0000E+00  0.0000E+00  0.0000E+00  0.0000E+00
    -23.426  0.0000E+00  0.0000E+00  0.0000E+00  0.0000E+00  0.0000E+00  0.0000E+00  0.0000E+00  0.0000E+00  0.0000E+00
    -23.166  0.0000E+00  0.0000E+00  0.0000E+00  0.0000E+00  0.0000E+00  0.0000E+00  0.0000E+00  0.0000E+00  0.0000E+00
    -22.907  0.0000E+00  0.0000E+00  0.0000E+00  0.0000E+00  0.0000E+00  0.0000E+00  0.0000E+00  0.0000E+00  0.0000E+00
    -22.647  0.0000E+00  0.0000E+00  0.0000E+00  0.0000E+00  0.0000E+00  0.0000E+00  0.0000E+00  0.0000E+00  0.0000E+00
    -22.387  0.0000E+00  0.0000E+00  0.0000E+00  0.0000E+00  0.0000E+00  0.0000E+00  0.0000E+00  0.0000E+00  0.0000E+00
    -22.128  0.0000E+00  0.0000E+00  0.0000E+00  0.0000E+00  0.0000E+00  0.0000E+00  0.0000E+00  0.0000E+00  0.0000E+00
    -21.868  0.0000E+00  0.0000E+00  0.0000E+00  0.0000E+00  0.0000E+00  0.0000E+00  0.0000E+00  0.0000E+00  0.0000E+00
    -21.609  0.0000E+00  0.0000E+00  0.0000E+00  0.0000E+00  0.0000E+00  0.0000E+00  0.0000E+00  0.0000E+00  0.0000E+00
    -21.349  0.0000E+00  0.0000E+00  0.0000E+00  0.0000E+00  0.0000E+00  0.0000E+00  0.0000E+00  0.0000E+00  0.0000E+00
    -21.089  0.0000E+00  0.0000E+00  0.0000E+00  0.0000E+00  0.0000E+00  0.0000E+00  0.0000E+00  0.0000E+00  0.0000E+00
    -20.830  0.0000E+00  0.0000E+00  0.0000E+00  0.0000E+00  0.0000E+00  0.0000E+00  0.0000E+00  0.0000E+00  0.0000E+00
    -20.570  0.0000E+00  0.0000E+00  0.0000E+00  0.0000E+00  0.0000E+00  0.0000E+00  0.0000E+00  0.0000E+00  0.0000E+00
    -20.311  0.0000E+00  0.0000E+00  0.0000E+00  0.0000E+00  0.0000E+00  0.0000E+00  0.0000E+00  0.0000E+00  0.0000E+00
    -20.051  0.0000E+00  0.0000E+00  0.0000E+00  0.0000E+00  0.0000E+00  0.0000E+00  0.0000E+00  0.0000E+00  0.0000E+00
    -19.791  0.0000E+00  0.0000E+00  0.0000E+00  0.0000E+00  0.0000E+00  0.0000E+00  0.0000E+00  0.0000E+00  0.0000E+00
    -19.532  0.0000E+00  0.0000E+00  0.0000E+00  0.0000E+00  0.0000E+00  0.0000E+00  0.0000E+00  0.0000E+00  0.0000E+00
    -19.272  0.0000E+00  0.0000E+00  0.0000E+00  0.0000E+00  0.0000E+00  0.0000E+00  0.0000E+00  0.0000E+00  0.0000E+00
    -19.013  0.0000E+00  0.0000E+00  0.0000E+00  0.0000E+00  0.0000E+00  0.0000E+00  0.0000E+00  0.0000E+00  0.0000E+00
    -18.753  0.0000E+00  0.0000E+00  0.0000E+00  0.0000E+00  0.0000E+00  0.0000E+00  0.0000E+00  0.0000E+00  0.0000E+00
    -18.493  0.0000E+00  0.0000E+00  0.0000E+00  0.0000E+00  0.0000E+00  0.0000E+00  0.0000E+00  0.0000E+00  0.0000E+00
    -18.234  0.0000E+00  0.0000E+00  0.0000E+00  0.0000E+00  0.0000E+00  0.0000E+00  0.0000E+00  0.0000E+00  0.0000E+00
    -17.974  0.0000E+00  0.0000E+00  0.0000E+00  0.0000E+00  0.0000E+00  0.0000E+00  0.0000E+00  0.0000E+00  0.0000E+00
    -17.714  0.0000E+00  0.0000E+00  0.0000E+00  0.0000E+00  0.0000E+00  0.0000E+00  0.0000E+00  0.0000E+00  0.0000E+00
    -17.455  0.0000E+00  0.0000E+00  0.0000E+00  0.0000E+00  0.0000E+00  0.0000E+00  0.0000E+00  0.0000E+00  0.0000E+00
    -17.195  0.0000E+00  0.0000E+00  0.0000E+00  0.0000E+00  0.0000E+00  0.0000E+00  0.0000E+00  0.0000E+00  0.0000E+00
    -16.936  0.0000E+00  0.0000E+00  0.0000E+00  0.0000E+00  0.0000E+00  0.0000E+00  0.0000E+00  0.0000E+00  0.0000E+00
    -16.676  0.0000E+00  0.0000E+00  0.0000E+00  0.0000E+00  0.0000E+00  0.0000E+00  0.0000E+00  0.0000E+00  0.0000E+00
    -16.416  0.0000E+00  0.0000E+00  0.0000E+00  0.0000E+00  0.0000E+00  0.0000E+00  0.0000E+00  0.0000E+00  0.0000E+00
    -16.157  0.0000E+00  0.0000E+00  0.0000E+00  0.0000E+00  0.0000E+00  0.0000E+00  0.0000E+00  0.0000E+00  0.0000E+00
    -15.897  0.0000E+00  0.0000E+00  0.0000E+00  0.0000E+00  0.0000E+00  0.0000E+00  0.0000E+00  0.0000E+00  0.0000E+00
    -15.638  0.0000E+00  0.0000E+00  0.0000E+00  0.0000E+00  0.0000E+00  0.0000E+00  0.0000E+00  0.0000E+00  0.0000E+00
    -15.378  0.0000E+00  0.0000E+00  0.0000E+00  0.0000E+00  0.0000E+00  0.0000E+00  0.0000E+00  0.0000E+00  0.0000E+00
    -15.118  0.0000E+00  0.0000E+00  0.0000E+00  0.0000E+00  0.0000E+00  0.0000E+00  0.0000E+00  0.0000E+00  0.0000E+00
    -14.859  0.0000E+00  0.0000E+00  0.0000E+00  0.0000E+00  0.0000E+00  0.0000E+00  0.0000E+00  0.0000E+00  0.0000E+00
    -14.599  0.0000E+00  0.0000E+00  0.0000E+00  0.0000E+00  0.0000E+00  0.0000E+00  0.0000E+00  0.0000E+00  0.0000E+00
    -14.340  0.0000E+00  0.0000E+00  0.0000E+00  0.0000E+00  0.0000E+00  0.0000E+00  0.0000E+00  0.0000E+00  0.0000E+00
    -14.080  0.0000E+00  0.0000E+00  0.0000E+00  0.0000E+00  0.0000E+00  0.0000E+00  0.0000E+00  0.0000E+00  0.0000E+00
    -13.820  0.0000E+00  0.0000E+00  0.0000E+00  0.0000E+00  0.0000E+00  0.0000E+00  0.0000E+00  0.0000E+00  0.0000E+00
    -13.561  0.0000E+00  0.0000E+00  0.0000E+00  0.0000E+00  0.0000E+00  0.0000E+00  0.0000E+00  0.0000E+00  0.0000E+00
    -13.301  0.0000E+00  0.0000E+00  0.0000E+00  0.0000E+00  0.0000E+00  0.0000E+00  0.0000E+00  0.0000E+00  0.0000E+00
    -13.042  0.0000E+00  0.0000E+00  0.0000E+00  0.0000E+00  0.0000E+00  0.0000E+00  0.0000E+00  0.0000E+00  0.0000E+00
    -12.782  0.0000E+00  0.0000E+00  0.0000E+00  0.0000E+00  0.0000E+00  0.0000E+00  0.0000E+00  0.0000E+00  0.0000E+00
    -12.522  0.0000E+00  0.0000E+00  0.0000E+00  0.0000E+00  0.0000E+00  0.0000E+00  0.0000E+00  0.0000E+00  0.0000E+00
    -12.263  0.0000E+00  0.0000E+00  0.0000E+00  0.0000E+00  0.0000E+00  0.0000E+00  0.0000E+00  0.0000E+00  0.0000E+00
    -12.003  0.0000E+00  0.0000E+00  0.0000E+00  0.0000E+00  0.0000E+00  0.0000E+00  0.0000E+00  0.0000E+00  0.0000E+00
    -11.744  0.0000E+00  0.0000E+00  0.0000E+00  0.0000E+00  0.0000E+00  0.0000E+00  0.0000E+00  0.0000E+00  0.0000E+00
    -11.484  0.0000E+00  0.0000E+00  0.0000E+00  0.0000E+00  0.0000E+00  0.0000E+00  0.0000E+00  0.0000E+00  0.0000E+00
    -11.224  0.0000E+00  0.0000E+00  0.0000E+00  0.0000E+00  0.0000E+00  0.0000E+00  0.0000E+00  0.0000E+00  0.0000E+00
    -10.965  0.0000E+00  0.0000E+00  0.0000E+00  0.0000E+00  0.0000E+00  0.0000E+00  0.0000E+00  0.0000E+00  0.0000E+00
    -10.705  0.0000E+00  0.0000E+00  0.0000E+00  0.0000E+00  0.0000E+00  0.0000E+00  0.0000E+00  0.0000E+00  0.0000E+00
    -10.445  0.0000E+00  0.0000E+00  0.0000E+00  0.0000E+00  0.0000E+00  0.0000E+00  0.0000E+00  0.0000E+00  0.0000E+00
    -10.186  0.0000E+00  0.0000E+00  0.0000E+00  0.0000E+00  0.0000E+00  0.0000E+00  0.0000E+00  0.0000E+00  0.0000E+00
     -9.926  0.0000E+00  0.0000E+00  0.0000E+00  0.0000E+00  0.0000E+00  0.0000E+00  0.0000E+00  0.0000E+00  0.0000E+00
     -9.667  0.0000E+00  0.0000E+00  0.0000E+00  0.0000E+00  0.0000E+00  0.0000E+00  0.0000E+00  0.0000E+00  0.0000E+00
     -9.407  0.0000E+00  0.0000E+00  0.0000E+00  0.0000E+00  0.0000E+00  0.0000E+00  0.0000E+00  0.0000E+00  0.0000E+00
     -9.147  0.0000E+00  0.0000E+00  0.0000E+00  0.0000E+00  0.0000E+00  0.0000E+00  0.0000E+00  0.0000E+00  0.0000E+00
     -8.888  0.0000E+00  0.0000E+00  0.0000E+00  0.0000E+00  0.0000E+00  0.0000E+00  0.0000E+00  0.0000E+00  0.0000E+00
     -8.628  0.0000E+00  0.0000E+00  0.0000E+00  0.0000E+00  0.0000E+00  0.0000E+00  0.0000E+00  0.0000E+00  0.0000E+00
     -8.369  0.0000E+00  0.0000E+00  0.0000E+00  0.0000E+00  0.0000E+00  0.0000E+00  0.0000E+00  0.0000E+00  0.0000E+00
     -8.109  0.0000E+00  0.0000E+00  0.0000E+00  0.0000E+00  0.0000E+00  0.0000E+00  0.0000E+00  0.0000E+00  0.0000E+00
     -7.849  0.0000E+00  0.0000E+00  0.0000E+00  0.0000E+00  0.0000E+00  0.0000E+00  0.0000E+00  0.0000E+00  0.0000E+00
     -7.590  0.0000E+00  0.0000E+00  0.0000E+00  0.0000E+00  0.0000E+00  0.0000E+00  0.0000E+00  0.0000E+00  0.0000E+00