    2    2  100    1
  0.1971718E+02  0.2973210E-09  0.2973210E-09  0.5151017E-09  0.5000000E-15
  1.000000000000000E-004
  CAR 
 Pt-hcc                                  
     32     70     24
 
  0.0000000E+00  0.0000000E+00  0.0000000E+00  0.1250000E-02
      1        -44.388384   1.000000
      2        -44.388384   1.000000
      3        -44.385217   1.000000
      4        -44.371802   1.000000
      5        -44.371802   1.000000
      6        -44.251332   1.000000
      7         -0.129663   1.000000
      8          2.275730   1.000000
      9          4.719964   1.000000
     10          5.059940   1.000000
     11          5.059941   1.000000
     12          5.305486   1.000000
     13          5.305487   1.000000
     14          6.198771   1.000000
     15          6.198771   1.000000
     16          7.286986   0.999944
     17          7.286986   0.999944
     18          7.661904   0.000000
     19         10.889916   0.000000
     20         22.601958   0.000000
     21         22.884057   0.000000
     22         24.404295   0.000000
     23         26.058275   0.000000
     24         26.058276   0.000000
 
  0.1000000E+00 -0.6938894E-17  0.0000000E+00  0.7500000E-02
      1        -44.404170   1.000000
      2        -44.393298   1.000000
      3        -44.386703   1.000000
      4        -44.381004   1.000000
      5        -44.374989   1.000000
      6        -44.252557   1.000000
      7          0.163611   1.000000
      8          2.533230   1.000000
      9          4.673219   1.000000
     10          5.075217   1.000000
     11          5.210720   1.000000
     12          5.255958   1.000000
     13          5.491538   1.000000
     14          5.890940   1.000000
     15          6.087141   1.000000
     16          6.316992   1.000000
     17          7.323667   0.997635
     18          9.054726   0.000000
     19         10.881184   0.000000
     20         22.524633   0.000000
     21         23.313028   0.000000
     22         23.873542   0.000000
     23         24.725564   0.000000
     24         25.464230   0.000000
 
  0.2000000E+00 -0.1387779E-16  0.0000000E+00  0.7500000E-02
      1        -44.443809   1.000000
      2        -44.427178   1.000000
      3        -44.404826   1.000000
      4        -44.383500   1.000000
      5        -44.367721   1.000000
      6        -44.255866   1.000000
      7          0.978871   1.000000
      8          3.119177   1.000000
      9          4.519188   1.000000
     10          4.878967   1.000000
     11          4.944356   1.000000
     12          5.513343   1.000000
     13          5.807708   1.000000
     14          5.834732   1.000000
     15          5.894444   1.000000
     16          6.008938   1.000000
     17          7.383906   0.868861
     18         10.813672   0.000000
     19         10.900662   0.000000
     20         19.716117   0.000000
     21         22.635410   0.000000
     22         23.853462   0.000000
     23         24.313379   0.000000
     24         24.656665   0.000000
 
  0.3000000E+00 -0.2775558E-16  0.0000000E+00  0.7500000E-02
      1        -44.493241   1.000000
      2        -44.476970   1.000000
      3        -44.419525   1.000000
      4        -44.394595   1.000000
      5        -44.349306   1.000000
      6        -44.262552   1.000000
      7          2.035825   1.000000
      8          3.285023   1.000000
      9          4.174026   1.000000
     10          4.715477   1.000000
     11          4.952176   1.000000
     12          5.538342   1.000000
     13          5.568856   1.000000
     14          6.323181   1.000000
     15          6.582665   1.000000
     16          6.727811   1.000000
     17          7.416893   0.574559
     18         11.152266   0.000000
     19         12.673433   0.000000
     20         16.192012   0.000000
     21         20.666934   0.000000
     22         21.617417   0.000000
     23         22.060553   0.000000
     24         24.110998   0.000000
 
  0.4000000E+00  0.0000000E+00  0.0000000E+00  0.7500000E-02
      1        -44.532961   1.000000
      2        -44.516587   1.000000
      3        -44.430583   1.000000
      4        -44.403712   1.000000
      5        -44.330946   1.000000
      6        -44.271878   1.000000
      7          2.709514   1.000000
      8          3.065948   1.000000
      9          3.700678   1.000000
     10          5.088187   1.000000
     11          5.275854   1.000000
     12          5.376803   1.000000
     13          5.582226   1.000000
     14          7.301347   0.999726
     15          7.417283   0.570235
     16          7.424339   0.490981
     17          7.695968   0.000000
     18         12.123124   0.000000
     19         12.866096   0.000000
     20         14.428842   0.000000
     21         17.739781   0.000000
     22         19.176151   0.000000
     23         20.340114   0.000000
     24         23.085681   0.000000
 
  0.5000000E+00  0.0000000E+00  0.0000000E+00  0.3750000E-02
      1        -44.548360   1.000000
      2        -44.531634   1.000000
      3        -44.434657   1.000000
      4        -44.407357   1.000000
      5        -44.321798   1.000000
      6        -44.277619   1.000000
      7          2.874846   1.000000
      8          2.931166   1.000000
      9          3.541535   1.000000
     10          5.179618   1.000000
     11          5.307402   1.000000
     12          5.438434   1.000000
     13          5.795513   1.000000
     14          7.424059   0.494140
     15          7.593925   0.000001
     16          7.727966   0.000000
     17          9.382601   0.000000
     18         10.445869   0.000000
     19         13.760309   0.000000
     20         15.066791   0.000000
     21         15.353264   0.000000
     22         18.596224   0.000000
     23         19.434625   0.000000
     24         22.714895   0.000000
 
  0.1000000E+00  0.1000000E+00  0.0000000E+00  0.7500000E-02
      1        -44.429342   1.000000
      2        -44.417801   1.000000
      3        -44.398807   1.000000
      4        -44.382722   1.000000
      5        -44.371756   1.000000
      6        -44.254619   1.000000
      7          0.723095   1.000000
      8          2.987328   1.000000
      9          4.492000   1.000000
     10          5.010320   1.000000
     11          5.235909   1.000000
     12          5.243420   1.000000
     13          5.668734   1.000000
     14          5.709137   1.000000
     15          5.904431   1.000000
     16          6.166838   1.000000
     17          7.336824   0.992910
     18         10.337698   0.000000
     19         10.887991   0.000000
     20         21.443718   0.000000
     21         21.532707   0.000000
     22         24.075152   0.000000
     23         24.839973   0.000000
     24         25.075008   0.000000
 
  0.2000000E+00  0.1000000E+00  0.0000000E+00  0.1500000E-01
      1        -44.470510   1.000000
      2        -44.459387   1.000000
      3        -44.415407   1.000000
      4        -44.395777   1.000000
      5        -44.355943   1.000000
      6        -44.259774   1.000000
      7          1.709175   1.000000
      8          3.507134   1.000000
      9          4.369967   1.000000
     10          4.472906   1.000000
     11          4.819884   1.000000
     12          5.379200   1.000000
     13          5.662303   1.000000
     14          5.910038   1.000000
     15          6.407001   1.000000
     16          6.673445   1.000000
     17          7.335627   0.993551
     18         11.034256   0.000000
     19         12.054296   0.000000
     20         17.963044   0.000000
     21         19.889171   0.000000
     22         23.063137   0.000000
     23         23.857948   0.000000
     24         24.467246   0.000000
 
  0.3000000E+00  0.1000000E+00  0.0000000E+00  0.1500000E-01
      1        -44.513373   1.000000
      2        -44.499244   1.000000
      3        -44.432049   1.000000
      4        -44.408603   1.000000
      5        -44.337244   1.000000
      6        -44.268393   1.000000
      7          2.676127   1.000000
      8          3.374981   1.000000
      9          3.911363   1.000000
     10          4.730407   1.000000
     11          5.150201   1.000000
     12          5.176259   1.000000
     13          5.572326   1.000000
     14          6.427134   1.000000
     15          7.140879   1.000000
     16          7.326295   0.997025
     17          7.680214   0.000000
     18         11.688160   0.000000
     19         13.883077   0.000000
     20         14.527179   0.000000
     21         18.070137   0.000000
     22         20.331482   0.000000
     23         21.318115   0.000000
     24         23.213560   0.000000
 
  0.4000000E+00  0.1000000E+00  0.0000000E+00  0.1500000E-01
      1        -44.539857   1.000000
      2        -44.523639   1.000000
      3        -44.442346   1.000000
      4        -44.416122   1.000000
      5        -44.321945   1.000000
      6        -44.277486   1.000000
      7          3.043667   1.000000
      8          3.168441   1.000000
      9          3.622568   1.000000
     10          5.139876   1.000000
     11          5.291254   1.000000
     12          5.313647   1.000000
     13          5.541011   1.000000
     14          7.259685   0.999998
     15          7.315209   0.998908
     16          7.499863   0.015435
     17          9.052280   0.000000
     18         11.499101   0.000000
     19         13.299231   0.000000
     20         15.421544   0.000000
     21         15.828805   0.000000
     22         18.188795   0.000000
     23         19.812575   0.000000
     24         22.525421   0.000000
 
  0.2000000E+00  0.2000000E+00  0.0000000E+00  0.7500000E-02
      1        -44.495201   1.000000
      2        -44.494710   1.000000
      3        -44.434022   1.000000
      4        -44.417198   1.000000
      5        -44.339479   1.000000
      6        -44.266859   1.000000
      7          2.741349   1.000000
      8          3.983812   1.000000
      9          4.054713   1.000000
     10          4.058436   1.000000
     11          4.968109   1.000000
     12          5.044316   1.000000
     13          5.710569   1.000000
     14          5.914386   1.000000
     15          7.135500   1.000000
     16          7.219919   1.000000
     17          7.737308   0.000000
     18         11.603994   0.000000
     19         13.725430   0.000000
     20         15.940324   0.000000
     21         16.860271   0.000000
     22         21.939239   0.000000
     23         22.238906   0.000000
     24         22.859450   0.000000
 
  0.3000000E+00  0.2000000E+00  0.0000000E+00  0.1500000E-01
      1        -44.520998   1.000000
      2        -44.509664   1.000000
      3        -44.455711   1.000000
      4        -44.435923   1.000000
      5        -44.321890   1.000000
      6        -44.277207   1.000000
      7          3.472352   1.000000
      8          3.744959   1.000000
      9          3.784427   1.000000
     10          4.574910   1.000000
     11          4.943590   1.000000
     12          5.372075   1.000000
     13          5.378741   1.000000
     14          6.460448   1.000000
     15          7.130311   1.000000
     16          7.424406   0.490233
     17          9.005970   0.000000
     18         12.468201   0.000000
     19         13.640134   0.000000
     20         15.262811   0.000000
     21         15.527788   0.000000
     22         19.138435   0.000000
     23         20.750928   0.000000
     24         21.654288   0.000000
 
  0.4000000E+00  0.2000000E+00  0.0000000E+00  0.7500000E-02
      1        -44.530151   1.000000
      2        -44.513654   1.000000
      3        -44.466451   1.000000
      4        -44.443024   1.000000
      5        -44.311939   1.000000
      6        -44.284204   1.000000
      7          3.595775   1.000000
      8          3.636146   1.000000
      9          3.689446   1.000000
     10          5.013200   1.000000
     11          5.035607   1.000000
     12          5.122474   1.000000
     13          5.564451   1.000000
     14          6.980824   1.000000
     15          7.097664   1.000000
     16          7.290371   0.999917
     17         10.514574   0.000000
     18         10.717859   0.000000
     19         13.993575   0.000000
     20         15.256221   0.000000
     21         16.650196   0.000000
     22         17.185136   0.000000
     23         19.599963   0.000000
     24         21.120301   0.000000
 
  0.3000000E+00  0.3000000E+00  0.0000000E+00  0.7500000E-02
      1        -44.514755   1.000000
      2        -44.501985   1.000000
      3        -44.481788   1.000000
      4        -44.465621   1.000000
      5        -44.306024   1.000000
      6        -44.289022   1.000000
      7          3.760688   1.000000
      8          3.947577   1.000000
      9          4.157063   1.000000
     10          4.500045   1.000000
     11          4.913016   1.000000
     12          5.103782   1.000000
     13          5.627081   1.000000
     14          6.703662   1.000000
     15          6.989053   1.000000
     16          7.186758   1.000000
     17         10.375725   0.000000
     18         11.586478   0.000000
     19         13.085991   0.000000
     20         15.797384   0.000000
     21         17.359526   0.000000
     22         18.186159   0.000000
     23         18.833297   0.000000
     24         19.493427   0.000000
 
  0.0000000E+00  0.0000000E+00  0.1250000E+00  0.2500000E-02
      1        -44.387986   1.000000
      2        -44.387985   1.000000
      3        -44.380776   1.000000
      4        -44.372529   1.000000
      5        -44.372529   1.000000
      6        -44.256668   1.000000
      7         -0.020923   1.000000
      8          2.245678   1.000000
      9          4.698894   1.000000
     10          5.046010   1.000000
     11          5.046010   1.000000
     12          5.279505   1.000000
     13          5.279505   1.000000
     14          6.265402   1.000000
     15          6.265402   1.000000
     16          7.003260   1.000000
     17          7.265617   0.999996
     18          7.265617   0.999996
     19         11.788725   0.000000
     20         22.096227   0.000000
     21         23.205862   0.000000
     22         24.173923   0.000000
     23         25.936100   0.000000
     24         25.936100   0.000000
 
  0.1000000E+00 -0.6938894E-17  0.1250000E+00  0.1500000E-01
      1        -44.404020   1.000000
      2        -44.392651   1.000000
      3        -44.387481   1.000000
      4        -44.375607   1.000000
      5        -44.375481   1.000000
      6        -44.257150   1.000000
      7          0.270744   1.000000
      8          2.509079   1.000000
      9          4.676307   1.000000
     10          5.017873   1.000000
     11          5.148339   1.000000
     12          5.236182   1.000000
     13          5.463033   1.000000
     14          5.899732   1.000000
     15          6.165913   1.000000
     16          6.246425   1.000000
     17          7.296138   0.999843
     18          8.404894   0.000000
     19         11.924401   0.000000
     20         22.298684   0.000000
     21         23.236666   0.000000
     22         23.956676   0.000000
     23         24.769641   0.000000
     24         24.965942   0.000000
 
  0.2000000E+00 -0.1387779E-16  0.1250000E+00  0.1500000E-01
      1        -44.444067   1.000000
      2        -44.428223   1.000000
      3        -44.404183   1.000000
      4        -44.384238   1.000000
      5        -44.362786   1.000000
      6        -44.259652   1.000000
      7          1.076503   1.000000
      8          3.115217   1.000000
      9          4.542170   1.000000
     10          4.717616   1.000000
     11          4.915808   1.000000
     12          5.461002   1.000000
     13          5.700008   1.000000
     14          5.933722   1.000000
     15          6.013521   1.000000
     16          6.051553   1.000000
     17          7.343231   0.988441
     18          9.517540   0.000000
     19         12.472409   0.000000
     20         19.821611   0.000000
     21         22.777856   0.000000
     22         23.422633   0.000000
     23         23.782193   0.000000
     24         24.752725   0.000000
 
  0.3000000E+00 -0.2775558E-16  0.1250000E+00  0.1500000E-01
      1        -44.493444   1.000000
      2        -44.478417   1.000000
      3        -44.418362   1.000000
      4        -44.395636   1.000000
      5        -44.345286   1.000000
      6        -44.265540   1.000000
      7          2.092938   1.000000
      8          3.300664   1.000000
      9          4.147811   1.000000
     10          4.601789   1.000000
     11          4.977029   1.000000
     12          5.607815   1.000000
     13          5.611790   1.000000
     14          6.358884   1.000000
     15          6.598302   1.000000
     16          6.695621   1.000000
     17          7.370268   0.934064
     18         10.360754   0.000000
     19         13.545998   0.000000
     20         16.411601   0.000000
     21         20.738319   0.000000
     22         20.852100   0.000000
     23         22.668487   0.000000
     24         24.319244   0.000000
 
  0.4000000E+00  0.0000000E+00  0.1250000E+00  0.1500000E-01
      1        -44.533248   1.000000
      2        -44.517780   1.000000
      3        -44.429302   1.000000
      4        -44.404647   1.000000
      5        -44.327996   1.000000
      6        -44.273411   1.000000
      7          2.678366   1.000000
      8          3.076933   1.000000
      9          3.793309   1.000000
     10          4.650927   1.000000
     11          5.396901   1.000000
     12          5.436386   1.000000
     13          6.010254   1.000000
     14          7.253793   0.999999
     15          7.313949   0.999031
     16          7.481610   0.050247
     17          7.633540   0.000000
     18         11.471008   0.000000
     19         12.851274   0.000000
     20         15.135984   0.000000
     21         17.507910   0.000000
     22         19.382573   0.000000
     23         20.661381   0.000000
     24         23.255373   0.000000
 
  0.5000000E+00  0.0000000E+00  0.1250000E+00  0.7500000E-02
      1        -44.548333   1.000000
      2        -44.532696   1.000000
      3        -44.433334   1.000000
      4        -44.408329   1.000000
      5        -44.319428   1.000000
      6        -44.278538   1.000000
      7          2.787155   1.000000
      8          2.950231   1.000000
      9          3.679510   1.000000
     10          4.705585   1.000000
     11          5.370918   1.000000
     12          5.502215   1.000000
     13          6.361763   1.000000
     14          7.309890   0.999347
     15          7.608314   0.000000
     16          7.724064   0.000000
     17          9.263603   0.000000
     18         10.399819   0.000000
     19         13.552336   0.000000
     20         13.927260   0.000000
     21         16.714973   0.000000
     22         18.810385   0.000000
     23         19.632340   0.000000
     24         22.909319   0.000000
 
  0.1000000E+00  0.1000000E+00  0.1250000E+00  0.1500000E-01
      1        -44.429259   1.000000
      2        -44.418063   1.000000
      3        -44.398675   1.000000
      4        -44.383535   1.000000
      5        -44.366701   1.000000
      6        -44.258741   1.000000
      7          0.825176   1.000000
      8          2.976446   1.000000
      9          4.513789   1.000000
     10          4.855158   1.000000
     11          5.085697   1.000000
     12          5.298110   1.000000
     13          5.625442   1.000000
     14          5.782796   1.000000
     15          5.980064   1.000000
     16          6.201423   1.000000
     17          7.301278   0.999728
     18          9.261751   0.000000
     19         12.274224   0.000000
     20         21.536883   0.000000
     21         21.584608   0.000000
     22         23.658729   0.000000
     23         24.346708   0.000000
     24         25.243612   0.000000
 
  0.2000000E+00  0.1000000E+00  0.1250000E+00  0.3000000E-01
      1        -44.470779   1.000000
      2        -44.460242   1.000000
      3        -44.414799   1.000000
      4        -44.396603   1.000000
      5        -44.351812   1.000000
      6        -44.263042   1.000000
      7          1.790684   1.000000
      8          3.525433   1.000000
      9          4.320815   1.000000
     10          4.422235   1.000000
     11          4.814726   1.000000
     12          5.295779   1.000000
     13          5.783810   1.000000
     14          5.887627   1.000000
     15          6.485120   1.000000
     16          6.638142   1.000000
     17          7.301408   0.999724
     18         10.111774   0.000000
     19         13.166306   0.000000
     20         18.113172   0.000000
     21         19.992793   0.000000
     22         22.508849   0.000000
     23         23.578425   0.000000
     24         24.775787   0.000000
 
  0.3000000E+00  0.1000000E+00  0.1250000E+00  0.3000000E-01
      1        -44.513502   1.000000
      2        -44.500278   1.000000
      3        -44.431368   1.000000
      4        -44.409380   1.000000
      5        -44.333866   1.000000
      6        -44.270350   1.000000
      7          2.686655   1.000000
      8          3.398205   1.000000
      9          3.940061   1.000000
     10          4.537851   1.000000
     11          5.133284   1.000000
     12          5.413255   1.000000
     13          5.584579   1.000000
     14          6.438506   1.000000
     15          7.172214   1.000000
     16          7.209848   1.000000
     17          7.713138   0.000000
     18         11.081824   0.000000
     19         13.985256   0.000000
     20         15.264212   0.000000
     21         18.070154   0.000000
     22         19.880221   0.000000
     23         21.798936   0.000000
     24         23.071052   0.000000
 
  0.4000000E+00  0.1000000E+00  0.1250000E+00  0.3000000E-01
      1        -44.539913   1.000000
      2        -44.524852   1.000000
      3        -44.441393   1.000000
      4        -44.417192   1.000000
      5        -44.319260   1.000000
      6        -44.278231   1.000000
      7          2.959129   1.000000
      8          3.184659   1.000000
      9          3.778314   1.000000
     10          4.658986   1.000000
     11          5.198365   1.000000
     12          5.588328   1.000000
     13          5.952529   1.000000
     14          7.181273   1.000000
     15          7.263352   0.999997
     16          7.527084   0.001702
     17          9.037354   0.000000
     18         11.459206   0.000000
     19         12.822347   0.000000
     20         15.129124   0.000000
     21         16.477442   0.000000
     22         18.402588   0.000000
     23         20.105705   0.000000
     24         22.282321   0.000000
 
  0.2000000E+00  0.2000000E+00  0.1250000E+00  0.1500000E-01
      1        -44.495627   1.000000
      2        -44.495076   1.000000
      3        -44.433738   1.000000
      4        -44.418343   1.000000
      5        -44.335858   1.000000
      6        -44.269363   1.000000
      7          2.783087   1.000000
      8          3.916187   1.000000
      9          4.069749   1.000000
     10          4.116881   1.000000
     11          4.980715   1.000000
     12          5.022598   1.000000
     13          5.624244   1.000000
     14          6.027049   1.000000
     15          7.083747   1.000000
     16          7.208075   1.000000
     17          7.781398   0.000000
     18         11.009487   0.000000
     19         14.250198   0.000000
     20         16.287744   0.000000
     21         16.979028   0.000000
     22         21.169800   0.000000
     23         21.702704   0.000000
     24         23.447886   0.000000
 
  0.3000000E+00  0.2000000E+00  0.1250000E+00  0.3000000E-01
      1        -44.520896   1.000000
      2        -44.510582   1.000000
      3        -44.455363   1.000000
      4        -44.437112   1.000000
      5        -44.319258   1.000000
      6        -44.278267   1.000000
      7          3.403837   1.000000
      8          3.759727   1.000000
      9          3.892060   1.000000
     10          4.440805   1.000000
     11          5.032103   1.000000
     12          5.303960   1.000000
     13          5.479965   1.000000
     14          6.504543   1.000000
     15          7.001042   1.000000
     16          7.488563   0.032948
     17          9.041345   0.000000
     18         12.416166   0.000000
     19         13.140324   0.000000
     20         15.278186   0.000000
     21         16.276143   0.000000
     22         18.695367   0.000000
     23         20.773688   0.000000
     24         21.323596   0.000000
 
  0.4000000E+00  0.2000000E+00  0.1250000E+00  0.1500000E-01
      1        -44.530085   1.000000
      2        -44.514881   1.000000
      3        -44.465916   1.000000
      4        -44.444336   1.000000
      5        -44.309985   1.000000
      6        -44.284731   1.000000
      7          3.419821   1.000000
      8          3.669885   1.000000
      9          3.952002   1.000000
     10          4.606374   1.000000
     11          4.933487   1.000000
     12          5.462994   1.000000
     13          5.689082   1.000000
     14          6.963403   1.000000
     15          6.997419   1.000000
     16          7.339375   0.991357
     17         10.603987   0.000000
     18         10.759817   0.000000
     19         13.895659   0.000000
     20         14.923801   0.000000
     21         15.908207   0.000000
     22         18.335950   0.000000
     23         19.767350   0.000000
     24         20.488519   0.000000
 
  0.3000000E+00  0.3000000E+00  0.1250000E+00  0.1500000E-01
      1        -44.514297   1.000000
      2        -44.503029   1.000000
      3        -44.482186   1.000000
      4        -44.466564   1.000000
      5        -44.304501   1.000000
      6        -44.288842   1.000000
      7          3.777452   1.000000
      8          3.935247   1.000000
      9          4.192365   1.000000
     10          4.425560   1.000000
     11          4.997681   1.000000
     12          5.028182   1.000000
     13          5.635284   1.000000
     14          6.768263   1.000000
     15          6.852596   1.000000
     16          7.247779   1.000000
     17         10.455553   0.000000
     18         11.708817   0.000000
     19         13.263802   0.000000
     20         15.031789   0.000000
     21         17.299067   0.000000
     22         17.604136   0.000000
     23         19.072743   0.000000
     24         20.427427   0.000000
 
  0.0000000E+00  0.0000000E+00  0.2500000E+00  0.2500000E-02
      1        -44.386456   1.000000
      2        -44.386456   1.000000
      3        -44.374026   1.000000
      4        -44.374026   1.000000
      5        -44.365960   1.000000
      6        -44.269832   1.000000
      7          0.294262   1.000000
      8          2.123308   1.000000
      9          4.653204   1.000000
     10          5.023727   1.000000
     11          5.023727   1.000000
     12          5.212765   1.000000
     13          5.212766   1.000000
     14          5.947681   1.000000
     15          6.438695   1.000000
     16          6.438695   1.000000
     17          7.196532   1.000000
     18          7.196532   1.000000
     19         13.586737   0.000000
     20         21.272650   0.000000
     21         23.133625   0.000000
     22         23.672081   0.000000
     23         25.793208   0.000000
     24         25.793209   0.000000
 
  0.1000000E+00 -0.6938894E-17  0.2500000E+00  0.1500000E-01
      1        -44.402999   1.000000
      2        -44.390589   1.000000
      3        -44.389746   1.000000
      4        -44.377385   1.000000
      5        -44.360843   1.000000
      6        -44.270409   1.000000
      7          0.581712   1.000000
      8          2.399599   1.000000
      9          4.672311   1.000000
     10          4.912474   1.000000
     11          4.987834   1.000000
     12          5.204768   1.000000
     13          5.392407   1.000000
     14          5.581396   1.000000
     15          6.360949   1.000000
     16          6.370132   1.000000
     17          7.209598   1.000000
     18          7.711656   0.000000
     19         13.767366   0.000000
     20         21.582736   0.000000
     21         23.065013   0.000000
     22         23.733043   0.000000
     23         24.492579   0.000000
     24         24.938613   0.000000
 
  0.2000000E+00 -0.1387779E-16  0.2500000E+00  0.1500000E-01
      1        -44.443744   1.000000
      2        -44.430936   1.000000
      3        -44.401926   1.000000
      4        -44.386561   1.000000
      5        -44.349366   1.000000
      6        -44.270919   1.000000
      7          1.360352   1.000000
      8          3.054676   1.000000
      9          4.448892   1.000000
     10          4.615152   1.000000
     11          4.748589   1.000000
     12          5.321029   1.000000
     13          5.641619   1.000000
     14          5.879994   1.000000
     15          6.266642   1.000000
     16          6.300915   1.000000
     17          7.223319   1.000000
     18          8.488230   0.000000
     19         14.302874   0.000000
     20         20.133365   0.000000
     21         22.271374   0.000000
     22         22.946009   0.000000
     23         23.200823   0.000000
     24         24.699091   0.000000
 
  0.3000000E+00 -0.2775558E-16  0.2500000E+00  0.1500000E-01
      1        -44.493227   1.000000
      2        -44.481467   1.000000
      3        -44.415740   1.000000
      4        -44.398108   1.000000
      5        -44.334469   1.000000
      6        -44.273423   1.000000
      7          2.259569   1.000000