PROCAR lm decomposed
# of k-points:   70         # of bands:   24         # of ions:    2

 k-point     1 :    0.00000000 0.00000000 0.00000000     weight = 0.00125000

band     1 # energy  -44.38838439 # occ.  2.00000000
 
ion      s     py     pz     px    dxy    dyz    dz2    dxz  x2-y2    tot
    1  0.000  0.124  0.000  0.373  0.000  0.000  0.000  0.000  0.000  0.497
    2  0.000  0.124  0.000  0.373  0.000  0.000  0.000  0.000  0.000  0.497
tot    0.000  0.248  0.000  0.745  0.000  0.000  0.000  0.000  0.000  0.994
 
band     2 # energy  -44.38838394 # occ.  2.00000000
 
ion      s     py     pz     px    dxy    dyz    dz2    dxz  x2-y2    tot
    1  0.000  0.373  0.000  0.124  0.000  0.000  0.000  0.000  0.000  0.497
    2  0.000  0.373  0.000  0.124  0.000  0.000  0.000  0.000  0.000  0.497
tot    0.000  0.745  0.000  0.248  0.000  0.000  0.000  0.000  0.000  0.994
 
band     3 # energy  -44.38521657 # occ.  2.00000000
 
ion      s     py     pz     px    dxy    dyz    dz2    dxz  x2-y2    tot
    1  0.000  0.000  0.494  0.000  0.000  0.000  0.000  0.000  0.000  0.494
    2  0.000  0.000  0.494  0.000  0.000  0.000  0.000  0.000  0.000  0.494
tot    0.000  0.000  0.987  0.000  0.000  0.000  0.000  0.000  0.000  0.987
 
band     4 # energy  -44.37180247 # occ.  2.00000000
 
ion      s     py     pz     px    dxy    dyz    dz2    dxz  x2-y2    tot
    1  0.000  0.124  0.000  0.373  0.000  0.000  0.000  0.000  0.000  0.497
    2  0.000  0.124  0.000  0.373  0.000  0.000  0.000  0.000  0.000  0.497
tot    0.000  0.249  0.000  0.746  0.000  0.000  0.000  0.000  0.000  0.994
 
band     5 # energy  -44.37180202 # occ.  2.00000000
 
ion      s     py     pz     px    dxy    dyz    dz2    dxz  x2-y2    tot
    1  0.000  0.373  0.000  0.124  0.000  0.000  0.000  0.000  0.000  0.497
    2  0.000  0.373  0.000  0.124  0.000  0.000  0.000  0.000  0.000  0.497
tot    0.000  0.746  0.000  0.249  0.000  0.000  0.000  0.000  0.000  0.994
 
band     6 # energy  -44.25133175 # occ.  2.00000000
 
ion      s     py     pz     px    dxy    dyz    dz2    dxz  x2-y2    tot
    1  0.000  0.000  0.497  0.000  0.000  0.000  0.000  0.000  0.000  0.497
    2  0.000  0.000  0.497  0.000  0.000  0.000  0.000  0.000  0.000  0.497
tot    0.000  0.000  0.993  0.000  0.000  0.000  0.000  0.000  0.000  0.993
 
band     7 # energy   -0.12966323 # occ.  2.00000000
 
ion      s     py     pz     px    dxy    dyz    dz2    dxz  x2-y2    tot
    1  0.161  0.000  0.000  0.000  0.000  0.000  0.000  0.000  0.000  0.161
    2  0.161  0.000  0.000  0.000  0.000  0.000  0.000  0.000  0.000  0.161
tot    0.322  0.000  0.000  0.000  0.000  0.000  0.001  0.000  0.000  0.323
 
band     8 # energy    2.27573019 # occ.  2.00000000
 
ion      s     py     pz     px    dxy    dyz    dz2    dxz  x2-y2    tot
    1  0.070  0.000  0.000  0.000  0.000  0.000  0.220  0.000  0.000  0.290
    2  0.070  0.000  0.000  0.000  0.000  0.000  0.220  0.000  0.000  0.290
tot    0.140  0.000  0.000  0.000  0.000  0.000  0.440  0.000  0.000  0.580
 
band     9 # energy    4.71996428 # occ.  2.00000000
 
ion      s     py     pz     px    dxy    dyz    dz2    dxz  x2-y2    tot
    1  0.000  0.000  0.000  0.000  0.000  0.000  0.404  0.000  0.000  0.404
    2  0.000  0.000  0.000  0.000  0.000  0.000  0.404  0.000  0.000  0.404
tot    0.000  0.000  0.000  0.000  0.000  0.000  0.808  0.000  0.000  0.808
 
band    10 # energy    5.05994042 # occ.  2.00000000
 
ion      s     py     pz     px    dxy    dyz    dz2    dxz  x2-y2    tot
    1  0.000  0.000  0.000  0.000  0.103  0.000  0.000  0.000  0.310  0.414
    2  0.000  0.000  0.000  0.000  0.103  0.000  0.000  0.000  0.310  0.414
tot    0.000  0.000  0.000  0.000  0.207  0.000  0.000  0.000  0.621  0.828
 
band    11 # energy    5.05994095 # occ.  2.00000000
 
ion      s     py     pz     px    dxy    dyz    dz2    dxz  x2-y2    tot
    1  0.000  0.000  0.000  0.000  0.310  0.000  0.000  0.000  0.103  0.414
    2  0.000  0.000  0.000  0.000  0.310  0.000  0.000  0.000  0.103  0.414
tot    0.000  0.000  0.000  0.000  0.621  0.000  0.000  0.000  0.207  0.828
 
band    12 # energy    5.30548603 # occ.  2.00000000
 
ion      s     py     pz     px    dxy    dyz    dz2    dxz  x2-y2    tot
    1  0.000  0.000  0.000  0.000  0.106  0.000  0.000  0.000  0.317  0.422
    2  0.000  0.000  0.000  0.000  0.106  0.000  0.000  0.000  0.317  0.422
tot    0.000  0.000  0.000  0.000  0.211  0.000  0.000  0.000  0.634  0.845
 
band    13 # energy    5.30548658 # occ.  2.00000000
 
ion      s     py     pz     px    dxy    dyz    dz2    dxz  x2-y2    tot
    1  0.000  0.000  0.000  0.000  0.317  0.000  0.000  0.000  0.106  0.422
    2  0.000  0.000  0.000  0.000  0.317  0.000  0.000  0.000  0.106  0.422
tot    0.000  0.000  0.000  0.000  0.634  0.000  0.000  0.000  0.211  0.845
 
band    14 # energy    6.19877138 # occ.  2.00000000
 
ion      s     py     pz     px    dxy    dyz    dz2    dxz  x2-y2    tot
    1  0.000  0.000  0.000  0.000  0.000  0.327  0.000  0.109  0.000  0.436
    2  0.000  0.000  0.000  0.000  0.000  0.327  0.000  0.109  0.000  0.436
tot    0.000  0.000  0.000  0.000  0.000  0.654  0.000  0.218  0.000  0.872
 
band    15 # energy    6.19877145 # occ.  2.00000000
 
ion      s     py     pz     px    dxy    dyz    dz2    dxz  x2-y2    tot
    1  0.000  0.000  0.000  0.000  0.000  0.109  0.000  0.327  0.000  0.436
    2  0.000  0.000  0.000  0.000  0.000  0.109  0.000  0.327  0.000  0.436
tot    0.000  0.000  0.000  0.000  0.000  0.218  0.000  0.654  0.000  0.872
 
band    16 # energy    7.28698594 # occ.  1.99988769
 
ion      s     py     pz     px    dxy    dyz    dz2    dxz  x2-y2    tot
    1  0.000  0.000  0.000  0.000  0.000  0.343  0.000  0.114  0.000  0.458
    2  0.000  0.000  0.000  0.000  0.000  0.343  0.000  0.114  0.000  0.458
tot    0.000  0.000  0.000  0.000  0.000  0.687  0.000  0.229  0.000  0.915
 
band    17 # energy    7.28698602 # occ.  1.99988769
 
ion      s     py     pz     px    dxy    dyz    dz2    dxz  x2-y2    tot
    1  0.000  0.000  0.000  0.000  0.000  0.114  0.000  0.343  0.000  0.458
    2  0.000  0.000  0.000  0.000  0.000  0.114  0.000  0.343  0.000  0.458
tot    0.000  0.000  0.000  0.000  0.000  0.229  0.000  0.687  0.000  0.915
 
band    18 # energy    7.66190423 # occ.  0.00000000
 
ion      s     py     pz     px    dxy    dyz    dz2    dxz  x2-y2    tot
    1  0.000  0.000  0.064  0.000  0.000  0.000  0.000  0.000  0.000  0.064
    2  0.000  0.000  0.064  0.000  0.000  0.000  0.000  0.000  0.000  0.064
tot    0.000  0.000  0.128  0.000  0.000  0.000  0.000  0.000  0.000  0.128
 
band    19 # energy   10.88991644 # occ.  0.00000000
 
ion      s     py     pz     px    dxy    dyz    dz2    dxz  x2-y2    tot
    1  0.155  0.000  0.000  0.000  0.000  0.000  0.224  0.000  0.000  0.380
    2  0.155  0.000  0.000  0.000  0.000  0.000  0.224  0.000  0.000  0.380
tot    0.311  0.000  0.000  0.000  0.000  0.000  0.449  0.000  0.000  0.759
 
band    20 # energy   22.60195845 # occ.  0.00000000
 
ion      s     py     pz     px    dxy    dyz    dz2    dxz  x2-y2    tot
    1  0.004  0.000  0.000  0.000  0.000  0.000  0.002  0.000  0.000  0.006
    2  0.004  0.000  0.000  0.000  0.000  0.000  0.002  0.000  0.000  0.006
tot    0.007  0.000  0.000  0.000  0.000  0.000  0.004  0.000  0.000  0.011
 
band    21 # energy   22.88405679 # occ.  0.00000000
 
ion      s     py     pz     px    dxy    dyz    dz2    dxz  x2-y2    tot
    1  0.000  0.000  0.027  0.000  0.000  0.000  0.000  0.000  0.000  0.027
    2  0.000  0.000  0.027  0.000  0.000  0.000  0.000  0.000  0.000  0.027
tot    0.000  0.000  0.055  0.000  0.000  0.000  0.000  0.000  0.000  0.055
 
band    22 # energy   24.40429479 # occ.  0.00000000
 
ion      s     py     pz     px    dxy    dyz    dz2    dxz  x2-y2    tot
    1  0.001  0.000  0.000  0.000  0.000  0.000  0.015  0.000  0.000  0.016
    2  0.001  0.000  0.000  0.000  0.000  0.000  0.015  0.000  0.000  0.016
tot    0.003  0.000  0.000  0.000  0.000  0.000  0.030  0.000  0.000  0.032
 
band    23 # energy   26.05827546 # occ.  0.00000000
 
ion      s     py     pz     px    dxy    dyz    dz2    dxz  x2-y2    tot
    1  0.000  0.030  0.000  0.089  0.012  0.000  0.000  0.000  0.004  0.135
    2  0.000  0.030  0.000  0.089  0.012  0.000  0.000  0.000  0.004  0.135
tot    0.000  0.059  0.000  0.178  0.024  0.000  0.000  0.000  0.008  0.269
 
band    24 # energy   26.05827559 # occ.  0.00000000
 
ion      s     py     pz     px    dxy    dyz    dz2    dxz  x2-y2    tot
    1  0.000  0.089  0.000  0.030  0.004  0.000  0.000  0.000  0.012  0.135
    2  0.000  0.089  0.000  0.030  0.004  0.000  0.000  0.000  0.012  0.135
tot    0.000  0.178  0.000  0.059  0.008  0.000  0.000  0.000  0.024  0.269
 

 k-point     2 :    0.10000000-0.00000000 0.00000000     weight = 0.00750000

band     1 # energy  -44.40416999 # occ.  2.00000000
 
ion      s     py     pz     px    dxy    dyz    dz2    dxz  x2-y2    tot
    1  0.000  0.124  0.000  0.372  0.000  0.000  0.000  0.000  0.000  0.497
    2  0.000  0.124  0.000  0.372  0.000  0.000  0.000  0.000  0.000  0.497
tot    0.000  0.248  0.000  0.745  0.000  0.000  0.000  0.000  0.000  0.993
 
band     2 # energy  -44.39329793 # occ.  2.00000000
 
ion      s     py     pz     px    dxy    dyz    dz2    dxz  x2-y2    tot
    1  0.000  0.373  0.000  0.124  0.000  0.000  0.000  0.000  0.000  0.497
    2  0.000  0.373  0.000  0.124  0.000  0.000  0.000  0.000  0.000  0.497
tot    0.000  0.745  0.000  0.248  0.000  0.000  0.000  0.000  0.000  0.993
 
band     3 # energy  -44.38670302 # occ.  2.00000000
 
ion      s     py     pz     px    dxy    dyz    dz2    dxz  x2-y2    tot
    1  0.000  0.124  0.000  0.373  0.000  0.000  0.000  0.000  0.000  0.497
    2  0.000  0.124  0.000  0.373  0.000  0.000  0.000  0.000  0.000  0.497
tot    0.000  0.248  0.000  0.745  0.000  0.000  0.000  0.000  0.000  0.994
 
band     4 # energy  -44.38100427 # occ.  2.00000000
 
ion      s     py     pz     px    dxy    dyz    dz2    dxz  x2-y2    tot
    1  0.000  0.000  0.494  0.000  0.000  0.000  0.000  0.000  0.000  0.494
    2  0.000  0.000  0.494  0.000  0.000  0.000  0.000  0.000  0.000  0.494
tot    0.000  0.000  0.988  0.000  0.000  0.000  0.000  0.000  0.000  0.988
 
band     5 # energy  -44.37498870 # occ.  2.00000000
 
ion      s     py     pz     px    dxy    dyz    dz2    dxz  x2-y2    tot
    1  0.000  0.373  0.000  0.124  0.000  0.000  0.000  0.000  0.000  0.497
    2  0.000  0.373  0.000  0.124  0.000  0.000  0.000  0.000  0.000  0.497
tot    0.000  0.746  0.000  0.249  0.000  0.000  0.000  0.000  0.000  0.994
 
band     6 # energy  -44.25255701 # occ.  2.00000000
 
ion      s     py     pz     px    dxy    dyz    dz2    dxz  x2-y2    tot
    1  0.000  0.000  0.497  0.000  0.000  0.000  0.000  0.000  0.000  0.497
    2  0.000  0.000  0.497  0.000  0.000  0.000  0.000  0.000  0.000  0.497
tot    0.000  0.000  0.993  0.000  0.000  0.000  0.000  0.000  0.000  0.993
 
band     7 # energy    0.16361141 # occ.  2.00000000
 
ion      s     py     pz     px    dxy    dyz    dz2    dxz  x2-y2    tot
    1  0.158  0.000  0.000  0.001  0.000  0.000  0.000  0.000  0.000  0.160
    2  0.158  0.000  0.000  0.001  0.000  0.000  0.000  0.000  0.000  0.160
tot    0.317  0.001  0.000  0.002  0.000  0.000  0.000  0.000  0.000  0.321
 
band     8 # energy    2.53322970 # occ.  2.00000000
 
ion      s     py     pz     px    dxy    dyz    dz2    dxz  x2-y2    tot
    1  0.064  0.000  0.000  0.001  0.001  0.000  0.225  0.000  0.000  0.293
    2  0.064  0.000  0.000  0.001  0.001  0.000  0.225  0.000  0.000  0.293
tot    0.129  0.001  0.000  0.002  0.003  0.000  0.451  0.000  0.001  0.586
 
band     9 # energy    4.67321864 # occ.  2.00000000
 
ion      s     py     pz     px    dxy    dyz    dz2    dxz  x2-y2    tot
    1  0.000  0.000  0.000  0.000  0.114  0.000  0.248  0.000  0.038  0.401
    2  0.000  0.000  0.000  0.000  0.114  0.000  0.248  0.000  0.038  0.401
tot    0.000  0.000  0.000  0.000  0.229  0.000  0.496  0.000  0.076  0.802
 
band    10 # energy    5.07521713 # occ.  2.00000000
 
ion      s     py     pz     px    dxy    dyz    dz2    dxz  x2-y2    tot
    1  0.000  0.000  0.000  0.000  0.210  0.000  0.131  0.000  0.070  0.412
    2  0.000  0.000  0.000  0.000  0.210  0.000  0.131  0.000  0.070  0.412
tot    0.000  0.000  0.000  0.000  0.421  0.000  0.262  0.000  0.140  0.824
 
band    11 # energy    5.21072032 # occ.  2.00000000
 
ion      s     py     pz     px    dxy    dyz    dz2    dxz  x2-y2    tot
    1  0.001  0.000  0.000  0.000  0.290  0.000  0.028  0.000  0.097  0.416
    2  0.001  0.000  0.000  0.000  0.290  0.000  0.028  0.000  0.097  0.416
tot    0.002  0.000  0.000  0.000  0.581  0.000  0.056  0.000  0.194  0.833
 
band    12 # energy    5.25595834 # occ.  2.00000000
 
ion      s     py     pz     px    dxy    dyz    dz2    dxz  x2-y2    tot
    1  0.000  0.000  0.000  0.000  0.104  0.000  0.000  0.000  0.312  0.416
    2  0.000  0.000  0.000  0.000  0.104  0.000  0.000  0.000  0.312  0.416
tot    0.000  0.000  0.000  0.000  0.208  0.000  0.000  0.000  0.624  0.833
 
band    13 # energy    5.49153764 # occ.  2.00000000
 
ion      s     py     pz     px    dxy    dyz    dz2    dxz  x2-y2    tot
    1  0.000  0.000  0.000  0.000  0.106  0.000  0.000  0.000  0.318  0.425
    2  0.000  0.000  0.000  0.000  0.106  0.000  0.000  0.000  0.318  0.425
tot    0.000  0.000  0.000  0.000  0.212  0.000  0.000  0.000  0.637  0.850
 
band    14 # energy    5.89093977 # occ.  2.00000000
 
ion      s     py     pz     px    dxy    dyz    dz2    dxz  x2-y2    tot
    1  0.000  0.000  0.006  0.000  0.000  0.095  0.000  0.286  0.000  0.387
    2  0.000  0.000  0.006  0.000  0.000  0.095  0.000  0.286  0.000  0.387
tot    0.000  0.000  0.012  0.000  0.000  0.190  0.000  0.571  0.000  0.774
 
band    15 # energy    6.08714121 # occ.  2.00000000
 
ion      s     py     pz     px    dxy    dyz    dz2    dxz  x2-y2    tot
    1  0.000  0.000  0.000  0.000  0.000  0.324  0.000  0.108  0.000  0.432
    2  0.000  0.000  0.000  0.000  0.000  0.324  0.000  0.108  0.000  0.432
tot    0.000  0.000  0.000  0.000  0.000  0.649  0.000  0.216  0.000  0.865
 
band    16 # energy    6.31699210 # occ.  2.00000000
 
ion      s     py     pz     px    dxy    dyz    dz2    dxz  x2-y2    tot
    1  0.000  0.000  0.015  0.000  0.000  0.082  0.000  0.247  0.000  0.344
    2  0.000  0.000  0.015  0.000  0.000  0.082  0.000  0.247  0.000  0.344
tot    0.000  0.000  0.030  0.000  0.000  0.165  0.000  0.494  0.000  0.688
 
band    17 # energy    7.32366745 # occ.  1.99526925
 
ion      s     py     pz     px    dxy    dyz    dz2    dxz  x2-y2    tot
    1  0.000  0.000  0.000  0.000  0.000  0.345  0.000  0.115  0.000  0.460
    2  0.000  0.000  0.000  0.000  0.000  0.345  0.000  0.115  0.000  0.460
tot    0.000  0.000  0.000  0.000  0.000  0.689  0.000  0.230  0.000  0.919
 
band    18 # energy    9.05472614 # occ.  0.00000000
 
ion      s     py     pz     px    dxy    dyz    dz2    dxz  x2-y2    tot
    1  0.000  0.000  0.044  0.000  0.000  0.044  0.000  0.133  0.000  0.221
    2  0.000  0.000  0.044  0.000  0.000  0.044  0.000  0.133  0.000  0.221
tot    0.000  0.000  0.088  0.000  0.000  0.089  0.000  0.266  0.000  0.443
 
band    19 # energy   10.88118351 # occ.  0.00000000
 
ion      s     py     pz     px    dxy    dyz    dz2    dxz  x2-y2    tot
    1  0.157  0.000  0.000  0.000  0.001  0.000  0.215  0.000  0.000  0.374
    2  0.157  0.000  0.000  0.000  0.001  0.000  0.215  0.000  0.000  0.374
tot    0.315  0.000  0.000  0.001  0.002  0.000  0.430  0.000  0.001  0.749
 
band    20 # energy   22.52463348 # occ.  0.00000000
 
ion      s     py     pz     px    dxy    dyz    dz2    dxz  x2-y2    tot
    1  0.008  0.005  0.000  0.015  0.023  0.000  0.005  0.000  0.008  0.064
    2  0.008  0.005  0.000  0.015  0.023  0.000  0.005  0.000  0.008  0.064
tot    0.016  0.010  0.000  0.030  0.046  0.000  0.011  0.000  0.015  0.128
 
band    21 # energy   23.31302819 # occ.  0.00000000
 
ion      s     py     pz     px    dxy    dyz    dz2    dxz  x2-y2    tot
    1  0.000  0.000  0.025  0.000  0.000  0.001  0.000  0.004  0.000  0.030
    2  0.000  0.000  0.025  0.000  0.000  0.001  0.000  0.004  0.000  0.030
tot    0.000  0.000  0.050  0.000  0.000  0.003  0.000  0.008  0.000  0.060
 
band    22 # energy   23.87354211 # occ.  0.00000000
 
ion      s     py     pz     px    dxy    dyz    dz2    dxz  x2-y2    tot
    1  0.008  0.011  0.000  0.033  0.014  0.000  0.019  0.000  0.005  0.089
    2  0.008  0.011  0.000  0.033  0.014  0.000  0.019  0.000  0.005  0.089
tot    0.017  0.022  0.000  0.066  0.028  0.000  0.037  0.000  0.009  0.179
 
band    23 # energy   24.72556355 # occ.  0.00000000
 
ion      s     py     pz     px    dxy    dyz    dz2    dxz  x2-y2    tot
    1  0.000  0.078  0.000  0.026  0.008  0.000  0.000  0.000  0.023  0.135
    2  0.000  0.078  0.000  0.026  0.008  0.000  0.000  0.000  0.023  0.135
tot    0.000  0.156  0.000  0.052  0.016  0.000  0.000  0.000  0.047  0.271
 
band    24 # energy   25.46423040 # occ.  0.00000000
 
ion      s     py     pz     px    dxy    dyz    dz2    dxz  x2-y2    tot
    1  0.002  0.010  0.000  0.029  0.003  0.000  0.001  0.000  0.001  0.046
    2  0.002  0.010  0.000  0.029  0.003  0.000  0.001  0.000  0.001  0.046
tot    0.003  0.020  0.000  0.059  0.006  0.000  0.002  0.000  0.002  0.092
 

 k-point     3 :    0.20000000-0.00000000 0.00000000     weight = 0.00750000

band     1 # energy  -44.44380907 # occ.  2.00000000
 
ion      s     py     pz     px    dxy    dyz    dz2    dxz  x2-y2    tot
    1  0.000  0.124  0.000  0.372  0.000  0.000  0.000  0.000  0.000  0.496
    2  0.000  0.124  0.000  0.372  0.000  0.000  0.000  0.000  0.000  0.496
tot    0.000  0.248  0.000  0.744  0.000  0.000  0.000  0.000  0.000  0.991
 
band     2 # energy  -44.42717828 # occ.  2.00000000
 
ion      s     py     pz     px    dxy    dyz    dz2    dxz  x2-y2    tot
    1  0.000  0.124  0.000  0.372  0.000  0.000  0.000  0.000  0.000  0.496
    2  0.000  0.124  0.000  0.372  0.000  0.000  0.000  0.000  0.000  0.496
tot    0.000  0.248  0.000  0.744  0.000  0.000  0.000  0.000  0.000  0.992
 
band     3 # energy  -44.40482603 # occ.  2.00000000
 
ion      s     py     pz     px    dxy    dyz    dz2    dxz  x2-y2    tot
    1  0.000  0.372  0.000  0.124  0.000  0.000  0.000  0.000  0.000  0.496
    2  0.000  0.372  0.000  0.124  0.000  0.000  0.000  0.000  0.000  0.496
tot    0.000  0.745  0.000  0.248  0.000  0.000  0.000  0.000  0.000  0.993
 
band     4 # energy  -44.38349974 # occ.  2.00000000
 
ion      s     py     pz     px    dxy    dyz    dz2    dxz  x2-y2    tot
    1  0.000  0.373  0.000  0.124  0.000  0.000  0.000  0.000  0.000  0.497
    2  0.000  0.373  0.000  0.124  0.000  0.000  0.000  0.000  0.000  0.497
tot    0.000  0.745  0.000  0.248  0.000  0.000  0.000  0.000  0.000  0.994
 
band     5 # energy  -44.36772063 # occ.  2.00000000
 
ion      s     py     pz     px    dxy    dyz    dz2    dxz  x2-y2    tot
    1  0.000  0.000  0.494  0.000  0.000  0.000  0.000  0.000  0.000  0.494
    2  0.000  0.000  0.494  0.000  0.000  0.000  0.000  0.000  0.000  0.494
tot    0.000  0.000  0.988  0.000  0.000  0.000  0.000  0.000  0.000  0.988
 
band     6 # energy  -44.25586584 # occ.  2.00000000
 
ion      s     py     pz     px    dxy    dyz    dz2    dxz  x2-y2    tot
    1  0.000  0.000  0.497  0.000  0.000  0.000  0.000  0.000  0.000  0.497
    2  0.000  0.000  0.497  0.000  0.000  0.000  0.000  0.000  0.000  0.497
tot    0.000  0.000  0.993  0.000  0.000  0.000  0.000  0.000  0.000  0.993
 
band     7 # energy    0.97887111 # occ.  2.00000000
 
ion      s     py     pz     px    dxy    dyz    dz2    dxz  x2-y2    tot
    1  0.149  0.001  0.000  0.004  0.005  0.000  0.000  0.000  0.002  0.161
    2  0.149  0.001  0.000  0.004  0.005  0.000  0.000  0.000  0.002  0.161
tot    0.298  0.003  0.000  0.008  0.010  0.000  0.001  0.000  0.003  0.323
 
band     8 # energy    3.11917664 # occ.  2.00000000
 
ion      s     py     pz     px    dxy    dyz    dz2    dxz  x2-y2    tot
    1  0.044  0.001  0.000  0.003  0.034  0.000  0.218  0.000  0.011  0.311
    2  0.044  0.001  0.000  0.003  0.034  0.000  0.218  0.000  0.011  0.311
tot    0.089  0.002  0.000  0.005  0.068  0.000  0.436  0.000  0.023  0.623
 
band     9 # energy    4.51918770 # occ.  2.00000000
 
ion      s     py     pz     px    dxy    dyz    dz2    dxz  x2-y2    tot
    1  0.002  0.001  0.000  0.002  0.186  0.000  0.128  0.000  0.062  0.380
    2  0.002  0.001  0.000  0.002  0.186  0.000  0.128  0.000  0.062  0.380
tot    0.005  0.001  0.000  0.004  0.371  0.000  0.256  0.000  0.124  0.761
 
band    10 # energy    4.87896727 # occ.  2.00000000
 
ion      s     py     pz     px    dxy    dyz    dz2    dxz  x2-y2    tot
    1  0.004  0.000  0.000  0.001  0.259  0.000  0.049  0.000  0.086  0.399
    2  0.004  0.000  0.000  0.001  0.259  0.000  0.049  0.000  0.086  0.399
tot    0.008  0.000  0.000  0.001  0.517  0.000  0.099  0.000  0.172  0.798
 
band    11 # energy    4.94435551 # occ.  2.00000000
 
ion      s     py     pz     px    dxy    dyz    dz2    dxz  x2-y2    tot
    1  0.000  0.000  0.010  0.000  0.000  0.080  0.000  0.240  0.000  0.331
    2  0.000  0.000  0.010  0.000  0.000  0.080  0.000  0.240  0.000  0.331
tot    0.000  0.000  0.021  0.000  0.000  0.160  0.000  0.481  0.000  0.662
 
band    12 # energy    5.51334319 # occ.  2.00000000
 
ion      s     py     pz     px    dxy    dyz    dz2    dxz  x2-y2    tot
    1  0.003  0.000  0.000  0.001  0.109  0.000  0.265  0.000  0.036  0.414
    2  0.003  0.000  0.000  0.001  0.109  0.000  0.265  0.000  0.036  0.414
tot    0.005  0.001  0.000  0.002  0.218  0.000  0.531  0.000  0.073  0.829
 
band    13 # energy    5.80770830 # occ.  2.00000000
 
ion      s     py     pz     px    dxy    dyz    dz2    dxz  x2-y2    tot
    1  0.000  0.001  0.000  0.000  0.106  0.000  0.000  0.000  0.318  0.425
    2  0.000  0.001  0.000  0.000  0.106  0.000  0.000  0.000  0.318  0.425
tot    0.000  0.001  0.000  0.000  0.212  0.000  0.000  0.000  0.636  0.849
 
band    14 # energy    5.83473161 # occ.  2.00000000
 
ion      s     py     pz     px    dxy    dyz    dz2    dxz  x2-y2    tot
    1  0.000  0.000  0.000  0.000  0.000  0.319  0.000  0.106  0.000  0.425
    2  0.000  0.000  0.000  0.000  0.000  0.319  0.000  0.106  0.000  0.425
tot    0.000  0.000  0.000  0.000  0.000  0.637  0.000  0.212  0.000  0.849
 
band    15 # energy    5.89444366 # occ.  2.00000000
 
ion      s     py     pz     px    dxy    dyz    dz2    dxz  x2-y2    tot
    1  0.000  0.000  0.006  0.000  0.000  0.096  0.000  0.288  0.000  0.389
    2  0.000  0.000  0.006  0.000  0.000  0.096  0.000  0.288  0.000  0.389
tot    0.000  0.000  0.012  0.000  0.000  0.192  0.000  0.575  0.000  0.779
 
band    16 # energy    6.00893843 # occ.  2.00000000
 
ion      s     py     pz     px    dxy    dyz    dz2    dxz  x2-y2    tot
    1  0.000  0.001  0.000  0.000  0.108  0.000  0.000  0.000  0.324  0.432
    2  0.000  0.001  0.000  0.000  0.108  0.000  0.000  0.000  0.324  0.432
tot    0.000  0.001  0.000  0.000  0.216  0.000  0.000  0.000  0.647  0.865
 
band    17 # energy    7.38390575 # occ.  1.73772130
 
ion      s     py     pz     px    dxy    dyz    dz2    dxz  x2-y2    tot
    1  0.000  0.000  0.000  0.000  0.000  0.347  0.000  0.116  0.000  0.462
    2  0.000  0.000  0.000  0.000  0.000  0.347  0.000  0.116  0.000  0.462
tot    0.000  0.000  0.000  0.000  0.000  0.694  0.000  0.231  0.000  0.925
 
band    18 # energy   10.81367181 # occ.  0.00000000
 
ion      s     py     pz     px    dxy    dyz    dz2    dxz  x2-y2    tot
    1  0.000  0.000  0.050  0.000  0.000  0.042  0.000  0.125  0.000  0.217
    2  0.000  0.000  0.050  0.000  0.000  0.042  0.000  0.125  0.000  0.217
tot    0.000  0.000  0.100  0.000  0.000  0.083  0.000  0.250  0.000  0.433
 
band    19 # energy   10.90066238 # occ.  0.00000000
 
ion      s     py     pz     px    dxy    dyz    dz2    dxz  x2-y2    tot
    1  0.164  0.001  0.000  0.002  0.004  0.000  0.182  0.000  0.001  0.355
    2  0.164  0.001  0.000  0.002  0.004  0.000  0.182  0.000  0.001  0.355
tot    0.328  0.001  0.000  0.004  0.009  0.000  0.365  0.000  0.003  0.710
 
band    20 # energy   19.71611710 # occ.  0.00000000
 
ion      s     py     pz     px    dxy    dyz    dz2    dxz  x2-y2    tot
    1  0.029  0.016  0.000  0.048  0.041  0.000  0.025  0.000  0.014  0.173
    2  0.029  0.016  0.000  0.048  0.041  0.000  0.025  0.000  0.014  0.173
tot    0.059  0.032  0.000  0.095  0.082  0.000  0.051  0.000  0.027  0.346
 
band    21 # energy   22.63541024 # occ.  0.00000000
 
ion      s     py     pz     px    dxy    dyz    dz2    dxz  x2-y2    tot
    1  0.000  0.072  0.000  0.024  0.009  0.000  0.000  0.000  0.027  0.131
    2  0.000  0.072  0.000  0.024  0.009  0.000  0.000  0.000  0.027  0.131
tot    0.000  0.144  0.000  0.048  0.018  0.000  0.000  0.000  0.053  0.263
 
band    22 # energy   23.85346246 # occ.  0.00000000
 
ion      s     py     pz     px    dxy    dyz    dz2    dxz  x2-y2    tot
    1  0.000  0.000  0.018  0.000  0.000  0.003  0.000  0.009  0.000  0.030
    2  0.000  0.000  0.018  0.000  0.000  0.003  0.000  0.009  0.000  0.030
tot    0.000  0.000  0.037  0.000  0.000  0.006  0.000  0.018  0.000  0.061
 
band    23 # energy   24.31337877 # occ.  0.00000000
 
ion      s     py     pz     px    dxy    dyz    dz2    dxz  x2-y2    tot
    1  0.007  0.002  0.000  0.006  0.036  0.000  0.013  0.000  0.012  0.076
    2  0.007  0.002  0.000  0.006  0.036  0.000  0.013  0.000  0.012  0.076
tot    0.014  0.004  0.000  0.012  0.071  0.000  0.027  0.000  0.024  0.151
 
band    24 # energy   24.65666533 # occ.  0.00000000
 
ion      s     py     pz     px    dxy    dyz    dz2    dxz  x2-y2    tot
    1  0.000  0.000  0.002  0.000  0.000  0.014  0.000  0.043  0.000  0.059
    2  0.000  0.000  0.002  0.000  0.000  0.014  0.000  0.043  0.000  0.059
tot    0.000  0.000  0.004  0.000  0.000  0.028  0.000  0.085  0.000  0.117
 

 k-point     4 :    0.30000000-0.00000000 0.00000000     weight = 0.00750000

band     1 # energy  -44.49324150 # occ.  2.00000000
 
ion      s     py     pz     px    dxy    dyz    dz2    dxz  x2-y2    tot
    1  0.000  0.124  0.000  0.371  0.000  0.000  0.000  0.000  0.000  0.495
    2  0.000  0.124  0.000  0.371  0.000  0.000  0.000  0.000  0.000  0.495
tot    0.000  0.247  0.000  0.742  0.000  0.000  0.000  0.000  0.000  0.989
 
band     2 # energy  -44.47696978 # occ.  2.00000000
 
ion      s     py     pz     px    dxy    dyz    dz2    dxz  x2-y2    tot
    1  0.000  0.124  0.000  0.371  0.000  0.000  0.000  0.000  0.000  0.495
    2  0.000  0.124  0.000  0.371  0.000  0.000  0.000  0.000  0.000  0.495
tot    0.000  0.248  0.000  0.743  0.000  0.000  0.000  0.000  0.000  0.990
 
band     3 # energy  -44.41952506 # occ.  2.00000000
 
ion      s     py     pz     px    dxy    dyz    dz2    dxz  x2-y2    tot
    1  0.000  0.372  0.000  0.124  0.000  0.000  0.000  0.000  0.000  0.496
    2  0.000  0.372  0.000  0.124  0.000  0.000  0.000  0.000  0.000  0.496
tot    0.000  0.744  0.000  0.248  0.000  0.000  0.000  0.000  0.000  0.992
 
band     4 # energy  -44.39459504 # occ.  2.00000000
 
ion      s     py     pz     px    dxy    dyz    dz2    dxz  x2-y2    tot
    1  0.000  0.373  0.000  0.124  0.000  0.000  0.000  0.000  0.000  0.497
    2  0.000  0.373  0.000  0.124  0.000  0.000  0.000  0.000  0.000  0.497
tot    0.000  0.745  0.000  0.248  0.000  0.000  0.000  0.000  0.000  0.993
 
band     5 # energy  -44.34930567 # occ.  2.00000000
 
ion      s     py     pz     px    dxy    dyz    dz2    dxz  x2-y2    tot
    1  0.000  0.000  0.495  0.000  0.000  0.000  0.000  0.000  0.000  0.495
    2  0.000  0.000  0.495  0.000  0.000  0.000  0.000  0.000  0.000  0.495
tot    0.000  0.000  0.989  0.000  0.000  0.000  0.000  0.000  0.000  0.989
 
band     6 # energy  -44.26255165 # occ.  2.00000000
 
ion      s     py     pz     px    dxy    dyz    dz2    dxz  x2-y2    tot
    1  0.000  0.000  0.496  0.000  0.000  0.000  0.000  0.000  0.000  0.496
    2  0.000  0.000  0.496  0.000  0.000  0.000  0.000  0.000  0.000  0.496
tot    0.000  0.000  0.993  0.000  0.000  0.000  0.000  0.000  0.000  0.993
 
band     7 # energy    2.03582507 # occ.  2.00000000
 
ion      s     py     pz     px    dxy    dyz    dz2    dxz  x2-y2    tot
    1  0.122  0.002  0.000  0.006  0.040  0.000  0.005  0.000  0.013  0.188
    2  0.122  0.002  0.000  0.006  0.040  0.000  0.005  0.000  0.013  0.188
tot    0.244  0.004  0.000  0.012  0.079  0.000  0.010  0.000  0.026  0.376
 
band     8 # energy    3.28502319 # occ.  2.00000000
 
ion      s     py     pz     px    dxy    dyz    dz2    dxz  x2-y2    tot
    1  0.018  0.000  0.000  0.001  0.156  0.000  0.120  0.000  0.052  0.347
    2  0.018  0.000  0.000  0.001  0.156  0.000  0.120  0.000  0.052  0.347
tot    0.035  0.001  0.000  0.002  0.312  0.000  0.240  0.000  0.104  0.693
 
band     9 # energy    4.17402632 # occ.  2.00000000
 
ion      s     py     pz     px    dxy    dyz    dz2    dxz  x2-y2    tot
    1  0.000  0.000  0.007  0.000  0.000  0.081  0.000  0.244  0.000  0.332
    2  0.000  0.000  0.007  0.000  0.000  0.081  0.000  0.244  0.000  0.332
tot    0.000  0.000  0.013  0.000  0.000  0.162  0.000  0.487  0.000  0.663
 
band    10 # energy    4.71547697 # occ.  2.00000000
 
ion      s     py     pz     px    dxy    dyz    dz2    dxz  x2-y2    tot
    1  0.011  0.002  0.000  0.005  0.217  0.000  0.044  0.000  0.072  0.351
    2  0.011  0.002  0.000  0.005  0.217  0.000  0.044  0.000  0.072  0.351
tot    0.021  0.003  0.000  0.010  0.435  0.000  0.088  0.000  0.145  0.703
 
band    11 # energy    4.95217602 # occ.  2.00000000
 
ion      s     py     pz     px    dxy    dyz    dz2    dxz  x2-y2    tot