<?xml version="1.0" encoding="ISO-8859-1"?>
<modeling>
 <generator>
  <i name="program" type="string">vasp </i>
  <i name="version" type="string">6.3.2  </i>
  <i name="subversion" type="string">27Jun22 (build Aug 12 2022 00:53:59) complex                          parallel </i>
  <i name="platform" type="string">tv2STD </i>
  <i name="date" type="string">2024 12 03 </i>
  <i name="time" type="string">01:39:20 </i>
 </generator>
 <incar>
  <i type="string" name="SYSTEM">Pt-hcc</i>
  <i type="int" name="ISTART">     0</i>
  <i type="string" name="PREC">Accurate      normal | accurate</i>
  <i type="string" name="ALGO">Normal     Normal, Fast, Very_Fast</i>
  <i type="logical" name="ADDGRID"> F  </i>
  <i type="int" name="ICHARG">     2</i>
  <i type="int" name="INIWAV">     1</i>
  <i type="int" name="NELM">   100</i>
  <i type="int" name="IBRION">     2</i>
  <i name="EDIFF">      0.00000100</i>
  <i name="EDIFFG">     -0.02000000</i>
  <i type="int" name="NSW">   100</i>
  <i type="int" name="ISIF">     2</i>
  <i type="int" name="ISYM">     1</i>
  <i name="ENCUT">    450.00000000</i>
  <i type="logical" name="LREAL"> F  </i>
  <i type="int" name="ISMEAR">     0</i>
  <i name="SIGMA">      0.05000000</i>
  <i type="int" name="NWRITE">     2</i>
  <i type="logical" name="LWAVE"> T  </i>
  <i type="logical" name="LCHARG"> T  </i>
  <i type="int" name="LORBIT">    11</i>
 </incar>
 <primitive_cell>
  <structure name="primitive_cell" >
   <crystal>
    <varray name="basis" >
     <v>       2.97320989       0.00000000       0.00000000 </v>
     <v>      -1.48660495       2.57487530       0.00000000 </v>
     <v>       0.00000000       0.00000000       5.15101685 </v>
    </varray>
    <i name="volume">     39.43435484 </i>
    <varray name="rec_basis" >
     <v>       0.33633683       0.19418416       0.00000000 </v>
     <v>       0.00000000       0.38836832       0.00000000 </v>
     <v>       0.00000000       0.00000000       0.19413643 </v>
    </varray>
   </crystal>
   <varray name="positions" >
    <v>       0.00000000       0.00000000       0.00000000 </v>
    <v>       0.33333333       0.66666667       0.50000000 </v>
   </varray>
  </structure>
  <varray name="primitive_index" >
   <v type="int" >        1 </v>
   <v type="int" >        2 </v>
  </varray>
 </primitive_cell>
 <kpoints>
  <generation param="Gamma">
   <v type="int" name="divisions">      10       10        8 </v>
   <v name="usershift">      0.00000000       0.00000000       0.00000000 </v>
   <v name="genvec1">      0.10000000       0.00000000       0.00000000 </v>
   <v name="genvec2">      0.00000000       0.10000000       0.00000000 </v>
   <v name="genvec3">      0.00000000       0.00000000       0.12500000 </v>
   <v name="shift">      0.00000000       0.00000000       0.00000000 </v>
  </generation>
  <varray name="kpointlist" >
   <v>       0.00000000       0.00000000       0.00000000 </v>
   <v>       0.10000000      -0.00000000       0.00000000 </v>
   <v>       0.20000000      -0.00000000       0.00000000 </v>
   <v>       0.30000000      -0.00000000       0.00000000 </v>
   <v>       0.40000000       0.00000000       0.00000000 </v>
   <v>       0.50000000       0.00000000       0.00000000 </v>
   <v>       0.10000000       0.10000000       0.00000000 </v>
   <v>       0.20000000       0.10000000       0.00000000 </v>
   <v>       0.30000000       0.10000000       0.00000000 </v>
   <v>       0.40000000       0.10000000       0.00000000 </v>
   <v>       0.20000000       0.20000000       0.00000000 </v>
   <v>       0.30000000       0.20000000       0.00000000 </v>
   <v>       0.40000000       0.20000000       0.00000000 </v>
   <v>       0.30000000       0.30000000       0.00000000 </v>
   <v>       0.00000000       0.00000000       0.12500000 </v>
   <v>       0.10000000      -0.00000000       0.12500000 </v>
   <v>       0.20000000      -0.00000000       0.12500000 </v>
   <v>       0.30000000      -0.00000000       0.12500000 </v>
   <v>       0.40000000       0.00000000       0.12500000 </v>
   <v>       0.50000000       0.00000000       0.12500000 </v>
   <v>       0.10000000       0.10000000       0.12500000 </v>
   <v>       0.20000000       0.10000000       0.12500000 </v>
   <v>       0.30000000       0.10000000       0.12500000 </v>
   <v>       0.40000000       0.10000000       0.12500000 </v>
   <v>       0.20000000       0.20000000       0.12500000 </v>
   <v>       0.30000000       0.20000000       0.12500000 </v>
   <v>       0.40000000       0.20000000       0.12500000 </v>
   <v>       0.30000000       0.30000000       0.12500000 </v>
   <v>       0.00000000       0.00000000       0.25000000 </v>
   <v>       0.10000000      -0.00000000       0.25000000 </v>
   <v>       0.20000000      -0.00000000       0.25000000 </v>
   <v>       0.30000000      -0.00000000       0.25000000 </v>
   <v>       0.40000000       0.00000000       0.25000000 </v>
   <v>       0.50000000       0.00000000       0.25000000 </v>
   <v>       0.10000000       0.10000000       0.25000000 </v>
   <v>       0.20000000       0.10000000       0.25000000 </v>
   <v>       0.30000000       0.10000000       0.25000000 </v>
   <v>       0.40000000       0.10000000       0.25000000 </v>
   <v>       0.20000000       0.20000000       0.25000000 </v>
   <v>       0.30000000       0.20000000       0.25000000 </v>
   <v>       0.40000000       0.20000000       0.25000000 </v>
   <v>       0.30000000       0.30000000       0.25000000 </v>
   <v>       0.00000000       0.00000000       0.37500000 </v>
   <v>       0.10000000      -0.00000000       0.37500000 </v>
   <v>       0.20000000      -0.00000000       0.37500000 </v>
   <v>       0.30000000      -0.00000000       0.37500000 </v>
   <v>       0.40000000       0.00000000       0.37500000 </v>
   <v>       0.50000000       0.00000000       0.37500000 </v>
   <v>       0.10000000       0.10000000       0.37500000 </v>
   <v>       0.20000000       0.10000000       0.37500000 </v>
   <v>       0.30000000       0.10000000       0.37500000 </v>
   <v>       0.40000000       0.10000000       0.37500000 </v>
   <v>       0.20000000       0.20000000       0.37500000 </v>
   <v>       0.30000000       0.20000000       0.37500000 </v>
   <v>       0.40000000       0.20000000       0.37500000 </v>
   <v>       0.30000000       0.30000000       0.37500000 </v>
   <v>       0.00000000       0.00000000       0.50000000 </v>
   <v>       0.10000000      -0.00000000       0.50000000 </v>
   <v>       0.20000000      -0.00000000       0.50000000 </v>
   <v>       0.30000000      -0.00000000       0.50000000 </v>
   <v>       0.40000000       0.00000000       0.50000000 </v>
   <v>       0.50000000       0.00000000       0.50000000 </v>
   <v>       0.10000000       0.10000000       0.50000000 </v>
   <v>       0.20000000       0.10000000       0.50000000 </v>
   <v>       0.30000000       0.10000000       0.50000000 </v>
   <v>       0.40000000       0.10000000       0.50000000 </v>
   <v>       0.20000000       0.20000000       0.50000000 </v>
   <v>       0.30000000       0.20000000       0.50000000 </v>
   <v>       0.40000000       0.20000000       0.50000000 </v>
   <v>       0.30000000       0.30000000       0.50000000 </v>
  </varray>
  <varray name="weights" >
   <v>       0.00125000 </v>
   <v>       0.00750000 </v>
   <v>       0.00750000 </v>
   <v>       0.00750000 </v>
   <v>       0.00750000 </v>
   <v>       0.00375000 </v>
   <v>       0.00750000 </v>
   <v>       0.01500000 </v>
   <v>       0.01500000 </v>
   <v>       0.01500000 </v>
   <v>       0.00750000 </v>
   <v>       0.01500000 </v>
   <v>       0.00750000 </v>
   <v>       0.00750000 </v>
   <v>       0.00250000 </v>
   <v>       0.01500000 </v>
   <v>       0.01500000 </v>
   <v>       0.01500000 </v>
   <v>       0.01500000 </v>
   <v>       0.00750000 </v>
   <v>       0.01500000 </v>
   <v>       0.03000000 </v>
   <v>       0.03000000 </v>
   <v>       0.03000000 </v>
   <v>       0.01500000 </v>
   <v>       0.03000000 </v>
   <v>       0.01500000 </v>
   <v>       0.01500000 </v>
   <v>       0.00250000 </v>
   <v>       0.01500000 </v>
   <v>       0.01500000 </v>
   <v>       0.01500000 </v>
   <v>       0.01500000 </v>
   <v>       0.00750000 </v>
   <v>       0.01500000 </v>
   <v>       0.03000000 </v>
   <v>       0.03000000 </v>
   <v>       0.03000000 </v>
   <v>       0.01500000 </v>
   <v>       0.03000000 </v>
   <v>       0.01500000 </v>
   <v>       0.01500000 </v>
   <v>       0.00250000 </v>
   <v>       0.01500000 </v>
   <v>       0.01500000 </v>
   <v>       0.01500000 </v>
   <v>       0.01500000 </v>
   <v>       0.00750000 </v>
   <v>       0.01500000 </v>
   <v>       0.03000000 </v>
   <v>       0.03000000 </v>
   <v>       0.03000000 </v>
   <v>       0.01500000 </v>
   <v>       0.03000000 </v>
   <v>       0.01500000 </v>
   <v>       0.01500000 </v>
   <v>       0.00125000 </v>
   <v>       0.00750000 </v>
   <v>       0.00750000 </v>
   <v>       0.00750000 </v>
   <v>       0.00750000 </v>
   <v>       0.00375000 </v>
   <v>       0.00750000 </v>
   <v>       0.01500000 </v>
   <v>       0.01500000 </v>
   <v>       0.01500000 </v>
   <v>       0.00750000 </v>
   <v>       0.01500000 </v>
   <v>       0.00750000 </v>
   <v>       0.00750000 </v>
  </varray>
 </kpoints>
 <parameters>
  <separator name="general" >
   <i type="string" name="SYSTEM">Pt-hcc</i>
   <i type="logical" name="LCOMPAT"> F  </i>
  </separator>
  <separator name="electronic" >
   <i type="string" name="PREC">accura</i>
   <i name="ENMAX">    450.00000000</i>
   <i name="ENAUG">    527.01400000</i>
   <i name="EDIFF">      0.00000100</i>
   <i type="int" name="IALGO">    38</i>
   <i type="int" name="IWAVPR">    11</i>
   <i type="int" name="NBANDS">    24</i>
   <i type="int" name="NBANDSLOW">    -1</i>
   <i type="int" name="NBANDSHIGH">    -1</i>
   <i name="NELECT">     32.00000000</i>
   <i type="int" name="TURBO">     0</i>
   <i type="int" name="IRESTART">     0</i>
   <i type="int" name="NREBOOT">     0</i>
   <i type="int" name="NMIN">     0</i>
   <i name="EREF">      0.00000000</i>
   <separator name="electronic smearing" >
    <i type="int" name="ISMEAR">     0</i>
    <i name="SIGMA">      0.05000000</i>
    <i name="KSPACING">      0.50000000</i>
    <i type="logical" name="KGAMMA"> T  </i>
    <i type="logical" name="KBLOWUP"> T  </i>
   </separator>
   <separator name="electronic projectors" >
    <i type="logical" name="LREAL"> F  </i>
    <v name="ROPT">      0.00000000</v>
    <i type="int" name="LMAXPAW">  -100</i>
    <i type="int" name="LMAXMIX">     2</i>
    <i type="logical" name="NLSPLINE"> F  </i>
   </separator>
   <separator name="electronic startup" >
    <i type="int" name="ISTART">     0</i>
    <i type="int" name="ICHARG">     2</i>
    <i type="int" name="INIWAV">     1</i>
   </separator>
   <separator name="electronic spin" >
    <i type="int" name="ISPIN">     1</i>
    <i type="logical" name="LNONCOLLINEAR"> F  </i>
    <v name="MAGMOM">      1.00000000      1.00000000</v>
    <i name="NUPDOWN">     -1.00000000</i>
    <i type="logical" name="LSORBIT"> F  </i>
    <v name="SAXIS">      0.00000000      0.00000000      1.00000000</v>
    <i type="logical" name="LSPIRAL"> F  </i>
    <v name="QSPIRAL">      0.00000000      0.00000000      0.00000000</v>
    <i type="logical" name="LZEROZ"> F  </i>
   </separator>
   <separator name="electronic exchange-correlation" >
    <i type="logical" name="LASPH"> F  </i>
    <i type="logical" name="LMETAGGA"> F  </i>
   </separator>
   <separator name="electronic convergence" >
    <i type="int" name="NELM">   100</i>
    <i type="int" name="NELMDL">    -5</i>
    <i type="int" name="NELMIN">     2</i>
    <i name="ENINI">    450.00000000</i>
    <separator name="electronic convergence detail" >
     <i type="logical" name="LDIAG"> T  </i>
     <i type="logical" name="LSUBROT"> F  </i>
     <i name="WEIMIN">      0.00100000</i>
     <i name="EBREAK">      0.00000001</i>
     <i name="DEPER">      0.30000000</i>
     <i type="int" name="NRMM">     4</i>
     <i name="TIME">      0.40000000</i>
    </separator>
   </separator>
   <separator name="electronic mixer" >
    <i name="AMIX">      0.40000000</i>
    <i name="BMIX">      1.00000000</i>
    <i name="AMIN">      0.10000000</i>
    <i name="AMIX_MAG">      1.60000000</i>
    <i name="BMIX_MAG">      1.00000000</i>
    <separator name="electronic mixer details" >
     <i type="int" name="IMIX">     4</i>
     <i type="logical" name="MIXFIRST"> F  </i>
     <i type="int" name="MAXMIX">   -45</i>
     <i name="WC">    100.00000000</i>
     <i type="int" name="INIMIX">     1</i>
     <i type="int" name="MIXPRE">     1</i>
     <i type="int" name="MREMOVE">     5</i>
    </separator>
   </separator>
   <separator name="electronic dipolcorrection" >
    <i type="logical" name="LDIPOL"> F  </i>
    <i type="logical" name="LMONO"> F  </i>
    <i type="int" name="IDIPOL">     0</i>
    <i name="EPSILON">      1.00000000</i>
    <v name="DIPOL">   -100.00000000   -100.00000000   -100.00000000</v>
    <i name="EFIELD">      0.00000000</i>
   </separator>
  </separator>
  <separator name="grids" >
   <i type="int" name="NGX">    24</i>
   <i type="int" name="NGY">    24</i>
   <i type="int" name="NGZ">    36</i>
   <i type="int" name="NGXF">    48</i>
   <i type="int" name="NGYF">    48</i>
   <i type="int" name="NGZF">    72</i>
   <i type="logical" name="ADDGRID"> F  </i>
  </separator>
  <separator name="ionic" >
   <i type="int" name="NSW">   100</i>
   <i type="int" name="IBRION">     2</i>
   <i type="int" name="MDALGO">     0</i>
   <i type="int" name="ISIF">     2</i>
   <i name="PSTRESS">      0.00000000</i>
   <i name="EDIFFG">     -0.02000000</i>
   <i type="int" name="NFREE">     1</i>
   <i name="POTIM">      0.50000000</i>
   <i name="SMASS">     -3.00000000</i>
   <i name="SCALEE">      1.00000000</i>
  </separator>
  <separator name="ionic md" >
   <i name="TEBEG">      0.00010000</i>
   <i name="TEEND">      0.00010000</i>
   <i type="int" name="NBLOCK">     1</i>
   <i type="int" name="KBLOCK">   100</i>
   <i type="int" name="NPACO">   256</i>
   <i name="APACO">     10.00000000</i>
  </separator>
  <separator name="symmetry" >
   <i type="int" name="ISYM">     1</i>
   <i name="SYMPREC">      0.00001000</i>
  </separator>
  <separator name="dos" >
   <i type="int" name="LORBIT">    11</i>
   <v name="RWIGS">     -1.00000000</v>
   <i type="int" name="NEDOS">   301</i>
   <i name="EMIN">     10.00000000</i>
   <i name="EMAX">    -10.00000000</i>
   <i name="EFERMI">      0.00000000</i>
  </separator>
  <separator name="writing" >
   <i type="int" name="NWRITE">     2</i>
   <i type="logical" name="LWAVE"> T  </i>
   <i type="logical" name="LDOWNSAMPLE"> F  </i>
   <i type="logical" name="LCHARG"> T  </i>
   <i type="logical" name="LPARD"> F  </i>
   <i type="logical" name="LVTOT"> F  </i>
   <i type="logical" name="LVHAR"> F  </i>
   <i type="logical" name="LELF"> F  </i>
   <i type="logical" name="LOPTICS"> F  </i>
   <v name="STM">      0.00000000      0.00000000      0.00000000      0.00000000      0.00000000      0.00000000      0.00000000</v>
  </separator>
  <separator name="performance" >
   <i type="int" name="NPAR">    24</i>
   <i type="int" name="NSIM">     4</i>
   <i type="int" name="NBLK">    -1</i>
   <i type="logical" name="LPLANE"> T  </i>
   <i type="logical" name="LSCALAPACK"> T  </i>
   <i type="logical" name="LSCAAWARE"> F  </i>
   <i type="logical" name="LSCALU"> F  </i>
   <i type="logical" name="LASYNC"> F  </i>
   <i type="logical" name="LORBITALREAL"> F  </i>
  </separator>
  <separator name="miscellaneous" >
   <i type="int" name="IDIOT">     3</i>
   <i type="int" name="PHON_NSTRUCT">    -1</i>
   <i type="logical" name="LMUSIC"> F  </i>
   <v name="POMASS">    195.08000000</v>
   <v name="DARWINR">      0.00000000</v>
   <v name="DARWINV">      1.00000000</v>
   <i type="logical" name="LCORR"> T  </i>
  </separator>
  <i type="logical" name="GGA_COMPAT"> T  </i>
  <i type="logical" name="LBERRY"> F  </i>
  <i type="int" name="ICORELEVEL">     0</i>
  <i type="logical" name="LDAU"> F  </i>
  <i type="int" name="I_CONSTRAINED_M">     0</i>
  <separator name="electronic exchange-correlation" >
   <i type="string" name="GGA">--</i>
   <i type="int" name="VOSKOWN">     0</i>
   <i type="logical" name="LHFCALC"> F  </i>
   <i type="string" name="PRECFOCK"></i>
   <i type="logical" name="LSYMGRAD"> F  </i>
   <i type="logical" name="LHFONE"> F  </i>
   <i type="logical" name="LRHFCALC"> F  </i>
   <i type="logical" name="LTHOMAS"> F  </i>
   <i type="logical" name="LMODELHF"> F  </i>
   <i type="logical" name="LFOCKACE"> F  </i>
   <i name="ENCUT4O">     -1.00000000</i>
   <i type="int" name="EXXOEP">     0</i>
   <i type="int" name="FOURORBIT">     0</i>
   <i name="AEXX">      0.00000000</i>
   <i name="HFALPHA">      0.00000000</i>
   <i name="MCALPHA">      0.00000000</i>
   <i name="ALDAX">      1.00000000</i>
   <i name="AGGAX">      1.00000000</i>
   <i name="ALDAC">      1.00000000</i>
   <i name="AGGAC">      1.00000000</i>
   <i type="int" name="NKREDX">     1</i>
   <i type="int" name="NKREDY">     1</i>
   <i type="int" name="NKREDZ">     1</i>
   <i type="logical" name="SHIFTRED"> F  </i>
   <i type="logical" name="ODDONLY"> F  </i>
   <i type="logical" name="EVENONLY"> F  </i>
   <i type="int" name="LMAXFOCK">     0</i>
   <i type="int" name="NMAXFOCKAE">     0</i>
   <i type="logical" name="LFOCKAEDFT"> F  </i>
   <i name="HFSCREEN">      0.00000000</i>
   <i name="HFSCREENC">      0.00000000</i>
   <i type="int" name="NBANDSGWLOW">     0</i>
  </separator>
  <separator name="vdW DFT" >
   <i type="logical" name="LUSE_VDW"> F  </i>
   <i name="Zab_VDW">     -0.84910000</i>
   <i name="PARAM1">      0.12340000</i>
   <i name="PARAM2">      1.00000000</i>
   <i name="PARAM3">      0.00000000</i>
  </separator>
  <separator name="model GW" >
   <i type="int" name="MODEL_GW">     0</i>
   <i name="MODEL_EPS0">     11.83030645</i>
   <i name="MODEL_ALPHA">      1.00000000</i>
  </separator>
  <separator name="linear response parameters" >
   <i type="logical" name="LEPSILON"> F  </i>
   <i type="logical" name="LRPA"> F  </i>
   <i type="logical" name="LNABLA"> F  </i>
   <i type="logical" name="LVEL"> F  </i>
   <i name="CSHIFT">      0.10000000</i>
   <i name="OMEGAMAX">     -1.00000000</i>
   <i name="DEG_THRESHOLD">      0.00200000</i>
   <i name="RTIME">     -0.10000000</i>
   <i name="WPLASMAI">      0.00000000</i>
   <v name="DFIELD">      0.00000000      0.00000000      0.00000000</v>
   <v name="WPLASMA">      0.00000000      0.00000000      0.00000000      0.00000000      0.00000000      0.00000000      0.00000000      0.00000000      0.00000000</v>
  </separator>
  <separator name="orbital magnetization" >
   <i type="logical" name="NUCIND"> F  </i>
   <v name="MAGPOS">      0.00000000      0.00000000      0.00000000</v>
   <i type="logical" name="LNICSALL"> T  </i>
   <i type="logical" name="ORBITALMAG"> F  </i>
   <i type="logical" name="LMAGBLOCH"> F  </i>
   <i type="logical" name="LCHIMAG"> F  </i>
   <i type="logical" name="LGAUGE"> T  </i>
   <i type="int" name="MAGATOM">     0</i>
   <v name="MAGDIPOL">      0.00000000      0.00000000      0.00000000</v>
   <v name="AVECCONST">      0.00000000      0.00000000      0.00000000</v>
  </separator>
  <separator name="response functions" >
   <i type="logical" name="LFINITE_TEMPERATURE"> F  </i>
   <i type="logical" name="LADDER"> F  </i>
   <i type="logical" name="LRPAFORCE"> F  </i>
   <i type="logical" name="LFXC"> F  </i>
   <i type="logical" name="LHARTREE"> T  </i>
   <i type="int" name="IBSE">     0</i>
   <v type="int" name="KPOINT">    -1     0     0     0</v>
   <i type="logical" name="LTCTC"> F  </i>
   <i type="logical" name="LTCTE"> F  </i>
   <i type="logical" name="LTETE"> F  </i>
   <i type="logical" name="LTRIPLET"> F  </i>
   <i type="logical" name="LFXCEPS"> F  </i>
   <i type="logical" name="LFXHEG"> F  </i>
   <i type="int" name="NATURALO">     2</i>
   <i type="logical" name="LHOLEGF"> F  </i>
   <i type="logical" name="L2ORDER"> F  </i>
   <i type="logical" name="LDMP1"> F  </i>
   <i type="logical" name="LMP2LT"> F  </i>
   <i type="logical" name="LSMP2LT"> F  </i>
   <i type="logical" name="LGWLF"> F  </i>
   <i name="ENCUTGW">     -2.00000000</i>
   <i name="ENCUTGWSOFT">     -2.00000000</i>
   <i name="ENCUTLF">     -1.00000000</i>
   <i type="logical" name="LESF_SPLINES"> F  </i>
   <i type="int" name="LMAXMP2">    -1</i>
   <i name="SCISSOR">      0.00000000</i>
   <i type="int" name="NOMEGA">     0</i>
   <i type="int" name="NOMEGAR">     0</i>
   <i type="int" name="NBANDSGW">    -1</i>
   <i type="int" name="NBANDSO">    -1</i>
   <i type="int" name="NBANDSV">    -1</i>
   <i type="int" name="NELMGW">     1</i>
   <i type="int" name="NELMHF">     1</i>
   <i type="int" name="DIM">     3</i>
   <i type="int" name="IESPILON">     4</i>
   <i type="int" name="ANTIRES">     0</i>
   <i name="OMEGAMAX">    -30.00000000</i>
   <i name="OMEGAMIN">    -30.00000000</i>
   <i name="OMEGATL">   -200.00000000</i>
   <i type="int" name="OMEGAGRID">     0</i>
   <i name="CSHIFT">     -0.10000000</i>
   <i type="logical" name="LSELFENERGY"> F  </i>
   <i type="logical" name="LSPECTRAL"> F  </i>
   <i type="logical" name="LSPECTRALGW"> F  </i>
   <i type="logical" name="LSINGLES"> F  </i>
   <i type="logical" name="LFERMIGW"> F  </i>
   <i type="logical" name="ODDONLYGW"> F  </i>
   <i type="logical" name="EVENONLYGW"> F  </i>
   <i type="int" name="NKREDLFX">     1</i>
   <i type="int" name="NKREDLFY">     1</i>
   <i type="int" name="NKREDLFZ">     1</i>
   <i type="int" name="MAXMEM">  2800</i>
   <i type="int" name="TELESCOPE">     0</i>
   <i type="int" name="NTAUPAR">    -1</i>
   <i type="int" name="NOMEGAPAR">    -1</i>
   <i name="DAMP_NEWTON">      0.80000001</i>
   <i name="LAMBDA">      1.00000000</i>
  </separator>
  <separator name="External order field" >
   <i name="OFIELD_KAPPA">      0.00000000</i>
   <v name="OFIELD_K">      0.00000000      0.00000000      0.00000000</v>
   <i name="OFIELD_Q6_NEAR">      0.00000000</i>
   <i name="OFIELD_Q6_FAR">      0.00000000</i>
   <i name="OFIELD_A">      0.00000000</i>
  </separator>
  <separator name="optional k-points parameters" >
   <i type="int" name="KPOINTS_OPT_MODE">     1</i>
   <i type="logical" name="LKPOINTS_OPT"> F  </i>
  </separator>
 </parameters>
 <atominfo>
  <atoms>       2 </atoms>
  <types>       1 </types>
  <array name="atoms" >
   <dimension dim="1">ion</dimension>
   <field type="string">element</field>
   <field type="int">atomtype</field>
   <set>
    <rc><c>Pt</c><c>   1</c></rc>
    <rc><c>Pt</c><c>   1</c></rc>
   </set>
  </array>
  <array name="atomtypes" >
   <dimension dim="1">type</dimension>
   <field type="int">atomspertype</field>
   <field type="string">element</field>
   <field>mass</field>
   <field>valence</field>
   <field type="string">pseudopotential</field>
   <set>
    <rc><c>   2</c><c>Pt</c><c>    195.08000000</c><c>     16.00000000</c><c>  PAW_PBE Pt_pv 12Dec2005               </c></rc>
   </set>
  </array>
 </atominfo>
 <structure name="initialpos" >
  <crystal>
   <varray name="basis" >
    <v>       2.97320989       0.00000000       0.00000000 </v>
    <v>      -1.48660495       2.57487530       0.00000000 </v>
    <v>       0.00000000       0.00000000       5.15101685 </v>
   </varray>
   <i name="volume">     39.43435484 </i>
   <varray name="rec_basis" >
    <v>       0.33633683       0.19418416       0.00000000 </v>
    <v>       0.00000000       0.38836832       0.00000000 </v>
    <v>       0.00000000       0.00000000       0.19413643 </v>
   </varray>
  </crystal>
  <varray name="positions" >
   <v>       0.00000000       0.00000000       0.00000000 </v>
   <v>       0.33333333       0.66666667       0.50000000 </v>
  </varray>
 </structure>
 <calculation>
  <scstep>
   <time name="dav">    0.35    0.35</time>
   <time name="total">    0.36    0.36</time>
   <energy>
    <i name="alphaZ">    243.37343109 </i>
    <i name="ewald">  -3939.00844495 </i>
    <i name="hartreedc">   -969.95991856 </i>
    <i name="XCdc">    125.48040467 </i>
    <i name="pawpsdc">   4131.50523274 </i>
    <i name="pawaedc">  -4061.67189606 </i>
    <i name="eentropy">     -0.00122123 </i>
    <i name="bandstr">   -232.17161295 </i>
    <i name="atom">   4856.42966544 </i>
    <i name="e_fr_energy">    153.97564019 </i>
    <i name="e_wo_entrp">    153.97686143 </i>
    <i name="e_0_energy">    153.97625081 </i>
   </energy>
  </scstep>
  <scstep>
   <time name="dav">    0.40    0.40</time>
   <time name="total">    0.40    0.40</time>
   <energy>
    <i name="e_fr_energy">    -10.04092644 </i>
    <i name="e_wo_entrp">    -10.03537097 </i>
    <i name="e_0_energy">    -10.03814870 </i>
   </energy>
  </scstep>
  <scstep>
   <time name="dav">    0.52    0.52</time>
   <time name="total">    0.52    0.53</time>
   <energy>
    <i name="e_fr_energy">    -11.80503846 </i>
    <i name="e_wo_entrp">    -11.79911430 </i>
    <i name="e_0_energy">    -11.80207638 </i>
   </energy>
  </scstep>
  <scstep>
   <time name="dav">    0.65    0.66</time>
   <time name="total">    0.65    0.66</time>
   <energy>
    <i name="e_fr_energy">    -11.81128815 </i>
    <i name="e_wo_entrp">    -11.80534141 </i>
    <i name="e_0_energy">    -11.80831478 </i>
   </energy>
  </scstep>
  <scstep>
   <time name="dav">    0.55    0.56</time>
   <time name="total">    0.59    0.59</time>
   <energy>
    <i name="e_fr_energy">    -11.81129302 </i>
    <i name="e_wo_entrp">    -11.80534628 </i>
    <i name="e_0_energy">    -11.80831965 </i>
   </energy>
  </scstep>
  <scstep>
   <time name="dav">    0.37    0.37</time>
   <time name="total">    0.41    0.41</time>
   <energy>
    <i name="e_fr_energy">    -11.12828353 </i>
    <i name="e_wo_entrp">    -11.12061562 </i>
    <i name="e_0_energy">    -11.12444958 </i>
   </energy>
  </scstep>
  <scstep>
   <time name="dav">    0.50    0.50</time>
   <time name="total">    0.54    0.54</time>
   <energy>
    <i name="e_fr_energy">    -11.11747284 </i>
    <i name="e_wo_entrp">    -11.10946706 </i>
    <i name="e_0_energy">    -11.11346995 </i>
   </energy>
  </scstep>
  <scstep>
   <time name="dav">    0.46    0.46</time>
   <time name="total">    0.49    0.50</time>
   <energy>
    <i name="e_fr_energy">    -11.11645455 </i>
    <i name="e_wo_entrp">    -11.10832269 </i>
    <i name="e_0_energy">    -11.11238862 </i>
   </energy>
  </scstep>
  <scstep>
   <time name="dav">    0.57    0.57</time>
   <time name="total">    0.61    0.61</time>
   <energy>
    <i name="e_fr_energy">    -11.11649126 </i>
    <i name="e_wo_entrp">    -11.10837746 </i>
    <i name="e_0_energy">    -11.11243436 </i>
   </energy>
  </scstep>
  <scstep>
   <time name="dav">    0.47    0.47</time>
   <time name="total">    0.50    0.51</time>
   <energy>
    <i name="e_fr_energy">    -11.11651700 </i>
    <i name="e_wo_entrp">    -11.10841011 </i>
    <i name="e_0_energy">    -11.11246356 </i>
   </energy>
  </scstep>
  <scstep>
   <time name="dav">    0.53    0.53</time>
   <time name="total">    0.53    0.53</time>
   <energy>
    <i name="alphaZ">    243.37343109 </i>
    <i name="ewald">  -3939.00844495 </i>
    <i name="hartreedc">   -931.59868896 </i>
    <i name="XCdc">    123.83086561 </i>
    <i name="pawpsdc">   4220.83277628 </i>
    <i name="pawaedc">  -4154.01230318 </i>
    <i name="eentropy">     -0.00810928 </i>
    <i name="bandstr">   -430.95570892 </i>
    <i name="atom">   4856.42966544 </i>
    <i name="e_fr_energy">    -11.11651689 </i>
    <i name="e_wo_entrp">    -11.10840761 </i>
    <i name="e_0_energy">    -11.11246225 </i>
   </energy>
  </scstep>
  <structure>
   <crystal>
    <varray name="basis" >
     <v>       2.97320989       0.00000000       0.00000000 </v>
     <v>      -1.48660495       2.57487530       0.00000000 </v>
     <v>       0.00000000       0.00000000       5.15101685 </v>
    </varray>
    <i name="volume">     39.43435484 </i>
    <varray name="rec_basis" >
     <v>       0.33633683       0.19418416       0.00000000 </v>
     <v>       0.00000000       0.38836832       0.00000000 </v>
     <v>       0.00000000       0.00000000       0.19413643 </v>
    </varray>
   </crystal>
   <varray name="positions" >
    <v>       0.00000000       0.00000000       0.00000000 </v>
    <v>       0.33333333       0.66666667       0.50000000 </v>
   </varray>
  </structure>
  <varray name="forces" >
   <v>       0.00000000       0.00000000       0.00000000 </v>
   <v>      -0.00000000       0.00000000       0.00000000 </v>
  </varray>
  <varray name="stress" >
   <v>    -321.25598717       0.00000000       0.00000000 </v>
   <v>       0.00000000    -321.25598717      -0.00000000 </v>
   <v>       0.00000000      -0.00000000    -281.09631252 </v>
  </varray>
  <energy>
   <i name="e_fr_energy">    -11.11651689 </i>
   <i name="e_wo_entrp">    -11.10840761 </i>
   <i name="e_0_energy">    -11.11246225 </i>
  </energy>
  <time name="totalsc">    6.08    6.26</time>
  <eigenvalues>
   <array>
    <dimension dim="1">band</dimension>
    <dimension dim="2">kpoint</dimension>
    <dimension dim="3">spin</dimension>
    <field>eigene</field>
    <field>occ</field>
    <set>
     <set comment="spin 1">
      <set comment="kpoint 1">
       <r>  -44.3884    1.0000 </r>
       <r>  -44.3884    1.0000 </r>
       <r>  -44.3852    1.0000 </r>
       <r>  -44.3718    1.0000 </r>
       <r>  -44.3718    1.0000 </r>
       <r>  -44.2513    1.0000 </r>
       <r>   -0.1297    1.0000 </r>
       <r>    2.2757    1.0000 </r>
       <r>    4.7200    1.0000 </r>
       <r>    5.0599    1.0000 </r>
       <r>    5.0599    1.0000 </r>
       <r>    5.3055    1.0000 </r>
       <r>    5.3055    1.0000 </r>
       <r>    6.1988    1.0000 </r>
       <r>    6.1988    1.0000 </r>
       <r>    7.2870    0.9999 </r>
       <r>    7.2870    0.9999 </r>
       <r>    7.6619    0.0000 </r>
       <r>   10.8899    0.0000 </r>
       <r>   22.6020    0.0000 </r>
       <r>   22.8841    0.0000 </r>
       <r>   24.4043    0.0000 </r>
       <r>   26.0583    0.0000 </r>
       <r>   26.0583    0.0000 </r>
      </set>
      <set comment="kpoint 2">
       <r>  -44.4042    1.0000 </r>
       <r>  -44.3933    1.0000 </r>
       <r>  -44.3867    1.0000 </r>
       <r>  -44.3810    1.0000 </r>
       <r>  -44.3750    1.0000 </r>
       <r>  -44.2526    1.0000 </r>
       <r>    0.1636    1.0000 </r>
       <r>    2.5332    1.0000 </r>
       <r>    4.6732    1.0000 </r>
       <r>    5.0752    1.0000 </r>
       <r>    5.2107    1.0000 </r>
       <r>    5.2560    1.0000 </r>
       <r>    5.4915    1.0000 </r>
       <r>    5.8909    1.0000 </r>
       <r>    6.0871    1.0000 </r>
       <r>    6.3170    1.0000 </r>
       <r>    7.3237    0.9976 </r>
       <r>    9.0547    0.0000 </r>
       <r>   10.8812    0.0000 </r>
       <r>   22.5246    0.0000 </r>
       <r>   23.3130    0.0000 </r>
       <r>   23.8735    0.0000 </r>
       <r>   24.7256    0.0000 </r>
       <r>   25.4642    0.0000 </r>
      </set>
      <set comment="kpoint 3">
       <r>  -44.4438    1.0000 </r>
       <r>  -44.4272    1.0000 </r>
       <r>  -44.4048    1.0000 </r>
       <r>  -44.3835    1.0000 </r>
       <r>  -44.3677    1.0000 </r>
       <r>  -44.2559    1.0000 </r>
       <r>    0.9789    1.0000 </r>
       <r>    3.1192    1.0000 </r>
       <r>    4.5192    1.0000 </r>
       <r>    4.8790    1.0000 </r>
       <r>    4.9444    1.0000 </r>
       <r>    5.5133    1.0000 </r>
       <r>    5.8077    1.0000 </r>
       <r>    5.8347    1.0000 </r>
       <r>    5.8944    1.0000 </r>
       <r>    6.0089    1.0000 </r>
       <r>    7.3839    0.8689 </r>
       <r>   10.8137    0.0000 </r>
       <r>   10.9007    0.0000 </r>
       <r>   19.7161    0.0000 </r>
       <r>   22.6354    0.0000 </r>
       <r>   23.8535    0.0000 </r>
       <r>   24.3134    0.0000 </r>
       <r>   24.6567    0.0000 </r>
      </set>
      <set comment="kpoint 4">
       <r>  -44.4932    1.0000 </r>
       <r>  -44.4770    1.0000 </r>
       <r>  -44.4195    1.0000 </r>
       <r>  -44.3946    1.0000 </r>
       <r>  -44.3493    1.0000 </r>
       <r>  -44.2626    1.0000 </r>
       <r>    2.0358    1.0000 </r>
       <r>    3.2850    1.0000 </r>
       <r>    4.1740    1.0000 </r>
       <r>    4.7155    1.0000 </r>
       <r>    4.9522    1.0000 </r>
       <r>    5.5383    1.0000 </r>
       <r>    5.5689    1.0000 </r>
       <r>    6.3232    1.0000 </r>
       <r>    6.5827    1.0000 </r>
       <r>    6.7278    1.0000 </r>
       <r>    7.4169    0.5746 </r>
       <r>   11.1523    0.0000 </r>
       <r>   12.6734    0.0000 </r>
       <r>   16.1920    0.0000 </r>
       <r>   20.6669    0.0000 </r>
       <r>   21.6174    0.0000 </r>
       <r>   22.0606    0.0000 </r>
       <r>   24.1110    0.0000 </r>
      </set>
      <set comment="kpoint 5">
       <r>  -44.5330    1.0000 </r>
       <r>  -44.5166    1.0000 </r>
       <r>  -44.4306    1.0000 </r>
       <r>  -44.4037    1.0000 </r>
       <r>  -44.3309    1.0000 </r>
       <r>  -44.2719    1.0000 </r>
       <r>    2.7095    1.0000 </r>
       <r>    3.0659    1.0000 </r>
       <r>    3.7007    1.0000 </r>
       <r>    5.0882    1.0000 </r>
       <r>    5.2759    1.0000 </r>
       <r>    5.3768    1.0000 </r>
       <r>    5.5822    1.0000 </r>
       <r>    7.3013    0.9997 </r>
       <r>    7.4173    0.5702 </r>
       <r>    7.4243    0.4910 </r>
       <r>    7.6960    0.0000 </r>
       <r>   12.1231    0.0000 </r>
       <r>   12.8661    0.0000 </r>
       <r>   14.4288    0.0000 </r>
       <r>   17.7398    0.0000 </r>
       <r>   19.1762    0.0000 </r>
       <r>   20.3401    0.0000 </r>
       <r>   23.0857    0.0000 </r>
      </set>
      <set comment="kpoint 6">
       <r>  -44.5484    1.0000 </r>
       <r>  -44.5316    1.0000 </r>
       <r>  -44.4347    1.0000 </r>
       <r>  -44.4074    1.0000 </r>
       <r>  -44.3218    1.0000 </r>
       <r>  -44.2776    1.0000 </r>
       <r>    2.8748    1.0000 </r>
       <r>    2.9312    1.0000 </r>
       <r>    3.5415    1.0000 </r>
       <r>    5.1796    1.0000 </r>
       <r>    5.3074    1.0000 </r>
       <r>    5.4384    1.0000 </r>
       <r>    5.7955    1.0000 </r>
       <r>    7.4241    0.4941 </r>
       <r>    7.5939    0.0000 </r>
       <r>    7.7280    0.0000 </r>
       <r>    9.3826    0.0000 </r>
       <r>   10.4459    0.0000 </r>
       <r>   13.7603    0.0000 </r>
       <r>   15.0668    0.0000 </r>
       <r>   15.3533    0.0000 </r>
       <r>   18.5962    0.0000 </r>
       <r>   19.4346    0.0000 </r>
       <r>   22.7149    0.0000 </r>
      </set>
      <set comment="kpoint 7">
       <r>  -44.4293    1.0000 </r>
       <r>  -44.4178    1.0000 </r>
       <r>  -44.3988    1.0000 </r>
       <r>  -44.3827    1.0000 </r>
       <r>  -44.3718    1.0000 </r>
       <r>  -44.2546    1.0000 </r>
       <r>    0.7231    1.0000 </r>
       <r>    2.9873    1.0000 </r>
       <r>    4.4920    1.0000 </r>
       <r>    5.0103    1.0000 </r>
       <r>    5.2359    1.0000 </r>
       <r>    5.2434    1.0000 </r>
       <r>    5.6687    1.0000 </r>
       <r>    5.7091    1.0000 </r>
       <r>    5.9044    1.0000 </r>
       <r>    6.1668    1.0000 </r>
       <r>    7.3368    0.9929 </r>
       <r>   10.3377    0.0000 </r>
       <r>   10.8880    0.0000 </r>
       <r>   21.4437    0.0000 </r>
       <r>   21.5327    0.0000 </r>
       <r>   24.0752    0.0000 </r>
       <r>   24.8400    0.0000 </r>
       <r>   25.0750    0.0000 </r>
      </set>
      <set comment="kpoint 8">
       <r>  -44.4705    1.0000 </r>
       <r>  -44.4594    1.0000 </r>
       <r>  -44.4154    1.0000 </r>
       <r>  -44.3958    1.0000 </r>
       <r>  -44.3559    1.0000 </r>
       <r>  -44.2598    1.0000 </r>
       <r>    1.7092    1.0000 </r>
       <r>    3.5071    1.0000 </r>
       <r>    4.3700    1.0000 </r>
       <r>    4.4729    1.0000 </r>
       <r>    4.8199    1.0000 </r>
       <r>    5.3792    1.0000 </r>
       <r>    5.6623    1.0000 </r>
       <r>    5.9100    1.0000 </r>
       <r>    6.4070    1.0000 </r>
       <r>    6.6734    1.0000 </r>
       <r>    7.3356    0.9936 </r>
       <r>   11.0343    0.0000 </r>
       <r>   12.0543    0.0000 </r>
       <r>   17.9630    0.0000 </r>
       <r>   19.8892    0.0000 </r>
       <r>   23.0631    0.0000 </r>
       <r>   23.8579    0.0000 </r>
       <r>   24.4672    0.0000 </r>
      </set>
      <set comment="kpoint 9">
       <r>  -44.5134    1.0000 </r>
       <r>  -44.4992    1.0000 </r>
       <r>  -44.4320    1.0000 </r>
       <r>  -44.4086    1.0000 </r>
       <r>  -44.3372    1.0000 </r>
       <r>  -44.2684    1.0000 </r>
       <r>    2.6761    1.0000 </r>
       <r>    3.3750    1.0000 </r>
       <r>    3.9114    1.0000 </r>
       <r>    4.7304    1.0000 </r>
       <r>    5.1502    1.0000 </r>
       <r>    5.1763    1.0000 </r>
       <r>    5.5723    1.0000 </r>
       <r>    6.4271    1.0000 </r>
       <r>    7.1409    1.0000 </r>
       <r>    7.3263    0.9970 </r>
       <r>    7.6802    0.0000 </r>
       <r>   11.6882    0.0000 </r>
       <r>   13.8831    0.0000 </r>
       <r>   14.5272    0.0000 </r>
       <r>   18.0701    0.0000 </r>
       <r>   20.3315    0.0000 </r>
       <r>   21.3181    0.0000 </r>
       <r>   23.2136    0.0000 </r>
      </set>
      <set comment="kpoint 10">
       <r>  -44.5399    1.0000 </r>
       <r>  -44.5236    1.0000 </r>
       <r>  -44.4423    1.0000 </r>
       <r>  -44.4161    1.0000 </r>
       <r>  -44.3219    1.0000 </r>
       <r>  -44.2775    1.0000 </r>
       <r>    3.0437    1.0000 </r>
       <r>    3.1684    1.0000 </r>
       <r>    3.6226    1.0000 </r>
       <r>    5.1399    1.0000 </r>
       <r>    5.2913    1.0000 </r>
       <r>    5.3136    1.0000 </r>
       <r>    5.5410    1.0000 </r>
       <r>    7.2597    1.0000 </r>
       <r>    7.3152    0.9989 </r>
       <r>    7.4999    0.0154 </r>
       <r>    9.0523    0.0000 </r>
       <r>   11.4991    0.0000 </r>
       <r>   13.2992    0.0000 </r>
       <r>   15.4215    0.0000 </r>
       <r>   15.8288    0.0000 </r>
       <r>   18.1888    0.0000 </r>
       <r>   19.8126    0.0000 </r>
       <r>   22.5254    0.0000 </r>
      </set>
      <set comment="kpoint 11">
       <r>  -44.4952    1.0000 </r>
       <r>  -44.4947    1.0000 </r>
       <r>  -44.4340    1.0000 </r>
       <r>  -44.4172    1.0000 </r>
       <r>  -44.3395    1.0000 </r>
       <r>  -44.2669    1.0000 </r>
       <r>    2.7413    1.0000 </r>
       <r>    3.9838    1.0000 </r>
       <r>    4.0547    1.0000 </r>
       <r>    4.0584    1.0000 </r>
       <r>    4.9681    1.0000 </r>
       <r>    5.0443    1.0000 </r>
       <r>    5.7106    1.0000 </r>
       <r>    5.9144    1.0000 </r>
       <r>    7.1355    1.0000 </r>
       <r>    7.2199    1.0000 </r>
       <r>    7.7373    0.0000 </r>
       <r>   11.6040    0.0000 </r>
       <r>   13.7254    0.0000 </r>
       <r>   15.9403    0.0000 </r>
       <r>   16.8603    0.0000 </r>
       <r>   21.9392    0.0000 </r>
       <r>   22.2389    0.0000 </r>
       <r>   22.8594    0.0000 </r>
      </set>
      <set comment="kpoint 12">
       <r>  -44.5210    1.0000 </r>
       <r>  -44.5097    1.0000 </r>
       <r>  -44.4557    1.0000 </r>
       <r>  -44.4359    1.0000 </r>
       <r>  -44.3219    1.0000 </r>
       <r>  -44.2772    1.0000 </r>
       <r>    3.4724    1.0000 </r>
       <r>    3.7450    1.0000 </r>
       <r>    3.7844    1.0000 </r>
       <r>    4.5749    1.0000 </r>
       <r>    4.9436    1.0000 </r>
       <r>    5.3721    1.0000 </r>
       <r>    5.3787    1.0000 </r>
       <r>    6.4604    1.0000 </r>
       <r>    7.1303    1.0000 </r>
       <r>    7.4244    0.4902 </r>
       <r>    9.0060    0.0000 </r>
       <r>   12.4682    0.0000 </r>
       <r>   13.6401    0.0000 </r>
       <r>   15.2628    0.0000 </r>
       <r>   15.5278    0.0000 </r>
       <r>   19.1384    0.0000 </r>
       <r>   20.7509    0.0000 </r>
       <r>   21.6543    0.0000 </r>
      </set>
      <set comment="kpoint 13">
       <r>  -44.5302    1.0000 </r>
       <r>  -44.5137    1.0000 </r>
       <r>  -44.4665    1.0000 </r>
       <r>  -44.4430    1.0000 </r>
       <r>  -44.3119    1.0000 </r>
       <r>  -44.2842    1.0000 </r>
       <r>    3.5958    1.0000 </r>
       <r>    3.6361    1.0000 </r>
       <r>    3.6894    1.0000 </r>
       <r>    5.0132    1.0000 </r>
       <r>    5.0356    1.0000 </r>
       <r>    5.1225    1.0000 </r>
       <r>    5.5645    1.0000 </r>
       <r>    6.9808    1.0000 </r>
       <r>    7.0977    1.0000 </r>
       <r>    7.2904    0.9999 </r>
       <r>   10.5146    0.0000 </r>
       <r>   10.7179    0.0000 </r>
       <r>   13.9936    0.0000 </r>
       <r>   15.2562    0.0000 </r>
       <r>   16.6502    0.0000 </r>
       <r>   17.1851    0.0000 </r>
       <r>   19.6000    0.0000 </r>
       <r>   21.1203    0.0000 </r>
      </set>
      <set comment="kpoint 14">
       <r>  -44.5148    1.0000 </r>
       <r>  -44.5020    1.0000 </r>
       <r>  -44.4818    1.0000 </r>
       <r>  -44.4656    1.0000 </r>
       <r>  -44.3060    1.0000 </r>
       <r>  -44.2890    1.0000 </r>
       <r>    3.7607    1.0000 </r>
       <r>    3.9476    1.0000 </r>
       <r>    4.1571    1.0000 </r>
       <r>    4.5000    1.0000 </r>
       <r>    4.9130    1.0000 </r>
       <r>    5.1038    1.0000 </r>
       <r>    5.6271    1.0000 </r>
       <r>    6.7037    1.0000 </r>
       <r>    6.9891    1.0000 </r>
       <r>    7.1868    1.0000 </r>
       <r>   10.3757    0.0000 </r>
       <r>   11.5865    0.0000 </r>
       <r>   13.0860    0.0000 </r>
       <r>   15.7974    0.0000 </r>
       <r>   17.3595    0.0000 </r>
       <r>   18.1862    0.0000 </r>
       <r>   18.8333    0.0000 </r>
       <r>   19.4934    0.0000 </r>
      </set>
      <set comment="kpoint 15">
       <r>  -44.3880    1.0000 </r>
       <r>  -44.3880    1.0000 </r>
       <r>  -44.3808    1.0000 </r>
       <r>  -44.3725    1.0000 </r>
       <r>  -44.3725    1.0000 </r>
       <r>  -44.2567    1.0000 </r>
       <r>   -0.0209    1.0000 </r>
       <r>    2.2457    1.0000 </r>
       <r>    4.6989    1.0000 </r>
       <r>    5.0460    1.0000 </r>
       <r>    5.0460    1.0000 </r>
       <r>    5.2795    1.0000 </r>
       <r>    5.2795    1.0000 </r>
       <r>    6.2654    1.0000 </r>
       <r>    6.2654    1.0000 </r>
       <r>    7.0033    1.0000 </r>
       <r>    7.2656    1.0000 </r>
       <r>    7.2656    1.0000 </r>
       <r>   11.7887    0.0000 </r>
       <r>   22.0962    0.0000 </r>
       <r>   23.2059    0.0000 </r>
       <r>   24.1739    0.0000 </r>
       <r>   25.9361    0.0000 </r>
       <r>   25.9361    0.0000 </r>
      </set>
      <set comment="kpoint 16">
       <r>  -44.4040    1.0000 </r>
       <r>  -44.3927    1.0000 </r>
       <r>  -44.3875    1.0000 </r>
       <r>  -44.3756    1.0000 </r>
       <r>  -44.3755    1.0000 </r>
       <r>  -44.2571    1.0000 </r>
       <r>    0.2707    1.0000 </r>
       <r>    2.5091    1.0000 </r>
       <r>    4.6763    1.0000 </r>
       <r>    5.0179    1.0000 </r>
       <r>    5.1483    1.0000 </r>
       <r>    5.2362    1.0000 </r>
       <r>    5.4630    1.0000 </r>
       <r>    5.8997    1.0000 </r>
       <r>    6.1659    1.0000 </r>
       <r>    6.2464    1.0000 </r>
       <r>    7.2961    0.9998 </r>
       <r>    8.4049    0.0000 </r>
       <r>   11.9244    0.0000 </r>
       <r>   22.2987    0.0000 </r>
       <r>   23.2367    0.0000 </r>
       <r>   23.9567    0.0000 </r>
       <r>   24.7696    0.0000 </r>
       <r>   24.9659    0.0000 </r>
      </set>
      <set comment="kpoint 17">
       <r>  -44.4441    1.0000 </r>
       <r>  -44.4282    1.0000 </r>
       <r>  -44.4042    1.0000 </r>
       <r>  -44.3842    1.0000 </r>
       <r>  -44.3628    1.0000 </r>
       <r>  -44.2597    1.0000 </r>
       <r>    1.0765    1.0000 </r>
       <r>    3.1152    1.0000 </r>
       <r>    4.5422    1.0000 </r>
       <r>    4.7176    1.0000 </r>
       <r>    4.9158    1.0000 </r>
       <r>    5.4610    1.0000 </r>
       <r>    5.7000    1.0000 </r>
       <r>    5.9337    1.0000 </r>
       <r>    6.0135    1.0000 </r>
       <r>    6.0516    1.0000 </r>
       <r>    7.3432    0.9884 </r>
       <r>    9.5175    0.0000 </r>
       <r>   12.4724    0.0000 </r>
       <r>   19.8216    0.0000 </r>
       <r>   22.7779    0.0000 </r>
       <r>   23.4226    0.0000 </r>
       <r>   23.7822    0.0000 </r>
       <r>   24.7527    0.0000 </r>
      </set>
      <set comment="kpoint 18">
       <r>  -44.4934    1.0000 </r>
       <r>  -44.4784    1.0000 </r>
       <r>  -44.4184    1.0000 </r>
       <r>  -44.3956    1.0000 </r>
       <r>  -44.3453    1.0000 </r>
       <r>  -44.2655    1.0000 </r>
       <r>    2.0929    1.0000 </r>
       <r>    3.3007    1.0000 </r>
       <r>    4.1478    1.0000 </r>
       <r>    4.6018    1.0000 </r>
       <r>    4.9770    1.0000 </r>
       <r>    5.6078    1.0000 </r>
       <r>    5.6118    1.0000 </r>
       <r>    6.3589    1.0000 </r>
       <r>    6.5983    1.0000 </r>
       <r>    6.6956    1.0000 </r>
       <r>    7.3703    0.9341 </r>
       <r>   10.3608    0.0000 </r>
       <r>   13.5460    0.0000 </r>
       <r>   16.4116    0.0000 </r>
       <r>   20.7383    0.0000 </r>
       <r>   20.8521    0.0000 </r>
       <r>   22.6685    0.0000 </r>
       <r>   24.3192    0.0000 </r>
      </set>
      <set comment="kpoint 19">
       <r>  -44.5332    1.0000 </r>
       <r>  -44.5178    1.0000 </r>
       <r>  -44.4293    1.0000 </r>
       <r>  -44.4046    1.0000 </r>
       <r>  -44.3280    1.0000 </r>
       <r>  -44.2734    1.0000 </r>
       <r>    2.6784    1.0000 </r>
       <r>    3.0769    1.0000 </r>
       <r>    3.7933    1.0000 </r>
       <r>    4.6509    1.0000 </r>
       <r>    5.3969    1.0000 </r>
       <r>    5.4364    1.0000 </r>
       <r>    6.0103    1.0000 </r>
       <r>    7.2538    1.0000 </r>
       <r>    7.3139    0.9990 </r>
       <r>    7.4816    0.0502 </r>
       <r>    7.6335    0.0000 </r>
       <r>   11.4710    0.0000 </r>
       <r>   12.8513    0.0000 </r>
       <r>   15.1360    0.0000 </r>
       <r>   17.5079    0.0000 </r>
       <r>   19.3826    0.0000 </r>
       <r>   20.6614    0.0000 </r>
       <r>   23.2554    0.0000 </r>
      </set>
      <set comment="kpoint 20">
       <r>  -44.5483    1.0000 </r>
       <r>  -44.5327    1.0000 </r>
       <r>  -44.4333    1.0000 </r>
       <r>  -44.4083    1.0000 </r>
       <r>  -44.3194    1.0000 </r>
       <r>  -44.2785    1.0000 </r>
       <r>    2.7872    1.0000 </r>
       <r>    2.9502    1.0000 </r>
       <r>    3.6795    1.0000 </r>
       <r>    4.7056    1.0000 </r>
       <r>    5.3709    1.0000 </r>
       <r>    5.5022    1.0000 </r>
       <r>    6.3618    1.0000 </r>
       <r>    7.3099    0.9993 </r>
       <r>    7.6083    0.0000 </r>
       <r>    7.7241    0.0000 </r>
       <r>    9.2636    0.0000 </r>
       <r>   10.3998    0.0000 </r>
       <r>   13.5523    0.0000 </r>
       <r>   13.9273    0.0000 </r>
       <r>   16.7150    0.0000 </r>
       <r>   18.8104    0.0000 </r>
       <r>   19.6323    0.0000 </r>
       <r>   22.9093    0.0000 </r>
      </set>
      <set comment="kpoint 21">
       <r>  -44.4293    1.0000 </r>
       <r>  -44.4181    1.0000 </r>
       <r>  -44.3987    1.0000 </r>
       <r>  -44.3835    1.0000 </r>
       <r>  -44.3667    1.0000 </r>
       <r>  -44.2587    1.0000 </r>
       <r>    0.8252    1.0000 </r>
       <r>    2.9764    1.0000 </r>
       <r>    4.5138    1.0000 </r>
       <r>    4.8552    1.0000 </r>
       <r>    5.0857    1.0000 </r>
       <r>    5.2981    1.0000 </r>
       <r>    5.6254    1.0000 </r>
       <r>    5.7828    1.0000 </r>
       <r>    5.9801    1.0000 </r>
       <r>    6.2014    1.0000 </r>
       <r>    7.3013    0.9997 </r>
       <r>    9.2618    0.0000 </r>
       <r>   12.2742    0.0000 </r>
       <r>   21.5369    0.0000 </r>
       <r>   21.5846    0.0000 </r>
       <r>   23.6587    0.0000 </r>
       <r>   24.3467    0.0000 </r>
       <r>   25.2436    0.0000 </r>
      </set>
      <set comment="kpoint 22">
       <r>  -44.4708    1.0000 </r>
       <r>  -44.4602    1.0000 </r>
       <r>  -44.4148    1.0000 </r>
       <r>  -44.3966    1.0000 </r>
       <r>  -44.3518    1.0000 </r>
       <r>  -44.2630    1.0000 </r>
       <r>    1.7907    1.0000 </r>
       <r>    3.5254    1.0000 </r>
       <r>    4.3208    1.0000 </r>
       <r>    4.4222    1.0000 </r>
       <r>    4.8147    1.0000 </r>
       <r>    5.2958    1.0000 </r>
       <r>    5.7838    1.0000 </r>
       <r>    5.8876    1.0000 </r>
       <r>    6.4851    1.0000 </r>
       <r>    6.6381    1.0000 </r>
       <r>    7.3014    0.9997 </r>
       <r>   10.1118    0.0000 </r>
       <r>   13.1663    0.0000 </r>
       <r>   18.1132    0.0000 </r>
       <r>   19.9928    0.0000 </r>
       <r>   22.5088    0.0000 </r>
       <r>   23.5784    0.0000 </r>
       <r>   24.7758    0.0000 </r>
      </set>
      <set comment="kpoint 23">
       <r>  -44.5135    1.0000 </r>
       <r>  -44.5003    1.0000 </r>
       <r>  -44.4314    1.0000 </r>
       <r>  -44.4094    1.0000 </r>
       <r>  -44.3339    1.0000 </r>
       <r>  -44.2704    1.0000 </r>
       <r>    2.6867    1.0000 </r>
       <r>    3.3982    1.0000 </r>
       <r>    3.9401    1.0000 </r>
       <r>    4.5379    1.0000 </r>
       <r>    5.1333    1.0000 </r>
       <r>    5.4133    1.0000 </r>
       <r>    5.5846    1.0000 </r>
       <r>    6.4385    1.0000 </r>
       <r>    7.1722    1.0000 </r>
       <r>    7.2098    1.0000 </r>
       <r>    7.7131    0.0000 </r>
       <r>   11.0818    0.0000 </r>
       <r>   13.9853    0.0000 </r>
       <r>   15.2642    0.0000 </r>
       <r>   18.0702    0.0000 </r>
       <r>   19.8802    0.0000 </r>
       <r>   21.7989    0.0000 </r>
       <r>   23.0711    0.0000 </r>
      </set>
      <set comment="kpoint 24">
       <r>  -44.5399    1.0000 </r>
       <r>  -44.5249    1.0000 </r>
       <r>  -44.4414    1.0000 </r>
       <r>  -44.4172    1.0000 </r>
       <r>  -44.3193    1.0000 </r>
       <r>  -44.2782    1.0000 </r>
       <r>    2.9591    1.0000 </r>
       <r>    3.1847    1.0000 </r>
       <r>    3.7783    1.0000 </r>
       <r>    4.6590    1.0000 </r>
       <r>    5.1984    1.0000 </r>
       <r>    5.5883    1.0000 </r>
       <r>    5.9525    1.0000 </r>
       <r>    7.1813    1.0000 </r>
       <r>    7.2634    1.0000 </r>
       <r>    7.5271    0.0017 </r>
       <r>    9.0374    0.0000 </r>
       <r>   11.4592    0.0000 </r>
       <r>   12.8223    0.0000 </r>
       <r>   15.1291    0.0000 </r>
       <r>   16.4774    0.0000 </r>
       <r>   18.4026    0.0000 </r>
       <r>   20.1057    0.0000 </r>
       <r>   22.2823    0.0000 </r>
      </set>
      <set comment="kpoint 25">
       <r>  -44.4956    1.0000 </r>
       <r>  -44.4951    1.0000 </r>
       <r>  -44.4337    1.0000 </r>
       <r>  -44.4183    1.0000 </r>
       <r>  -44.3359    1.0000 </r>
       <r>  -44.2694    1.0000 </r>
       <r>    2.7831    1.0000 </r>
       <r>    3.9162    1.0000 </r>
       <r>    4.0697    1.0000 </r>
       <r>    4.1169    1.0000 </r>
       <r>    4.9807    1.0000 </r>
       <r>    5.0226    1.0000 </r>
       <r>    5.6242    1.0000 </r>
       <r>    6.0270    1.0000 </r>
       <r>    7.0837    1.0000 </r>
       <r>    7.2081    1.0000 </r>
       <r>    7.7814    0.0000 </r>
       <r>   11.0095    0.0000 </r>
       <r>   14.2502    0.0000 </r>
       <r>   16.2877    0.0000 </r>
       <r>   16.9790    0.0000 </r>
       <r>   21.1698    0.0000 </r>
       <r>   21.7027    0.0000 </r>
       <r>   23.4479    0.0000 </r>
      </set>
      <set comment="kpoint 26">
       <r>  -44.5209    1.0000 </r>
       <r>  -44.5106    1.0000 </r>
       <r>  -44.4554    1.0000 </r>
       <r>  -44.4371    1.0000 </r>
       <r>  -44.3193    1.0000 </r>
       <r>  -44.2783    1.0000 </r>
       <r>    3.4038    1.0000 </r>
       <r>    3.7597    1.0000 </r>
       <r>    3.8921    1.0000 </r>
       <r>    4.4408    1.0000 </r>
       <r>    5.0321    1.0000 </r>
       <r>    5.3040    1.0000 </r>
       <r>    5.4800    1.0000 </r>
       <r>    6.5045    1.0000 </r>
       <r>    7.0010    1.0000 </r>
       <r>    7.4886    0.0329 </r>
       <r>    9.0413    0.0000 </r>
       <r>   12.4162    0.0000 </r>
       <r>   13.1403    0.0000 </r>
       <r>   15.2782    0.0000 </r>
       <r>   16.2761    0.0000 </r>
       <r>   18.6954    0.0000 </r>
       <r>   20.7737    0.0000 </r>
       <r>   21.3236    0.0000 </r>
      </set>
      <set comment="kpoint 27">
       <r>  -44.5301    1.0000 </r>
       <r>  -44.5149    1.0000 </r>
       <r>  -44.4659    1.0000 </r>
       <r>  -44.4443    1.0000 </r>
       <r>  -44.3100    1.0000 </r>
       <r>  -44.2847    1.0000 </r>
       <r>    3.4198    1.0000 </r>
       <r>    3.6699    1.0000 </r>
       <r>    3.9520    1.0000 </r>
       <r>    4.6064    1.0000 </r>
       <r>    4.9335    1.0000 </r>
       <r>    5.4630    1.0000 </r>
       <r>    5.6891    1.0000 </r>
       <r>    6.9634    1.0000 </r>
       <r>    6.9974    1.0000 </r>
       <r>    7.3394    0.9914 </r>
       <r>   10.6040    0.0000 </r>
       <r>   10.7598    0.0000 </r>
       <r>   13.8957    0.0000 </r>
       <r>   14.9238    0.0000 </r>
       <r>   15.9082    0.0000 </r>
       <r>   18.3360    0.0000 </r>
       <r>   19.7673    0.0000 </r>
       <r>   20.4885    0.0000 </r>
      </set>
      <set comment="kpoint 28">
       <r>  -44.5143    1.0000 </r>
       <r>  -44.5030    1.0000 </r>
       <r>  -44.4822    1.0000 </r>
       <r>  -44.4666    1.0000 </r>
       <r>  -44.3045    1.0000 </r>
       <r>  -44.2888    1.0000 </r>
       <r>    3.7775    1.0000 </r>
       <r>    3.9352    1.0000 </r>
       <r>    4.1924    1.0000 </r>
       <r>    4.4256    1.0000 </r>
       <r>    4.9977    1.0000 </r>
       <r>    5.0282    1.0000 </r>
       <r>    5.6353    1.0000 </r>
       <r>    6.7683    1.0000 </r>
       <r>    6.8526    1.0000 </r>
       <r>    7.2478    1.0000 </r>
       <r>   10.4556    0.0000 </r>
       <r>   11.7088    0.0000 </r>
       <r>   13.2638    0.0000 </r>
       <r>   15.0318    0.0000 </r>
       <r>   17.2991    0.0000 </r>
       <r>   17.6041    0.0000 </r>
       <r>   19.0727    0.0000 </r>
       <r>   20.4274    0.0000 </r>
      </set>
      <set comment="kpoint 29">
       <r>  -44.3865    1.0000 </r>
       <r>  -44.3865    1.0000 </r>
       <r>  -44.3740    1.0000 </r>
       <r>  -44.3740    1.0000 </r>
       <r>  -44.3660    1.0000 </r>
       <r>  -44.2698    1.0000 </r>
       <r>    0.2943    1.0000 </r>
       <r>    2.1233    1.0000 </r>
       <r>    4.6532    1.0000 </r>
       <r>    5.0237    1.0000 </r>
       <r>    5.0237    1.0000 </r>
       <r>    5.2128    1.0000 </r>
       <r>    5.2128    1.0000 </r>
       <r>    5.9477    1.0000 </r>
       <r>    6.4387    1.0000 </r>
       <r>    6.4387    1.0000 </r>
       <r>    7.1965    1.0000 </r>
       <r>    7.1965    1.0000 </r>
       <r>   13.5867    0.0000 </r>
       <r>   21.2727    0.0000 </r>
       <r>   23.1336    0.0000 </r>
       <r>   23.6721    0.0000 </r>
       <r>   25.7932    0.0000 </r>
       <r>   25.7932    0.0000 </r>
      </set>
      <set comment="kpoint 30">
       <r>  -44.4030    1.0000 </r>
       <r>  -44.3906    1.0000 </r>
       <r>  -44.3897    1.0000 </r>
       <r>  -44.3774    1.0000 </r>
       <r>  -44.3608    1.0000 </r>
       <r>  -44.2704    1.0000 </r>
       <r>    0.5817    1.0000 </r>
       <r>    2.3996    1.0000 </r>
       <r>    4.6723    1.0000 </r>
       <r>    4.9125    1.0000 </r>
       <r>    4.9878    1.0000 </r>
       <r>    5.2048    1.0000 </r>
       <r>    5.3924    1.0000 </r>
       <r>    5.5814    1.0000 </r>
       <r>    6.3609    1.0000 </r>
       <r>    6.3701    1.0000 </r>
       <r>    7.2096    1.0000 </r>
       <r>    7.7117    0.0000 </r>
       <r>   13.7674    0.0000 </r>
       <r>   21.5827    0.0000 </r>
       <r>   23.0650    0.0000 </r>
       <r>   23.7330    0.0000 </r>
       <r>   24.4926    0.0000 </r>
       <r>   24.9386    0.0000 </r>
      </set>
      <set comment="kpoint 31">
       <r>  -44.4437    1.0000 </r>
       <r>  -44.4309    1.0000 </r>
       <r>  -44.4019    1.0000 </r>
       <r>  -44.3866    1.0000 </r>
       <r>  -44.3494    1.0000 </r>
       <r>  -44.2709    1.0000 </r>
       <r>    1.3604    1.0000 </r>
       <r>    3.0547    1.0000 </r>
       <r>    4.4489    1.0000 </r>
       <r>    4.6152    1.0000 </r>
       <r>    4.7486    1.0000 </r>
       <r>    5.3210    1.0000 </r>
       <r>    5.6416    1.0000 </r>
       <r>    5.8800    1.0000 </r>
       <r>    6.2666    1.0000 </r>
       <r>    6.3009    1.0000 </r>
       <r>    7.2233    1.0000 </r>
       <r>    8.4882    0.0000 </r>
       <r>   14.3029    0.0000 </r>
       <r>   20.1334    0.0000 </r>
       <r>   22.2714    0.0000 </r>
       <r>   22.9460    0.0000 </r>
       <r>   23.2008    0.0000 </r>
       <r>   24.6991    0.0000 </r>
      </set>
      <set comment="kpoint 32">
       <r>  -44.4932    1.0000 </r>
       <r>  -44.4815    1.0000 </r>
       <r>  -44.4157    1.0000 </r>
       <r>  -44.3981    1.0000 </r>
       <r>  -44.3345    1.0000 </r>
       <r>  -44.2734    1.0000 </r>
       <r>    2.2596    1.0000 </r>
       <r>    3.3019    1.0000 </r>
       <r>    4.0446    1.0000 </r>
       <r>    4.4259    1.0000 </r>
       <r>    5.0729    1.0000 </r>
       <r>    5.6673    1.0000 </r>
       <r>    5.7358    1.0000 </r>
       <r>    6.5186    1.0000 </r>
       <r>    6.5499    1.0000 </r>
       <r>    6.6948    1.0000 </r>
       <r>    7.2476    1.0000 </r>
       <r>    9.2383    0.0000 </r>
       <r>   14.8675    0.0000 </r>
       <r>   17.0835    0.0000 </r>
       <r>   19.6308    0.0000 </r>
       <r>   21.3878    0.0000 </r>
       <r>   22.7342    0.0000 </r>
       <r>   24.1488    0.0000 </r>
      </set>
      <set comment="kpoint 33">
       <r>  -44.5331    1.0000 </r>
       <r>  -44.5209    1.0000 </r>
       <r>  -44.4264    1.0000 </r>
       <r>  -44.4075    1.0000 </r>
       <r>  -44.3198    1.0000 </r>
       <r>  -44.2782    1.0000 </r>
       <r>    2.6504    1.0000 </r>
       <r>    3.0913    1.0000 </r>
       <r>    3.9190    1.0000 </r>
       <r>    4.2087    1.0000 </r>
       <r>    5.6108    1.0000 </r>
       <r>    5.6195    1.0000 </r>
       <r>    6.6673    1.0000 </r>
       <r>    6.9752    1.0000 </r>
       <r>    7.3367    0.9930 </r>
       <r>    7.4415    0.3058 </r>
       <r>    7.4834    0.0453 </r>
       <r>   10.2718    0.0000 </r>
       <r>   13.1276    0.0000 </r>
       <r>   15.6059    0.0000 </r>
       <r>   17.7254    0.0000 </r>
       <r>   19.9693    0.0000 </r>
       <r>   21.1827    0.0000 </r>
       <r>   23.6310    0.0000 </r>
      </set>
      <set comment="kpoint 34">
       <r>  -44.5481    1.0000 </r>
       <r>  -44.5361    1.0000 </r>
       <r>  -44.4304    1.0000 </r>
       <r>  -44.4112    1.0000 </r>
       <r>  -44.3131    1.0000 </r>
       <r>  -44.2816    1.0000 </r>
       <r>    2.6860    1.0000 </r>
       <r>    2.9810    1.0000 </r>
       <r>    3.8646    1.0000 </r>
       <r>    4.1740    1.0000 </r>
       <r>    5.5568    1.0000 </r>
       <r>    5.7623    1.0000 </r>
       <r>    7.0211    1.0000 </r>
       <r>    7.1369    1.0000 </r>
       <r>    7.6284    0.0000 </r>
       <r>    7.7121    0.0000 </r>
       <r>    8.9361    0.0000 </r>
       <r>   10.2351    0.0000 </r>
       <r>   13.0112    0.0000 </r>
       <r>   13.0737    0.0000 </r>
       <r>   18.2772    0.0000 </r>
       <r>   19.4145    0.0000 </r>
       <r>   20.0919    0.0000 </r>
       <r>   23.4317    0.0000 </r>
      </set>
      <set comment="kpoint 35">
       <r>  -44.4290    1.0000 </r>
       <r>  -44.4192    1.0000 </r>
       <r>  -44.3977    1.0000 </r>
       <r>  -44.3856    1.0000 </r>
       <r>  -44.3528    1.0000 </r>
       <r>  -44.2707    1.0000 </r>
       <r>    1.1222    1.0000 </r>
       <r>    2.8972    1.0000 </r>
       <r>    4.5810    1.0000 </r>
       <r>    4.5845    1.0000 </r>
       <r>    4.8309    1.0000 </r>
       <r>    5.2574    1.0000 </r>
       <r>    5.5495    1.0000 </r>
       <r>    5.7457    1.0000 </r>
       <r>    6.2825    1.0000 </r>
       <r>    6.3341    1.0000 </r>
       <r>    7.1950    1.0000 </r>
       <r>    8.3003    0.0000 </r>
       <r>   14.1344    0.0000 </r>
       <r>   21.6265    0.0000 </r>
       <r>   21.8158    0.0000 </r>
       <r>   22.7070    0.0000 </r>
       <r>   23.6779    0.0000 </r>
       <r>   24.2471    0.0000 </r>
      </set>
      <set comment="kpoint 36">
       <r>  -44.4710    1.0000 </r>
       <r>  -44.4624    1.0000 </r>
       <r>  -44.4131    1.0000 </r>
       <r>  -44.3991    1.0000 </r>
       <r>  -44.3397    1.0000 </r>
       <r>  -44.2724    1.0000 </r>
       <r>    2.0272    1.0000 </r>
       <r>    3.5218    1.0000 </r>
       <r>    4.1065    1.0000 </r>
       <r>    4.4759    1.0000 </r>
       <r>    4.7120    1.0000 </r>
       <r>    5.1884    1.0000 </r>
       <r>    5.7588    1.0000 </r>
       <r>    6.1578    1.0000 </r>
       <r>    6.5674    1.0000 </r>
       <r>    6.6341    1.0000 </r>
       <r>    7.2082    1.0000 </r>
       <r>    9.0198    0.0000 </r>
       <r>   14.8082    0.0000 </r>
       <r>   18.5514    0.0000 </r>
       <r>   20.1886    0.0000 </r>
       <r>   21.6523    0.0000 </r>
       <r>   23.1282    0.0000 </r>
       <r>   23.2468    0.0000 </r>
      </set>
      <set comment="kpoint 37">
       <r>  -44.5134    1.0000 </r>
       <r>  -44.5033    1.0000 </r>
       <r>  -44.4290    1.0000 </r>
       <r>  -44.4121    1.0000 </r>
       <r>  -44.3245    1.0000 </r>
       <r>  -44.2763    1.0000 </r>
       <r>    2.7387    1.0000 </r>
       <r>    3.4238    1.0000 </r>
       <r>    3.9268    1.0000 </r>
       <r>    4.3462    1.0000 </r>
       <r>    5.1769    1.0000 </r>
       <r>    5.6140    1.0000 </r>
       <r>    5.7300    1.0000 </r>
       <r>    6.5268    1.0000 </r>
       <r>    6.9000    1.0000 </r>
       <r>    7.3179    0.9986 </r>
       <r>    7.7374    0.0000 </r>
       <r>    9.9828    0.0000 </r>
       <r>   14.3896    0.0000 </r>
       <r>   16.5574    0.0000 </r>
       <r>   17.8367    0.0000 </r>
       <r>   19.7163    0.0000 </r>
       <r>   22.0951    0.0000 </r>
       <r>   22.5795    0.0000 </r>
      </set>
      <set comment="kpoint 38">
       <r>  -44.5397    1.0000 </r>
       <r>  -44.5281    1.0000 </r>
       <r>  -44.4389    1.0000 </r>
       <r>  -44.4201    1.0000 </r>
       <r>  -44.3129    1.0000 </r>
       <r>  -44.2816    1.0000 </r>
       <r>    2.8651    1.0000 </r>
       <r>    3.2217    1.0000 </r>
       <r>    3.9867    1.0000 </r>
       <r>    4.1907    1.0000 </r>
       <r>    5.2135    1.0000 </r>
       <r>    5.9166    1.0000 </r>
       <r>    6.4524    1.0000 </r>
       <r>    6.8797    1.0000 </r>
       <r>    7.2304    1.0000 </r>
       <r>    7.5925    0.0000 </r>
       <r>    9.0261    0.0000 </r>
       <r>   11.0651    0.0000 </r>
       <r>   12.3914    0.0000 </r>
       <r>   14.4962    0.0000 </r>
       <r>   17.5878    0.0000 </r>
       <r>   19.0834    0.0000 </r>
       <r>   20.7066    0.0000 </r>
       <r>   21.6798    0.0000 </r>
      </set>
      <set comment="kpoint 39">
       <r>  -44.4969    1.0000 </r>
       <r>  -44.4959    1.0000 </r>
       <r>  -44.4330    1.0000 </r>
       <r>  -44.4210    1.0000 </r>
       <r>  -44.3261    1.0000 </r>
       <r>  -44.2758    1.0000 </r>
       <r>    2.9054    1.0000 </r>
       <r>    3.7810    1.0000 </r>
       <r>    4.1239    1.0000 </r>
       <r>    4.2067    1.0000 </r>
       <r>    4.9445    1.0000 </r>
       <r>    4.9638    1.0000 </r>
       <r>    5.5258    1.0000 </r>
       <r>    6.3491    1.0000 </r>
       <r>    6.7936    1.0000 </r>
       <r>    7.3528    0.9773 </r>
       <r>    7.8406    0.0000 </r>
       <r>    9.9607    0.0000 </r>
       <r>   15.1429    0.0000 </r>
       <r>   17.2309    0.0000 </r>
       <r>   17.2774    0.0000 </r>
       <r>   20.1004    0.0000 </r>
       <r>   20.9646    0.0000 </r>
       <r>   23.3167    0.0000 </r>
      </set>
      <set comment="kpoint 40">
       <r>  -44.5207    1.0000 </r>
       <r>  -44.5128    1.0000 </r>
       <r>  -44.4543    1.0000 </r>
       <r>  -44.4399    1.0000 </r>
       <r>  -44.3124    1.0000 </r>
       <r>  -44.2814    1.0000 </r>
       <r>    3.3324    1.0000 </r>
       <r>    3.8539    1.0000 </r>
       <r>    3.8700    1.0000 </r>
       <r>    4.4463    1.0000 </r>
       <r>    4.9303    1.0000 </r>
       <r>    5.3541    1.0000 </r>
       <r>    5.6318    1.0000 </r>
       <r>    6.6046    1.0000 </r>
       <r>    6.7629    1.0000 </r>
       <r>    7.6065    0.0000 </r>
       <r>    9.1464    0.0000 </r>
       <r>   11.5921    0.0000 </r>
       <r>   13.2195    0.0000 </r>
       <r>   15.4927    0.0000 </r>
       <r>   16.9021    0.0000 </r>
       <r>   18.5224    0.0000 </r>
       <r>   19.9930    0.0000 </r>
       <r>   22.1195    0.0000 </r>
      </set>
      <set comment="kpoint 41">
       <r>  -44.5294    1.0000 </r>
       <r>  -44.5178    1.0000 </r>
       <r>  -44.4640    1.0000 </r>
       <r>  -44.4473    1.0000 </r>
       <r>  -44.3049    1.0000 </r>
       <r>  -44.2858    1.0000 </r>
       <r>    3.3104    1.0000 </r>
       <r>    3.7523    1.0000 </r>
       <r>    4.1849    1.0000 </r>
       <r>    4.3068    1.0000 </r>
       <r>    4.7535    1.0000 </r>
       <r>    5.6972    1.0000 </r>
       <r>    5.9245    1.0000 </r>
       <r>    6.6368    1.0000 </r>
       <r>    7.0609    1.0000 </r>
       <r>    7.4366    0.3557 </r>
       <r>   10.8757    0.0000 </r>
       <r>   10.8945    0.0000 </r>
       <r>   13.3561    0.0000 </r>
       <r>   14.1580    0.0000 </r>
       <r>   15.8402    0.0000 </r>
       <r>   19.1543    0.0000 </r>
       <r>   19.8008    0.0000 </r>
       <r>   20.8662    0.0000 </r>
      </set>
      <set comment="kpoint 42">
       <r>  -44.5129    1.0000 </r>
       <r>  -44.5054    1.0000 </r>
       <r>  -44.4828    1.0000 </r>
       <r>  -44.4699    1.0000 </r>
       <r>  -44.3008    1.0000 </r>
       <r>  -44.2889    1.0000 </r>
       <r>    3.8021    1.0000 </r>
       <r>    3.8905    1.0000 </r>
       <r>    4.3034    1.0000 </r>
       <r>    4.3549    1.0000 </r>
       <r>    4.8811    1.0000 </r>
       <r>    5.0952    1.0000 </r>
       <r>    5.6528    1.0000 </r>
       <r>    6.5090    1.0000 </r>
       <r>    6.9519    1.0000 </r>
       <r>    7.3636    0.9549 </r>
       <r>   10.7020    0.0000 </r>
       <r>   12.0761    0.0000 </r>
       <r>   13.7193    0.0000 </r>
       <r>   13.8554    0.0000 </r>
       <r>   16.0920    0.0000 </r>
       <r>   17.1149    0.0000 </r>
       <r>   20.2095    0.0000 </r>
       <r>   21.7271    0.0000 </r>
      </set>
      <set comment="kpoint 43">
       <r>  -44.3837    1.0000 </r>
       <r>  -44.3837    1.0000 </r>
       <r>  -44.3769    1.0000 </r>
       <r>  -44.3769    1.0000 </r>
       <r>  -44.3443    1.0000 </r>
       <r>  -44.2925    1.0000 </r>
       <r>    0.7764    1.0000 </r>
       <r>    1.8278    1.0000 </r>
       <r>    4.6344    1.0000 </r>
       <r>    5.0243    1.0000 </r>
       <r>    5.0243    1.0000 </r>
       <r>    5.1309    1.0000 </r>
       <r>    5.1309    1.0000 </r>
       <r>    5.1507    1.0000 </r>
       <r>    6.6614    1.0000 </r>
       <r>    6.6614    1.0000 </r>
       <r>    7.0689    1.0000 </r>
       <r>    7.0689    1.0000 </r>
       <r>   15.6684    0.0000 </r>
       <r>   19.8295    0.0000 </r>
       <r>   22.8389    0.0000 </r>
       <r>   23.1774    0.0000 </r>
       <r>   25.8738    0.0000 </r>
       <r>   25.8738    0.0000 </r>
      </set>
      <set comment="kpoint 44">
       <r>  -44.4003    1.0000 </r>
       <r>  -44.3930    1.0000 </r>
       <r>  -44.3878    1.0000 </r>
       <r>  -44.3805    1.0000 </r>
       <r>  -44.3399    1.0000 </r>
       <r>  -44.2911    1.0000 </r>
       <r>    1.0594    1.0000 </r>
       <r>    2.1117    1.0000 </r>
       <r>    4.6212    1.0000 </r>
       <r>    4.7527    1.0000 </r>
       <r>    4.9003    1.0000 </r>
       <r>    5.2005    1.0000 </r>
       <r>    5.2060    1.0000 </r>
       <r>    5.3080    1.0000 </r>
       <r>    6.6057    1.0000 </r>
       <r>    6.6493    1.0000 </r>
       <r>    7.0588    1.0000 </r>
       <r>    7.2878    0.9999 </r>
       <r>   15.8457    0.0000 </r>
       <r>   20.0643    0.0000 </r>
       <r>   22.8997    0.0000 </r>
       <r>   23.3008    0.0000 </r>
       <r>   24.4648    0.0000 </r>
       <r>   25.3022    0.0000 </r>
      </set>
      <set comment="kpoint 45">
       <r>  -44.4421    1.0000 </r>
       <r>  -44.4350    1.0000 </r>
       <r>  -44.3982    1.0000 </r>
       <r>  -44.3900    1.0000 </r>
       <r>  -44.3304    1.0000 </r>
       <r>  -44.2883    1.0000 </r>
       <r>    1.7993    1.0000 </r>
       <r>    2.7993    1.0000 </r>
       <r>    4.2892    1.0000 </r>
       <r>    4.5272    1.0000 </r>
       <r>    4.7410    1.0000 </r>
       <r>    5.1210    1.0000 </r>
       <r>    5.6453    1.0000 </r>
       <r>    5.7877    1.0000 </r>
       <r>    6.5279    1.0000 </r>
       <r>    6.6875    1.0000 </r>
       <r>    7.0341    1.0000 </r>
       <r>    7.7316    0.0000 </r>
       <r>   16.2896    0.0000 </r>
       <r>   20.3987    0.0000 </r>
       <r>   20.6923    0.0000 </r>
       <r>   22.0845    0.0000 </r>
       <r>   23.8899    0.0000 </r>
       <r>   24.3495    0.0000 </r>
      </set>
      <set comment="kpoint 46">
       <r>  -44.4918    1.0000 </r>
       <r>  -44.4854    1.0000 </r>
       <r>  -44.4117    1.0000 </r>
       <r>  -44.4019    1.0000 </r>
       <r>  -44.3191    1.0000 </r>
       <r>  -44.2864    1.0000 </r>
       <r>    2.5201    1.0000 </r>
       <r>    3.1489    1.0000 </r>
       <r>    4.0021    1.0000 </r>
       <r>    4.2742    1.0000 </r>
       <r>    5.2448    1.0000 </r>
       <r>    5.6016    1.0000 </r>
       <r>    5.9242    1.0000 </r>
       <r>    6.3727    1.0000 </r>
       <r>    6.7946    1.0000 </r>
       <r>    6.8760    1.0000 </r>
       <r>    7.0893    1.0000 </r>
       <r>    8.2456    0.0000 </r>
       <r>   16.1046    0.0000 </r>
       <r>   17.9666    0.0000 </r>
       <r>   18.7912    0.0000 </r>
       <r>   21.5214    0.0000 </r>
       <r>   22.2213    0.0000 </r>
       <r>   24.2809    0.0000 </r>
      </set>
      <set comment="kpoint 47">
       <r>  -44.5319    1.0000 </r>
       <r>  -44.5252    1.0000 </r>
       <r>  -44.4222    1.0000 </r>
       <r>  -44.4118    1.0000 </r>
       <r>  -44.3089    1.0000 </r>
       <r>  -44.2865    1.0000 </r>
       <r>    2.7042    1.0000 </r>
       <r>    3.0216    1.0000 </r>
       <r>    3.8936    1.0000 </r>
       <r>    4.0195    1.0000 </r>
       <r>    5.8849    1.0000 </r>
       <r>    6.0613    1.0000 </r>
       <r>    6.6143    1.0000 </r>
       <r>    7.0931    1.0000 </r>
       <r>    7.3734    0.9219 </r>
       <r>    7.3761    0.9103 </r>
       <r>    7.4561    0.1786 </r>
       <r>    9.1236    0.0000 </r>
       <r>   13.6266    0.0000 </r>
       <r>   15.0415    0.0000 </r>
       <r>   18.9628    0.0000 </r>
       <r>   20.8540    0.0000 </r>
       <r>   21.1759    0.0000 </r>
       <r>   23.0732    0.0000 </r>
      </set>
      <set comment="kpoint 48">
       <r>  -44.5467    1.0000 </r>
       <r>  -44.5401    1.0000 </r>
       <r>  -44.4260    1.0000 </r>
       <r>  -44.4158    1.0000 </r>
       <r>  -44.3042    1.0000 </r>
       <r>  -44.2874    1.0000 </r>
       <r>    2.6899    1.0000 </r>
       <r>    2.9408    1.0000 </r>
       <r>    3.8814    1.0000 </r>
       <r>    3.9026    1.0000 </r>
       <r>    5.8495    1.0000 </r>
       <r>    6.2920    1.0000 </r>
       <r>    6.6336    1.0000 </r>
       <r>    7.4986    0.0169 </r>
       <r>    7.6497    0.0000 </r>
       <r>    7.6941    0.0000 </r>
       <r>    8.7868    0.0000 </r>
       <r>    9.8809    0.0000 </r>
       <r>   12.5124    0.0000 </r>
       <r>   12.6126    0.0000 </r>
       <r>   19.6772    0.0000 </r>
       <r>   20.3135    0.0000 </r>
       <r>   20.5226    0.0000 </r>
       <r>   22.5051    0.0000 </r>
      </set>
      <set comment="kpoint 49">
       <r>  -44.4276    1.0000 </r>
       <r>  -44.4217    1.0000 </r>
       <r>  -44.3952    1.0000 </r>
       <r>  -44.3885    1.0000 </r>
       <r>  -44.3330    1.0000 </r>
       <r>  -44.2888    1.0000 </r>
       <r>    1.5818    1.0000 </r>
       <r>    2.6237    1.0000 </r>
       <r>    4.3956    1.0000 </r>
       <r>    4.5881    1.0000 </r>
       <r>    4.6983    1.0000 </r>
       <r>    5.0696    1.0000 </r>
       <r>    5.5443    1.0000 </r>
       <r>    5.6650    1.0000 </r>
       <r>    6.5516    1.0000 </r>
       <r>    6.6678    1.0000 </r>
       <r>    7.0227    1.0000 </r>
       <r>    7.6222    0.0000 </r>
       <r>   16.1714    0.0000 </r>
       <r>   20.4090    0.0000 </r>
       <r>   22.2647    0.0000 </r>
       <r>   22.3169    0.0000 </r>
       <r>   23.1097    0.0000 </r>
       <r>   23.4649    0.0000 </r>
      </set>
      <set comment="kpoint 50">
       <r>  -44.4704    1.0000 </r>
       <r>  -44.4654    1.0000 </r>
       <r>  -44.4103    1.0000 </r>
       <r>  -44.4027    1.0000 </r>
       <r>  -44.3229    1.0000 </r>
       <r>  -44.2867    1.0000 </r>
       <r>    2.3935    1.0000 </r>
       <r>    3.2791    1.0000 </r>
       <r>    4.0743    1.0000 </r>
       <r>    4.4450    1.0000 </r>
       <r>    4.6634    1.0000 </r>
       <r>    5.0171    1.0000 </r>
       <r>    5.8589    1.0000 </r>
       <r>    6.2225    1.0000 </r>
       <r>    6.7580    1.0000 </r>
       <r>    6.8203    1.0000 </r>
       <r>    7.0772    1.0000 </r>
       <r>    8.1062    0.0000 </r>
       <r>   16.5687    0.0000 </r>
       <r>   19.2475    0.0000 </r>
       <r>   19.7357    0.0000 </r>
       <r>   21.2965    0.0000 </r>
       <r>   21.6832    0.0000 </r>
       <r>   22.5800    0.0000 </r>
      </set>
      <set comment="kpoint 51">
       <r>  -44.5125    1.0000 </r>
       <r>  -44.5069    1.0000 </r>
       <r>  -44.4255    1.0000 </r>
       <r>  -44.4163    1.0000 </r>
       <r>  -44.3119    1.0000 </r>
       <r>  -44.2860    1.0000 </r>
       <r>    2.8637    1.0000 </r>
       <r>    3.3023    1.0000 </r>
       <r>    3.9368    1.0000 </r>
       <r>    4.2353    1.0000 </r>
       <r>    5.3435    1.0000 </r>
       <r>    5.6392    1.0000 </r>
       <r>    5.9194    1.0000 </r>
       <r>    6.4530    1.0000 </r>
       <r>    6.9607    1.0000 </r>
       <r>    7.4356    0.3664 </r>
       <r>    7.7618    0.0000 </r>
       <r>    8.9143    0.0000 </r>
       <r>   15.0384    0.0000 </r>
       <r>   16.6738    0.0000 </r>
       <r>   18.4875    0.0000 </r>
       <r>   20.2028    0.0000 </r>
       <r>   21.4667    0.0000 </r>
       <r>   21.7762    0.0000 </r>
      </set>
      <set comment="kpoint 52">
       <r>  -44.5384    1.0000 </r>
       <r>  -44.5320    1.0000 </r>
       <r>  -44.4350    1.0000 </r>
       <r>  -44.4248    1.0000 </r>
       <r>  -44.3038    1.0000 </r>
       <r>  -44.2871    1.0000 </r>
       <r>    2.8783    1.0000 </r>
       <r>    3.1717    1.0000 </r>
       <r>    3.9212    1.0000 </r>
       <r>    4.0593    1.0000 </r>
       <r>    5.4701    1.0000 </r>
       <r>    6.2874    1.0000 </r>
       <r>    6.4034    1.0000 </r>
       <r>    6.7881    1.0000 </r>
       <r>    7.2464    1.0000 </r>
       <r>    7.5912    0.0000 </r>
       <r>    9.1611    0.0000 </r>
       <r>   10.2836    0.0000 </r>
       <r>   12.5846    0.0000 </r>
       <r>   13.7571    0.0000 </r>
       <r>   18.6988    0.0000 </r>
       <r>   20.0346    0.0000 </r>
       <r>   20.8358    0.0000 </r>
       <r>   21.1260    0.0000 </r>
      </set>
      <set comment="kpoint 53">
       <r>  -44.4976    1.0000 </r>
       <r>  -44.4969    1.0000 </r>
       <r>  -44.4310    1.0000 </r>
       <r>  -44.4244    1.0000 </r>
       <r>  -44.3126    1.0000 </r>
       <r>  -44.2856    1.0000 </r>
       <r>    3.0976    1.0000 </r>
       <r>    3.5796    1.0000 </r>
       <r>    4.2228    1.0000 </r>
       <r>    4.2990    1.0000 </r>
       <r>    4.8244    1.0000 </r>
       <r>    4.8274    1.0000 </r>
       <r>    5.6596    1.0000 </r>
       <r>    6.3337    1.0000 </r>
       <r>    6.9585    1.0000 </r>
       <r>    7.4656    0.1172 </r>
       <r>    7.8946    0.0000 </r>
       <r>    8.9380    0.0000 </r>
       <r>   16.0941    0.0000 </r>
       <r>   17.4923    0.0000 </r>
       <r>   18.4115    0.0000 </r>
       <r>   19.2317    0.0000 </r>
       <r>   20.4071    0.0000 </r>
       <r>   22.0621    0.0000 </r>
      </set>
      <set comment="kpoint 54">
       <r>  -44.5198    1.0000 </r>
       <r>  -44.5157    1.0000 </r>
       <r>  -44.4518    1.0000 </r>
       <r>  -44.4439    1.0000 </r>
       <r>  -44.3031    1.0000 </r>
       <r>  -44.2866    1.0000 </r>
       <r>    3.3454    1.0000 </r>
       <r>    3.6460    1.0000 </r>
       <r>    4.0414    1.0000 </r>
       <r>    4.4618    1.0000 </r>
       <r>    4.9618    1.0000 </r>
       <r>    5.3520    1.0000 </r>
       <r>    5.7564    1.0000 </r>
       <r>    6.2428    1.0000 </r>
       <r>    7.0964    1.0000 </r>
       <r>    7.6374    0.0000 </r>
       <r>    9.3632    0.0000 </r>
       <r>   10.5826    0.0000 </r>
       <r>   13.8021    0.0000 </r>
       <r>   15.2750    0.0000 </r>
       <r>   17.1288    0.0000 </r>
       <r>   18.4655    0.0000 </r>
       <r>   20.2311    0.0000 </r>
       <r>   22.1905    0.0000 </r>
      </set>
      <set comment="kpoint 55">
       <r>  -44.5279    1.0000 </r>
       <r>  -44.5216    1.0000 </r>
       <r>  -44.4609    1.0000 </r>
       <r>  -44.4518    1.0000 </r>
       <r>  -44.2984    1.0000 </r>
       <r>  -44.2882    1.0000 </r>
       <r>    3.3213    1.0000 </r>
       <r>    3.6868    1.0000 </r>
       <r>    4.0431    1.0000 </r>
       <r>    4.4129    1.0000 </r>
       <r>    4.8564    1.0000 </r>
       <r>    5.6584    1.0000 </r>
       <r>    6.1218    1.0000 </r>
       <r>    6.3372    1.0000 </r>
       <r>    7.1962    1.0000 </r>
       <r>    7.4681    0.1039 </r>
       <r>   11.1385    0.0000 </r>
       <r>   11.2887    0.0000 </r>
       <r>   12.6657    0.0000 </r>
       <r>   13.2840    0.0000 </r>
       <r>   16.4345    0.0000 </r>
       <r>   18.2142    0.0000 </r>
       <r>   21.1034    0.0000 </r>
       <r>   21.5776    0.0000 </r>
      </set>
      <set comment="kpoint 56">
       <r>  -44.5112    1.0000 </r>
       <r>  -44.5077    1.0000 </r>
       <r>  -44.4816    1.0000 </r>
       <r>  -44.4742    1.0000 </r>
       <r>  -44.2955    1.0000 </r>
       <r>  -44.2890    1.0000 </r>
       <r>    3.8061    1.0000 </r>
       <r>    3.8342    1.0000 </r>
       <r>    4.3674    1.0000 </r>
       <r>    4.4299    1.0000 </r>
       <r>    4.8189    1.0000 </r>
       <r>    5.0871    1.0000 </r>
       <r>    5.6998    1.0000 </r>
[...]
       </set>
       <set comment="band 12">
        <r>  0.0004  0.0002  0.0000  0.0001  0.0032  0.0501  0.0124  0.0415  0.0028 </r>
        <r>  0.0124  0.0070  0.0000  0.0028  0.1042  0.0015  0.4075  0.0013  0.0908 </r>
       </set>
       <set comment="band 13">
        <r>  0.0001  0.0000  0.0001  0.0000  0.0015  0.2068  0.0001  0.5020  0.0011 </r>
        <r>  0.0023  0.0006  0.0000  0.0003  0.0600  0.0052  0.0021  0.0126  0.0434 </r>
       </set>
       <set comment="band 14">
        <r>  0.0023  0.0006  0.0000  0.0003  0.0600  0.0052  0.0021  0.0126  0.0434 </r>
        <r>  0.0001  0.0000  0.0001  0.0000  0.0015  0.2068  0.0001  0.5020  0.0011 </r>
       </set>
       <set comment="band 15">
        <r>  0.0025  0.0000  0.0002  0.0000  0.1616  0.0294  0.2821  0.0234  0.0565 </r>
        <r>  0.0005  0.0000  0.0008  0.0000  0.0328  0.1446  0.0573  0.1151  0.0115 </r>
       </set>
       <set comment="band 16">
        <r>  0.0005  0.0000  0.0008  0.0000  0.0328  0.1446  0.0573  0.1151  0.0115 </r>
        <r>  0.0025  0.0000  0.0002  0.0000  0.1616  0.0294  0.2821  0.0234  0.0565 </r>
       </set>
       <set comment="band 17">
        <r>  0.0300  0.0048  0.0052  0.0016  0.0913  0.0989  0.0039  0.0336  0.0328 </r>
        <r>  0.0623  0.0100  0.0025  0.0034  0.1895  0.0477  0.0081  0.0162  0.0681 </r>
       </set>
       <set comment="band 18">
        <r>  0.0623  0.0100  0.0025  0.0034  0.1895  0.0477  0.0081  0.0162  0.0681 </r>
        <r>  0.0300  0.0048  0.0052  0.0016  0.0913  0.0989  0.0039  0.0336  0.0328 </r>
       </set>
       <set comment="band 19">
        <r>  0.1869  0.0399  0.0066  0.0141  0.0047  0.0037  0.0081  0.0078  0.0030 </r>
        <r>  0.0595  0.0127  0.0207  0.0045  0.0015  0.0116  0.0026  0.0245  0.0010 </r>
       </set>
       <set comment="band 20">
        <r>  0.0595  0.0127  0.0207  0.0045  0.0015  0.0116  0.0026  0.0245  0.0010 </r>
        <r>  0.1869  0.0399  0.0066  0.0141  0.0047  0.0037  0.0081  0.0078  0.0030 </r>
       </set>
       <set comment="band 21">
        <r>  0.0003  0.0283  0.0144  0.0454  0.0236  0.0017  0.0270  0.0035  0.0706 </r>
        <r>  0.0001  0.0087  0.0464  0.0141  0.0073  0.0055  0.0083  0.0114  0.0218 </r>
       </set>
       <set comment="band 22">
        <r>  0.0001  0.0087  0.0464  0.0141  0.0073  0.0055  0.0083  0.0114  0.0218 </r>
        <r>  0.0003  0.0283  0.0144  0.0454  0.0236  0.0017  0.0270  0.0035  0.0706 </r>
       </set>
       <set comment="band 23">
        <r>  0.0005  0.0035  0.0410  0.0033  0.0014  0.0525  0.0054  0.0206  0.0041 </r>
        <r>  0.0041  0.0302  0.0047  0.0289  0.0118  0.0061  0.0472  0.0024  0.0353 </r>
       </set>
       <set comment="band 24">
        <r>  0.0041  0.0302  0.0047  0.0289  0.0118  0.0061  0.0472  0.0024  0.0353 </r>
        <r>  0.0005  0.0035  0.0410  0.0033  0.0014  0.0525  0.0054  0.0206  0.0041 </r>
       </set>
      </set>
      <set comment="kpoint 68">
       <set comment="band 1">
        <r>  0.0000  0.4475  0.0019  0.4197  0.0000  0.0000  0.0000  0.0000  0.0000 </r>
        <r>  0.0000  0.0532  0.0162  0.0499  0.0000  0.0000  0.0000  0.0000  0.0000 </r>
       </set>
       <set comment="band 2">
        <r>  0.0000  0.0532  0.0162  0.0499  0.0000  0.0000  0.0000  0.0000  0.0000 </r>
        <r>  0.0000  0.4475  0.0019  0.4197  0.0000  0.0000  0.0000  0.0000  0.0000 </r>
       </set>
       <set comment="band 3">
        <r>  0.0000  0.4306  0.0008  0.4594  0.0000  0.0000  0.0000  0.0000  0.0000 </r>
        <r>  0.0000  0.0447  0.0080  0.0477  0.0000  0.0000  0.0000  0.0000  0.0000 </r>
       </set>
       <set comment="band 4">
        <r>  0.0000  0.0447  0.0080  0.0477  0.0000  0.0000  0.0000  0.0000  0.0000 </r>
        <r>  0.0000  0.4306  0.0008  0.4594  0.0000  0.0000  0.0000  0.0000  0.0000 </r>
       </set>
       <set comment="band 5">
        <r>  0.0000  0.0001  0.9562  0.0001  0.0000  0.0000  0.0000  0.0000  0.0000 </r>
        <r>  0.0000  0.0138  0.0082  0.0133  0.0000  0.0000  0.0000  0.0000  0.0000 </r>
       </set>
       <set comment="band 6">
        <r>  0.0000  0.0138  0.0082  0.0133  0.0000  0.0000  0.0000  0.0000  0.0000 </r>
        <r>  0.0000  0.0001  0.9562  0.0001  0.0000  0.0000  0.0000  0.0000  0.0000 </r>
       </set>
       <set comment="band 7">
        <r>  0.0264  0.0019  0.0010  0.0005  0.0468  0.1036  0.0240  0.0960  0.0159 </r>
        <r>  0.0320  0.0023  0.0008  0.0006  0.0568  0.0854  0.0292  0.0791  0.0192 </r>
       </set>
       <set comment="band 8">
        <r>  0.0320  0.0023  0.0008  0.0006  0.0568  0.0854  0.0292  0.0791  0.0192 </r>
        <r>  0.0264  0.0019  0.0010  0.0005  0.0468  0.1036  0.0240  0.0960  0.0159 </r>
       </set>
       <set comment="band 9">
        <r>  0.0049  0.0034  0.0003  0.0025  0.2145  0.0141  0.1028  0.0056  0.1739 </r>
        <r>  0.0011  0.0008  0.0014  0.0006  0.0509  0.0595  0.0244  0.0238  0.0412 </r>
       </set>
       <set comment="band 10">
        <r>  0.0011  0.0008  0.0014  0.0006  0.0509  0.0595  0.0244  0.0238  0.0412 </r>
        <r>  0.0049  0.0034  0.0003  0.0025  0.2145  0.0141  0.1028  0.0056  0.1739 </r>
       </set>
       <set comment="band 11">
        <r>  0.0065  0.0032  0.0013  0.0060  0.0292  0.0490  0.0733  0.0803  0.0921 </r>
        <r>  0.0068  0.0034  0.0012  0.0063  0.0308  0.0465  0.0772  0.0762  0.0971 </r>
       </set>
       <set comment="band 12">
        <r>  0.0068  0.0034  0.0012  0.0063  0.0308  0.0465  0.0772  0.0762  0.0971 </r>
        <r>  0.0065  0.0032  0.0013  0.0060  0.0292  0.0490  0.0733  0.0803  0.0921 </r>
       </set>
       <set comment="band 13">
        <r>  0.0037  0.0003  0.0001  0.0008  0.0264  0.1385  0.0131  0.1712  0.0779 </r>
        <r>  0.0064  0.0006  0.0001  0.0014  0.0453  0.0809  0.0225  0.1000  0.1335 </r>
       </set>
       <set comment="band 14">
        <r>  0.0064  0.0006  0.0001  0.0014  0.0453  0.0809  0.0225  0.1000  0.1335 </r>
        <r>  0.0037  0.0003  0.0001  0.0008  0.0264  0.1385  0.0131  0.1712  0.0779 </r>
       </set>
       <set comment="band 15">
        <r>  0.0025  0.0007  0.0000  0.0002  0.0966  0.0086  0.4481  0.0066  0.0387 </r>
        <r>  0.0001  0.0000  0.0009  0.0000  0.0053  0.1576  0.0244  0.1217  0.0021 </r>
       </set>
       <set comment="band 16">
        <r>  0.0001  0.0000  0.0009  0.0000  0.0053  0.1576  0.0244  0.1217  0.0021 </r>
        <r>  0.0025  0.0007  0.0000  0.0002  0.0966  0.0086  0.4481  0.0066  0.0387 </r>
       </set>
       <set comment="band 17">
        <r>  0.0730  0.0128  0.0049  0.0092  0.1458  0.0293  0.0025  0.0101  0.0580 </r>
        <r>  0.0500  0.0088  0.0072  0.0063  0.0997  0.0428  0.0017  0.0148  0.0397 </r>
       </set>
       <set comment="band 18">
        <r>  0.0500  0.0088  0.0072  0.0063  0.0997  0.0428  0.0017  0.0148  0.0397 </r>
        <r>  0.0730  0.0128  0.0049  0.0092  0.1458  0.0293  0.0025  0.0101  0.0580 </r>
       </set>
       <set comment="band 19">
        <r>  0.0533  0.0048  0.0102  0.0081  0.0019  0.0068  0.0046  0.0528  0.0073 </r>
        <r>  0.2033  0.0184  0.0027  0.0310  0.0074  0.0018  0.0174  0.0138  0.0280 </r>
       </set>
       <set comment="band 20">
        <r>  0.2033  0.0184  0.0027  0.0310  0.0074  0.0018  0.0174  0.0138  0.0280 </r>
        <r>  0.0533  0.0048  0.0102  0.0081  0.0019  0.0068  0.0046  0.0528  0.0073 </r>
       </set>
       <set comment="band 21">
        <r>  0.0214  0.0601  0.0026  0.0410  0.0450  0.0027  0.0051  0.0011  0.0850 </r>
        <r>  0.0019  0.0053  0.0291  0.0036  0.0040  0.0309  0.0004  0.0122  0.0075 </r>
       </set>
       <set comment="band 22">
        <r>  0.0019  0.0053  0.0291  0.0036  0.0040  0.0309  0.0004  0.0122  0.0075 </r>
        <r>  0.0214  0.0601  0.0026  0.0410  0.0450  0.0027  0.0051  0.0011  0.0850 </r>
       </set>
       <set comment="band 23">
        <r>  0.0029  0.0098  0.0609  0.0078  0.0031  0.0241  0.0084  0.0106  0.0043 </r>
        <r>  0.0056  0.0191  0.0314  0.0151  0.0059  0.0124  0.0164  0.0055  0.0084 </r>
       </set>
       <set comment="band 24">
        <r>  0.0056  0.0191  0.0314  0.0151  0.0059  0.0124  0.0164  0.0055  0.0084 </r>
        <r>  0.0029  0.0098  0.0609  0.0078  0.0031  0.0241  0.0084  0.0106  0.0043 </r>
       </set>
      </set>
      <set comment="kpoint 69">
       <set comment="band 1">
        <r>  0.0000  0.2282  0.0011  0.6825  0.0000  0.0000  0.0000  0.0000  0.0000 </r>
        <r>  0.0000  0.0150  0.0164  0.0450  0.0000  0.0000  0.0000  0.0000  0.0000 </r>
       </set>
       <set comment="band 2">
        <r>  0.0000  0.0150  0.0164  0.0450  0.0000  0.0000  0.0000  0.0000  0.0000 </r>
        <r>  0.0000  0.2282  0.0011  0.6825  0.0000  0.0000  0.0000  0.0000  0.0000 </r>
       </set>
       <set comment="band 3">
        <r>  0.0000  0.7093  0.0003  0.2378  0.0000  0.0000  0.0000  0.0000  0.0000 </r>
        <r>  0.0000  0.0258  0.0090  0.0087  0.0000  0.0000  0.0000  0.0000  0.0000 </r>
       </set>
       <set comment="band 4">
        <r>  0.0000  0.0258  0.0090  0.0087  0.0000  0.0000  0.0000  0.0000  0.0000 </r>
        <r>  0.0000  0.7093  0.0003  0.2378  0.0000  0.0000  0.0000  0.0000  0.0000 </r>
       </set>
       <set comment="band 5">
        <r>  0.0000  0.0045  0.6067  0.0056  0.0000  0.0000  0.0000  0.0000  0.0000 </r>
        <r>  0.0000  0.0076  0.3579  0.0095  0.0000  0.0000  0.0000  0.0000  0.0000 </r>
       </set>
       <set comment="band 6">
        <r>  0.0000  0.0076  0.3579  0.0095  0.0000  0.0000  0.0000  0.0000  0.0000 </r>
        <r>  0.0000  0.0045  0.6067  0.0056  0.0000  0.0000  0.0000  0.0000  0.0000 </r>
       </set>
       <set comment="band 7">
        <r>  0.0461  0.0031  0.0000  0.0015  0.1365  0.0051  0.0440  0.0147  0.0466 </r>
        <r>  0.0028  0.0002  0.0006  0.0001  0.0083  0.0840  0.0027  0.2419  0.0028 </r>
       </set>
       <set comment="band 8">
        <r>  0.0028  0.0002  0.0006  0.0001  0.0083  0.0840  0.0027  0.2419  0.0028 </r>
        <r>  0.0461  0.0031  0.0000  0.0015  0.1365  0.0051  0.0440  0.0147  0.0466 </r>
       </set>
       <set comment="band 9">
        <r>  0.0001  0.0043  0.0000  0.0017  0.2754  0.0042  0.1727  0.0051  0.0932 </r>
        <r>  0.0000  0.0003  0.0005  0.0001  0.0177  0.0654  0.0111  0.0800  0.0060 </r>
       </set>
       <set comment="band 10">
        <r>  0.0000  0.0003  0.0005  0.0001  0.0177  0.0654  0.0111  0.0800  0.0060 </r>
        <r>  0.0001  0.0043  0.0000  0.0017  0.2754  0.0042  0.1727  0.0051  0.0932 </r>
       </set>
       <set comment="band 11">
        <r>  0.0005  0.0002  0.0025  0.0006  0.0034  0.3308  0.0011  0.1556  0.0057 </r>
        <r>  0.0071  0.0032  0.0002  0.0094  0.0526  0.0212  0.0177  0.0100  0.0889 </r>
       </set>
       <set comment="band 12">
        <r>  0.0071  0.0032  0.0002  0.0094  0.0526  0.0212  0.0177  0.0100  0.0889 </r>
        <r>  0.0005  0.0002  0.0025  0.0006  0.0034  0.3308  0.0011  0.1556  0.0057 </r>
       </set>
       <set comment="band 13">
        <r>  0.0002  0.0032  0.0001  0.0094  0.1408  0.0070  0.0069  0.0035  0.3974 </r>
        <r>  0.0000  0.0002  0.0013  0.0005  0.0075  0.1314  0.0004  0.0651  0.0211 </r>
       </set>
       <set comment="band 14">
        <r>  0.0000  0.0002  0.0013  0.0005  0.0075  0.1314  0.0004  0.0651  0.0211 </r>
        <r>  0.0002  0.0032  0.0001  0.0094  0.1408  0.0070  0.0069  0.0035  0.3974 </r>
       </set>
       <set comment="band 15">
        <r>  0.0000  0.0003  0.0000  0.0001  0.0319  0.0004  0.5856  0.0006  0.0237 </r>
        <r>  0.0000  0.0000  0.0003  0.0000  0.0001  0.1183  0.0022  0.1536  0.0001 </r>
       </set>
       <set comment="band 16">
        <r>  0.0000  0.0000  0.0003  0.0000  0.0001  0.1183  0.0022  0.1536  0.0001 </r>
        <r>  0.0000  0.0003  0.0000  0.0001  0.0319  0.0004  0.5856  0.0006  0.0237 </r>
       </set>
       <set comment="band 17">
        <r>  0.0601  0.0169  0.0024  0.0479  0.0769  0.0023  0.0137  0.0008  0.1429 </r>
        <r>  0.0063  0.0018  0.0227  0.0050  0.0081  0.0217  0.0014  0.0074  0.0150 </r>
       </set>
       <set comment="band 18">
        <r>  0.0063  0.0018  0.0227  0.0050  0.0081  0.0217  0.0014  0.0074  0.0150 </r>
        <r>  0.0601  0.0169  0.0024  0.0479  0.0769  0.0023  0.0137  0.0008  0.1429 </r>
       </set>
       <set comment="band 19">
        <r>  0.0623  0.0012  0.0003  0.0036  0.0110  0.0311  0.0029  0.0782  0.0088 </r>
        <r>  0.2728  0.0055  0.0001  0.0156  0.0481  0.0071  0.0129  0.0179  0.0387 </r>
       </set>
       <set comment="band 20">
        <r>  0.2728  0.0055  0.0001  0.0156  0.0481  0.0071  0.0129  0.0179  0.0387 </r>
        <r>  0.0623  0.0012  0.0003  0.0036  0.0110  0.0311  0.0029  0.0782  0.0088 </r>
       </set>
       <set comment="band 21">
        <r>  0.0195  0.0437  0.0114  0.0166  0.0467  0.0188  0.0011  0.0078  0.0165 </r>
        <r>  0.0178  0.0397  0.0126  0.0150  0.0424  0.0207  0.0010  0.0086  0.0150 </r>
       </set>
       <set comment="band 22">
        <r>  0.0178  0.0397  0.0126  0.0150  0.0424  0.0207  0.0010  0.0086  0.0150 </r>
        <r>  0.0195  0.0437  0.0114  0.0166  0.0467  0.0188  0.0011  0.0078  0.0165 </r>
       </set>
       <set comment="band 23">
        <r>  0.0038  0.0126  0.0315  0.0248  0.0085  0.0050  0.0039  0.0049  0.0077 </r>
        <r>  0.0016  0.0054  0.0739  0.0106  0.0036  0.0118  0.0017  0.0116  0.0033 </r>
       </set>
       <set comment="band 24">
        <r>  0.0016  0.0054  0.0739  0.0106  0.0036  0.0118  0.0017  0.0116  0.0033 </r>
        <r>  0.0038  0.0126  0.0315  0.0248  0.0085  0.0050  0.0039  0.0049  0.0077 </r>
       </set>
      </set>
      <set comment="kpoint 70">
       <set comment="band 1">
        <r>  0.0000  0.7023  0.0005  0.2396  0.0000  0.0000  0.0000  0.0000  0.0000 </r>
        <r>  0.0000  0.0214  0.0177  0.0073  0.0000  0.0000  0.0000  0.0000  0.0000 </r>
       </set>
       <set comment="band 2">
        <r>  0.0000  0.0214  0.0177  0.0073  0.0000  0.0000  0.0000  0.0000  0.0000 </r>
        <r>  0.0000  0.7023  0.0005  0.2396  0.0000  0.0000  0.0000  0.0000  0.0000 </r>
       </set>
       <set comment="band 3">
        <r>  0.0000  0.2423  0.0003  0.7050  0.0000  0.0000  0.0000  0.0000  0.0000 </r>
        <r>  0.0000  0.0083  0.0100  0.0241  0.0000  0.0000  0.0000  0.0000  0.0000 </r>
       </set>
       <set comment="band 4">
        <r>  0.0000  0.0083  0.0100  0.0241  0.0000  0.0000  0.0000  0.0000  0.0000 </r>
        <r>  0.0000  0.2423  0.0003  0.7050  0.0000  0.0000  0.0000  0.0000  0.0000 </r>
       </set>
       <set comment="band 5">
        <r>  0.0000  0.0009  0.9067  0.0008  0.0000  0.0000  0.0000  0.0000  0.0000 </r>
        <r>  0.0000  0.0142  0.0561  0.0131  0.0000  0.0000  0.0000  0.0000  0.0000 </r>
       </set>
       <set comment="band 6">
        <r>  0.0000  0.0142  0.0561  0.0131  0.0000  0.0000  0.0000  0.0000  0.0000 </r>
        <r>  0.0000  0.0009  0.9067  0.0008  0.0000  0.0000  0.0000  0.0000  0.0000 </r>
       </set>
       <set comment="band 7">
        <r>  0.0311  0.0011  0.0000  0.0010  0.0127  0.0648  0.1179  0.0289  0.0156 </r>
        <r>  0.0082  0.0003  0.0002  0.0003  0.0033  0.2476  0.0309  0.1105  0.0041 </r>
       </set>
       <set comment="band 8">
        <r>  0.0082  0.0003  0.0002  0.0003  0.0033  0.2476  0.0309  0.1105  0.0041 </r>
        <r>  0.0311  0.0011  0.0000  0.0010  0.0127  0.0648  0.1179  0.0289  0.0156 </r>
       </set>
       <set comment="band 9">
        <r>  0.0028  0.0038  0.0001  0.0085  0.0860  0.0095  0.0356  0.0248  0.2397 </r>
        <r>  0.0005  0.0006  0.0005  0.0014  0.0138  0.0594  0.0057  0.1545  0.0385 </r>
       </set>
       <set comment="band 10">
        <r>  0.0005  0.0006  0.0005  0.0014  0.0138  0.0594  0.0057  0.1545  0.0385 </r>
        <r>  0.0028  0.0038  0.0001  0.0085  0.0860  0.0095  0.0356  0.0248  0.2397 </r>
       </set>
       <set comment="band 11">
        <r>  0.0000  0.0003  0.0034  0.0001  0.0059  0.0450  0.0007  0.0849  0.0048 </r>
        <r>  0.0017  0.0129  0.0001  0.0062  0.2677  0.0010  0.0330  0.0019  0.2171 </r>
       </set>
       <set comment="band 12">
        <r>  0.0017  0.0129  0.0001  0.0062  0.2677  0.0010  0.0330  0.0019  0.2171 </r>
        <r>  0.0000  0.0003  0.0034  0.0001  0.0059  0.0450  0.0007  0.0849  0.0048 </r>
       </set>
       <set comment="band 13">
        <r>  0.0038  0.0027  0.0000  0.0010  0.2508  0.0058  0.0124  0.0082  0.1547 </r>
        <r>  0.0001  0.0001  0.0001  0.0000  0.0095  0.1532  0.0005  0.2149  0.0059 </r>
       </set>
       <set comment="band 14">
        <r>  0.0001  0.0001  0.0001  0.0000  0.0095  0.1532  0.0005  0.2149  0.0059 </r>
        <r>  0.0038  0.0027  0.0000  0.0010  0.2508  0.0058  0.0124  0.0082  0.1547 </r>
       </set>
       <set comment="band 15">
        <r>  0.0004  0.0003  0.0000  0.0001  0.0236  0.0000  0.6171  0.0000  0.0088 </r>
        <r>  0.0000  0.0000  0.0002  0.0000  0.0000  0.1449  0.0002  0.1215  0.0000 </r>
       </set>
       <set comment="band 16">
        <r>  0.0000  0.0000  0.0002  0.0000  0.0000  0.1449  0.0002  0.1215  0.0000 </r>
        <r>  0.0004  0.0003  0.0000  0.0001  0.0236  0.0000  0.6171  0.0000  0.0088 </r>
       </set>
       <set comment="band 17">
        <r>  0.1285  0.0145  0.0065  0.0056  0.0806  0.0268  0.0066  0.0118  0.0312 </r>
        <r>  0.0954  0.0108  0.0087  0.0041  0.0598  0.0361  0.0049  0.0159  0.0232 </r>
       </set>
       <set comment="band 18">
        <r>  0.0954  0.0108  0.0087  0.0041  0.0598  0.0361  0.0049  0.0159  0.0232 </r>
        <r>  0.1285  0.0145  0.0065  0.0056  0.0806  0.0268  0.0066  0.0118  0.0312 </r>
       </set>
       <set comment="band 19">
        <r>  0.0228  0.0041  0.0179  0.0017  0.0047  0.0239  0.0012  0.0428  0.0028 </r>
        <r>  0.2039  0.0364  0.0020  0.0156  0.0416  0.0027  0.0112  0.0048  0.0251 </r>
       </set>
       <set comment="band 20">
        <r>  0.2039  0.0364  0.0020  0.0156  0.0416  0.0027  0.0112  0.0048  0.0251 </r>
        <r>  0.0228  0.0041  0.0179  0.0017  0.0047  0.0239  0.0012  0.0428  0.0028 </r>
       </set>
       <set comment="band 21">
        <r>  0.0010  0.0346  0.0010  0.0699  0.0557  0.0028  0.0011  0.0031  0.1338 </r>
        <r>  0.0001  0.0031  0.0117  0.0062  0.0049  0.0315  0.0001  0.0355  0.0118 </r>
       </set>
       <set comment="band 22">
        <r>  0.0001  0.0031  0.0117  0.0062  0.0049  0.0315  0.0001  0.0355  0.0118 </r>
        <r>  0.0010  0.0346  0.0010  0.0699  0.0557  0.0028  0.0011  0.0031  0.1338 </r>
       </set>
       <set comment="band 23">
        <r>  0.0006  0.0093  0.0973  0.0056  0.0038  0.0114  0.0011  0.0069  0.0034 </r>
        <r>  0.0020  0.0294  0.0308  0.0176  0.0119  0.0036  0.0035  0.0022  0.0108 </r>
       </set>
       <set comment="band 24">
        <r>  0.0020  0.0294  0.0308  0.0176  0.0119  0.0036  0.0035  0.0022  0.0108 </r>
        <r>  0.0006  0.0093  0.0973  0.0056  0.0038  0.0114  0.0011  0.0069  0.0034 </r>
       </set>
      </set>
     </set>
    </set>
   </array>
  </projected>
 </calculation>
 <structure name="finalpos" >
  <crystal>
   <varray name="basis" >
    <v>       2.97320989       0.00000000       0.00000000 </v>
    <v>      -1.48660495       2.57487530       0.00000000 </v>
    <v>       0.00000000       0.00000000       5.15101685 </v>
   </varray>
   <i name="volume">     39.43435484 </i>
   <varray name="rec_basis" >
    <v>       0.33633683       0.19418416       0.00000000 </v>
    <v>       0.00000000       0.38836832       0.00000000 </v>
    <v>       0.00000000       0.00000000       0.19413643 </v>
   </varray>
  </crystal>
  <varray name="positions" >
   <v>       0.00000000       0.00000000       0.00000000 </v>
   <v>       0.33333333       0.66666667       0.50000000 </v>
  </varray>
 </structure>
</modeling>
