Pt-hcc                                  
   1.00000000000000     
     2.752972    0.000000    0.000000
    -1.376486    2.384144    0.000000
     0.000000    0.000000    4.769460
   Pt
     2
Direct
  0.000000  0.000000  0.000000
  0.333333  0.666667  0.500000
 
   40   40   72
  274.02      273.69      272.11      267.70      258.49      242.89      220.41      191.98      159.88      127.18    
  96.936      71.446      51.811      37.873      28.536      22.233      17.925      15.129      13.424      12.521    
  12.236      12.521      13.424      15.129      17.925      22.235      28.533      37.874      51.811      71.446    
  96.936      127.18      159.88      191.98      220.41      242.89      258.49      267.70      272.11      273.69    
  273.69      273.69      272.73      269.70      262.80      250.22      230.93      205.16      174.59      141.96    
  110.39      82.595      60.250      43.772      32.469      24.927      19.750      16.286      14.103      12.838    
  12.265      12.263      12.839      14.101      16.288      19.748      24.928      32.470      43.770      60.251    
  82.595      110.39      141.96      174.59      205.16      230.93      250.22      262.80      269.70      272.73    
  272.11      272.74      272.11      269.70      264.11      253.65      237.00      213.88      185.37      153.74    
  121.92      92.778      68.413      49.759      36.561      27.699      21.662      17.528      14.843      13.203    
  12.333      12.059      12.333      13.203      14.843      17.528      21.664      27.697      36.563      49.758    
  68.414      92.777      121.92      153.74      185.37      213.88      237.00      253.65      264.11      269.70    
  267.70      269.72      269.72      267.70      262.80      253.65      238.97      218.20      191.91      161.88    
  130.70      101.18      75.629      55.367      40.564      30.429      23.565      18.804      15.619      13.605    
  12.436      11.904      11.903      12.437      13.604      15.621      18.801      23.567      30.428      40.565    
  55.367      75.629      101.18      130.70      161.88      191.91      218.20      238.97      253.65      262.80    
  258.49      262.83      264.15      262.83      258.49      250.22      237.00      218.20      194.10      166.03    
  136.18      107.16      81.278      60.107      44.160      32.964      25.352      20.040      16.397      14.023    
  12.567      11.790      11.545      11.790      12.567      14.022      16.398      20.039      25.352      32.964    
  44.159      60.108      81.278      107.16      136.18      166.03      194.10      218.20      237.00      250.22    
  242.89      250.26      253.70      253.70      250.26      242.89      230.93      213.88      191.91      166.03    
  138.05      110.25      84.873      63.542      47.018      35.110      26.908      21.159      17.130      14.435    
  12.715      11.712      11.251      11.252      11.712      12.715      14.434      17.130      21.160      26.907    
  35.112      47.017      63.542      84.873      110.26      138.05      166.03      191.91      213.88      230.93    
  220.41      230.96      237.06      239.04      237.06      230.96      220.41      205.16      185.37      161.88    
  136.18      110.25      86.106      65.345      48.858      36.676      28.123      22.083      17.770      14.812    
  12.865      11.663      11.013      10.809      11.013      11.663      12.865      14.812      17.769      22.084    
  28.122      36.676      48.858      65.345      86.106      110.26      136.18      161.88      185.37      205.16    
  191.98      205.18      213.93      218.26      218.26      213.93      205.18      191.98      174.59      153.74    
  130.70      107.16      84.873      65.345      49.493      37.501      28.899      22.743      18.269      15.127    
  13.004      11.635      10.825      10.449      10.449      10.824      11.635      13.003      15.128      18.268    
  22.743      28.899      37.501      49.493      65.345      84.873      107.16      130.70      153.74      174.59    
  159.88      174.59      185.39      191.95      194.14      191.95      185.39      174.59      159.88      141.96    
  121.92      101.18      81.278      63.542      48.858      37.502      29.166      23.087      18.585      15.354    
  13.115      11.621      10.681      10.166      10.001      10.166      10.681      11.621      13.114      15.354    
  18.585      23.087      29.166      37.501      48.858      63.542      81.278      101.18      121.92      141.96    
  127.18      141.94      153.72      161.87      166.02      166.02      161.87      153.72      141.94      127.18    
  110.39      92.777      75.630      60.107      47.018      36.676      28.899      23.087      18.694      15.473    
  13.187      11.615      10.580      9.9535      9.6591      9.6590      9.9536      10.579      11.616      13.187    
  15.473      18.694      23.087      28.899      36.676      47.017      60.108      75.629      92.777      110.39    
  96.936      110.36      121.87      130.64      136.13      137.99      136.13      130.64      121.87      110.36    
  96.936      82.595      68.414      55.366      44.160      35.111      28.123      22.744      18.585      15.473    
  13.212      11.614      10.519      9.8122      9.4155      9.2884      9.4156      9.8123      10.519      11.614    
  13.212      15.473      18.585      22.743      28.122      35.112      44.159      55.367      68.414      82.595    
  71.446      82.552      92.700      101.08      107.04      110.14      110.14      107.04      101.08      92.700    
  82.552      71.446      60.250      49.758      40.566      32.963      26.909      22.084      18.268      15.354    
  13.187      11.614      10.499      9.7411      9.2698      9.0437      9.0437      9.2696      9.7414      10.499    
  11.614      13.187      15.354      18.268      22.084      26.907      32.964      40.565      49.758      60.251    
  51.811      60.202      68.322      75.502      81.126      84.706      85.935      84.706      81.127      75.503    
  68.322      60.201      51.810      43.772      36.562      30.427      25.354      21.159      17.770      15.127    
  13.115      11.616      10.519      9.7413      9.2208      8.9223      8.8241      8.9224      9.2205      9.7414    
  10.519      11.616      13.114      15.128      17.769      21.160      25.352      30.428      36.563      43.770    
  37.874      43.724      49.664      55.231      59.937      63.348      65.139      65.139      63.347      59.936    
  55.229      49.664      43.725      37.875      32.467      27.699      23.567      20.038      17.132      14.811    
  13.004      11.621      10.580      9.8119      9.2699      8.9219      8.7519      8.7515      8.9224      9.2696    
  9.8123      10.579      11.621      13.003      14.812      17.130      20.039      23.567      27.697      32.470    
  28.533      32.429      36.476      40.433      43.989      46.817      48.639      49.268      48.639      46.818    
  43.991      40.435      36.475      32.426      28.535      24.930      21.661      18.803      16.398      14.434    
  12.866      11.635      10.681      9.9536      9.4158      9.0437      8.8244      8.7519      8.8241      9.0437    
  9.4156      9.9536      10.681      11.635      12.865      14.434      16.398      18.801      21.664      24.928    
  22.235      24.894      27.623      30.315      32.813      34.927      36.468      37.281      37.281      36.467    
  34.926      32.811      30.314      27.625      24.896      22.232      19.748      17.530      15.620      14.022    
  12.715      11.663      10.825      10.166      9.6591      9.2881      9.0437      8.9219      8.9223      9.0437    
  9.2884      9.6590      10.166      10.824      11.663      12.715      14.022      15.621      17.528      19.748    
  17.925      19.721      21.604      23.475      25.224      26.747      27.938      28.699      28.961      28.699    
  27.939      26.749      25.226      23.474      21.602      19.721      17.927      16.287      14.842      13.604    
  12.568      11.712      11.013      10.449      10.002      9.6591      9.4158      9.2699      9.2208      9.2698    
  9.4155      9.6591      10.001      10.449      11.013      11.712      12.567      13.604      14.843      16.288    
  15.129      16.267      17.482      18.729      19.938      21.032      21.935      22.578      22.914      22.914    
  22.578      21.934      21.030      19.937      18.730      17.484      16.266      15.128      14.102      13.204    
  12.436      11.789      11.252      10.809      10.449      10.166      9.9536      9.8119      9.7413      9.7411    
  9.8122      9.9535      10.166      10.449      10.809      11.252      11.790      12.437      13.203      14.101    
  13.424      14.085      14.808      15.565      16.320      17.032      17.651      18.135      18.442      18.547    
  18.442      18.135      17.653      17.033      16.320      15.564      14.807      14.086      13.425      12.838    
  12.332      11.903      11.546      11.252      11.013      10.825      10.681      10.580      10.519      10.499    
  10.519      10.580      10.681      10.825      11.013      11.251      11.545      11.903      12.333      12.839    
  12.521      12.826      13.176      13.561      13.963      14.359      14.724      15.027      15.245      15.360    
  15.360      15.245      15.026      14.722      14.359      13.963      13.562      13.177      12.825      12.519    
  12.264      12.059      11.903      11.789      11.712      11.663      11.635      11.621      11.616      11.614    
  11.614      11.615      11.621      11.635      11.663      11.712      11.790      11.904      12.059      12.263    
  12.236      12.252      12.310      12.402      12.522      12.659      12.799      12.929      13.034      13.102    
  13.126      13.103      13.035      12.930      12.800      12.659      12.522      12.401      12.309      12.252    
  12.237      12.264      12.332      12.436      12.568      12.715      12.866      13.004      13.115      13.187    
  13.212      13.187      13.115      13.004      12.865      12.715      12.567      12.436      12.333      12.265    
  12.521      12.253      12.037      11.872      11.752      11.667      11.614      11.581      11.564      11.556    
  11.554      11.553      11.556      11.563      11.581      11.613      11.667      11.752      11.873      12.038    
  12.252      12.519      12.838      13.204      13.604      14.022      14.434      14.811      15.127      15.354    
  15.473      15.473      15.354      15.127      14.812      14.435      14.023      13.605      13.203      12.838    
  13.424      12.825      12.310      11.873      11.510      11.213      10.972      10.783      10.639      10.538    
  10.478      10.459      10.479      10.539      10.640      10.783      10.973      11.213      11.510      11.873    
  12.309      12.825      13.425      14.102      14.842      15.620      16.398      17.132      17.770      18.268    
  18.585      18.694      18.585      18.269      17.770      17.130      16.397      15.619      14.843      14.103    
  15.129      14.087      13.176      12.401      11.752      11.213      10.772      10.415      10.134      9.9254    
  9.7863      9.7167      9.7163      9.7860      9.9251      10.134      10.414      10.771      11.213      11.752    
  12.401      13.177      14.086      15.128      16.287      17.530      18.803      20.038      21.159      22.084    
  22.744      23.087      23.087      22.743      22.083      21.159      20.040      18.804      17.528      16.286    
  17.925      16.265      14.808      13.562      12.521      11.668      10.972      10.414      9.9729      9.6365    
  9.3983      9.2556      9.2084      9.2558      9.3985      9.6367      9.9733      10.414      10.973      11.667    
  12.522      13.562      14.807      16.266      17.927      19.748      21.661      23.567      25.354      26.909    
  28.123      28.899      29.166      28.899      28.123      26.908      25.352      23.565      21.662      19.750    
  22.233      19.723      17.483      15.563      13.964      12.658      11.614      10.783      10.134      9.6370    
  9.2738      9.0354      8.9163      8.9165      9.0351      9.2738      9.6367      10.134      10.783      11.613    
  12.659      13.963      15.564      17.484      19.721      22.232      24.930      27.699      30.427      32.963    
  35.111      36.676      37.502      37.501      36.676      35.110      32.964      30.429      27.699      24.927    
  28.536      24.893      21.603      18.731      16.319      14.360      12.799      11.581      10.639      9.9250    
  9.3984      9.0349      8.8214      8.7505      8.8212      9.0351      9.3985      9.9251      10.640      11.581    
  12.800      14.359      16.320      18.730      21.602      24.896      28.535      32.467      36.562      40.566    
  44.160      47.018      48.858      49.493      48.858      47.018      44.160      40.564      36.561      32.469    
  37.873      32.428      27.626      23.472      19.939      17.031      14.723      12.930      11.564      10.539    
  9.7861      9.2561      8.9162      8.7506      8.7505      8.9165      9.2558      9.7860      10.539      11.563    
  12.930      14.722      17.033      19.937      23.474      27.625      32.426      37.875      43.772      49.758    
  55.366      60.107      63.542      65.345      65.345      63.542      60.107      55.367      49.759      43.772    
  51.811      43.725      36.474      30.316      25.224      21.031      17.653      15.026      13.035      11.555    
  10.479      9.7160      9.2087      8.9162      8.8214      8.9163      9.2084      9.7163      10.479      11.556    
  13.035      15.026      17.653      21.030      25.226      30.314      36.475      43.725      51.810      60.250    
  68.414      75.630      81.278      84.873      86.106      84.873      81.278      75.629      68.413      60.250    
  71.446      60.201      49.665      40.433      32.812      26.749      21.934      18.136      15.244      13.103    
  11.553      10.459      9.7160      9.2561      9.0349      9.0354      9.2556      9.7167      10.459      11.553    
  13.103      15.245      18.135      21.934      26.749      32.811      40.435      49.664      60.201      71.446    
  82.595      92.777      101.18      107.16      110.25      110.25      107.16      101.18      92.778      82.595    
  96.936      82.552      68.321      55.231      43.990      34.926      27.939      22.577      18.442      15.359    
  13.127      11.553      10.479      9.7861      9.3984      9.2738      9.3983      9.7863      10.478      11.554    
  13.126      15.360      18.442      22.578      27.939      34.926      43.991      55.229      68.322      82.552    
  96.936      110.39      121.92      130.70      136.18      138.05      136.18      130.70      121.92      110.39    
  127.18      110.36      92.701      75.502      59.936      46.819      36.467      28.700      22.913      18.548    
  15.359      13.103      11.555      10.539      9.9250      9.6370      9.6365      9.9254      10.538      11.556    
  13.102      15.360      18.547      22.914      28.699      36.467      46.818      59.936      75.503      92.700    
  110.36      127.18      141.96      153.74      161.88      166.03      166.03      161.88      153.74      141.96    
  159.88      141.94      121.87      101.08      81.127      63.347      48.640      37.280      28.962      22.913    
  18.442      15.244      13.035      11.564      10.639      10.134      9.9729      10.134      10.639      11.564    
  13.034      15.245      18.442      22.914      28.961      37.281      48.639      63.347      81.127      101.08    
  121.87      141.94      159.88      174.59      185.37      191.91      194.10      191.91      185.37      174.59    
  191.98      174.59      153.72      130.64      107.04      84.707      65.138      49.269      37.280      28.700    
  22.577      18.136      15.026      12.930      11.581      10.783      10.414      10.415      10.783      11.581    
  12.929      15.027      18.135      22.578      28.699      37.281      49.268      65.139      84.706      107.04    
  130.64      153.72      174.59      191.98      205.16      213.88      218.20      218.20      213.88      205.16    
  220.41      205.18      185.39      161.87      136.13      110.14      85.935      65.138      48.640      36.467    
  27.939      21.934      17.653      14.723      12.799      11.614      10.972      10.772      10.972      11.614    
  12.799      14.724      17.651      21.935      27.938      36.468      48.639      65.139      85.935      110.14    
  136.13      161.87      185.39      205.18      220.41      230.93      237.00      238.97      237.00      230.93    
  242.89      230.96      213.93      191.95      166.02      137.99      110.14      84.707      63.347      46.819    
  34.926      26.749      21.031      17.031      14.360      12.658      11.668      11.213      11.213      11.667    
  12.659      14.359      17.032      21.032      26.747      34.927      46.817      63.348      84.706      110.14    
  137.99      166.02      191.95      213.93      230.96      242.89      250.22      253.65      253.65      250.22    
  258.49      250.26      237.06      218.26      194.14      166.02      136.13      107.04      81.127      59.936    
  43.990      32.812      25.224      19.939      16.319      13.964      12.521      11.752      11.510      11.752    
  12.522      13.963      16.320      19.938      25.224      32.813      43.989      59.937      81.126      107.04    
  136.13      166.02      194.14      218.26      237.06      250.26      258.49      262.80      264.11      262.80    
  267.70      262.83      253.70      239.04      218.26      191.95      161.87      130.64      101.08      75.502    
  55.231      40.433      30.316      23.472      18.731      15.563      13.562      12.401      11.873      11.872    
  12.402      13.561      15.565      18.729      23.475      30.315      40.433      55.231      75.502      101.08    
  130.64      161.87      191.95      218.26      239.04      253.70      262.83      267.70      269.70      269.70    
  272.11      269.72      264.15      253.70      237.06      213.93      185.39      153.72      121.87      92.701    
  68.321      49.665      36.474      27.626      21.603      17.483      14.808      13.176      12.310      12.037    
  12.310      13.176      14.808      17.482      21.604      27.623      36.476      49.664      68.322      92.700    
  121.87      153.72      185.39      213.93      237.06      253.70      264.15      269.72      272.11      272.73    
  273.69      272.74      269.72      262.83      250.26      230.96      205.18      174.59      141.94      110.36    
  82.552      60.201      43.725      32.428      24.893      19.723      16.265      14.087      12.825      12.253    
  12.252      12.826      14.085      16.267      19.721      24.894      32.429      43.724      60.202      82.552    
  110.36      141.94      174.59      205.18      230.96      250.26      262.83      269.72      272.74      273.69    
  273.88      273.48      271.70      267.00      257.47      241.58      218.89      190.38      158.34      125.81    
  95.820      70.605      51.224      37.487      28.283      22.054      17.796      15.031      13.345      12.451    
  12.170      12.452      13.345      15.032      17.795      22.056      28.280      37.488      51.224      70.605    
  95.820      125.81      158.34      190.38      218.89      241.58      257.47      267.00      271.70      273.48    
  273.48      273.48      272.38      269.11      261.90      249.02      229.48      203.58      173.00      140.50    
  109.15      81.625      59.548      43.297      32.161      24.716      19.598      16.174      14.015      12.764    
  12.197      12.196      12.765      14.014      16.176      19.596      24.718      32.162      43.296      59.549    
  81.624      109.15      140.50      173.00      203.58      229.48      249.02      261.90      269.11      272.38    
  271.70      272.39      271.70      269.11      263.26      252.51      235.61      212.33      183.77      152.22    
  120.58      91.699      67.606      49.197      36.191      27.454      21.487      17.401      14.747      13.124    
  12.264      11.992      12.264      13.124      14.746      17.401      21.489      27.452      36.193      49.196    
  67.607      91.698      120.58      152.22      183.77      212.33      235.61      252.51      263.26      269.11    
  267.00      269.13      269.13      267.00      261.90      252.51      237.60      216.67      190.31      160.33    
  129.31      100.02      74.734      54.727      40.133      30.147      23.367      18.660      15.513      13.521    
  12.364      11.837      11.837      12.365      13.519      15.514      18.658      23.370      30.145      40.135    
  54.727      74.734      100.02      129.31      160.33      190.31      216.67      237.60      252.51      261.90    
  257.47      261.93      263.31      261.93      257.47      249.02      235.61      216.67      192.50      164.46    
  134.75      105.94      80.318      59.402      43.676      32.644      25.133      19.882      16.280      13.933    
  12.493      11.724      11.482      11.723      12.493      13.932      16.281      19.881      25.134      32.644    
  43.675      59.403      80.317      105.94      134.75      164.46      192.50      216.67      235.61      249.02    
  241.58      249.06      252.57      252.57      249.06      241.58      229.48      212.33      190.31      164.46    
  136.60      109.01      83.873      62.791      46.492      34.758      26.670      20.987      17.004      14.339    
  12.638      11.646      11.190      11.190      11.645      12.638      14.338      17.004      20.988      26.669    
  34.760      46.491      62.792      83.872      109.01      136.60      164.46      190.31      212.33      229.48    
  218.89      229.52      235.68      237.68      235.68      229.52      218.89      203.58      183.77      160.33    
  134.75      109.01      85.092      64.572      48.305      36.299      27.869      21.901      17.636      14.712    
  12.786      11.597      10.952      10.751      10.952      11.597      12.786      14.712      17.635      21.902    
  27.868      36.300      48.305      64.572      85.092      109.01      134.75      160.33      183.77      203.58    
  190.38      203.60      212.39      216.74      216.74      212.39      203.60      190.38      173.00      152.22    
  129.31      105.94      83.872      64.572      48.931      37.113      28.634      22.552      18.128      15.022    
  12.922      11.567      10.765      10.393      10.393      10.765      11.568      12.922      15.023      18.128    
  22.553      28.634      37.113      48.931      64.572      83.872      105.94      129.31      152.22      173.00    
  158.34      173.01      183.80      190.36      192.55      190.36      183.80      173.01      158.34      140.50    
  120.58      100.02      80.318      62.792      48.305      37.113      28.897      22.892      18.441      15.246    
  13.032      11.553      10.622      10.111      9.9484      10.112      10.622      11.554      13.031      15.247    
  18.441      22.892      28.897      37.113      48.305      62.792      80.317      100.02      120.58      140.50    
  125.81      140.49      152.21      160.33      164.47      164.47      160.33      152.21      140.49      125.81    
  109.15      91.698      74.735      59.402      46.491      36.300      28.634      22.892      18.548      15.364    
  13.103      11.547      10.521      9.9007      9.6085      9.6085      9.9006      10.521      11.548      13.103    
  15.364      18.548      22.892      28.634      36.300      46.491      59.403      74.734      91.698      109.15    
  95.820      109.13      120.54      129.26      134.71      136.56      134.71      129.26      120.54      109.13    
  95.820      81.625      67.607      54.725      43.676      34.759      27.869      22.553      18.441      15.364    
  13.127      11.546      10.461      9.7602      9.3666      9.2404      9.3667      9.7603      10.461      11.546    
  13.127      15.364      18.441      22.553      27.868      34.759      43.675      54.727      67.607      81.624    
  70.605      81.586      91.631      99.935      105.85      108.91      108.91      105.84      99.934      91.630    
  81.586      70.605      59.548      49.196      40.136      32.643      26.671      21.900      18.128      15.246    
  13.103      11.546      10.441      9.6895      9.2219      8.9974      8.9975      9.2216      9.6899      10.441    
  11.546      13.103      15.247      18.128      21.902      26.669      32.645      40.134      49.196      59.548    
  51.224      59.504      67.524      74.620      80.182      83.725      84.941      83.725      80.183      74.621    
  67.524      59.503      51.223      43.298      36.192      30.145      25.135      20.987      17.636      15.022    
  13.032      11.547      10.461      9.6897      9.1732      8.8767      8.7793      8.8769      9.1729      9.6899    
  10.461      11.548      13.031      15.023      17.635      20.988      25.133      30.145      36.193      43.296    
  37.488      43.254      49.110      54.603      59.248      62.616      64.385      64.385      62.615      59.247    
  54.601      49.111      43.255      37.489      32.159      27.454      23.370      19.880      17.006      14.711    
  12.922      11.553      10.521      9.7598      9.2220      8.8764      8.7075      8.7071      8.8769      9.2217    
  9.7604      10.521      11.554      12.922      14.712      17.005      19.881      23.370      27.452      32.161    
  28.280      32.124      36.113      40.014      43.519      46.308      48.105      48.725      48.105      46.309    
  43.521      40.016      36.113      32.121      28.282      24.719      21.486      18.660      16.281      14.338    
  12.786      11.567      10.622      9.9006      9.3669      8.9974      8.7795      8.7075      8.7793      8.9974    
  9.3666      9.9007      10.622      11.568      12.786      14.338      16.281      18.658      21.488      24.718    
  22.056      24.687      27.384      30.042      32.506      34.591      36.110      36.911      36.911      36.109    
  34.590      32.504      30.041      27.387      24.689      22.053      19.596      17.402      15.513      13.932    
  12.639      11.596      10.765      10.111      9.6086      9.2402      8.9975      8.8764      8.8768      8.9974    
  9.2405      9.6084      10.112      10.765      11.597      12.639      13.932      15.514      17.401      19.595    
  17.795      19.571      21.435      23.286      25.017      26.524      27.700      28.452      28.710      28.452    
  27.701      26.525      25.020      23.286      21.432      19.572      17.797      16.175      14.745      13.520    
  12.493      11.645      10.953      10.393      9.9487      9.6085      9.3668      9.2220      9.1732      9.2218    
  9.3666      9.6086      9.9484      10.393      10.952      11.645      12.493      13.520      14.746      16.176    
  15.032      16.158      17.360      18.593      19.790      20.873      21.767      22.404      22.736      22.736    
  22.404      21.765      20.871      19.789      18.595      17.362      16.157      15.030      14.014      13.125    
  12.364      11.723      11.190      10.750      10.393      10.111      9.9006      9.7599      9.6897      9.6896    
  9.7603      9.9006      10.111      10.393      10.751      11.190      11.724      12.365      13.124      14.014    
  13.345      14.000      14.716      15.465      16.213      16.918      17.531      18.010      18.314      18.418    
  18.314      18.010      17.533      16.918      16.213      15.464      14.715      14.001      13.346      12.765    
  12.263      11.837      11.482      11.190      10.953      10.765      10.622      10.521      10.461      10.441    
  10.461      10.521      10.622      10.765      10.952      11.189      11.482      11.837      12.264      12.766    
  12.451      12.755      13.101      13.483      13.882      14.274      14.636      14.936      15.153      15.266    
  15.266      15.152      14.935      14.634      14.274      13.882      13.484      13.102      12.754      12.450    
  12.196      11.993      11.837      11.723      11.645      11.596      11.567      11.553      11.547      11.546    
  11.546      11.547      11.553      11.567      11.596      11.646      11.724      11.837      11.992      12.196    
  12.170      12.187      12.245      12.337      12.456      12.592      12.731      12.861      12.965      13.033    
  13.057      13.033      12.966      12.861      12.732      12.592      12.456      12.336      12.244      12.187    
  12.171      12.196      12.263      12.364      12.493      12.638      12.786      12.922      13.032      13.103    
  13.127      13.103      13.032      12.922      12.786      12.638      12.493      12.364      12.264      12.197    
  12.451      12.188      11.975      11.813      11.694      11.611      11.558      11.526      11.510      11.502    