   2   2   1   0
  0.1565213E+02  0.2752972E-09  0.2752972E-09  0.4769460E-09  0.5000000E-15
  1.000000000000000E-004
  CAR 
 Pt-hcc                                  
     36.12230703    -45.24485158  301     11.30311978      1.00000000
    -45.245  0.0000E+00  0.0000E+00
    -44.974  0.0000E+00  0.0000E+00
    -44.702  0.0000E+00  0.0000E+00
    -44.431  0.0000E+00  0.0000E+00
    -44.160  0.0000E+00  0.0000E+00
    -43.889  0.0000E+00  0.0000E+00
    -43.618  0.0000E+00  0.0000E+00
    -43.346  0.0000E+00  0.0000E+00
    -43.075  0.0000E+00  0.0000E+00
    -42.804  0.0000E+00  0.0000E+00
    -42.533  0.0000E+00  0.0000E+00
    -42.261  0.0000E+00  0.0000E+00
    -41.990  0.0000E+00  0.0000E+00
    -41.719  0.1128E-08  0.3061E-09
    -41.448  0.6553E-01  0.1777E-01
    -41.176  0.2246E+00  0.7870E-01
    -40.905  0.1523E+00  0.1200E+00
    -40.634  0.1112E-04  0.1200E+00
    -40.363  0.0000E+00  0.1200E+00
    -40.092  0.0000E+00  0.1200E+00
    -39.820  0.0000E+00  0.1200E+00
    -39.549  0.0000E+00  0.1200E+00
    -39.278  0.0000E+00  0.1200E+00
    -39.007  0.0000E+00  0.1200E+00
    -38.735  0.0000E+00  0.1200E+00
    -38.464  0.0000E+00  0.1200E+00
    -38.193  0.0000E+00  0.1200E+00
    -37.922  0.0000E+00  0.1200E+00
    -37.651  0.0000E+00  0.1200E+00
    -37.379  0.0000E+00  0.1200E+00
    -37.108  0.0000E+00  0.1200E+00
    -36.837  0.0000E+00  0.1200E+00
    -36.566  0.0000E+00  0.1200E+00
    -36.294  0.0000E+00  0.1200E+00
    -36.023  0.0000E+00  0.1200E+00
    -35.752  0.0000E+00  0.1200E+00
    -35.481  0.0000E+00  0.1200E+00
    -35.210  0.0000E+00  0.1200E+00
    -34.938  0.0000E+00  0.1200E+00
    -34.667  0.0000E+00  0.1200E+00
    -34.396  0.0000E+00  0.1200E+00
    -34.125  0.0000E+00  0.1200E+00
    -33.853  0.0000E+00  0.1200E+00
    -33.582  0.0000E+00  0.1200E+00
    -33.311  0.0000E+00  0.1200E+00
    -33.040  0.0000E+00  0.1200E+00
    -32.769  0.0000E+00  0.1200E+00
    -32.497  0.0000E+00  0.1200E+00
    -32.226  0.0000E+00  0.1200E+00
    -31.955  0.0000E+00  0.1200E+00
    -31.684  0.0000E+00  0.1200E+00
    -31.412  0.0000E+00  0.1200E+00
    -31.141  0.0000E+00  0.1200E+00
    -30.870  0.0000E+00  0.1200E+00
    -30.599  0.0000E+00  0.1200E+00
    -30.328  0.0000E+00  0.1200E+00
    -30.056  0.0000E+00  0.1200E+00
    -29.785  0.0000E+00  0.1200E+00
    -29.514  0.0000E+00  0.1200E+00
    -29.243  0.0000E+00  0.1200E+00
    -28.971  0.0000E+00  0.1200E+00
    -28.700  0.0000E+00  0.1200E+00
    -28.429  0.0000E+00  0.1200E+00
    -28.158  0.0000E+00  0.1200E+00
    -27.887  0.0000E+00  0.1200E+00
    -27.615  0.0000E+00  0.1200E+00
    -27.344  0.0000E+00  0.1200E+00
    -27.073  0.0000E+00  0.1200E+00
    -26.802  0.0000E+00  0.1200E+00
    -26.530  0.0000E+00  0.1200E+00
    -26.259  0.0000E+00  0.1200E+00
    -25.988  0.0000E+00  0.1200E+00
    -25.717  0.0000E+00  0.1200E+00
    -25.446  0.0000E+00  0.1200E+00
    -25.174  0.0000E+00  0.1200E+00
    -24.903  0.0000E+00  0.1200E+00
    -24.632  0.0000E+00  0.1200E+00
    -24.361  0.0000E+00  0.1200E+00
    -24.089  0.0000E+00  0.1200E+00
    -23.818  0.0000E+00  0.1200E+00
    -23.547  0.0000E+00  0.1200E+00
    -23.276  0.0000E+00  0.1200E+00
    -23.004  0.0000E+00  0.1200E+00
    -22.733  0.0000E+00  0.1200E+00
    -22.462  0.0000E+00  0.1200E+00
    -22.191  0.0000E+00  0.1200E+00
    -21.920  0.0000E+00  0.1200E+00
    -21.648  0.0000E+00  0.1200E+00
    -21.377  0.0000E+00  0.1200E+00
    -21.106  0.0000E+00  0.1200E+00
    -20.835  0.0000E+00  0.1200E+00
    -20.563  0.0000E+00  0.1200E+00
    -20.292  0.0000E+00  0.1200E+00
    -20.021  0.0000E+00  0.1200E+00
    -19.750  0.0000E+00  0.1200E+00
    -19.479  0.0000E+00  0.1200E+00
    -19.207  0.0000E+00  0.1200E+00
    -18.936  0.0000E+00  0.1200E+00
    -18.665  0.0000E+00  0.1200E+00
    -18.394  0.0000E+00  0.1200E+00
    -18.122  0.0000E+00  0.1200E+00
    -17.851  0.0000E+00  0.1200E+00
    -17.580  0.0000E+00  0.1200E+00
    -17.309  0.0000E+00  0.1200E+00
    -17.038  0.0000E+00  0.1200E+00
    -16.766  0.0000E+00  0.1200E+00
    -16.495  0.0000E+00  0.1200E+00
    -16.224  0.0000E+00  0.1200E+00
    -15.953  0.0000E+00  0.1200E+00
    -15.681  0.0000E+00  0.1200E+00
    -15.410  0.0000E+00  0.1200E+00
    -15.139  0.0000E+00  0.1200E+00
    -14.868  0.0000E+00  0.1200E+00
    -14.597  0.0000E+00  0.1200E+00
    -14.325  0.0000E+00  0.1200E+00
    -14.054  0.0000E+00  0.1200E+00
    -13.783  0.0000E+00  0.1200E+00
    -13.512  0.0000E+00  0.1200E+00
    -13.240  0.0000E+00  0.1200E+00
    -12.969  0.0000E+00  0.1200E+00
    -12.698  0.0000E+00  0.1200E+00
    -12.427  0.0000E+00  0.1200E+00
    -12.156  0.0000E+00  0.1200E+00
    -11.884  0.0000E+00  0.1200E+00
    -11.613  0.0000E+00  0.1200E+00
    -11.342  0.0000E+00  0.1200E+00
    -11.071  0.0000E+00  0.1200E+00
    -10.799  0.0000E+00  0.1200E+00
    -10.528  0.0000E+00  0.1200E+00
    -10.257  0.0000E+00  0.1200E+00
     -9.986  0.0000E+00  0.1200E+00
     -9.715  0.0000E+00  0.1200E+00
     -9.443  0.0000E+00  0.1200E+00
     -9.172  0.0000E+00  0.1200E+00
     -8.901  0.0000E+00  0.1200E+00
     -8.630  0.0000E+00  0.1200E+00
     -8.358  0.0000E+00  0.1200E+00
     -8.087  0.0000E+00  0.1200E+00
     -7.816  0.0000E+00  0.1200E+00
     -7.545  0.0000E+00  0.1200E+00
     -7.274  0.0000E+00  0.1200E+00
     -7.002  0.0000E+00  0.1200E+00
     -6.731  0.0000E+00  0.1200E+00
     -6.460  0.0000E+00  0.1200E+00
     -6.189  0.0000E+00  0.1200E+00
     -5.917  0.0000E+00  0.1200E+00
     -5.646  0.0000E+00  0.1200E+00
     -5.375  0.0000E+00  0.1200E+00
     -5.104  0.0000E+00  0.1200E+00
     -4.832  0.0000E+00  0.1200E+00
     -4.561  0.0000E+00  0.1200E+00
     -4.290  0.0000E+00  0.1200E+00
     -4.019  0.0000E+00  0.1200E+00
     -3.748  0.0000E+00  0.1200E+00
     -3.476  0.0000E+00  0.1200E+00
     -3.205  0.0000E+00  0.1200E+00
     -2.934  0.0000E+00  0.1200E+00
     -2.663  0.0000E+00  0.1200E+00
     -2.391  0.0000E+00  0.1200E+00
     -2.120  0.0000E+00  0.1200E+00
     -1.849  0.0000E+00  0.1200E+00
     -1.578  0.0000E+00  0.1200E+00
     -1.307  0.0000E+00  0.1200E+00
     -1.035  0.0000E+00  0.1200E+00
     -0.764  0.0000E+00  0.1200E+00
     -0.493  0.0000E+00  0.1200E+00
     -0.222  0.0000E+00  0.1200E+00
      0.050  0.0000E+00  0.1200E+00
      0.321  0.0000E+00  0.1200E+00
      0.592  0.0000E+00  0.1200E+00
      0.863  0.0000E+00  0.1200E+00
      1.134  0.0000E+00  0.1200E+00
      1.406  0.4333E-06  0.1200E+00
      1.677  0.2565E-03  0.1201E+00
      1.948  0.6788E-03  0.1203E+00
      2.219  0.1184E-02  0.1206E+00
      2.491  0.1135E-02  0.1209E+00
      2.762  0.1812E-02  0.1214E+00
      3.033  0.3279E-02  0.1223E+00
      3.304  0.1264E-02  0.1226E+00
      3.575  0.1317E-02  0.1230E+00
      3.847  0.5378E-02  0.1244E+00
      4.118  0.4347E-02  0.1256E+00
      4.389  0.4615E-02  0.1269E+00
      4.660  0.1055E-01  0.1297E+00
      4.932  0.2078E-01  0.1354E+00
      5.203  0.2570E-01  0.1423E+00
      5.474  0.2146E-01  0.1481E+00
      5.745  0.1942E-01  0.1534E+00
      6.016  0.2346E-01  0.1598E+00
      6.288  0.3458E-01  0.1692E+00
      6.559  0.2708E-01  0.1765E+00
      6.830  0.2965E-01  0.1845E+00
      7.101  0.3082E-01  0.1929E+00
      7.373  0.2707E-01  0.2002E+00
      7.644  0.3014E-01  0.2084E+00
      7.915  0.3296E-01  0.2173E+00
      8.186  0.4031E-01  0.2283E+00
      8.457  0.2681E-01  0.2356E+00
      8.729  0.4475E-01  0.2477E+00
      9.000  0.3217E-01  0.2564E+00
      9.271  0.2182E-01  0.2623E+00
      9.542  0.2336E-01  0.2687E+00
      9.814  0.2206E-01  0.2747E+00
     10.085  0.2832E-01  0.2823E+00
     10.356  0.2489E-01  0.2891E+00
     10.627  0.2518E-01  0.2959E+00
     10.898  0.2334E-01  0.3022E+00
     11.170  0.4414E-01  0.3142E+00
     11.441  0.3941E-01  0.3249E+00
     11.712  0.2457E-01  0.3316E+00
     11.983  0.9934E-02  0.3343E+00
     12.255  0.6116E-02  0.3359E+00
     12.526  0.3038E-02  0.3368E+00
     12.797  0.1675E-02  0.3372E+00
     13.068  0.2944E-02  0.3380E+00
     13.340  0.1115E-01  0.3410E+00
     13.611  0.9720E-02  0.3437E+00
     13.882  0.5376E-02  0.3451E+00
     14.153  0.1077E-02  0.3454E+00
     14.424  0.4215E-02  0.3466E+00
     14.696  0.6544E-02  0.3483E+00
     14.967  0.2174E-02  0.3489E+00
     15.238  0.7131E-02  0.3509E+00
     15.509  0.4729E-02  0.3521E+00
     15.781  0.4701E-02  0.3534E+00
     16.052  0.9152E-02  0.3559E+00
     16.323  0.5389E-02  0.3574E+00
     16.594  0.4120E-02  0.3585E+00
     16.865  0.3224E-02  0.3594E+00
     17.137  0.2119E-02  0.3599E+00
     17.408  0.2056E-02  0.3605E+00
     17.679  0.5461E-02  0.3620E+00
     17.950  0.1052E-01  0.3648E+00
     18.222  0.9577E-02  0.3674E+00
     18.493  0.8419E-02  0.3697E+00
     18.764  0.7269E-02  0.3717E+00
     19.035  0.8306E-02  0.3739E+00
     19.306  0.7307E-02  0.3759E+00
     19.578  0.4852E-02  0.3772E+00
     19.849  0.4946E-02  0.3786E+00
     20.120  0.7403E-02  0.3806E+00
     20.391  0.9861E-02  0.3832E+00
     20.663  0.9720E-02  0.3859E+00
     20.934  0.5858E-02  0.3875E+00
     21.205  0.2817E-02  0.3882E+00
     21.476  0.6590E-02  0.3900E+00
     21.747  0.1048E-01  0.3929E+00
     22.019  0.6938E-02  0.3947E+00
     22.290  0.5224E-02  0.3962E+00
     22.561  0.3284E-02  0.3971E+00
     22.832  0.1049E-01  0.3999E+00
     23.104  0.3239E-02  0.4008E+00
     23.375  0.4372E-02  0.4020E+00
     23.646  0.1123E-01  0.4050E+00
     23.917  0.1184E-01  0.4082E+00
     24.188  0.9901E-02  0.4109E+00
     24.460  0.6868E-02  0.4128E+00
     24.731  0.7315E-02  0.4148E+00
     25.002  0.3565E-02  0.4157E+00
     25.273  0.9809E-02  0.4184E+00
     25.545  0.1979E-01  0.4237E+00
     25.816  0.1973E-01  0.4291E+00
     26.087  0.1370E-01  0.4328E+00
     26.358  0.1586E-01  0.4371E+00
     26.629  0.1047E-01  0.4400E+00
     26.901  0.1183E-01  0.4432E+00
     27.172  0.1094E-01  0.4461E+00
     27.443  0.1983E-01  0.4515E+00
     27.714  0.1949E-01  0.4568E+00
     27.986  0.1093E-01  0.4598E+00
     28.257  0.1203E-01  0.4630E+00
     28.528  0.1262E-01  0.4664E+00
     28.799  0.8003E-02  0.4686E+00
     29.070  0.8112E-02  0.4708E+00
     29.342  0.7149E-02  0.4728E+00
     29.613  0.5879E-02  0.4743E+00
     29.884  0.2327E-02  0.4750E+00
     30.155  0.5901E-02  0.4766E+00
     30.427  0.3421E-02  0.4775E+00
     30.698  0.1128E-02  0.4778E+00
     30.969  0.6196E-02  0.4795E+00
     31.240  0.4951E-03  0.4796E+00
     31.512  0.6327E-03  0.4798E+00
     31.783  0.1973E-03  0.4799E+00
     32.054  0.3558E-03  0.4799E+00
     32.325  0.4865E-06  0.4800E+00
     32.596  0.1839E-03  0.4800E+00
     32.868  0.0000E+00  0.4800E+00
     33.139  0.0000E+00  0.4800E+00
     33.410  0.0000E+00  0.4800E+00
     33.681  0.0000E+00  0.4800E+00
     33.953  0.0000E+00  0.4800E+00
     34.224  0.0000E+00  0.4800E+00
     34.495  0.0000E+00  0.4800E+00
     34.766  0.0000E+00  0.4800E+00
     35.037  0.0000E+00  0.4800E+00
     35.309  0.0000E+00  0.4800E+00
     35.580  0.0000E+00  0.4800E+00
     35.851  0.0000E+00  0.4800E+00
     36.122  0.0000E+00  0.4800E+00
     36.12230703    -45.24485158  301     11.30311978      1.00000000
    -45.245  0.0000E+00  0.0000E+00  0.0000E+00  0.0000E+00  0.0000E+00  0.0000E+00  0.0000E+00  0.0000E+00  0.0000E+00
    -44.974  0.0000E+00  0.0000E+00  0.0000E+00  0.0000E+00  0.0000E+00  0.0000E+00  0.0000E+00  0.0000E+00  0.0000E+00
    -44.702  0.0000E+00  0.0000E+00  0.0000E+00  0.0000E+00  0.0000E+00  0.0000E+00  0.0000E+00  0.0000E+00  0.0000E+00
    -44.431  0.0000E+00  0.0000E+00  0.0000E+00  0.0000E+00  0.0000E+00  0.0000E+00  0.0000E+00  0.0000E+00  0.0000E+00
    -44.160  0.0000E+00  0.0000E+00  0.0000E+00  0.0000E+00  0.0000E+00  0.0000E+00  0.0000E+00  0.0000E+00  0.0000E+00
    -43.889  0.0000E+00  0.0000E+00  0.0000E+00  0.0000E+00  0.0000E+00  0.0000E+00  0.0000E+00  0.0000E+00  0.0000E+00
    -43.618  0.0000E+00  0.0000E+00  0.0000E+00  0.0000E+00  0.0000E+00  0.0000E+00  0.0000E+00  0.0000E+00  0.0000E+00
    -43.346  0.0000E+00  0.0000E+00  0.0000E+00  0.0000E+00  0.0000E+00  0.0000E+00  0.0000E+00  0.0000E+00  0.0000E+00
    -43.075  0.0000E+00  0.0000E+00  0.0000E+00  0.0000E+00  0.0000E+00  0.0000E+00  0.0000E+00  0.0000E+00  0.0000E+00
    -42.804  0.0000E+00  0.0000E+00  0.0000E+00  0.0000E+00  0.0000E+00  0.0000E+00  0.0000E+00  0.0000E+00  0.0000E+00
    -42.533  0.0000E+00  0.0000E+00  0.0000E+00  0.0000E+00  0.0000E+00  0.0000E+00  0.0000E+00  0.0000E+00  0.0000E+00
    -42.261  0.0000E+00  0.0000E+00  0.0000E+00  0.0000E+00  0.0000E+00  0.0000E+00  0.0000E+00  0.0000E+00  0.0000E+00
    -41.990  0.0000E+00  0.0000E+00  0.0000E+00  0.0000E+00  0.0000E+00  0.0000E+00  0.0000E+00  0.0000E+00  0.0000E+00
    -41.719  0.2959E-12  0.2713E-07  0.1196E-08  0.2713E-07  0.5435E-13  0.2026E-13  0.3185E-12  0.2026E-13  0.5435E-13
    -41.448  0.6786E-04  0.1574E+01  0.7895E-01  0.1574E+01  0.3160E-04  0.2792E-05  0.3864E-04  0.2792E-05  0.3160E-04
    -41.176  0.2365E-03  0.4655E+01  0.1813E+01  0.4655E+01  0.1527E-03  0.3241E-04  0.1051E-03  0.3241E-04  0.1527E-03
    -40.905  0.2983E-04  0.1074E+01  0.5412E+01  0.1074E+01  0.1754E-04  0.3583E-04  0.4152E-04  0.3583E-04  0.1754E-04
    -40.634  0.9390E-09  0.7726E-06  0.5517E-03  0.7726E-06  0.2990E-10  0.6736E-09  0.8406E-09  0.6736E-09  0.2990E-10
    -40.363  0.0000E+00  0.0000E+00  0.0000E+00  0.0000E+00  0.0000E+00  0.0000E+00  0.0000E+00  0.0000E+00  0.0000E+00
    -40.092  0.0000E+00  0.0000E+00  0.0000E+00  0.0000E+00  0.0000E+00  0.0000E+00  0.0000E+00  0.0000E+00  0.0000E+00
    -39.820  0.0000E+00  0.0000E+00  0.0000E+00  0.0000E+00  0.0000E+00  0.0000E+00  0.0000E+00  0.0000E+00  0.0000E+00
    -39.549  0.0000E+00  0.0000E+00  0.0000E+00  0.0000E+00  0.0000E+00  0.0000E+00  0.0000E+00  0.0000E+00  0.0000E+00
    -39.278  0.0000E+00  0.0000E+00  0.0000E+00  0.0000E+00  0.0000E+00  0.0000E+00  0.0000E+00  0.0000E+00  0.0000E+00
    -39.007  0.0000E+00  0.0000E+00  0.0000E+00  0.0000E+00  0.0000E+00  0.0000E+00  0.0000E+00  0.0000E+00  0.0000E+00
    -38.735  0.0000E+00  0.0000E+00  0.0000E+00  0.0000E+00  0.0000E+00  0.0000E+00  0.0000E+00  0.0000E+00  0.0000E+00
    -38.464  0.0000E+00  0.0000E+00  0.0000E+00  0.0000E+00  0.0000E+00  0.0000E+00  0.0000E+00  0.0000E+00  0.0000E+00
    -38.193  0.0000E+00  0.0000E+00  0.0000E+00  0.0000E+00  0.0000E+00  0.0000E+00  0.0000E+00  0.0000E+00  0.0000E+00
    -37.922  0.0000E+00  0.0000E+00  0.0000E+00  0.0000E+00  0.0000E+00  0.0000E+00  0.0000E+00  0.0000E+00  0.0000E+00
    -37.651  0.0000E+00  0.0000E+00  0.0000E+00  0.0000E+00  0.0000E+00  0.0000E+00  0.0000E+00  0.0000E+00  0.0000E+00
    -37.379  0.0000E+00  0.0000E+00  0.0000E+00  0.0000E+00  0.0000E+00  0.0000E+00  0.0000E+00  0.0000E+00  0.0000E+00
    -37.108  0.0000E+00  0.0000E+00  0.0000E+00  0.0000E+00  0.0000E+00  0.0000E+00  0.0000E+00  0.0000E+00  0.0000E+00
    -36.837  0.0000E+00  0.0000E+00  0.0000E+00  0.0000E+00  0.0000E+00  0.0000E+00  0.0000E+00  0.0000E+00  0.0000E+00
    -36.566  0.0000E+00  0.0000E+00  0.0000E+00  0.0000E+00  0.0000E+00  0.0000E+00  0.0000E+00  0.0000E+00  0.0000E+00
    -36.294  0.0000E+00  0.0000E+00  0.0000E+00  0.0000E+00  0.0000E+00  0.0000E+00  0.0000E+00  0.0000E+00  0.0000E+00
    -36.023  0.0000E+00  0.0000E+00  0.0000E+00  0.0000E+00  0.0000E+00  0.0000E+00  0.0000E+00  0.0000E+00  0.0000E+00
    -35.752  0.0000E+00  0.0000E+00  0.0000E+00  0.0000E+00  0.0000E+00  0.0000E+00  0.0000E+00  0.0000E+00  0.0000E+00
    -35.481  0.0000E+00  0.0000E+00  0.0000E+00  0.0000E+00  0.0000E+00  0.0000E+00  0.0000E+00  0.0000E+00  0.0000E+00
    -35.210  0.0000E+00  0.0000E+00  0.0000E+00  0.0000E+00  0.0000E+00  0.0000E+00  0.0000E+00  0.0000E+00  0.0000E+00
    -34.938  0.0000E+00  0.0000E+00  0.0000E+00  0.0000E+00  0.0000E+00  0.0000E+00  0.0000E+00  0.0000E+00  0.0000E+00
    -34.667  0.0000E+00  0.0000E+00  0.0000E+00  0.0000E+00  0.0000E+00  0.0000E+00  0.0000E+00  0.0000E+00  0.0000E+00
    -34.396  0.0000E+00  0.0000E+00  0.0000E+00  0.0000E+00  0.0000E+00  0.0000E+00  0.0000E+00  0.0000E+00  0.0000E+00
    -34.125  0.0000E+00  0.0000E+00  0.0000E+00  0.0000E+00  0.0000E+00  0.0000E+00  0.0000E+00  0.0000E+00  0.0000E+00
    -33.853  0.0000E+00  0.0000E+00  0.0000E+00  0.0000E+00  0.0000E+00  0.0000E+00  0.0000E+00  0.0000E+00  0.0000E+00
    -33.582  0.0000E+00  0.0000E+00  0.0000E+00  0.0000E+00  0.0000E+00  0.0000E+00  0.0000E+00  0.0000E+00  0.0000E+00
    -33.311  0.0000E+00  0.0000E+00  0.0000E+00  0.0000E+00  0.0000E+00  0.0000E+00  0.0000E+00  0.0000E+00  0.0000E+00
    -33.040  0.0000E+00  0.0000E+00  0.0000E+00  0.0000E+00  0.0000E+00  0.0000E+00  0.0000E+00  0.0000E+00  0.0000E+00
    -32.769  0.0000E+00  0.0000E+00  0.0000E+00  0.0000E+00  0.0000E+00  0.0000E+00  0.0000E+00  0.0000E+00  0.0000E+00
    -32.497  0.0000E+00  0.0000E+00  0.0000E+00  0.0000E+00  0.0000E+00  0.0000E+00  0.0000E+00  0.0000E+00  0.0000E+00
    -32.226  0.0000E+00  0.0000E+00  0.0000E+00  0.0000E+00  0.0000E+00  0.0000E+00  0.0000E+00  0.0000E+00  0.0000E+00
    -31.955  0.0000E+00  0.0000E+00  0.0000E+00  0.0000E+00  0.0000E+00  0.0000E+00  0.0000E+00  0.0000E+00  0.0000E+00
    -31.684  0.0000E+00  0.0000E+00  0.0000E+00  0.0000E+00  0.0000E+00  0.0000E+00  0.0000E+00  0.0000E+00  0.0000E+00
    -31.412  0.0000E+00  0.0000E+00  0.0000E+00  0.0000E+00  0.0000E+00  0.0000E+00  0.0000E+00  0.0000E+00  0.0000E+00
    -31.141  0.0000E+00  0.0000E+00  0.0000E+00  0.0000E+00  0.0000E+00  0.0000E+00  0.0000E+00  0.0000E+00  0.0000E+00
    -30.870  0.0000E+00  0.0000E+00  0.0000E+00  0.0000E+00  0.0000E+00  0.0000E+00  0.0000E+00  0.0000E+00  0.0000E+00
    -30.599  0.0000E+00  0.0000E+00  0.0000E+00  0.0000E+00  0.0000E+00  0.0000E+00  0.0000E+00  0.0000E+00  0.0000E+00
    -30.328  0.0000E+00  0.0000E+00  0.0000E+00  0.0000E+00  0.0000E+00  0.0000E+00  0.0000E+00  0.0000E+00  0.0000E+00
    -30.056  0.0000E+00  0.0000E+00  0.0000E+00  0.0000E+00  0.0000E+00  0.0000E+00  0.0000E+00  0.0000E+00  0.0000E+00
    -29.785  0.0000E+00  0.0000E+00  0.0000E+00  0.0000E+00  0.0000E+00  0.0000E+00  0.0000E+00  0.0000E+00  0.0000E+00
    -29.514  0.0000E+00  0.0000E+00  0.0000E+00  0.0000E+00  0.0000E+00  0.0000E+00  0.0000E+00  0.0000E+00  0.0000E+00
    -29.243  0.0000E+00  0.0000E+00  0.0000E+00  0.0000E+00  0.0000E+00  0.0000E+00  0.0000E+00  0.0000E+00  0.0000E+00
    -28.971  0.0000E+00  0.0000E+00  0.0000E+00  0.0000E+00  0.0000E+00  0.0000E+00  0.0000E+00  0.0000E+00  0.0000E+00
    -28.700  0.0000E+00  0.0000E+00  0.0000E+00  0.0000E+00  0.0000E+00  0.0000E+00  0.0000E+00  0.0000E+00  0.0000E+00
    -28.429  0.0000E+00  0.0000E+00  0.0000E+00  0.0000E+00  0.0000E+00  0.0000E+00  0.0000E+00  0.0000E+00  0.0000E+00
    -28.158  0.0000E+00  0.0000E+00  0.0000E+00  0.0000E+00  0.0000E+00  0.0000E+00  0.0000E+00  0.0000E+00  0.0000E+00
    -27.887  0.0000E+00  0.0000E+00  0.0000E+00  0.0000E+00  0.0000E+00  0.0000E+00  0.0000E+00  0.0000E+00  0.0000E+00
    -27.615  0.0000E+00  0.0000E+00  0.0000E+00  0.0000E+00  0.0000E+00  0.0000E+00  0.0000E+00  0.0000E+00  0.0000E+00
    -27.344  0.0000E+00  0.0000E+00  0.0000E+00  0.0000E+00  0.0000E+00  0.0000E+00  0.0000E+00  0.0000E+00  0.0000E+00
    -27.073  0.0000E+00  0.0000E+00  0.0000E+00  0.0000E+00  0.0000E+00  0.0000E+00  0.0000E+00  0.0000E+00  0.0000E+00
    -26.802  0.0000E+00  0.0000E+00  0.0000E+00  0.0000E+00  0.0000E+00  0.0000E+00  0.0000E+00  0.0000E+00  0.0000E+00
    -26.530  0.0000E+00  0.0000E+00  0.0000E+00  0.0000E+00  0.0000E+00  0.0000E+00  0.0000E+00  0.0000E+00  0.0000E+00
    -26.259  0.0000E+00  0.0000E+00  0.0000E+00  0.0000E+00  0.0000E+00  0.0000E+00  0.0000E+00  0.0000E+00  0.0000E+00
    -25.988  0.0000E+00  0.0000E+00  0.0000E+00  0.0000E+00  0.0000E+00  0.0000E+00  0.0000E+00  0.0000E+00  0.0000E+00
    -25.717  0.0000E+00  0.0000E+00  0.0000E+00  0.0000E+00  0.0000E+00  0.0000E+00  0.0000E+00  0.0000E+00  0.0000E+00
    -25.446  0.0000E+00  0.0000E+00  0.0000E+00  0.0000E+00  0.0000E+00  0.0000E+00  0.0000E+00  0.0000E+00  0.0000E+00
    -25.174  0.0000E+00  0.0000E+00  0.0000E+00  0.0000E+00  0.0000E+00  0.0000E+00  0.0000E+00  0.0000E+00  0.0000E+00
    -24.903  0.0000E+00  0.0000E+00  0.0000E+00  0.0000E+00  0.0000E+00  0.0000E+00  0.0000E+00  0.0000E+00  0.0000E+00
    -24.632  0.0000E+00  0.0000E+00  0.0000E+00  0.0000E+00  0.0000E+00  0.0000E+00  0.0000E+00  0.0000E+00  0.0000E+00
    -24.361  0.0000E+00  0.0000E+00  0.0000E+00  0.0000E+00  0.0000E+00  0.0000E+00  0.0000E+00  0.0000E+00  0.0000E+00
    -24.089  0.0000E+00  0.0000E+00  0.0000E+00  0.0000E+00  0.0000E+00  0.0000E+00  0.0000E+00  0.0000E+00  0.0000E+00
    -23.818  0.0000E+00  0.0000E+00  0.0000E+00  0.0000E+00  0.0000E+00  0.0000E+00  0.0000E+00  0.0000E+00  0.0000E+00
    -23.547  0.0000E+00  0.0000E+00  0.0000E+00  0.0000E+00  0.0000E+00  0.0000E+00  0.0000E+00  0.0000E+00  0.0000E+00
    -23.276  0.0000E+00  0.0000E+00  0.0000E+00  0.0000E+00  0.0000E+00  0.0000E+00  0.0000E+00  0.0000E+00  0.0000E+00
    -23.004  0.0000E+00  0.0000E+00  0.0000E+00  0.0000E+00  0.0000E+00  0.0000E+00  0.0000E+00  0.0000E+00  0.0000E+00
    -22.733  0.0000E+00  0.0000E+00  0.0000E+00  0.0000E+00  0.0000E+00  0.0000E+00  0.0000E+00  0.0000E+00  0.0000E+00
    -22.462  0.0000E+00  0.0000E+00  0.0000E+00  0.0000E+00  0.0000E+00  0.0000E+00  0.0000E+00  0.0000E+00  0.0000E+00
    -22.191  0.0000E+00  0.0000E+00  0.0000E+00  0.0000E+00  0.0000E+00  0.0000E+00  0.0000E+00  0.0000E+00  0.0000E+00
    -21.920  0.0000E+00  0.0000E+00  0.0000E+00  0.0000E+00  0.0000E+00  0.0000E+00  0.0000E+00  0.0000E+00  0.0000E+00
    -21.648  0.0000E+00  0.0000E+00  0.0000E+00  0.0000E+00  0.0000E+00  0.0000E+00  0.0000E+00  0.0000E+00  0.0000E+00
    -21.377  0.0000E+00  0.0000E+00  0.0000E+00  0.0000E+00  0.0000E+00  0.0000E+00  0.0000E+00  0.0000E+00  0.0000E+00
    -21.106  0.0000E+00  0.0000E+00  0.0000E+00  0.0000E+00  0.0000E+00  0.0000E+00  0.0000E+00  0.0000E+00  0.0000E+00
    -20.835  0.0000E+00  0.0000E+00  0.0000E+00  0.0000E+00  0.0000E+00  0.0000E+00  0.0000E+00  0.0000E+00  0.0000E+00
    -20.563  0.0000E+00  0.0000E+00  0.0000E+00  0.0000E+00  0.0000E+00  0.0000E+00  0.0000E+00  0.0000E+00  0.0000E+00
    -20.292  0.0000E+00  0.0000E+00  0.0000E+00  0.0000E+00  0.0000E+00  0.0000E+00  0.0000E+00  0.0000E+00  0.0000E+00
    -20.021  0.0000E+00  0.0000E+00  0.0000E+00  0.0000E+00  0.0000E+00  0.0000E+00  0.0000E+00  0.0000E+00  0.0000E+00
    -19.750  0.0000E+00  0.0000E+00  0.0000E+00  0.0000E+00  0.0000E+00  0.0000E+00  0.0000E+00  0.0000E+00  0.0000E+00
    -19.479  0.0000E+00  0.0000E+00  0.0000E+00  0.0000E+00  0.0000E+00  0.0000E+00  0.0000E+00  0.0000E+00  0.0000E+00
    -19.207  0.0000E+00  0.0000E+00  0.0000E+00  0.0000E+00  0.0000E+00  0.0000E+00  0.0000E+00  0.0000E+00  0.0000E+00
    -18.936  0.0000E+00  0.0000E+00  0.0000E+00  0.0000E+00  0.0000E+00  0.0000E+00  0.0000E+00  0.0000E+00  0.0000E+00
    -18.665  0.0000E+00  0.0000E+00  0.0000E+00  0.0000E+00  0.0000E+00  0.0000E+00  0.0000E+00  0.0000E+00  0.0000E+00
    -18.394  0.0000E+00  0.0000E+00  0.0000E+00  0.0000E+00  0.0000E+00  0.0000E+00  0.0000E+00  0.0000E+00  0.0000E+00
    -18.122  0.0000E+00  0.0000E+00  0.0000E+00  0.0000E+00  0.0000E+00  0.0000E+00  0.0000E+00  0.0000E+00  0.0000E+00
    -17.851  0.0000E+00  0.0000E+00  0.0000E+00  0.0000E+00  0.0000E+00  0.0000E+00  0.0000E+00  0.0000E+00  0.0000E+00
    -17.580  0.0000E+00  0.0000E+00  0.0000E+00  0.0000E+00  0.0000E+00  0.0000E+00  0.0000E+00  0.0000E+00  0.0000E+00
    -17.309  0.0000E+00  0.0000E+00  0.0000E+00  0.0000E+00  0.0000E+00  0.0000E+00  0.0000E+00  0.0000E+00  0.0000E+00
    -17.038  0.0000E+00  0.0000E+00  0.0000E+00  0.0000E+00  0.0000E+00  0.0000E+00  0.0000E+00  0.0000E+00  0.0000E+00
    -16.766  0.0000E+00  0.0000E+00  0.0000E+00  0.0000E+00  0.0000E+00  0.0000E+00  0.0000E+00  0.0000E+00  0.0000E+00
    -16.495  0.0000E+00  0.0000E+00  0.0000E+00  0.0000E+00  0.0000E+00  0.0000E+00  0.0000E+00  0.0000E+00  0.0000E+00
    -16.224  0.0000E+00  0.0000E+00  0.0000E+00  0.0000E+00  0.0000E+00  0.0000E+00  0.0000E+00  0.0000E+00  0.0000E+00
    -15.953  0.0000E+00  0.0000E+00  0.0000E+00  0.0000E+00  0.0000E+00  0.0000E+00  0.0000E+00  0.0000E+00  0.0000E+00
    -15.681  0.0000E+00  0.0000E+00  0.0000E+00  0.0000E+00  0.0000E+00  0.0000E+00  0.0000E+00  0.0000E+00  0.0000E+00
    -15.410  0.0000E+00  0.0000E+00  0.0000E+00  0.0000E+00  0.0000E+00  0.0000E+00  0.0000E+00  0.0000E+00  0.0000E+00
    -15.139  0.0000E+00  0.0000E+00  0.0000E+00  0.0000E+00  0.0000E+00  0.0000E+00  0.0000E+00  0.0000E+00  0.0000E+00
    -14.868  0.0000E+00  0.0000E+00  0.0000E+00  0.0000E+00  0.0000E+00  0.0000E+00  0.0000E+00  0.0000E+00  0.0000E+00
    -14.597  0.0000E+00  0.0000E+00  0.0000E+00  0.0000E+00  0.0000E+00  0.0000E+00  0.0000E+00  0.0000E+00  0.0000E+00
    -14.325  0.0000E+00  0.0000E+00  0.0000E+00  0.0000E+00  0.0000E+00  0.0000E+00  0.0000E+00  0.0000E+00  0.0000E+00
    -14.054  0.0000E+00  0.0000E+00  0.0000E+00  0.0000E+00  0.0000E+00  0.0000E+00  0.0000E+00  0.0000E+00  0.0000E+00
    -13.783  0.0000E+00  0.0000E+00  0.0000E+00  0.0000E+00  0.0000E+00  0.0000E+00  0.0000E+00  0.0000E+00  0.0000E+00
    -13.512  0.0000E+00  0.0000E+00  0.0000E+00  0.0000E+00  0.0000E+00  0.0000E+00  0.0000E+00  0.0000E+00  0.0000E+00
    -13.240  0.0000E+00  0.0000E+00  0.0000E+00  0.0000E+00  0.0000E+00  0.0000E+00  0.0000E+00  0.0000E+00  0.0000E+00
    -12.969  0.0000E+00  0.0000E+00  0.0000E+00  0.0000E+00  0.0000E+00  0.0000E+00  0.0000E+00  0.0000E+00  0.0000E+00
    -12.698  0.0000E+00  0.0000E+00  0.0000E+00  0.0000E+00  0.0000E+00  0.0000E+00  0.0000E+00  0.0000E+00  0.0000E+00
    -12.427  0.0000E+00  0.0000E+00  0.0000E+00  0.0000E+00  0.0000E+00  0.0000E+00  0.0000E+00  0.0000E+00  0.0000E+00
    -12.156  0.0000E+00  0.0000E+00  0.0000E+00  0.0000E+00  0.0000E+00  0.0000E+00  0.0000E+00  0.0000E+00  0.0000E+00
    -11.884  0.0000E+00  0.0000E+00  0.0000E+00  0.0000E+00  0.0000E+00  0.0000E+00  0.0000E+00  0.0000E+00  0.0000E+00
    -11.613  0.0000E+00  0.0000E+00  0.0000E+00  0.0000E+00  0.0000E+00  0.0000E+00  0.0000E+00  0.0000E+00  0.0000E+00
    -11.342  0.0000E+00  0.0000E+00  0.0000E+00  0.0000E+00  0.0000E+00  0.0000E+00  0.0000E+00  0.0000E+00  0.0000E+00
    -11.071  0.0000E+00  0.0000E+00  0.0000E+00  0.0000E+00  0.0000E+00  0.0000E+00  0.0000E+00  0.0000E+00  0.0000E+00
    -10.799  0.0000E+00  0.0000E+00  0.0000E+00  0.0000E+00  0.0000E+00  0.0000E+00  0.0000E+00  0.0000E+00  0.0000E+00
    -10.528  0.0000E+00  0.0000E+00  0.0000E+00  0.0000E+00  0.0000E+00  0.0000E+00  0.0000E+00  0.0000E+00  0.0000E+00
    -10.257  0.0000E+00  0.0000E+00  0.0000E+00  0.0000E+00  0.0000E+00  0.0000E+00  0.0000E+00  0.0000E+00  0.0000E+00
     -9.986  0.0000E+00  0.0000E+00  0.0000E+00  0.0000E+00  0.0000E+00  0.0000E+00  0.0000E+00  0.0000E+00  0.0000E+00
     -9.715  0.0000E+00  0.0000E+00  0.0000E+00  0.0000E+00  0.0000E+00  0.0000E+00  0.0000E+00  0.0000E+00  0.0000E+00
     -9.443  0.0000E+00  0.0000E+00  0.0000E+00  0.0000E+00  0.0000E+00  0.0000E+00  0.0000E+00  0.0000E+00  0.0000E+00
     -9.172  0.0000E+00  0.0000E+00  0.0000E+00  0.0000E+00  0.0000E+00  0.0000E+00  0.0000E+00  0.0000E+00  0.0000E+00
     -8.901  0.0000E+00  0.0000E+00  0.0000E+00  0.0000E+00  0.0000E+00  0.0000E+00  0.0000E+00  0.0000E+00  0.0000E+00
     -8.630  0.0000E+00  0.0000E+00  0.0000E+00  0.0000E+00  0.0000E+00  0.0000E+00  0.0000E+00  0.0000E+00  0.0000E+00
     -8.358  0.0000E+00  0.0000E+00  0.0000E+00  0.0000E+00  0.0000E+00  0.0000E+00  0.0000E+00  0.0000E+00  0.0000E+00
     -8.087  0.0000E+00  0.0000E+00  0.0000E+00  0.0000E+00  0.0000E+00  0.0000E+00  0.0000E+00  0.0000E+00  0.0000E+00
     -7.816  0.0000E+00  0.0000E+00  0.0000E+00  0.0000E+00  0.0000E+00  0.0000E+00  0.0000E+00  0.0000E+00  0.0000E+00
     -7.545  0.0000E+00  0.0000E+00  0.0000E+00  0.0000E+00  0.0000E+00  0.0000E+00  0.0000E+00  0.0000E+00  0.0000E+00
     -7.274  0.0000E+00  0.0000E+00  0.0000E+00  0.0000E+00  0.0000E+00  0.0000E+00  0.0000E+00  0.0000E+00  0.0000E+00
     -7.002  0.0000E+00  0.0000E+00  0.0000E+00  0.0000E+00  0.0000E+00  0.0000E+00  0.0000E+00  0.0000E+00  0.0000E+00
     -6.731  0.0000E+00  0.0000E+00  0.0000E+00  0.0000E+00  0.0000E+00  0.0000E+00  0.0000E+00  0.0000E+00  0.0000E+00
     -6.460  0.0000E+00  0.0000E+00  0.0000E+00  0.0000E+00  0.0000E+00  0.0000E+00  0.0000E+00  0.0000E+00  0.0000E+00
     -6.189  0.0000E+00  0.0000E+00  0.0000E+00  0.0000E+00  0.0000E+00  0.0000E+00  0.0000E+00  0.0000E+00  0.0000E+00
     -5.917  0.0000E+00  0.0000E+00  0.0000E+00  0.0000E+00  0.0000E+00  0.0000E+00  0.0000E+00  0.0000E+00  0.0000E+00
     -5.646  0.0000E+00  0.0000E+00  0.0000E+00  0.0000E+00  0.0000E+00  0.0000E+00  0.0000E+00  0.0000E+00  0.0000E+00
     -5.375  0.0000E+00  0.0000E+00  0.0000E+00  0.0000E+00  0.0000E+00  0.0000E+00  0.0000E+00  0.0000E+00  0.0000E+00
     -5.104  0.0000E+00  0.0000E+00  0.0000E+00  0.0000E+00  0.0000E+00  0.0000E+00  0.0000E+00  0.0000E+00  0.0000E+00
     -4.832  0.0000E+00  0.0000E+00  0.0000E+00  0.0000E+00  0.0000E+00  0.0000E+00  0.0000E+00  0.0000E+00  0.0000E+00
     -4.561  0.0000E+00  0.0000E+00  0.0000E+00  0.0000E+00  0.0000E+00  0.0000E+00  0.0000E+00  0.0000E+00  0.0000E+00
     -4.290  0.0000E+00  0.0000E+00  0.0000E+00  0.0000E+00  0.0000E+00  0.0000E+00  0.0000E+00  0.0000E+00  0.0000E+00
     -4.019  0.0000E+00  0.0000E+00  0.0000E+00  0.0000E+00  0.0000E+00  0.0000E+00  0.0000E+00  0.0000E+00  0.0000E+00
     -3.748  0.0000E+00  0.0000E+00  0.0000E+00  0.0000E+00  0.0000E+00  0.0000E+00  0.0000E+00  0.0000E+00  0.0000E+00
     -3.476  0.0000E+00  0.0000E+00  0.0000E+00  0.0000E+00  0.0000E+00  0.0000E+00  0.0000E+00  0.0000E+00  0.0000E+00
     -3.205  0.0000E+00  0.0000E+00  0.0000E+00  0.0000E+00  0.0000E+00  0.0000E+00  0.0000E+00  0.0000E+00  0.0000E+00
     -2.934  0.0000E+00  0.0000E+00  0.0000E+00  0.0000E+00  0.0000E+00  0.0000E+00  0.0000E+00  0.0000E+00  0.0000E+00