Pt-hcc                                  
   1.00000000000000     
     2.725442    0.000000    0.000000
    -1.362721    2.360302    0.000000
     0.000000    0.000000    4.721765
   Pt
     2
Direct
  0.000000  0.000000  0.000000
  0.333333  0.666667  0.500000
 
   40   40   72
  265.89      265.58      264.09      259.94      251.28      236.59      215.34      188.35      157.69      126.22    
  96.857      71.857      52.379      38.398      28.969      22.627      18.280      15.439      13.701      12.778    
  12.487      12.778      13.701      15.439      18.279      22.629      28.967      38.398      52.379      71.856    
  96.857      126.22      157.69      188.35      215.34      236.59      251.28      259.94      264.09      265.58    
  265.58      265.58      264.67      261.82      255.33      243.50      225.29      200.88      171.76      140.47    
  109.95      82.825      60.777      44.332      32.941      25.335      20.125      16.616      14.394      13.103    
  12.517      12.516      13.104      14.393      16.617      20.124      25.335      32.943      44.331      60.778    
  82.825      109.95      140.47      171.76      200.88      225.29      243.50      255.33      261.82      264.67    
  264.09      264.68      264.09      261.82      256.57      246.72      231.02      209.16      182.05      151.79    
  121.12      92.794      68.860      50.328      37.073      28.124      22.052      17.878      15.149      13.477    
  12.588      12.308      12.589      13.477      15.150      17.877      22.054      28.122      37.075      50.327    
  68.861      92.794      121.12      151.79      182.05      209.16      231.02      246.72      256.57      261.82    
  259.94      261.84      261.84      259.94      255.33      246.72      232.88      213.24      188.28      159.59    
  129.61      100.99      75.976      55.921      41.107      30.879      23.965      19.169      15.939      13.889    
  12.695      12.152      12.151      12.697      13.888      15.941      19.167      23.967      30.878      41.107    
  55.922      75.975      100.99      129.61      159.59      188.28      213.24      232.88      246.72      255.33    
  251.28      255.36      256.61      255.36      251.28      243.50      231.02      213.24      190.36      163.56    
  134.90      106.80      81.527      60.632      44.719      33.439      25.760      20.416      16.729      14.316    
  12.832      12.039      11.789      12.039      12.832      14.316      16.730      20.417      25.759      33.440    
  44.718      60.633      81.527      106.80      134.90      163.56      190.36      213.24      231.02      243.50    
  236.59      243.53      246.78      246.78      243.53      236.59      225.29      209.16      188.28      163.56    
  136.69      109.81      85.052      64.037      47.583      35.607      27.324      21.542      17.473      14.735    
  12.984      11.962      11.493      11.493      11.962      12.984      14.735      17.472      21.543      27.323    
  35.608      47.582      64.037      85.052      109.81      136.69      163.56      188.28      209.16      225.29    
  215.34      225.33      231.09      232.96      231.09      225.33      215.34      200.88      182.05      159.59    
  134.90      109.81      86.260      65.822      49.423      37.187      28.547      22.470      18.120      15.118    
  13.138      11.914      11.252      11.045      11.252      11.914      13.138      15.119      18.118      22.471    
  28.547      37.187      49.423      65.822      86.260      109.81      134.90      159.59      182.05      200.88    
  188.35      200.90      209.21      213.31      213.31      209.21      200.90      188.35      171.76      151.79    
  129.61      106.80      85.052      65.822      50.058      38.019      29.330      23.132      18.623      15.437    
  13.279      11.886      11.062      10.681      10.681      11.062      11.886      13.279      15.438      18.622    
  23.132      29.330      38.019      50.058      65.822      85.052      106.80      129.61      151.79      171.76    
  157.69      171.76      182.07      188.32      190.41      188.32      182.07      171.76      157.69      140.47    
  121.12      100.99      81.527      64.037      49.423      38.020      29.599      23.477      18.941      15.666    
  13.392      11.872      10.917      10.395      10.229      10.395      10.917      11.873      13.392      15.667    
  18.942      23.477      29.599      38.019      49.423      64.037      81.527      100.99      121.12      140.47    
  126.22      140.46      151.78      159.59      163.57      163.57      159.59      151.78      140.46      126.22    
  109.95      92.793      75.976      60.632      47.582      37.187      29.329      23.477      19.051      15.787    
  13.465      11.867      10.815      10.181      9.8839      9.8838      10.181      10.815      11.867      13.465    
  15.786      19.051      23.477      29.330      37.187      47.582      60.633      75.975      92.794      109.95    
  96.857      109.92      121.08      129.56      134.85      136.65      134.85      129.56      121.08      109.92    
  96.857      82.825      68.861      55.920      44.719      35.608      28.546      23.133      18.941      15.787    
  13.490      11.865      10.754      10.039      9.6393      9.5110      9.6394      10.039      10.754      11.865    
  13.490      15.786      18.942      23.132      28.547      35.608      44.718      55.922      68.861      82.825    
  71.856      82.783      92.721      100.90      106.70      109.71      109.71      106.70      100.90      92.720    
  82.784      71.857      60.778      50.327      41.108      33.439      27.323      22.471      18.622      15.667    
  13.465      11.865      10.734      9.9673      9.4927      9.2660      9.2659      9.4927      9.9674      10.734    
  11.865      13.465      15.667      18.622      22.471      27.323      33.440      41.107      50.327      60.778    
  52.379      60.730      68.772      75.852      81.381      84.893      86.097      84.893      81.382      75.853    
  68.773      60.730      52.378      44.331      37.075      30.877      25.761      21.542      18.119      15.438    
  13.392      11.867      10.754      9.9675      9.4437      9.1444      9.0464      9.1445      9.4436      9.9674    
  10.754      11.867      13.392      15.438      18.118      21.543      25.759      30.878      37.075      44.331    
  38.398      44.284      50.234      55.787      60.465      63.847      65.620      65.621      63.847      60.464    
  55.785      50.234      44.285      38.399      32.940      28.123      23.968      20.415      17.473      15.118    
  13.279      11.872      10.815      10.039      9.4929      9.1441      8.9741      8.9739      9.1445      9.4927    
  10.039      10.815      11.873      13.279      15.119      17.472      20.417      23.967      28.122      32.943    
  28.967      32.901      36.987      40.976      44.549      47.384      49.206      49.835      49.206      47.384    
  44.550      40.977      36.988      32.898      28.966      25.338      22.052      19.167      16.730      14.734    
  13.139      11.886      10.917      10.181      9.6394      9.2659      9.0466      8.9741      9.0464      9.2659    
  9.6394      10.181      10.917      11.886      13.138      14.735      16.730      19.167      22.054      25.335    
  22.629      25.300      28.047      30.763      33.286      35.422      36.977      37.797      37.797      36.977    
  35.421      33.285      30.762      28.048      25.303      22.627      20.123      17.879      15.940      14.315    
  12.985      11.914      11.062      10.395      9.8839      9.5110      9.2659      9.1441      9.1444      9.2660    
  9.5110      9.8838      10.395      11.062      11.914      12.984      14.316      15.941      17.877      20.124    
  18.279      20.096      21.994      23.871      25.627      27.160      28.359      29.127      29.391      29.127    
  28.359      27.160      25.629      23.872      21.991      20.095      18.281      16.617      15.148      13.888    
  12.832      11.962      11.252      10.681      10.229      9.8839      9.6394      9.4929      9.4437      9.4927    
  9.6393      9.8839      10.229      10.681      11.252      11.962      12.832      13.888      15.150      16.617    
  15.439      16.596      17.829      19.091      20.311      21.411      22.317      22.962      23.297      23.297    
  22.962      22.317      21.410      20.309      19.091      17.831      16.596      15.438      14.393      13.478    
  12.696      12.038      11.493      11.044      10.681      10.395      10.181      10.039      9.9675      9.9673    
  10.039      10.181      10.395      10.681      11.045      11.493      12.039      12.697      13.477      14.393    
  13.701      14.376      15.113      15.882      16.648      17.369      17.995      18.483      18.792      18.898    
  18.792      18.483      17.996      17.370      16.649      15.881      15.112      14.376      13.702      13.104    
  12.588      12.152      11.790      11.493      11.252      11.062      10.917      10.815      10.754      10.734    
  10.754      10.815      10.917      11.062      11.252      11.493      11.789      12.151      12.589      13.104    
  12.778      13.090      13.448      13.842      14.253      14.656      15.025      15.331      15.552      15.667    
  15.667      15.552      15.331      15.023      14.655      14.253      13.843      13.449      13.090      12.777    
  12.516      12.309      12.152      12.038      11.962      11.914      11.886      11.872      11.867      11.865    
  11.865      11.867      11.872      11.886      11.914      11.962      12.039      12.152      12.308      12.516    
  12.487      12.504      12.564      12.660      12.783      12.924      13.067      13.199      13.305      13.374    
  13.397      13.374      13.305      13.199      13.068      12.924      12.783      12.659      12.563      12.504    
  12.488      12.516      12.588      12.696      12.832      12.985      13.139      13.279      13.392      13.465    
  13.490      13.465      13.392      13.279      13.138      12.984      12.832      12.695      12.588      12.517    
  12.778      12.505      12.285      12.119      11.998      11.914      11.860      11.827      11.809      11.801    
  11.798      11.798      11.801      11.809      11.826      11.859      11.913      11.997      12.119      12.286    
  12.504      12.777      13.104      13.478      13.888      14.315      14.734      15.118      15.438      15.667    
  15.787      15.787      15.666      15.437      15.118      14.735      14.316      13.889      13.477      13.103    
  13.701      13.089      12.564      12.120      11.751      11.450      11.207      11.016      10.870      10.768    
  10.707      10.687      10.707      10.768      10.871      11.016      11.208      11.450      11.751      12.119    
  12.563      13.090      13.702      14.393      15.148      15.940      16.730      17.473      18.119      18.622    
  18.941      19.051      18.941      18.623      18.120      17.473      16.729      15.939      15.149      14.394    
  15.439      14.377      13.448      12.659      11.998      11.450      11.003      10.642      10.358      10.147    
  10.007      9.9369      9.9366      10.007      10.147      10.358      10.641      11.002      11.450      11.997    
  12.659      13.449      14.376      15.438      16.617      17.879      19.167      20.415      21.542      22.471    
  23.133      23.477      23.477      23.132      22.470      21.542      20.416      19.169      17.878      16.616    
  18.280      16.594      15.112      13.843      12.782      11.914      11.207      10.641      10.195      9.8558    
  9.6161      9.4727      9.4253      9.4730      9.6164      9.8560      10.195      10.641      11.208      11.913    
  12.783      13.843      15.112      16.596      18.281      20.123      22.052      23.968      25.761      27.323    
  28.546      29.329      29.599      29.330      28.547      27.324      25.760      23.965      22.052      20.125    
  22.627      20.098      17.830      15.880      14.254      12.924      11.859      11.016      10.358      9.8562    
  9.4910      9.2518      9.1327      9.1329      9.2515      9.4910      9.8560      10.358      11.016      11.859    
  12.924      14.253      15.881      17.831      20.095      22.627      25.338      28.123      30.877      33.439    
  35.608      37.187      38.020      38.019      37.187      35.607      33.439      30.879      28.124      25.335    
  28.969      25.300      21.991      19.093      16.647      14.656      13.067      11.826      10.870      10.147    
  9.6162      9.2513      9.0377      8.9669      9.0377      9.2515      9.6164      10.147      10.871      11.826    
  13.068      14.655      16.649      19.091      21.991      25.303      28.966      32.940      37.075      41.108    
  44.719      47.582      49.423      50.058      49.423      47.583      44.719      41.107      37.073      32.941    
  38.398      32.899      28.050      23.870      20.311      17.369      15.024      13.200      11.809      10.769    
  10.007      9.4733      9.1326      8.9672      8.9669      9.1329      9.4730      10.007      10.768      11.809    
  13.199      15.023      17.370      20.309      23.872      28.048      32.898      38.399      44.331      50.327    
  55.920      60.632      64.037      65.822      65.822      64.037      60.632      55.921      50.328      44.332    
  52.379      44.286      36.986      30.764      25.628      21.410      17.996      15.330      13.305      11.801    
  10.708      9.9363      9.4255      9.1326      9.0377      9.1327      9.4253      9.9366      10.707      11.801    
  13.305      15.331      17.996      21.410      25.629      30.762      36.988      44.285      52.378      60.778    
  68.861      75.976      81.527      85.052      86.260      85.052      81.527      75.976      68.860      60.777    
  71.857      60.730      50.235      40.976      33.285      27.161      22.316      18.483      15.551      13.374    
  11.798      10.688      9.9363      9.4733      9.2513      9.2518      9.4727      9.9369      10.687      11.798    
  13.374      15.552      18.483      22.317      27.160      33.285      40.977      50.234      60.730      71.857    
  82.825      92.793      100.99      106.80      109.81      109.81      106.80      100.99      92.794      82.825    
  96.857      82.784      68.771      55.786      44.550      35.421      28.360      22.961      18.792      15.667    
  13.398      11.798      10.708      10.007      9.6162      9.4910      9.6161      10.007      10.707      11.798    
  13.397      15.667      18.792      22.962      28.359      35.421      44.550      55.785      68.773      82.784    
  96.857      109.95      121.12      129.61      134.90      136.69      134.90      129.61      121.12      109.95    
  126.22      109.92      92.721      75.853      60.464      47.385      36.976      29.127      23.297      18.898    
  15.667      13.374      11.801      10.769      10.147      9.8562      9.8558      10.147      10.768      11.801    
  13.374      15.667      18.898      23.297      29.127      36.977      47.384      60.464      75.853      92.720    
  109.92      126.22      140.47      151.79      159.59      163.56      163.56      159.59      151.79      140.47    
  157.69      140.46      121.08      100.90      81.382      63.846      49.207      37.796      29.391      23.297    
  18.792      15.551      13.305      11.809      10.870      10.358      10.195      10.358      10.870      11.809    
  13.305      15.552      18.792      23.297      29.391      37.797      49.206      63.847      81.382      100.90    
  121.08      140.46      157.69      171.76      182.05      188.28      190.36      188.28      182.05      171.76    
  188.35      171.76      151.78      129.56      106.70      84.894      65.620      49.835      37.796      29.127    
  22.961      18.483      15.330      13.200      11.826      11.016      10.641      10.642      11.016      11.827    
  13.199      15.331      18.483      22.962      29.127      37.797      49.835      65.621      84.893      106.70    
  129.56      151.78      171.76      188.35      200.88      209.16      213.24      213.24      209.16      200.88    
  215.34      200.90      182.07      159.59      134.85      109.70      86.098      65.620      49.207      36.976    
  28.360      22.316      17.996      15.024      13.067      11.859      11.207      11.003      11.207      11.860    
  13.067      15.025      17.995      22.317      28.359      36.977      49.206      65.620      86.097      109.71    
  134.85      159.59      182.07      200.90      215.34      225.29      231.02      232.88      231.02      225.29    
  236.59      225.33      209.21      188.32      163.57      136.65      109.70      84.894      63.846      47.385    
  35.421      27.161      21.410      17.369      14.656      12.924      11.914      11.450      11.450      11.914    
  12.924      14.656      17.369      21.411      27.160      35.422      47.384      63.847      84.893      109.71    
  136.65      163.57      188.32      209.21      225.33      236.59      243.50      246.72      246.72      243.50    
  251.28      243.53      231.09      213.31      190.41      163.57      134.85      106.70      81.382      60.464    
  44.550      33.285      25.628      20.311      16.647      14.254      12.782      11.998      11.751      11.998    
  12.783      14.253      16.648      20.311      25.627      33.286      44.549      60.465      81.381      106.70    
  134.85      163.57      190.41      213.31      231.09      243.53      251.28      255.33      256.57      255.33    
  259.94      255.36      246.78      232.96      213.31      188.32      159.59      129.56      100.90      75.853    
  55.786      40.976      30.764      23.870      19.093      15.880      13.843      12.659      12.120      12.119    
  12.660      13.842      15.882      19.091      23.871      30.763      40.976      55.787      75.852      100.90    
  129.56      159.59      188.32      213.31      232.96      246.78      255.36      259.94      261.82      261.82    
  264.09      261.84      256.61      246.78      231.09      209.21      182.07      151.78      121.08      92.721    
  68.771      50.235      36.986      28.050      21.991      17.830      15.112      13.448      12.564      12.285    
  12.564      13.448      15.113      17.829      21.994      28.047      36.987      50.234      68.772      92.721    
  121.08      151.78      182.07      209.21      231.09      246.78      256.61      261.84      264.09      264.67    
  265.58      264.68      261.84      255.36      243.53      225.33      200.90      171.76      140.46      109.92    
  82.784      60.730      44.286      32.899      25.300      20.098      16.594      14.377      13.089      12.505    
  12.504      13.090      14.376      16.596      20.096      25.300      32.901      44.284      60.730      82.783    
  109.92      140.46      171.76      200.90      225.33      243.53      255.36      261.84      264.68      265.58    
  265.75      265.38      263.70      259.29      250.33      235.36      213.91      186.83      156.21      124.90    
  95.771      71.029      51.794      38.009      28.714      22.447      18.149      15.340      13.621      12.708    
  12.420      12.708      13.621      15.340      18.147      22.450      28.711      38.009      51.794      71.029    
  95.771      124.90      156.21      186.83      213.91      235.36      250.33      259.29      263.70      265.38    
  265.38      265.38      264.35      261.27      254.50      242.37      223.93      199.38      170.25      139.07    
  108.75      81.875      60.081      43.857      32.629      25.124      19.972      16.503      14.305      13.028    
  12.449      12.448      13.029      14.304      16.504      19.970      25.124      32.631      43.855      60.082    
  81.874      108.75      139.07      170.25      199.38      223.93      242.37      254.50      261.27      264.35    
  263.70      264.35      263.70      261.27      255.78      245.66      229.72      207.69      180.53      150.33    
  119.84      91.742      68.064      49.768      36.701      27.877      21.876      17.748      15.051      13.397    
  12.518      12.241      12.518      13.397      15.051      17.748      21.878      27.875      36.702      49.767    
  68.065      91.742      119.84      150.33      180.53      207.69      229.72      245.66      255.78      261.27    
  259.29      261.29      261.29      259.29      254.50      245.66      231.60      211.79      186.76      158.11    
  128.27      99.863      75.096      55.284      40.674      30.593      23.767      19.024      15.831      13.803    
  12.623      12.085      12.084      12.624      13.802      15.832      19.022      23.768      30.593      40.674    
  55.285      75.095      99.863      128.27      158.11      186.76      211.80      231.60      245.66      254.50    
  250.33      254.53      255.82      254.53      250.33      242.37      229.72      211.79      188.84      162.07    
  133.53      105.62      80.586      59.933      44.234      33.116      25.540      20.256      16.611      14.225    
  12.756      11.972      11.725      11.972      12.757      14.224      16.611      20.256      25.539      33.117    
  44.233      59.934      80.586      105.62      133.53      162.07      188.84      211.80      229.72      242.37    
  235.36      242.41      245.72      245.72      242.41      235.36      223.93      207.69      186.76      162.07    
  135.31      108.61      84.074      63.295      47.057      35.252      27.084      21.369      17.345      14.638    
  12.906      11.895      11.430      11.430      11.895      12.906      14.638      17.344      21.370      27.082    
  35.253      47.056      63.295      84.073      108.61      135.31      162.07      186.76      207.69      223.93    
  213.91      223.97      229.79      231.68      229.79      223.97      213.91      199.38      180.53      158.11    
  133.53      108.61      85.269      65.058      48.871      36.808      28.290      22.286      17.984      15.016    
  13.058      11.846      11.191      10.985      11.191      11.846      13.057      15.017      17.983      22.287    
  28.290      36.808      48.871      65.058      85.269      108.61      133.52      158.11      180.53      199.38    
  186.83      199.41      207.75      211.87      211.87      207.74      199.41      186.83      170.25      150.33    
  128.27      105.62      84.073      65.058      49.497      37.628      29.062      22.940      18.481      15.331    
  13.196      11.818      11.002      10.624      10.624      11.002      11.818      13.196      15.332      18.480    
  22.940      29.062      37.627      49.497      65.058      84.074      105.62      128.27      150.33      170.25    
  156.21      170.26      180.56      186.81      188.90      186.81      180.56      170.26      156.21      139.07    
  119.84      99.863      80.586      63.295      48.870      37.628      29.327      23.281      18.796      15.557    
  13.307      11.803      10.858      10.340      10.175      10.340      10.858      11.804      13.307      15.558    
  18.796      23.281      29.328      37.628      48.871      63.295      80.585      99.863      119.84      139.07    
  124.90      139.06      150.33      158.12      162.09      162.09      158.12      150.33      139.06      124.90    
  108.75      91.741      75.096      59.934      47.056      36.808      29.061      23.281      18.903      15.676    
  13.379      11.797      10.756      10.128      9.8326      9.8327      10.127      10.756      11.797      13.379    
  15.676      18.904      23.281      29.062      36.808      47.056      59.934      75.096      91.742      108.75    
  95.771      108.73      119.80      128.23      133.49      135.28      133.49      128.23      119.80      108.73    
  95.771      81.875      68.065      55.283      44.234      35.253      28.290      22.941      18.795      15.676    
  13.404      11.795      10.695      9.9859      9.5897      9.4623      9.5897      9.9860      10.695      11.795    
  13.404      15.676      18.796      22.940      28.290      35.253      44.233      55.285      68.065      81.874    
  71.029      81.838      91.678      99.784      105.54      108.52      108.52      105.54      99.783      91.678    
  81.838      71.029      60.081      49.767      40.675      33.116      27.083      22.287      18.480      15.558    
  13.379      11.796      10.675      9.9149      9.4440      9.2190      9.2188      9.4441      9.9150      10.675    
  11.795      13.379      15.557      18.480      22.287      27.083      33.117      40.674      49.767      60.082    
  51.794      60.039      67.984      74.986      80.457      83.933      85.125      83.933      80.457      74.987    
  67.985      60.039      51.794      43.856      36.702      30.591      25.541      21.369      17.984      15.331    
  13.307      11.798      10.695      9.9150      9.3954      9.0981      9.0008      9.0982      9.3951      9.9150    
  10.695      11.798      13.307      15.332      17.983      21.370      25.539      30.593      36.702      43.855    
  38.009      43.813      49.682      55.162      59.782      63.123      64.876      64.876      63.123      59.781    
  55.161      49.681      43.814      38.010      32.629      27.876      23.769      20.255      17.346      15.016    
  13.196      11.803      10.756      9.9858      9.4442      9.0978      8.9290      8.9287      9.0983      9.4439    
  9.9861      10.756      11.804      13.196      15.017      17.344      20.257      23.768      27.875      32.631    
  28.711      32.592      36.622      40.554      44.078      46.875      48.673      49.293      48.673      46.875    
  44.079      40.556      36.622      32.590      28.711      25.126      21.876      19.022      16.612      14.637    
  13.058      11.818      10.858      10.128      9.5897      9.2189      9.0010      8.9289      9.0007      9.2189    
  9.5897      10.128      10.858      11.818      13.057      14.638      16.611      19.022      21.878      25.124    
  22.449      25.092      27.806      30.488      32.977      35.082      36.616      37.424      37.424      36.616    
  35.082      32.975      30.486      27.808      25.095      22.447      19.970      17.750      15.832      14.224    
  12.907      11.846      11.002      10.340      9.8326      9.4623      9.2189      9.0979      9.0982      9.2189    
  9.4624      9.8325      10.340      11.002      11.846      12.906      14.224      15.832      17.748      19.970    
  18.148      19.945      21.823      23.682      25.419      26.934      28.119      28.877      29.138      28.877    
  28.119      26.935      25.421      23.683      21.821      19.945      18.150      16.504      15.050      13.803    
  12.757      11.894      11.191      10.624      10.175      9.8326      9.5897      9.4441      9.3953      9.4441    
  9.5896      9.8328      10.175      10.624      11.191      11.894      12.757      13.802      15.051      16.504    
  15.340      16.485      17.706      18.954      20.162      21.251      22.148      22.786      23.119      23.119    
  22.787      22.147      21.250      20.160      18.955      17.707      16.485      15.339      14.304      13.398    
  12.623      11.972      11.430      10.985      10.624      10.340      10.128      9.9859      9.9151      9.9149    
  9.9859      10.127      10.340      10.624      10.985      11.430      11.972      12.624      13.397      14.304    
  13.621      14.289      15.019      15.781      16.539      17.253      17.873      18.356      18.662      18.767    
  18.662      18.356      17.874      17.254      16.540      15.780      15.018      14.290      13.622      13.029    
  12.517      12.085      11.725      11.430      11.191      11.002      10.858      10.756      10.695      10.675    
  10.695      10.756      10.858      11.002      11.191      11.430      11.725      12.084      12.518      13.030    
  12.708      13.018      13.373      13.763      14.171      14.570      14.935      15.239      15.458      15.572    
  15.572      15.458      15.239      14.934      14.569      14.170      13.764      13.374      13.018      12.707    
  12.448      12.242      12.085      11.972      11.894      11.846      11.818      11.803      11.798      11.795    
  11.795      11.797      11.803      11.817      11.846      11.895      11.972      12.085      12.241      12.447    
  12.420      12.438      12.498      12.594      12.716      12.856      12.998      13.129      13.235      13.303    
  13.327      13.303      13.235      13.130      12.999      12.856      12.717      12.593      12.497      12.438    
  12.421      12.448      12.517      12.623      12.757      12.907      13.058      13.196      13.307      13.379    
  13.404      13.379      13.307      13.196      13.058      12.906      12.756      12.623      12.518      12.449    
  12.708      12.439      12.222      12.058      11.939      11.856      11.803      11.771      11.754      11.746    