Pt-hcc                                  
   1.00000000000000     
     2.725442    0.000000    0.000000
    -1.362721    2.360302    0.000000
     0.000000    0.000000    4.721765
   Pt
     2
Direct
  0.000000  0.000000  0.000000
  0.333333  0.666667  0.500000
 
   40   40   72
 0.26589101821E+03 0.26557996407E+03 0.26408926779E+03 0.25994064217E+03 0.25128157821E+03
 0.23659207970E+03 0.21534444659E+03 0.18834764331E+03 0.15768664092E+03 0.12621819179E+03
 0.96857107778E+02 0.71856593549E+02 0.52378698695E+02 0.38397595066E+02 0.28968779578E+02
 0.22626675502E+02 0.18280025101E+02 0.15438872448E+02 0.13700882033E+02 0.12777634946E+02
 0.12486959652E+02 0.12777767082E+02 0.13700581321E+02 0.15439459382E+02 0.18278872955E+02
 0.22629357103E+02 0.28966524730E+02 0.38397674049E+02 0.52379131871E+02 0.71856454801E+02
 0.96857063747E+02 0.12621822487E+03 0.15768658433E+03 0.18834764868E+03 0.21534437955E+03
 0.23659226988E+03 0.25128144228E+03 0.25994085548E+03 0.26408925461E+03 0.26557972996E+03
 0.26557972996E+03 0.26558005289E+03 0.26467250359E+03 0.26182151364E+03 0.25533316933E+03
 0.24350010938E+03 0.22529197326E+03 0.20087804676E+03 0.17175651072E+03 0.14046790225E+03
 0.10995312269E+03 0.82825400114E+02 0.60777264597E+02 0.44332052160E+02 0.32940635920E+02
 0.25335459590E+02 0.20125471795E+02 0.16616131450E+02 0.14394085490E+02 0.13102848940E+02
 0.12516847430E+02 0.12515811990E+02 0.13103925064E+02 0.14392879631E+02 0.16617484250E+02
 0.20123942006E+02 0.25335181197E+02 0.32942622514E+02 0.44330708649E+02 0.60777968049E+02
 0.82824834060E+02 0.10995370106E+03 0.14046737372E+03 0.17175712461E+03 0.20087751471E+03
 0.22529258922E+03 0.24349979850E+03 0.25533344054E+03 0.26182144883E+03 0.26467272463E+03
 0.26408925461E+03 0.26467961230E+03 0.26408878418E+03 0.26182134306E+03 0.25656949431E+03
 0.24672357395E+03 0.23102420175E+03 0.20915558663E+03 0.18204880402E+03 0.15178799597E+03
 0.12112391428E+03 0.92794273034E+02 0.68860485727E+02 0.50328227407E+02 0.37073445106E+02
 0.28124412175E+02 0.22051964444E+02 0.17877685739E+02 0.15149279476E+02 0.13477274651E+02
 0.12588467799E+02 0.12308044798E+02 0.12588545595E+02 0.13477046075E+02 0.15149703468E+02
 0.17876811616E+02 0.22054379033E+02 0.28121730991E+02 0.37074831554E+02 0.50327461423E+02
 0.68860982010E+02 0.92793977165E+02 0.12112399992E+03 0.15178778825E+03 0.18204889999E+03
 0.20915557243E+03 0.23102399943E+03 0.24672398937E+03 0.25656933563E+03 0.26182144883E+03
 0.25994085548E+03 0.26183893329E+03 0.26183941326E+03 0.25994093342E+03 0.25533337094E+03
 0.24672348758E+03 0.23288486740E+03 0.21324296343E+03 0.18827728013E+03 0.15959395056E+03
 0.12961299768E+03 0.10099166207E+03 0.75975708213E+02 0.55921024398E+02 0.41106889662E+02
 0.30878543586E+02 0.23965072026E+02 0.19168947369E+02 0.15939102414E+02 0.13888982580E+02
 0.12695428051E+02 0.12152251718E+02 0.12151187767E+02 0.12696534873E+02 0.13887668958E+02
 0.15940629998E+02 0.19166718457E+02 0.23966681475E+02 0.30878305392E+02 0.41106698078E+02
 0.55921582101E+02 0.75975109691E+02 0.10099201283E+03 0.12961287080E+03 0.15959405940E+03
 0.18827726808E+03 0.21324339077E+03 0.23288473258E+03 0.24672398937E+03 0.25533344054E+03
 0.25128144228E+03 0.25536229735E+03 0.25660928725E+03 0.25536192529E+03 0.25128126525E+03
 0.24349965991E+03 0.23102463178E+03 0.21324284033E+03 0.19035784870E+03 0.16356376679E+03
 0.13490125866E+03 0.10680374089E+03 0.81527287112E+02 0.60631941073E+02 0.44719236040E+02
 0.33439136260E+02 0.25759679650E+02 0.20416435433E+02 0.16728920758E+02 0.14316135437E+02
 0.12831638434E+02 0.12039116350E+02 0.11789075138E+02 0.12038971809E+02 0.12831900808E+02
 0.14315737409E+02 0.16729555097E+02 0.20416582214E+02 0.25758609187E+02 0.33440482975E+02
 0.44717917797E+02 0.60632861572E+02 0.81526730701E+02 0.10680405909E+03 0.13490082028E+03
 0.16356400256E+03 0.19035720410E+03 0.21324339077E+03 0.23102399943E+03 0.24349979850E+03
 0.23659226988E+03 0.24353457436E+03 0.24678060790E+03 0.24678042190E+03 0.24353486503E+03
 0.23659233768E+03 0.22529240383E+03 0.20915505636E+03 0.18827766906E+03 0.16356354655E+03
 0.13669473915E+03 0.10981337305E+03 0.85052473533E+02 0.64036512871E+02 0.47582973066E+02
 0.35607347833E+02 0.27323951475E+02 0.21542055929E+02 0.17472660959E+02 0.14734814598E+02
 0.12984315997E+02 0.11962026490E+02 0.11492507507E+02 0.11492598796E+02 0.11961928081E+02
 0.12984307551E+02 0.14734801329E+02 0.17471931726E+02 0.21543464780E+02 0.27322565204E+02
 0.35608471744E+02 0.47582366548E+02 0.64036900366E+02 0.85052176241E+02 0.10981352124E+03
 0.13669470328E+03 0.16356400256E+03 0.18827726808E+03 0.20915557243E+03 0.22529258922E+03
 0.21534437955E+03 0.22532571569E+03 0.23108575380E+03 0.23295729889E+03 0.23108597570E+03
 0.22532567247E+03 0.21534442176E+03 0.20087782751E+03 0.18204944534E+03 0.15959379600E+03
 0.13490125315E+03 0.10981382495E+03 0.86259781140E+02 0.65821983124E+02 0.49423290492E+02
 0.37186829159E+02 0.28547046830E+02 0.22469900845E+02 0.18119607668E+02 0.15118147659E+02
 0.13138268071E+02 0.11913975795E+02 0.11252003946E+02 0.11044589634E+02 0.11251939068E+02
 0.11914157282E+02 0.13138047534E+02 0.15118907936E+02 0.18118477586E+02 0.22470804100E+02
 0.28546566942E+02 0.37186980162E+02 0.49423308558E+02 0.65821763732E+02 0.86260105884E+02
 0.10981352124E+03 0.13490082028E+03 0.15959405940E+03 0.18204889999E+03 0.20087751471E+03
 0.18834764868E+03 0.20090105098E+03 0.20920581558E+03 0.21331103835E+03 0.21331083352E+03
 0.20920557197E+03 0.20090100337E+03 0.18834793369E+03 0.17175681994E+03 0.15178745167E+03
 0.12961320618E+03 0.10680367080E+03 0.85051984350E+02 0.65822150731E+02 0.50057791513E+02
 0.38019317104E+02 0.29329552837E+02 0.23131760790E+02 0.18622613041E+02 0.15436923142E+02
 0.13279383593E+02 0.11885907709E+02 0.11062412453E+02 0.10680834120E+02 0.10681197778E+02
 0.11062000509E+02 0.11886298398E+02 0.13278641316E+02 0.15437836107E+02 0.18622005813E+02
 0.23131999760E+02 0.29329542729E+02 0.38019087916E+02 0.50058255057E+02 0.65821763732E+02
 0.85052176241E+02 0.10680405909E+03 0.12961287080E+03 0.15178778825E+03 0.17175712461E+03
 0.15768658433E+03 0.17176399018E+03 0.18207331413E+03 0.18831853381E+03 0.19040565816E+03
 0.18831901804E+03 0.18207392627E+03 0.17176409760E+03 0.15768651939E+03 0.14046779895E+03
 0.12112451983E+03 0.10099160231E+03 0.81527001240E+02 0.64037155701E+02 0.49422821846E+02
 0.38019754146E+02 0.29598656528E+02 0.23476903459E+02 0.18941402721E+02 0.15666444008E+02
 0.13392062539E+02 0.11872229044E+02 0.10917452376E+02 0.10394846938E+02 0.10228968013E+02
 0.10394917585E+02 0.10917424025E+02 0.11872550905E+02 0.13391639622E+02 0.15666545137E+02
 0.18941558144E+02 0.23476502367E+02 0.29599275936E+02 0.38019087916E+02 0.49423308558E+02
 0.64036900366E+02 0.81526730701E+02 0.10099201283E+03 0.12112399992E+03 0.14046737372E+03
 0.12621822487E+03 0.14045550785E+03 0.15177808247E+03 0.15959306677E+03 0.16356989255E+03
 0.16356958658E+03 0.15959244826E+03 0.15177758656E+03 0.14045554029E+03 0.12621845398E+03
 0.10995327276E+03 0.92793361627E+02 0.75975898062E+02 0.60632284964E+02 0.47582082856E+02
 0.37187372083E+02 0.29328979781E+02 0.23477135534E+02 0.19050580621E+02 0.15786537486E+02
 0.13464992994E+02 0.11866500187E+02 0.10815177269E+02 0.10181232344E+02 0.98839318823E+01
 0.98838480779E+01 0.10181281653E+02 0.10814962538E+02 0.11866795369E+02 0.13465015400E+02
 0.15786257574E+02 0.19050999863E+02 0.23476502367E+02 0.29329542729E+02 0.37186980162E+02
 0.47582366548E+02 0.60632861572E+02 0.75975109691E+02 0.92793977165E+02 0.10995370106E+03
 0.96857063747E+02 0.10992453722E+03 0.12107928005E+03 0.12956313011E+03 0.13485146042E+03
 0.13664609156E+03 0.13485199794E+03 0.12956383801E+03 0.12107994017E+03 0.10992440405E+03
 0.96856864338E+02 0.82825217869E+02 0.68861477416E+02 0.55920292458E+02 0.44718949873E+02
 0.35608417270E+02 0.28546220739E+02 0.23132573180E+02 0.18940948684E+02 0.15786769113E+02
 0.13490074108E+02 0.11864822868E+02 0.10754042652E+02 0.10038710931E+02 0.96393447531E+01
 0.95109687558E+01 0.96394018325E+01 0.10038818341E+02 0.10753919204E+02 0.11864658597E+02
 0.13490425505E+02 0.15786257574E+02 0.18941558144E+02 0.23131999760E+02 0.28546566942E+02
 0.35608471744E+02 0.44717917797E+02 0.55921582101E+02 0.68860982010E+02 0.82824834060E+02
 0.71856454801E+02 0.82783457362E+02 0.92721213333E+02 0.10089922191E+03 0.10670050806E+03
 0.10970563169E+03 0.10970557102E+03 0.10669983586E+03 0.10089838164E+03 0.92720457961E+02
 0.82783584159E+02 0.71856693306E+02 0.60777516433E+02 0.50326921903E+02 0.41108106154E+02
 0.33438844790E+02 0.27323193117E+02 0.22470709814E+02 0.18621715657E+02 0.15667024316E+02
 0.13464615874E+02 0.11864988784E+02 0.10733600887E+02 0.99673290955E+01 0.94927216744E+01
 0.92660002348E+01 0.92658717491E+01 0.94927440341E+01 0.99674017540E+01 0.10733825651E+02
 0.11864658597E+02 0.13465015400E+02 0.15666545137E+02 0.18622005813E+02 0.22470804100E+02
 0.27322565204E+02 0.33440482975E+02 0.41106698078E+02 0.50327461423E+02 0.60777968049E+02
 0.52379131871E+02 0.60730401909E+02 0.68771965924E+02 0.75852485808E+02 0.81381411822E+02
 0.84893199788E+02 0.86097247936E+02 0.84893300189E+02 0.81382088925E+02 0.75853472762E+02
 0.68772661026E+02 0.60730070811E+02 0.52378282189E+02 0.44331427868E+02 0.37075215728E+02
 0.30876672578E+02 0.25760632254E+02 0.21542306990E+02 0.18119148227E+02 0.15437708408E+02
 0.13391508956E+02 0.11866927421E+02 0.10753779977E+02 0.99674676480E+01 0.94437376472E+01
 0.91444246631E+01 0.90463749059E+01 0.91445131239E+01 0.94435643603E+01 0.99674017540E+01
 0.10753919204E+02 0.11866795369E+02 0.13391639622E+02 0.15437836107E+02 0.18118477586E+02
 0.21543464780E+02 0.25758609187E+02 0.30878305392E+02 0.37074831554E+02 0.44330708649E+02
 0.38397674049E+02 0.44284470337E+02 0.50234164682E+02 0.55787081205E+02 0.60465108465E+02
 0.63847013859E+02 0.65620339743E+02 0.65620541592E+02 0.63846636944E+02 0.60464434458E+02
 0.55785438296E+02 0.50233648828E+02 0.44285028934E+02 0.38399252886E+02 0.32940337152E+02
 0.28122653160E+02 0.23967709654E+02 0.20414658856E+02 0.17473289432E+02 0.15117870776E+02
 0.13279143006E+02 0.11872344234E+02 0.10815118302E+02 0.10038691050E+02 0.94928592684E+01
 0.91441411418E+01 0.89741181932E+01 0.89738901221E+01 0.91445131239E+01 0.94927440341E+01
 0.10038818341E+02 0.10814962538E+02 0.11872550905E+02 0.13278641316E+02 0.15118907936E+02
 0.17471931726E+02 0.20416582214E+02 0.23966681475E+02 0.28121730991E+02 0.32942622514E+02
 0.28966524730E+02 0.32900605673E+02 0.36987081950E+02 0.40975751138E+02 0.44548715183E+02
 0.47383934594E+02 0.49206156620E+02 0.49834915895E+02 0.49206115578E+02 0.47384053806E+02
 0.44549965813E+02 0.40977372649E+02 0.36987520727E+02 0.32898482852E+02 0.28966225679E+02
 0.25337970399E+02 0.22051925927E+02 0.19167255271E+02 0.16730466342E+02 0.14734153390E+02
 0.13138721775E+02 0.11886024721E+02 0.10917436981E+02 0.10181266498E+02 0.96393806539E+01
 0.92659273472E+01 0.90466064530E+01 0.89741181932E+01 0.90463749059E+01 0.92658717491E+01
 0.96394018325E+01 0.10181281653E+02 0.10917424025E+02 0.11886298398E+02 0.13138047534E+02
 0.14734801329E+02 0.16729555097E+02 0.19166718457E+02 0.22054379033E+02 0.25335181197E+02
 0.22629357103E+02 0.25300071112E+02 0.28046957985E+02 0.30763398468E+02 0.33286418063E+02
 0.35421826414E+02 0.36976700531E+02 0.37796731992E+02 0.37796804785E+02 0.36976806247E+02
 0.35421385474E+02 0.33284728433E+02 0.30761617807E+02 0.28047853660E+02 0.25302756095E+02
 0.22627465486E+02 0.20123095038E+02 0.17878839445E+02 0.15939903507E+02 0.14315192421E+02
 0.12984646124E+02 0.11913600688E+02 0.11062218690E+02 0.10394916351E+02 0.98838825690E+01
 0.95109912224E+01 0.92659273472E+01 0.91441411418E+01 0.91444246631E+01 0.92660002348E+01
 0.95109687558E+01 0.98838480779E+01 0.10394917585E+02 0.11062000509E+02 0.11914157282E+02
 0.12984307551E+02 0.14315737409E+02 0.15940629998E+02 0.17876811616E+02 0.20123942006E+02
 0.18278872955E+02 0.20096004607E+02 0.21993769468E+02 0.23871315963E+02 0.25626890844E+02
 0.27159580579E+02 0.28359348306E+02 0.29126850085E+02 0.29390885224E+02 0.29126618745E+02
 0.28359414134E+02 0.27160446996E+02 0.25629026498E+02 0.23872493680E+02 0.21991368730E+02
 0.20095228008E+02 0.18280792637E+02 0.16617486379E+02 0.15148339730E+02 0.13888295830E+02
 0.12832420936E+02 0.11961737513E+02 0.11252446529E+02 0.10680990792E+02 0.10228980001E+02
 0.98838825690E+01 0.96393806539E+01 0.94928592684E+01 0.94437376472E+01 0.94927216744E+01
 0.96393447531E+01 0.98839318823E+01 0.10228968013E+02 0.10681197778E+02 0.11251939068E+02
 0.11961928081E+02 0.12831900808E+02 0.13887668958E+02 0.15149703468E+02 0.16617484250E+02
 0.15439459382E+02 0.16595835644E+02 0.17829325733E+02 0.19091020999E+02 0.20311316589E+02
 0.21411488293E+02 0.22317096823E+02 0.22961611768E+02 0.23297185083E+02 0.23297313946E+02
 0.22961861781E+02 0.22316641259E+02 0.21410207389E+02 0.20309301788E+02 0.19091444479E+02
 0.17831321465E+02 0.16595774438E+02 0.15438175398E+02 0.14393078989E+02 0.13478242158E+02
 0.12695918819E+02 0.12038495390E+02 0.11492591662E+02 0.11044151966E+02 0.10680990792E+02
 0.10394916351E+02 0.10181266498E+02 0.10038691050E+02 0.99674676480E+01 0.99673290955E+01
 0.10038710931E+02 0.10181232344E+02 0.10394846938E+02 0.10680834120E+02 0.11044589634E+02
 0.11492598796E+02 0.12038971809E+02 0.12696534873E+02 0.13477046075E+02 0.14392879631E+02
 0.13700581321E+02 0.14375914903E+02 0.15112884857E+02 0.15881907034E+02 0.16647812982E+02
 0.17368578796E+02 0.17995152478E+02 0.18482582560E+02 0.18791793031E+02 0.18897693513E+02
 0.18791596972E+02 0.18482553856E+02 0.17996131890E+02 0.17369965988E+02 0.16648867823E+02
 0.15881196331E+02 0.15111556389E+02 0.14376122501E+02 0.13701710723E+02 0.13103528288E+02
 0.12587529195E+02 0.12151687559E+02 0.11789602747E+02 0.11492591662E+02 0.11252446529E+02
 0.11062218690E+02 0.10917436981E+02 0.10815118302E+02 0.10753779977E+02 0.10733600887E+02
 0.10754042652E+02 0.10815177269E+02 0.10917452376E+02 0.11062412453E+02 0.11252003946E+02
 0.11492507507E+02 0.11789075138E+02 0.12151187767E+02 0.12588545595E+02 0.13103925064E+02
 0.12777767082E+02 0.13090161764E+02 0.13448005531E+02 0.13842139923E+02 0.14253201251E+02
 0.14655737906E+02 0.15024588810E+02 0.15331147856E+02 0.15551610744E+02 0.15667017252E+02
 0.15667092679E+02 0.15551720964E+02 0.15330732773E+02 0.15023389637E+02 0.14654972666E+02
 0.14252562325E+02 0.13842694120E+02 0.13449163227E+02 0.13089741348E+02 0.12776813264E+02
 0.12516220171E+02 0.12308982737E+02 0.12151687559E+02 0.12038495390E+02 0.11961737513E+02
 0.11913600688E+02 0.11886024721E+02 0.11872344234E+02 0.11866927421E+02 0.11864988784E+02
 0.11864822868E+02 0.11866500187E+02 0.11872229044E+02 0.11885907709E+02 0.11913975795E+02
 0.11962026490E+02 0.12039116350E+02 0.12152251718E+02 0.12308044798E+02 0.12515811990E+02
 0.12486959652E+02 0.12503603522E+02 0.12564012224E+02 0.12659668300E+02 0.12782758623E+02
 0.12923631118E+02 0.13066614299E+02 0.13198657158E+02 0.13304819965E+02 0.13373643703E+02
 0.13397455225E+02 0.13373570218E+02 0.13305072671E+02 0.13199244767E+02 0.13067521263E+02
 0.12923971585E+02 0.12783378144E+02 0.12659032167E+02 0.12563027062E+02 0.12504001827E+02
 0.12487818177E+02 0.12516220171E+02 0.12587529195E+02 0.12695918819E+02 0.12832420936E+02
 0.12984646124E+02 0.13138721775E+02 0.13279143006E+02 0.13391508956E+02 0.13464615874E+02
 0.13490074108E+02 0.13464992994E+02 0.13392062539E+02 0.13279383593E+02 0.13138268071E+02
 0.12984315997E+02 0.12831638434E+02 0.12695428051E+02 0.12588467799E+02 0.12516847430E+02
 0.12777634946E+02 0.12504613814E+02 0.12285067895E+02 0.12118625760E+02 0.11998034677E+02
 0.11913553098E+02 0.11859642628E+02 0.11826822314E+02 0.11809297532E+02 0.11801141439E+02
 0.11798164071E+02 0.11798215303E+02 0.11800904158E+02 0.11808928153E+02 0.11826369411E+02
 0.11858949479E+02 0.11913293420E+02 0.11997490794E+02 0.12119108470E+02 0.12285991839E+02
 0.12504001827E+02 0.12776813264E+02 0.13103528288E+02 0.13478242158E+02 0.13888295830E+02
 0.14315192421E+02 0.14734153390E+02 0.15117870776E+02 0.15437708408E+02 0.15667024316E+02
 0.15786769113E+02 0.15786537486E+02 0.15666444008E+02 0.15436923142E+02 0.15118147659E+02
 0.14734814598E+02 0.14316135437E+02 0.13888982580E+02 0.13477274651E+02 0.13102848940E+02
 0.13700882033E+02 0.13089085961E+02 0.12563911250E+02 0.12119696493E+02 0.11750615184E+02
 0.11450213455E+02 0.11206863748E+02 0.11015651866E+02 0.10870332511E+02 0.10768047448E+02
 0.10707183491E+02 0.10686898386E+02 0.10707412697E+02 0.10768331068E+02 0.10870657976E+02
 0.11015924031E+02 0.11207574719E+02 0.11450185337E+02 0.11751247505E+02 0.12119108470E+02
 0.12563027062E+02 0.13089741348E+02 0.13701710723E+02 0.14393078989E+02 0.15148339730E+02
 0.15939903507E+02 0.16730466342E+02 0.17473289432E+02 0.18119148227E+02 0.18621715657E+02
 0.18940948684E+02 0.19050580621E+02 0.18941402721E+02 0.18622613041E+02 0.18119607668E+02
 0.17472660959E+02 0.16728920758E+02 0.15939102414E+02 0.15149279476E+02 0.14394085490E+02
 0.15438872448E+02 0.14377076418E+02 0.13448195837E+02 0.12658501482E+02 0.11998151027E+02
 0.11450112576E+02 0.11003053044E+02 0.10641609110E+02 0.10358182255E+02 0.10147391973E+02
 0.10007059709E+02 0.99369253431E+01 0.99366341653E+01 0.10006891118E+02 0.10147126117E+02
 0.10358030127E+02 0.10641292744E+02 0.11002499528E+02 0.11450185337E+02 0.11997490794E+02
 0.12659032167E+02 0.13449163227E+02 0.14376122501E+02 0.15438175398E+02 0.16617486379E+02
 0.17878839445E+02 0.19167255271E+02 0.20414658856E+02 0.21542306990E+02 0.22470709814E+02
 0.23132573180E+02 0.23477135534E+02 0.23476903459E+02 0.23131760790E+02 0.22469900845E+02
 0.21542055929E+02 0.20416435433E+02 0.19168947369E+02 0.17877685739E+02 0.16616131450E+02
 0.18280025101E+02 0.16594490411E+02 0.15112438137E+02 0.13843433672E+02 0.12782476011E+02
 0.11913629790E+02 0.11206940465E+02 0.10641141975E+02 0.10195074341E+02 0.98558181664E+01
 0.96161464403E+01 0.94727380552E+01 0.94253203341E+01 0.94729532665E+01 0.96163737693E+01
 0.98559583327E+01 0.10195345606E+02 0.10641292744E+02 0.11207574719E+02 0.11913293420E+02
 0.12783378144E+02 0.13842694120E+02 0.15111556389E+02 0.16595774438E+02 0.18280792637E+02
 0.20123095038E+02 0.22051925927E+02 0.23967709654E+02 0.25760632254E+02 0.27323193117E+02
 0.28546220739E+02 0.29328979781E+02 0.29598656528E+02 0.29329552837E+02 0.28547046830E+02
 0.27323951475E+02 0.25759679650E+02 0.23965072026E+02 0.22051964444E+02 0.20125471795E+02
 0.22626675502E+02 0.20097526231E+02 0.17830171647E+02 0.15880328357E+02 0.14253541908E+02
 0.12923620560E+02 0.11859431762E+02 0.11016186743E+02 0.10358089078E+02 0.98562304195E+01
 0.94909842283E+01 0.92518097808E+01 0.91327128941E+01 0.91329065133E+01 0.92514897928E+01
 0.94909823726E+01 0.98559583327E+01 0.10358030127E+02 0.11015924031E+02 0.11858949479E+02
 0.12923971585E+02 0.14252562325E+02 0.15881196331E+02 0.17831321465E+02 0.20095228008E+02
 0.22627465486E+02 0.25337970399E+02 0.28122653160E+02 0.30876672578E+02 0.33438844790E+02
 0.35608417270E+02 0.37187372083E+02 0.38019754146E+02 0.38019317104E+02 0.37186829159E+02
 0.35607347833E+02 0.33439136260E+02 0.30878543586E+02 0.28124412175E+02 0.25335459590E+02
 0.28968779578E+02 0.25300365395E+02 0.21991374856E+02 0.19093281561E+02 0.16647217845E+02
 0.14655728433E+02 0.13066874775E+02 0.11826313249E+02 0.10870466886E+02 0.10147039684E+02
 0.96161947271E+01 0.92513444273E+01 0.90377035449E+01 0.89669100380E+01 0.90376560017E+01
 0.92514897928E+01 0.96163737693E+01 0.10147126117E+02 0.10870657976E+02 0.11826369411E+02
 0.13067521263E+02 0.14654972666E+02 0.16648867823E+02 0.19091444479E+02 0.21991368730E+02
 0.25302756095E+02 0.28966225679E+02 0.32940337152E+02 0.37075215728E+02 0.41108106154E+02
 0.44718949873E+02 0.47582082856E+02 0.49422821846E+02 0.50057791513E+02 0.49423290492E+02
 0.47582973066E+02 0.44719236040E+02 0.41106889662E+02 0.37073445106E+02 0.32940635920E+02
 0.38397595066E+02 0.32898677404E+02 0.28049646805E+02 0.23869764546E+02 0.20311088424E+02
 0.17369317163E+02 0.15023765531E+02 0.13199536589E+02 0.11808890523E+02 0.10768612413E+02
 0.10006841484E+02 0.94733098176E+01 0.91326123085E+01 0.89671578262E+01 0.89669100380E+01
 0.91329065133E+01 0.94729532665E+01 0.10006891118E+02 0.10768331068E+02 0.11808928153E+02
 0.13199244767E+02 0.15023389637E+02 0.17369965988E+02 0.20309301788E+02 0.23872493680E+02
 0.28047853660E+02 0.32898482852E+02 0.38399252886E+02 0.44331427868E+02 0.50326921903E+02
 0.55920292458E+02 0.60632284964E+02 0.64037155701E+02 0.65822150731E+02 0.65821983124E+02
 0.64036512871E+02 0.60631941073E+02 0.55921024398E+02 0.50328227407E+02 0.44332052160E+02
 0.52378698695E+02 0.44285741481E+02 0.36985763542E+02 0.30763643152E+02 0.25628058443E+02
 0.21410164772E+02 0.17996329707E+02 0.15330106313E+02 0.13305353456E+02 0.11800551508E+02
 0.10707515051E+02 0.99363419603E+01 0.94255278621E+01 0.91326123085E+01 0.90377035449E+01
 0.91327128941E+01 0.94253203341E+01 0.99366341653E+01 0.10707412697E+02 0.11800904158E+02
 0.13305072671E+02 0.15330732773E+02 0.17996131890E+02 0.21410207389E+02 0.25629026498E+02
 0.30761617807E+02 0.36987520727E+02 0.44285028934E+02 0.52378282189E+02 0.60777516433E+02
 0.68861477416E+02 0.75975898062E+02 0.81527001240E+02 0.85051984350E+02 0.86259781140E+02
 0.85052473533E+02 0.81527287112E+02 0.75975708213E+02 0.68860485727E+02 0.60777264597E+02
 0.71856593549E+02 0.60729737892E+02 0.50235014210E+02 0.40976014344E+02 0.33285084473E+02
 0.27161002632E+02 0.22315965083E+02 0.18483466616E+02 0.15551164148E+02 0.13374154289E+02
 0.11797840861E+02 0.10687521806E+02 0.99363419603E+01 0.94733098176E+01 0.92513444273E+01
 0.92518097808E+01 0.94727380552E+01 0.99369253431E+01 0.10686898386E+02 0.11798215303E+02
 0.13373570218E+02 0.15551720964E+02 0.18482553856E+02 0.22316641259E+02 0.27160446996E+02
 0.33284728433E+02 0.40977372649E+02 0.50233648828E+02 0.60730070811E+02 0.71856693306E+02
 0.82825217869E+02 0.92793361627E+02 0.10099160231E+03 0.10680367080E+03 0.10981382495E+03
 0.10981337305E+03 0.10680374089E+03 0.10099166207E+03 0.92794273034E+02 0.82825400114E+02
 0.96857107778E+02 0.82783954298E+02 0.68771495983E+02 0.55786350918E+02 0.44550171320E+02
 0.35420595958E+02 0.28360157974E+02 0.22961097491E+02 0.18791903619E+02 0.15666772015E+02
 0.13397565796E+02 0.11797840861E+02 0.10707515051E+02 0.10006841484E+02 0.96161947271E+01
 0.94909842283E+01 0.96161464403E+01 0.10007059709E+02 0.10707183491E+02 0.11798164071E+02
 0.13397455225E+02 0.15667092679E+02 0.18791596972E+02 0.22961861781E+02 0.28359414134E+02
 0.35421385474E+02 0.44549965813E+02 0.55785438296E+02 0.68772661026E+02 0.82783584159E+02
 0.96856864338E+02 0.10995327276E+03 0.12112451983E+03 0.12961320618E+03 0.13490125315E+03
 0.13669473915E+03 0.13490125866E+03 0.12961299768E+03 0.12112391428E+03 0.10995312269E+03
 0.12621819179E+03 0.10992411242E+03 0.92721309945E+02 0.75853266330E+02 0.60464109481E+02
 0.47384799392E+02 0.36976197910E+02 0.29127176773E+02 0.23297023837E+02 0.18897972512E+02
 0.15666772015E+02 0.13374154289E+02 0.11800551508E+02 0.10768612413E+02 0.10147039684E+02
 0.98562304195E+01 0.98558181664E+01 0.10147391973E+02 0.10768047448E+02 0.11801141439E+02
 0.13373643703E+02 0.15667017252E+02 0.18897693513E+02 0.23297313946E+02 0.29126618745E+02
 0.36976806247E+02 0.47384053806E+02 0.60464434458E+02 0.75853472762E+02 0.92720457961E+02
 0.10992440405E+03 0.12621845398E+03 0.14046779895E+03 0.15178745167E+03 0.15959379600E+03
 0.16356354655E+03 0.16356376679E+03 0.15959395056E+03 0.15178799597E+03 0.14046790225E+03
 0.15768664092E+03 0.14045576473E+03 0.12107926128E+03 0.10089861729E+03 0.81382155219E+02
 0.63846138773E+02 0.49206631235E+02 0.37796439222E+02 0.29391018557E+02 0.23297023837E+02
 0.18791903619E+02 0.15551164148E+02 0.13305353456E+02 0.11808890523E+02 0.10870466886E+02
 0.10358089078E+02 0.10195074341E+02 0.10358182255E+02 0.10870332511E+02 0.11809297532E+02
 0.13304819965E+02 0.15551610744E+02 0.18791793031E+02 0.23297185083E+02 0.29390885224E+02
 0.37796804785E+02 0.49206115578E+02 0.63846636944E+02 0.81382088925E+02 0.10089838164E+03
 0.12107994017E+03 0.14045554029E+03 0.15768651939E+03 0.17175681994E+03 0.18204944534E+03
 0.18827766906E+03 0.19035784870E+03 0.18827728013E+03 0.18204880402E+03 0.17175651072E+03
 0.18834764331E+03 0.17176381284E+03 0.15177796583E+03 0.12956370358E+03 0.10669958256E+03
 0.84894125336E+02 0.65619983954E+02 0.49835292879E+02 0.37796439222E+02 0.29127176773E+02
 0.22961097491E+02 0.18483466616E+02 0.15330106313E+02 0.13199536589E+02 0.11826313249E+02
 0.11016186743E+02 0.10641141975E+02 0.10641609110E+02 0.11015651866E+02 0.11826822314E+02
 0.13198657158E+02 0.15331147856E+02 0.18482582560E+02 0.22961611768E+02 0.29126850085E+02
 0.37796731992E+02 0.49834915895E+02 0.65620541592E+02 0.84893300189E+02 0.10669983586E+03
 0.12956383801E+03 0.15177758656E+03 0.17176409760E+03 0.18834793369E+03 0.20087782751E+03
 0.20915505636E+03 0.21324284033E+03 0.21324296343E+03 0.20915558663E+03 0.20087804676E+03
 0.21534444659E+03 0.20090106820E+03 0.18207350088E+03 0.15959243863E+03 0.13485223881E+03
 0.10970490851E+03 0.86097533441E+02 0.65619983954E+02 0.49206631235E+02 0.36976197910E+02
 0.28360157974E+02 0.22315965083E+02 0.17996329707E+02 0.15023765531E+02 0.13066874775E+02
 0.11859431762E+02 0.11206940465E+02 0.11003053044E+02 0.11206863748E+02 0.11859642628E+02
 0.13066614299E+02 0.15024588810E+02 0.17995152478E+02 0.22317096823E+02 0.28359348306E+02
 0.36976700531E+02 0.49206156620E+02 0.65620339743E+02 0.86097247936E+02 0.10970557102E+03
 0.13485199794E+03 0.15959244826E+03 0.18207392627E+03 0.20090100337E+03 0.21534442176E+03
 0.22529240383E+03 0.23102463178E+03 0.23288486740E+03 0.23102420175E+03 0.22529197326E+03
 0.23659207970E+03 0.22532587663E+03 0.20920563684E+03 0.18831924794E+03 0.16356903185E+03
 0.13664689883E+03 0.10970490851E+03 0.84894125336E+02 0.63846138773E+02 0.47384799392E+02
 0.35420595958E+02 0.27161002632E+02 0.21410164772E+02 0.17369317163E+02 0.14655728433E+02
 0.12923620560E+02 0.11913629790E+02 0.11450112576E+02 0.11450213455E+02 0.11913553098E+02
 0.12923631118E+02 0.14655737906E+02 0.17368578796E+02 0.21411488293E+02 0.27159580579E+02
 0.35421826414E+02 0.47383934594E+02 0.63847013859E+02 0.84893199788E+02 0.10970563169E+03
 0.13664609156E+03 0.16356958658E+03 0.18831901804E+03 0.20920557197E+03 0.22532567247E+03
 0.23659233768E+03 0.24349965991E+03 0.24672348758E+03 0.24672357395E+03 0.24350010938E+03
 0.25128157821E+03 0.24353478845E+03 0.23108584900E+03 0.21331060252E+03 0.19040620749E+03
 0.16356903185E+03 0.13485223881E+03 0.10669958256E+03 0.81382155219E+02 0.60464109481E+02
 0.44550171320E+02 0.33285084473E+02 0.25628058443E+02 0.20311088424E+02 0.16647217845E+02
 0.14253541908E+02 0.12782476011E+02 0.11998151027E+02 0.11750615184E+02 0.11998034677E+02
 0.12782758623E+02 0.14253201251E+02 0.16647812982E+02 0.20311316589E+02 0.25626890844E+02
 0.33286418063E+02 0.44548715183E+02 0.60465108465E+02 0.81381411822E+02 0.10670050806E+03
 0.13485146042E+03 0.16356989255E+03 0.19040565816E+03 0.21331083352E+03 0.23108597570E+03
 0.24353486503E+03 0.25128126525E+03 0.25533337094E+03 0.25656949431E+03 0.25533316933E+03
 0.25994064217E+03 0.25536220014E+03 0.24678063017E+03 0.23295783125E+03 0.21331060252E+03
 0.18831924794E+03 0.15959243863E+03 0.12956370358E+03 0.10089861729E+03 0.75853266330E+02
 0.55786350918E+02 0.40976014344E+02 0.30763643152E+02 0.23869764546E+02 0.19093281561E+02
 0.15880328357E+02 0.13843433672E+02 0.12658501482E+02 0.12119696493E+02 0.12118625760E+02
 0.12659668300E+02 0.13842139923E+02 0.15881907034E+02 0.19091020999E+02 0.23871315963E+02
 0.30763398468E+02 0.40975751138E+02 0.55787081205E+02 0.75852485808E+02 0.10089922191E+03
 0.12956313011E+03 0.15959306677E+03 0.18831853381E+03 0.21331103835E+03 0.23295729889E+03
 0.24678042190E+03 0.25536192529E+03 0.25994093342E+03 0.26182134306E+03 0.26182151364E+03
 0.26408926779E+03 0.26183955714E+03 0.25660916824E+03 0.24678063017E+03 0.23108584900E+03
 0.20920563684E+03 0.18207350088E+03 0.15177796583E+03 0.12107926128E+03 0.92721309945E+02
 0.68771495983E+02 0.50235014210E+02 0.36985763542E+02 0.28049646805E+02 0.21991374856E+02
 0.17830171647E+02 0.15112438137E+02 0.13448195837E+02 0.12563911250E+02 0.12285067895E+02
 0.12564012224E+02 0.13448005531E+02 0.15112884857E+02 0.17829325733E+02 0.21993769468E+02
 0.28046957985E+02 0.36987081950E+02 0.50234164682E+02 0.68771965924E+02 0.92721213333E+02
 0.12107928005E+03 0.15177808247E+03 0.18207331413E+03 0.20920581558E+03 0.23108575380E+03
 0.24678060790E+03 0.25660928725E+03 0.26183941326E+03 0.26408878418E+03 0.26467250359E+03
 0.26557996407E+03 0.26467911519E+03 0.26183955714E+03 0.25536220014E+03 0.24353478845E+03
 0.22532587663E+03 0.20090106820E+03 0.17176381284E+03 0.14045576473E+03 0.10992411242E+03
 0.82783954298E+02 0.60729737892E+02 0.44285741481E+02 0.32898677404E+02 0.25300365395E+02
 0.20097526231E+02 0.16594490411E+02 0.14377076418E+02 0.13089085961E+02 0.12504613814E+02
 0.12503603522E+02 0.13090161764E+02 0.14375914903E+02 0.16595835644E+02 0.20096004607E+02
 0.25300071112E+02 0.32900605673E+02 0.44284470337E+02 0.60730401909E+02 0.82783457362E+02
 0.10992453722E+03 0.14045550785E+03 0.17176399018E+03 0.20090105098E+03 0.22532571569E+03
 0.24353457436E+03 0.25536229735E+03 0.26183893329E+03 0.26467961230E+03 0.26558005289E+03
 0.26575483890E+03 0.26537851700E+03 0.26370393689E+03 0.25928714975E+03 0.25032559247E+03
 0.23535876709E+03 0.21391183486E+03 0.18683169707E+03 0.15621451919E+03 0.12490170477E+03
 0.95770868187E+02 0.71028983966E+02 0.51793922466E+02 0.38008573276E+02 0.28713516178E+02
 0.22446921644E+02 0.18148514912E+02 0.15339858198E+02 0.13620859038E+02 0.12707887281E+02
 0.12420088490E+02 0.12708000200E+02 0.13620601317E+02 0.15340374861E+02 0.18147477311E+02
 0.22449586989E+02 0.28711046606E+02 0.38008922122E+02 0.51794172722E+02 0.71028861478E+02