   2   2   1   0
  0.1518725E+02  0.2725442E-09  0.2725442E-09  0.4721766E-09  0.5000000E-15
  1.000000000000000E-004
  CAR 
 Pt-hcc                                  
     37.05720888    -44.82450700  301     11.88811557      1.00000000
    -44.825  0.0000E+00  0.0000E+00
    -44.552  0.0000E+00  0.0000E+00
    -44.279  0.0000E+00  0.0000E+00
    -44.006  0.0000E+00  0.0000E+00
    -43.733  0.0000E+00  0.0000E+00
    -43.460  0.0000E+00  0.0000E+00
    -43.187  0.0000E+00  0.0000E+00
    -42.914  0.0000E+00  0.0000E+00
    -42.641  0.0000E+00  0.0000E+00
    -42.368  0.0000E+00  0.0000E+00
    -42.095  0.0000E+00  0.0000E+00
    -41.822  0.0000E+00  0.0000E+00
    -41.549  0.0000E+00  0.0000E+00
    -41.276  0.8720E-09  0.2380E-09
    -41.003  0.5819E-01  0.1588E-01
    -40.730  0.1879E+00  0.6717E-01
    -40.457  0.1932E+00  0.1199E+00
    -40.185  0.3261E-03  0.1200E+00
    -39.912  0.0000E+00  0.1200E+00
    -39.639  0.0000E+00  0.1200E+00
    -39.366  0.0000E+00  0.1200E+00
    -39.093  0.0000E+00  0.1200E+00
    -38.820  0.0000E+00  0.1200E+00
    -38.547  0.0000E+00  0.1200E+00
    -38.274  0.0000E+00  0.1200E+00
    -38.001  0.0000E+00  0.1200E+00
    -37.728  0.0000E+00  0.1200E+00
    -37.455  0.0000E+00  0.1200E+00
    -37.182  0.0000E+00  0.1200E+00
    -36.909  0.0000E+00  0.1200E+00
    -36.636  0.0000E+00  0.1200E+00
    -36.363  0.0000E+00  0.1200E+00
    -36.090  0.0000E+00  0.1200E+00
    -35.818  0.0000E+00  0.1200E+00
    -35.545  0.0000E+00  0.1200E+00
    -35.272  0.0000E+00  0.1200E+00
    -34.999  0.0000E+00  0.1200E+00
    -34.726  0.0000E+00  0.1200E+00
    -34.453  0.0000E+00  0.1200E+00
    -34.180  0.0000E+00  0.1200E+00
    -33.907  0.0000E+00  0.1200E+00
    -33.634  0.0000E+00  0.1200E+00
    -33.361  0.0000E+00  0.1200E+00
    -33.088  0.0000E+00  0.1200E+00
    -32.815  0.0000E+00  0.1200E+00
    -32.542  0.0000E+00  0.1200E+00
    -32.269  0.0000E+00  0.1200E+00
    -31.996  0.0000E+00  0.1200E+00
    -31.723  0.0000E+00  0.1200E+00
    -31.450  0.0000E+00  0.1200E+00
    -31.178  0.0000E+00  0.1200E+00
    -30.905  0.0000E+00  0.1200E+00
    -30.632  0.0000E+00  0.1200E+00
    -30.359  0.0000E+00  0.1200E+00
    -30.086  0.0000E+00  0.1200E+00
    -29.813  0.0000E+00  0.1200E+00
    -29.540  0.0000E+00  0.1200E+00
    -29.267  0.0000E+00  0.1200E+00
    -28.994  0.0000E+00  0.1200E+00
    -28.721  0.0000E+00  0.1200E+00
    -28.448  0.0000E+00  0.1200E+00
    -28.175  0.0000E+00  0.1200E+00
    -27.902  0.0000E+00  0.1200E+00
    -27.629  0.0000E+00  0.1200E+00
    -27.356  0.0000E+00  0.1200E+00
    -27.083  0.0000E+00  0.1200E+00
    -26.811  0.0000E+00  0.1200E+00
    -26.538  0.0000E+00  0.1200E+00
    -26.265  0.0000E+00  0.1200E+00
    -25.992  0.0000E+00  0.1200E+00
    -25.719  0.0000E+00  0.1200E+00
    -25.446  0.0000E+00  0.1200E+00
    -25.173  0.0000E+00  0.1200E+00
    -24.900  0.0000E+00  0.1200E+00
    -24.627  0.0000E+00  0.1200E+00
    -24.354  0.0000E+00  0.1200E+00
    -24.081  0.0000E+00  0.1200E+00
    -23.808  0.0000E+00  0.1200E+00
    -23.535  0.0000E+00  0.1200E+00
    -23.262  0.0000E+00  0.1200E+00
    -22.989  0.0000E+00  0.1200E+00
    -22.716  0.0000E+00  0.1200E+00
    -22.444  0.0000E+00  0.1200E+00
    -22.171  0.0000E+00  0.1200E+00
    -21.898  0.0000E+00  0.1200E+00
    -21.625  0.0000E+00  0.1200E+00
    -21.352  0.0000E+00  0.1200E+00
    -21.079  0.0000E+00  0.1200E+00
    -20.806  0.0000E+00  0.1200E+00
    -20.533  0.0000E+00  0.1200E+00
    -20.260  0.0000E+00  0.1200E+00
    -19.987  0.0000E+00  0.1200E+00
    -19.714  0.0000E+00  0.1200E+00
    -19.441  0.0000E+00  0.1200E+00
    -19.168  0.0000E+00  0.1200E+00
    -18.895  0.0000E+00  0.1200E+00
    -18.622  0.0000E+00  0.1200E+00
    -18.349  0.0000E+00  0.1200E+00
    -18.076  0.0000E+00  0.1200E+00
    -17.804  0.0000E+00  0.1200E+00
    -17.531  0.0000E+00  0.1200E+00
    -17.258  0.0000E+00  0.1200E+00
    -16.985  0.0000E+00  0.1200E+00
    -16.712  0.0000E+00  0.1200E+00
    -16.439  0.0000E+00  0.1200E+00
    -16.166  0.0000E+00  0.1200E+00
    -15.893  0.0000E+00  0.1200E+00
    -15.620  0.0000E+00  0.1200E+00
    -15.347  0.0000E+00  0.1200E+00
    -15.074  0.0000E+00  0.1200E+00
    -14.801  0.0000E+00  0.1200E+00
    -14.528  0.0000E+00  0.1200E+00
    -14.255  0.0000E+00  0.1200E+00
    -13.982  0.0000E+00  0.1200E+00
    -13.709  0.0000E+00  0.1200E+00
    -13.437  0.0000E+00  0.1200E+00
    -13.164  0.0000E+00  0.1200E+00
    -12.891  0.0000E+00  0.1200E+00
    -12.618  0.0000E+00  0.1200E+00
    -12.345  0.0000E+00  0.1200E+00
    -12.072  0.0000E+00  0.1200E+00
    -11.799  0.0000E+00  0.1200E+00
    -11.526  0.0000E+00  0.1200E+00
    -11.253  0.0000E+00  0.1200E+00
    -10.980  0.0000E+00  0.1200E+00
    -10.707  0.0000E+00  0.1200E+00
    -10.434  0.0000E+00  0.1200E+00
    -10.161  0.0000E+00  0.1200E+00
     -9.888  0.0000E+00  0.1200E+00
     -9.615  0.0000E+00  0.1200E+00
     -9.342  0.0000E+00  0.1200E+00
     -9.069  0.0000E+00  0.1200E+00
     -8.797  0.0000E+00  0.1200E+00
     -8.524  0.0000E+00  0.1200E+00
     -8.251  0.0000E+00  0.1200E+00
     -7.978  0.0000E+00  0.1200E+00
     -7.705  0.0000E+00  0.1200E+00
     -7.432  0.0000E+00  0.1200E+00
     -7.159  0.0000E+00  0.1200E+00
     -6.886  0.0000E+00  0.1200E+00
     -6.613  0.0000E+00  0.1200E+00
     -6.340  0.0000E+00  0.1200E+00
     -6.067  0.0000E+00  0.1200E+00
     -5.794  0.0000E+00  0.1200E+00
     -5.521  0.0000E+00  0.1200E+00
     -5.248  0.0000E+00  0.1200E+00
     -4.975  0.0000E+00  0.1200E+00
     -4.702  0.0000E+00  0.1200E+00
     -4.430  0.0000E+00  0.1200E+00
     -4.157  0.0000E+00  0.1200E+00
     -3.884  0.0000E+00  0.1200E+00
     -3.611  0.0000E+00  0.1200E+00
     -3.338  0.0000E+00  0.1200E+00
     -3.065  0.0000E+00  0.1200E+00
     -2.792  0.0000E+00  0.1200E+00
     -2.519  0.0000E+00  0.1200E+00
     -2.246  0.0000E+00  0.1200E+00
     -1.973  0.0000E+00  0.1200E+00
     -1.700  0.0000E+00  0.1200E+00
     -1.427  0.0000E+00  0.1200E+00
     -1.154  0.0000E+00  0.1200E+00
     -0.881  0.0000E+00  0.1200E+00
     -0.608  0.0000E+00  0.1200E+00
     -0.335  0.0000E+00  0.1200E+00
     -0.063  0.0000E+00  0.1200E+00
      0.210  0.0000E+00  0.1200E+00
      0.483  0.0000E+00  0.1200E+00
      0.756  0.0000E+00  0.1200E+00
      1.029  0.0000E+00  0.1200E+00
      1.302  0.0000E+00  0.1200E+00
      1.575  0.3499E-10  0.1200E+00
      1.848  0.1136E-03  0.1200E+00
      2.121  0.4118E-03  0.1201E+00
      2.394  0.1581E-02  0.1206E+00
      2.667  0.7001E-03  0.1208E+00
      2.940  0.1450E-02  0.1212E+00
      3.213  0.1595E-02  0.1216E+00
      3.486  0.3041E-02  0.1224E+00
      3.759  0.1275E-02  0.1228E+00
      4.032  0.2751E-02  0.1235E+00
      4.305  0.4092E-02  0.1246E+00
      4.577  0.6722E-02  0.1265E+00
      4.850  0.8490E-02  0.1288E+00
      5.123  0.1695E-01  0.1334E+00
      5.396  0.2363E-01  0.1399E+00
      5.669  0.1893E-01  0.1450E+00
      5.942  0.2401E-01  0.1516E+00
      6.215  0.1850E-01  0.1566E+00
      6.488  0.2999E-01  0.1648E+00
      6.761  0.3300E-01  0.1738E+00
      7.034  0.2434E-01  0.1805E+00
      7.307  0.3178E-01  0.1891E+00
      7.580  0.2347E-01  0.1956E+00
      7.853  0.2470E-01  0.2023E+00
      8.126  0.3317E-01  0.2113E+00
      8.399  0.3333E-01  0.2204E+00
      8.672  0.3510E-01  0.2300E+00
      8.944  0.2683E-01  0.2373E+00
      9.217  0.4273E-01  0.2490E+00
      9.490  0.3254E-01  0.2579E+00
      9.763  0.1714E-01  0.2626E+00
     10.036  0.2288E-01  0.2688E+00
     10.309  0.2100E-01  0.2745E+00
     10.582  0.2652E-01  0.2818E+00
     10.855  0.2384E-01  0.2883E+00
     11.128  0.2309E-01  0.2946E+00
     11.401  0.2393E-01  0.3011E+00
     11.674  0.3492E-01  0.3107E+00
     11.947  0.4216E-01  0.3222E+00
     12.220  0.2386E-01  0.3287E+00
     12.493  0.1822E-01  0.3336E+00
     12.766  0.7287E-02  0.3356E+00
     13.039  0.3830E-02  0.3367E+00
     13.312  0.1795E-02  0.3372E+00
     13.584  0.9643E-03  0.3374E+00
     13.857  0.7983E-02  0.3396E+00
     14.130  0.1013E-01  0.3424E+00
     14.403  0.7804E-02  0.3445E+00
     14.676  0.3182E-02  0.3454E+00
     14.949  0.2169E-02  0.3460E+00
     15.222  0.7127E-02  0.3479E+00
     15.495  0.2790E-02  0.3487E+00
     15.768  0.5679E-02  0.3502E+00
     16.041  0.3868E-02  0.3513E+00
     16.314  0.4675E-02  0.3526E+00
     16.587  0.7118E-02  0.3545E+00
     16.860  0.7773E-02  0.3566E+00
     17.133  0.5004E-02  0.3580E+00
     17.406  0.3518E-02  0.3589E+00
     17.679  0.2327E-02  0.3596E+00
     17.951  0.1385E-02  0.3600E+00
     18.224  0.3320E-02  0.3609E+00
     18.497  0.4813E-02  0.3622E+00
     18.770  0.1197E-01  0.3654E+00
     19.043  0.9215E-02  0.3680E+00
     19.316  0.8352E-02  0.3702E+00
     19.589  0.5923E-02  0.3719E+00
     19.862  0.8650E-02  0.3742E+00
     20.135  0.7172E-02  0.3762E+00
     20.408  0.4119E-02  0.3773E+00
     20.681  0.7347E-02  0.3793E+00
     20.954  0.7506E-02  0.3814E+00
     21.227  0.8541E-02  0.3837E+00
     21.500  0.9844E-02  0.3864E+00
     21.773  0.4025E-02  0.3875E+00
     22.046  0.3284E-02  0.3884E+00
     22.319  0.7398E-02  0.3904E+00
     22.591  0.1003E-01  0.3931E+00
     22.864  0.6200E-02  0.3948E+00
     23.137  0.6014E-02  0.3965E+00
     23.410  0.3167E-02  0.3973E+00
     23.683  0.9634E-02  0.4000E+00
     23.956  0.3338E-02  0.4009E+00
     24.229  0.4934E-02  0.4022E+00
     24.502  0.1121E-01  0.4053E+00
     24.775  0.1115E-01  0.4083E+00
     25.048  0.9597E-02  0.4109E+00
     25.321  0.8698E-02  0.4133E+00
     25.594  0.6026E-02  0.4150E+00
     25.867  0.5123E-02  0.4164E+00
     26.140  0.1200E-01  0.4196E+00
     26.413  0.2103E-01  0.4254E+00
     26.686  0.1836E-01  0.4304E+00
     26.958  0.1682E-01  0.4350E+00
     27.231  0.1247E-01  0.4384E+00
     27.504  0.1193E-01  0.4416E+00
     27.777  0.8469E-02  0.4439E+00
     28.050  0.1378E-01  0.4477E+00
     28.323  0.2334E-01  0.4541E+00
     28.596  0.1635E-01  0.4585E+00
     28.869  0.7503E-02  0.4606E+00
     29.142  0.1466E-01  0.4646E+00
     29.415  0.8931E-02  0.4670E+00
     29.688  0.9258E-02  0.4695E+00
     29.961  0.5958E-02  0.4712E+00
     30.234  0.9320E-02  0.4737E+00
     30.507  0.2336E-02  0.4744E+00
     30.780  0.6072E-02  0.4760E+00
     31.053  0.3568E-02  0.4770E+00
     31.325  0.2992E-02  0.4778E+00
     31.598  0.1534E-02  0.4782E+00
     31.871  0.5053E-02  0.4796E+00
     32.144  0.7367E-03  0.4798E+00
     32.417  0.5126E-04  0.4798E+00
     32.690  0.4554E-03  0.4799E+00
     32.963  0.5490E-04  0.4800E+00
     33.236  0.4577E-06  0.4800E+00
     33.509  0.1827E-03  0.4800E+00
     33.782  0.0000E+00  0.4800E+00
     34.055  0.0000E+00  0.4800E+00
     34.328  0.0000E+00  0.4800E+00
     34.601  0.0000E+00  0.4800E+00
     34.874  0.0000E+00  0.4800E+00
     35.147  0.0000E+00  0.4800E+00
     35.420  0.0000E+00  0.4800E+00
     35.693  0.0000E+00  0.4800E+00
     35.965  0.0000E+00  0.4800E+00
     36.238  0.0000E+00  0.4800E+00
     36.511  0.0000E+00  0.4800E+00
     36.784  0.0000E+00  0.4800E+00
     37.057  0.0000E+00  0.4800E+00
     37.05720888    -44.82450700  301     11.88811557      1.00000000
    -44.825  0.0000E+00  0.0000E+00  0.0000E+00  0.0000E+00  0.0000E+00  0.0000E+00  0.0000E+00  0.0000E+00  0.0000E+00
    -44.552  0.0000E+00  0.0000E+00  0.0000E+00  0.0000E+00  0.0000E+00  0.0000E+00  0.0000E+00  0.0000E+00  0.0000E+00
    -44.279  0.0000E+00  0.0000E+00  0.0000E+00  0.0000E+00  0.0000E+00  0.0000E+00  0.0000E+00  0.0000E+00  0.0000E+00
    -44.006  0.0000E+00  0.0000E+00  0.0000E+00  0.0000E+00  0.0000E+00  0.0000E+00  0.0000E+00  0.0000E+00  0.0000E+00
    -43.733  0.0000E+00  0.0000E+00  0.0000E+00  0.0000E+00  0.0000E+00  0.0000E+00  0.0000E+00  0.0000E+00  0.0000E+00
    -43.460  0.0000E+00  0.0000E+00  0.0000E+00  0.0000E+00  0.0000E+00  0.0000E+00  0.0000E+00  0.0000E+00  0.0000E+00
    -43.187  0.0000E+00  0.0000E+00  0.0000E+00  0.0000E+00  0.0000E+00  0.0000E+00  0.0000E+00  0.0000E+00  0.0000E+00
    -42.914  0.0000E+00  0.0000E+00  0.0000E+00  0.0000E+00  0.0000E+00  0.0000E+00  0.0000E+00  0.0000E+00  0.0000E+00
    -42.641  0.0000E+00  0.0000E+00  0.0000E+00  0.0000E+00  0.0000E+00  0.0000E+00  0.0000E+00  0.0000E+00  0.0000E+00
    -42.368  0.0000E+00  0.0000E+00  0.0000E+00  0.0000E+00  0.0000E+00  0.0000E+00  0.0000E+00  0.0000E+00  0.0000E+00
    -42.095  0.0000E+00  0.0000E+00  0.0000E+00  0.0000E+00  0.0000E+00  0.0000E+00  0.0000E+00  0.0000E+00  0.0000E+00
    -41.822  0.0000E+00  0.0000E+00  0.0000E+00  0.0000E+00  0.0000E+00  0.0000E+00  0.0000E+00  0.0000E+00  0.0000E+00
    -41.549  0.0000E+00  0.0000E+00  0.0000E+00  0.0000E+00  0.0000E+00  0.0000E+00  0.0000E+00  0.0000E+00  0.0000E+00
    -41.276  0.2726E-12  0.2090E-07  0.1008E-08  0.2090E-07  0.3847E-13  0.1802E-13  0.3027E-12  0.1802E-13  0.3847E-13
    -41.003  0.7078E-04  0.1393E+01  0.7673E-01  0.1393E+01  0.3463E-04  0.3216E-05  0.4066E-04  0.3216E-05  0.3463E-04
    -40.730  0.2950E-03  0.3953E+01  0.1391E+01  0.3953E+01  0.1730E-03  0.3129E-04  0.1260E-03  0.3129E-04  0.1730E-03
    -40.457  0.5168E-04  0.1911E+01  0.5774E+01  0.1911E+01  0.4542E-04  0.5558E-04  0.6608E-04  0.5558E-04  0.4542E-04
    -40.185  0.4037E-07  0.4615E-04  0.1613E-01  0.4615E-04  0.1906E-08  0.3793E-07  0.4365E-07  0.3793E-07  0.1906E-08
    -39.912  0.0000E+00  0.0000E+00  0.0000E+00  0.0000E+00  0.0000E+00  0.0000E+00  0.0000E+00  0.0000E+00  0.0000E+00
    -39.639  0.0000E+00  0.0000E+00  0.0000E+00  0.0000E+00  0.0000E+00  0.0000E+00  0.0000E+00  0.0000E+00  0.0000E+00
    -39.366  0.0000E+00  0.0000E+00  0.0000E+00  0.0000E+00  0.0000E+00  0.0000E+00  0.0000E+00  0.0000E+00  0.0000E+00
    -39.093  0.0000E+00  0.0000E+00  0.0000E+00  0.0000E+00  0.0000E+00  0.0000E+00  0.0000E+00  0.0000E+00  0.0000E+00
    -38.820  0.0000E+00  0.0000E+00  0.0000E+00  0.0000E+00  0.0000E+00  0.0000E+00  0.0000E+00  0.0000E+00  0.0000E+00
    -38.547  0.0000E+00  0.0000E+00  0.0000E+00  0.0000E+00  0.0000E+00  0.0000E+00  0.0000E+00  0.0000E+00  0.0000E+00
    -38.274  0.0000E+00  0.0000E+00  0.0000E+00  0.0000E+00  0.0000E+00  0.0000E+00  0.0000E+00  0.0000E+00  0.0000E+00
    -38.001  0.0000E+00  0.0000E+00  0.0000E+00  0.0000E+00  0.0000E+00  0.0000E+00  0.0000E+00  0.0000E+00  0.0000E+00
    -37.728  0.0000E+00  0.0000E+00  0.0000E+00  0.0000E+00  0.0000E+00  0.0000E+00  0.0000E+00  0.0000E+00  0.0000E+00
    -37.455  0.0000E+00  0.0000E+00  0.0000E+00  0.0000E+00  0.0000E+00  0.0000E+00  0.0000E+00  0.0000E+00  0.0000E+00
    -37.182  0.0000E+00  0.0000E+00  0.0000E+00  0.0000E+00  0.0000E+00  0.0000E+00  0.0000E+00  0.0000E+00  0.0000E+00
    -36.909  0.0000E+00  0.0000E+00  0.0000E+00  0.0000E+00  0.0000E+00  0.0000E+00  0.0000E+00  0.0000E+00  0.0000E+00
    -36.636  0.0000E+00  0.0000E+00  0.0000E+00  0.0000E+00  0.0000E+00  0.0000E+00  0.0000E+00  0.0000E+00  0.0000E+00
    -36.363  0.0000E+00  0.0000E+00  0.0000E+00  0.0000E+00  0.0000E+00  0.0000E+00  0.0000E+00  0.0000E+00  0.0000E+00
    -36.090  0.0000E+00  0.0000E+00  0.0000E+00  0.0000E+00  0.0000E+00  0.0000E+00  0.0000E+00  0.0000E+00  0.0000E+00
    -35.818  0.0000E+00  0.0000E+00  0.0000E+00  0.0000E+00  0.0000E+00  0.0000E+00  0.0000E+00  0.0000E+00  0.0000E+00
    -35.545  0.0000E+00  0.0000E+00  0.0000E+00  0.0000E+00  0.0000E+00  0.0000E+00  0.0000E+00  0.0000E+00  0.0000E+00
    -35.272  0.0000E+00  0.0000E+00  0.0000E+00  0.0000E+00  0.0000E+00  0.0000E+00  0.0000E+00  0.0000E+00  0.0000E+00
    -34.999  0.0000E+00  0.0000E+00  0.0000E+00  0.0000E+00  0.0000E+00  0.0000E+00  0.0000E+00  0.0000E+00  0.0000E+00
    -34.726  0.0000E+00  0.0000E+00  0.0000E+00  0.0000E+00  0.0000E+00  0.0000E+00  0.0000E+00  0.0000E+00  0.0000E+00
    -34.453  0.0000E+00  0.0000E+00  0.0000E+00  0.0000E+00  0.0000E+00  0.0000E+00  0.0000E+00  0.0000E+00  0.0000E+00
    -34.180  0.0000E+00  0.0000E+00  0.0000E+00  0.0000E+00  0.0000E+00  0.0000E+00  0.0000E+00  0.0000E+00  0.0000E+00
    -33.907  0.0000E+00  0.0000E+00  0.0000E+00  0.0000E+00  0.0000E+00  0.0000E+00  0.0000E+00  0.0000E+00  0.0000E+00
    -33.634  0.0000E+00  0.0000E+00  0.0000E+00  0.0000E+00  0.0000E+00  0.0000E+00  0.0000E+00  0.0000E+00  0.0000E+00
    -33.361  0.0000E+00  0.0000E+00  0.0000E+00  0.0000E+00  0.0000E+00  0.0000E+00  0.0000E+00  0.0000E+00  0.0000E+00
    -33.088  0.0000E+00  0.0000E+00  0.0000E+00  0.0000E+00  0.0000E+00  0.0000E+00  0.0000E+00  0.0000E+00  0.0000E+00
    -32.815  0.0000E+00  0.0000E+00  0.0000E+00  0.0000E+00  0.0000E+00  0.0000E+00  0.0000E+00  0.0000E+00  0.0000E+00
    -32.542  0.0000E+00  0.0000E+00  0.0000E+00  0.0000E+00  0.0000E+00  0.0000E+00  0.0000E+00  0.0000E+00  0.0000E+00
    -32.269  0.0000E+00  0.0000E+00  0.0000E+00  0.0000E+00  0.0000E+00  0.0000E+00  0.0000E+00  0.0000E+00  0.0000E+00
    -31.996  0.0000E+00  0.0000E+00  0.0000E+00  0.0000E+00  0.0000E+00  0.0000E+00  0.0000E+00  0.0000E+00  0.0000E+00
    -31.723  0.0000E+00  0.0000E+00  0.0000E+00  0.0000E+00  0.0000E+00  0.0000E+00  0.0000E+00  0.0000E+00  0.0000E+00
    -31.450  0.0000E+00  0.0000E+00  0.0000E+00  0.0000E+00  0.0000E+00  0.0000E+00  0.0000E+00  0.0000E+00  0.0000E+00
    -31.178  0.0000E+00  0.0000E+00  0.0000E+00  0.0000E+00  0.0000E+00  0.0000E+00  0.0000E+00  0.0000E+00  0.0000E+00
    -30.905  0.0000E+00  0.0000E+00  0.0000E+00  0.0000E+00  0.0000E+00  0.0000E+00  0.0000E+00  0.0000E+00  0.0000E+00
    -30.632  0.0000E+00  0.0000E+00  0.0000E+00  0.0000E+00  0.0000E+00  0.0000E+00  0.0000E+00  0.0000E+00  0.0000E+00
    -30.359  0.0000E+00  0.0000E+00  0.0000E+00  0.0000E+00  0.0000E+00  0.0000E+00  0.0000E+00  0.0000E+00  0.0000E+00
    -30.086  0.0000E+00  0.0000E+00  0.0000E+00  0.0000E+00  0.0000E+00  0.0000E+00  0.0000E+00  0.0000E+00  0.0000E+00
    -29.813  0.0000E+00  0.0000E+00  0.0000E+00  0.0000E+00  0.0000E+00  0.0000E+00  0.0000E+00  0.0000E+00  0.0000E+00
    -29.540  0.0000E+00  0.0000E+00  0.0000E+00  0.0000E+00  0.0000E+00  0.0000E+00  0.0000E+00  0.0000E+00  0.0000E+00
    -29.267  0.0000E+00  0.0000E+00  0.0000E+00  0.0000E+00  0.0000E+00  0.0000E+00  0.0000E+00  0.0000E+00  0.0000E+00
    -28.994  0.0000E+00  0.0000E+00  0.0000E+00  0.0000E+00  0.0000E+00  0.0000E+00  0.0000E+00  0.0000E+00  0.0000E+00
    -28.721  0.0000E+00  0.0000E+00  0.0000E+00  0.0000E+00  0.0000E+00  0.0000E+00  0.0000E+00  0.0000E+00  0.0000E+00
    -28.448  0.0000E+00  0.0000E+00  0.0000E+00  0.0000E+00  0.0000E+00  0.0000E+00  0.0000E+00  0.0000E+00  0.0000E+00
    -28.175  0.0000E+00  0.0000E+00  0.0000E+00  0.0000E+00  0.0000E+00  0.0000E+00  0.0000E+00  0.0000E+00  0.0000E+00
    -27.902  0.0000E+00  0.0000E+00  0.0000E+00  0.0000E+00  0.0000E+00  0.0000E+00  0.0000E+00  0.0000E+00  0.0000E+00
    -27.629  0.0000E+00  0.0000E+00  0.0000E+00  0.0000E+00  0.0000E+00  0.0000E+00  0.0000E+00  0.0000E+00  0.0000E+00
    -27.356  0.0000E+00  0.0000E+00  0.0000E+00  0.0000E+00  0.0000E+00  0.0000E+00  0.0000E+00  0.0000E+00  0.0000E+00
    -27.083  0.0000E+00  0.0000E+00  0.0000E+00  0.0000E+00  0.0000E+00  0.0000E+00  0.0000E+00  0.0000E+00  0.0000E+00
    -26.811  0.0000E+00  0.0000E+00  0.0000E+00  0.0000E+00  0.0000E+00  0.0000E+00  0.0000E+00  0.0000E+00  0.0000E+00
    -26.538  0.0000E+00  0.0000E+00  0.0000E+00  0.0000E+00  0.0000E+00  0.0000E+00  0.0000E+00  0.0000E+00  0.0000E+00
    -26.265  0.0000E+00  0.0000E+00  0.0000E+00  0.0000E+00  0.0000E+00  0.0000E+00  0.0000E+00  0.0000E+00  0.0000E+00
    -25.992  0.0000E+00  0.0000E+00  0.0000E+00  0.0000E+00  0.0000E+00  0.0000E+00  0.0000E+00  0.0000E+00  0.0000E+00
    -25.719  0.0000E+00  0.0000E+00  0.0000E+00  0.0000E+00  0.0000E+00  0.0000E+00  0.0000E+00  0.0000E+00  0.0000E+00
    -25.446  0.0000E+00  0.0000E+00  0.0000E+00  0.0000E+00  0.0000E+00  0.0000E+00  0.0000E+00  0.0000E+00  0.0000E+00
    -25.173  0.0000E+00  0.0000E+00  0.0000E+00  0.0000E+00  0.0000E+00  0.0000E+00  0.0000E+00  0.0000E+00  0.0000E+00
    -24.900  0.0000E+00  0.0000E+00  0.0000E+00  0.0000E+00  0.0000E+00  0.0000E+00  0.0000E+00  0.0000E+00  0.0000E+00
    -24.627  0.0000E+00  0.0000E+00  0.0000E+00  0.0000E+00  0.0000E+00  0.0000E+00  0.0000E+00  0.0000E+00  0.0000E+00
    -24.354  0.0000E+00  0.0000E+00  0.0000E+00  0.0000E+00  0.0000E+00  0.0000E+00  0.0000E+00  0.0000E+00  0.0000E+00
    -24.081  0.0000E+00  0.0000E+00  0.0000E+00  0.0000E+00  0.0000E+00  0.0000E+00  0.0000E+00  0.0000E+00  0.0000E+00
    -23.808  0.0000E+00  0.0000E+00  0.0000E+00  0.0000E+00  0.0000E+00  0.0000E+00  0.0000E+00  0.0000E+00  0.0000E+00
    -23.535  0.0000E+00  0.0000E+00  0.0000E+00  0.0000E+00  0.0000E+00  0.0000E+00  0.0000E+00  0.0000E+00  0.0000E+00
    -23.262  0.0000E+00  0.0000E+00  0.0000E+00  0.0000E+00  0.0000E+00  0.0000E+00  0.0000E+00  0.0000E+00  0.0000E+00
    -22.989  0.0000E+00  0.0000E+00  0.0000E+00  0.0000E+00  0.0000E+00  0.0000E+00  0.0000E+00  0.0000E+00  0.0000E+00
    -22.716  0.0000E+00  0.0000E+00  0.0000E+00  0.0000E+00  0.0000E+00  0.0000E+00  0.0000E+00  0.0000E+00  0.0000E+00
    -22.444  0.0000E+00  0.0000E+00  0.0000E+00  0.0000E+00  0.0000E+00  0.0000E+00  0.0000E+00  0.0000E+00  0.0000E+00
    -22.171  0.0000E+00  0.0000E+00  0.0000E+00  0.0000E+00  0.0000E+00  0.0000E+00  0.0000E+00  0.0000E+00  0.0000E+00
    -21.898  0.0000E+00  0.0000E+00  0.0000E+00  0.0000E+00  0.0000E+00  0.0000E+00  0.0000E+00  0.0000E+00  0.0000E+00
    -21.625  0.0000E+00  0.0000E+00  0.0000E+00  0.0000E+00  0.0000E+00  0.0000E+00  0.0000E+00  0.0000E+00  0.0000E+00
    -21.352  0.0000E+00  0.0000E+00  0.0000E+00  0.0000E+00  0.0000E+00  0.0000E+00  0.0000E+00  0.0000E+00  0.0000E+00
    -21.079  0.0000E+00  0.0000E+00  0.0000E+00  0.0000E+00  0.0000E+00  0.0000E+00  0.0000E+00  0.0000E+00  0.0000E+00
    -20.806  0.0000E+00  0.0000E+00  0.0000E+00  0.0000E+00  0.0000E+00  0.0000E+00  0.0000E+00  0.0000E+00  0.0000E+00
    -20.533  0.0000E+00  0.0000E+00  0.0000E+00  0.0000E+00  0.0000E+00  0.0000E+00  0.0000E+00  0.0000E+00  0.0000E+00
    -20.260  0.0000E+00  0.0000E+00  0.0000E+00  0.0000E+00  0.0000E+00  0.0000E+00  0.0000E+00  0.0000E+00  0.0000E+00
    -19.987  0.0000E+00  0.0000E+00  0.0000E+00  0.0000E+00  0.0000E+00  0.0000E+00  0.0000E+00  0.0000E+00  0.0000E+00
    -19.714  0.0000E+00  0.0000E+00  0.0000E+00  0.0000E+00  0.0000E+00  0.0000E+00  0.0000E+00  0.0000E+00  0.0000E+00
    -19.441  0.0000E+00  0.0000E+00  0.0000E+00  0.0000E+00  0.0000E+00  0.0000E+00  0.0000E+00  0.0000E+00  0.0000E+00
    -19.168  0.0000E+00  0.0000E+00  0.0000E+00  0.0000E+00  0.0000E+00  0.0000E+00  0.0000E+00  0.0000E+00  0.0000E+00
    -18.895  0.0000E+00  0.0000E+00  0.0000E+00  0.0000E+00  0.0000E+00  0.0000E+00  0.0000E+00  0.0000E+00  0.0000E+00
    -18.622  0.0000E+00  0.0000E+00  0.0000E+00  0.0000E+00  0.0000E+00  0.0000E+00  0.0000E+00  0.0000E+00  0.0000E+00
    -18.349  0.0000E+00  0.0000E+00  0.0000E+00  0.0000E+00  0.0000E+00  0.0000E+00  0.0000E+00  0.0000E+00  0.0000E+00
    -18.076  0.0000E+00  0.0000E+00  0.0000E+00  0.0000E+00  0.0000E+00  0.0000E+00  0.0000E+00  0.0000E+00  0.0000E+00
    -17.804  0.0000E+00  0.0000E+00  0.0000E+00  0.0000E+00  0.0000E+00  0.0000E+00  0.0000E+00  0.0000E+00  0.0000E+00
    -17.531  0.0000E+00  0.0000E+00  0.0000E+00  0.0000E+00  0.0000E+00  0.0000E+00  0.0000E+00  0.0000E+00  0.0000E+00
    -17.258  0.0000E+00  0.0000E+00  0.0000E+00  0.0000E+00  0.0000E+00  0.0000E+00  0.0000E+00  0.0000E+00  0.0000E+00
    -16.985  0.0000E+00  0.0000E+00  0.0000E+00  0.0000E+00  0.0000E+00  0.0000E+00  0.0000E+00  0.0000E+00  0.0000E+00
    -16.712  0.0000E+00  0.0000E+00  0.0000E+00  0.0000E+00  0.0000E+00  0.0000E+00  0.0000E+00  0.0000E+00  0.0000E+00
    -16.439  0.0000E+00  0.0000E+00  0.0000E+00  0.0000E+00  0.0000E+00  0.0000E+00  0.0000E+00  0.0000E+00  0.0000E+00
    -16.166  0.0000E+00  0.0000E+00  0.0000E+00  0.0000E+00  0.0000E+00  0.0000E+00  0.0000E+00  0.0000E+00  0.0000E+00
    -15.893  0.0000E+00  0.0000E+00  0.0000E+00  0.0000E+00  0.0000E+00  0.0000E+00  0.0000E+00  0.0000E+00  0.0000E+00
    -15.620  0.0000E+00  0.0000E+00  0.0000E+00  0.0000E+00  0.0000E+00  0.0000E+00  0.0000E+00  0.0000E+00  0.0000E+00
    -15.347  0.0000E+00  0.0000E+00  0.0000E+00  0.0000E+00  0.0000E+00  0.0000E+00  0.0000E+00  0.0000E+00  0.0000E+00
    -15.074  0.0000E+00  0.0000E+00  0.0000E+00  0.0000E+00  0.0000E+00  0.0000E+00  0.0000E+00  0.0000E+00  0.0000E+00
    -14.801  0.0000E+00  0.0000E+00  0.0000E+00  0.0000E+00  0.0000E+00  0.0000E+00  0.0000E+00  0.0000E+00  0.0000E+00
    -14.528  0.0000E+00  0.0000E+00  0.0000E+00  0.0000E+00  0.0000E+00  0.0000E+00  0.0000E+00  0.0000E+00  0.0000E+00
    -14.255  0.0000E+00  0.0000E+00  0.0000E+00  0.0000E+00  0.0000E+00  0.0000E+00  0.0000E+00  0.0000E+00  0.0000E+00
    -13.982  0.0000E+00  0.0000E+00  0.0000E+00  0.0000E+00  0.0000E+00  0.0000E+00  0.0000E+00  0.0000E+00  0.0000E+00
    -13.709  0.0000E+00  0.0000E+00  0.0000E+00  0.0000E+00  0.0000E+00  0.0000E+00  0.0000E+00  0.0000E+00  0.0000E+00
    -13.437  0.0000E+00  0.0000E+00  0.0000E+00  0.0000E+00  0.0000E+00  0.0000E+00  0.0000E+00  0.0000E+00  0.0000E+00
    -13.164  0.0000E+00  0.0000E+00  0.0000E+00  0.0000E+00  0.0000E+00  0.0000E+00  0.0000E+00  0.0000E+00  0.0000E+00
    -12.891  0.0000E+00  0.0000E+00  0.0000E+00  0.0000E+00  0.0000E+00  0.0000E+00  0.0000E+00  0.0000E+00  0.0000E+00
    -12.618  0.0000E+00  0.0000E+00  0.0000E+00  0.0000E+00  0.0000E+00  0.0000E+00  0.0000E+00  0.0000E+00  0.0000E+00
    -12.345  0.0000E+00  0.0000E+00  0.0000E+00  0.0000E+00  0.0000E+00  0.0000E+00  0.0000E+00  0.0000E+00  0.0000E+00
    -12.072  0.0000E+00  0.0000E+00  0.0000E+00  0.0000E+00  0.0000E+00  0.0000E+00  0.0000E+00  0.0000E+00  0.0000E+00
    -11.799  0.0000E+00  0.0000E+00  0.0000E+00  0.0000E+00  0.0000E+00  0.0000E+00  0.0000E+00  0.0000E+00  0.0000E+00
    -11.526  0.0000E+00  0.0000E+00  0.0000E+00  0.0000E+00  0.0000E+00  0.0000E+00  0.0000E+00  0.0000E+00  0.0000E+00
    -11.253  0.0000E+00  0.0000E+00  0.0000E+00  0.0000E+00  0.0000E+00  0.0000E+00  0.0000E+00  0.0000E+00  0.0000E+00
    -10.980  0.0000E+00  0.0000E+00  0.0000E+00  0.0000E+00  0.0000E+00  0.0000E+00  0.0000E+00  0.0000E+00  0.0000E+00
    -10.707  0.0000E+00  0.0000E+00  0.0000E+00  0.0000E+00  0.0000E+00  0.0000E+00  0.0000E+00  0.0000E+00  0.0000E+00
    -10.434  0.0000E+00  0.0000E+00  0.0000E+00  0.0000E+00  0.0000E+00  0.0000E+00  0.0000E+00  0.0000E+00  0.0000E+00
    -10.161  0.0000E+00  0.0000E+00  0.0000E+00  0.0000E+00  0.0000E+00  0.0000E+00  0.0000E+00  0.0000E+00  0.0000E+00
     -9.888  0.0000E+00  0.0000E+00  0.0000E+00  0.0000E+00  0.0000E+00  0.0000E+00  0.0000E+00  0.0000E+00  0.0000E+00
     -9.615  0.0000E+00  0.0000E+00  0.0000E+00  0.0000E+00  0.0000E+00  0.0000E+00  0.0000E+00  0.0000E+00  0.0000E+00
     -9.342  0.0000E+00  0.0000E+00  0.0000E+00  0.0000E+00  0.0000E+00  0.0000E+00  0.0000E+00  0.0000E+00  0.0000E+00
     -9.069  0.0000E+00  0.0000E+00  0.0000E+00  0.0000E+00  0.0000E+00  0.0000E+00  0.0000E+00  0.0000E+00  0.0000E+00
     -8.797  0.0000E+00  0.0000E+00  0.0000E+00  0.0000E+00  0.0000E+00  0.0000E+00  0.0000E+00  0.0000E+00  0.0000E+00
     -8.524  0.0000E+00  0.0000E+00  0.0000E+00  0.0000E+00  0.0000E+00  0.0000E+00  0.0000E+00  0.0000E+00  0.0000E+00
     -8.251  0.0000E+00  0.0000E+00  0.0000E+00  0.0000E+00  0.0000E+00  0.0000E+00  0.0000E+00  0.0000E+00  0.0000E+00
     -7.978  0.0000E+00  0.0000E+00  0.0000E+00  0.0000E+00  0.0000E+00  0.0000E+00  0.0000E+00  0.0000E+00  0.0000E+00
     -7.705  0.0000E+00  0.0000E+00  0.0000E+00  0.0000E+00  0.0000E+00  0.0000E+00  0.0000E+00  0.0000E+00  0.0000E+00
     -7.432  0.0000E+00  0.0000E+00  0.0000E+00  0.0000E+00  0.0000E+00  0.0000E+00  0.0000E+00  0.0000E+00  0.0000E+00
     -7.159  0.0000E+00  0.0000E+00  0.0000E+00  0.0000E+00  0.0000E+00  0.0000E+00  0.0000E+00  0.0000E+00  0.0000E+00
     -6.886  0.0000E+00  0.0000E+00  0.0000E+00  0.0000E+00  0.0000E+00  0.0000E+00  0.0000E+00  0.0000E+00  0.0000E+00
     -6.613  0.0000E+00  0.0000E+00  0.0000E+00  0.0000E+00  0.0000E+00  0.0000E+00  0.0000E+00  0.0000E+00  0.0000E+00
     -6.340  0.0000E+00  0.0000E+00  0.0000E+00  0.0000E+00  0.0000E+00  0.0000E+00  0.0000E+00  0.0000E+00  0.0000E+00
     -6.067  0.0000E+00  0.0000E+00  0.0000E+00  0.0000E+00  0.0000E+00  0.0000E+00  0.0000E+00  0.0000E+00  0.0000E+00
     -5.794  0.0000E+00  0.0000E+00  0.0000E+00  0.0000E+00  0.0000E+00  0.0000E+00  0.0000E+00  0.0000E+00  0.0000E+00
     -5.521  0.0000E+00  0.0000E+00  0.0000E+00  0.0000E+00  0.0000E+00  0.0000E+00  0.0000E+00  0.0000E+00  0.0000E+00
     -5.248  0.0000E+00  0.0000E+00  0.0000E+00  0.0000E+00  0.0000E+00  0.0000E+00  0.0000E+00  0.0000E+00  0.0000E+00
     -4.975  0.0000E+00  0.0000E+00  0.0000E+00  0.0000E+00  0.0000E+00  0.0000E+00  0.0000E+00  0.0000E+00  0.0000E+00
     -4.702  0.0000E+00  0.0000E+00  0.0000E+00  0.0000E+00  0.0000E+00  0.0000E+00  0.0000E+00  0.0000E+00  0.0000E+00
     -4.430  0.0000E+00  0.0000E+00  0.0000E+00  0.0000E+00  0.0000E+00  0.0000E+00  0.0000E+00  0.0000E+00  0.0000E+00
     -4.157  0.0000E+00  0.0000E+00  0.0000E+00  0.0000E+00  0.0000E+00  0.0000E+00  0.0000E+00  0.0000E+00  0.0000E+00
     -3.884  0.0000E+00  0.0000E+00  0.0000E+00  0.0000E+00  0.0000E+00  0.0000E+00  0.0000E+00  0.0000E+00  0.0000E+00
     -3.611  0.0000E+00  0.0000E+00  0.0000E+00  0.0000E+00  0.0000E+00  0.0000E+00  0.0000E+00  0.0000E+00  0.0000E+00
     -3.338  0.0000E+00  0.0000E+00  0.0000E+00  0.0000E+00  0.0000E+00  0.0000E+00  0.0000E+00  0.0000E+00  0.0000E+00
     -3.065  0.0000E+00  0.0000E+00  0.0000E+00  0.0000E+00  0.0000E+00  0.0000E+00  0.0000E+00  0.0000E+00  0.0000E+00
     -2.792  0.0000E+00  0.0000E+00  0.0000E+00  0.0000E+00  0.0000E+00  0.0000E+00  0.0000E+00  0.0000E+00  0.0000E+00
     -2.519  0.0000E+00  0.0000E+00  0.0000E+00  0.0000E+00  0.0000E+00  0.0000E+00  0.0000E+00  0.0000E+00  0.0000E+00
     -2.246  0.0000E+00  0.0000E+00  0.0000E+00  0.0000E+00  0.0000E+00  0.0000E+00  0.0000E+00  0.0000E+00  0.0000E+00