    2    2  100    1
  0.1518725E+02  0.2725442E-09  0.2725442E-09  0.4721765E-09  0.5000000E-15
  1.000000000000000E-004
  CAR 
 Pt-hcc                                  
     32     70     24
 
  0.0000000E+00  0.0000000E+00  0.0000000E+00  0.1250000E-02
      1        -40.888086   1.000000
      2        -40.663981   1.000000
      3        -40.663981   1.000000
      4        -40.618266   1.000000
      5        -40.618265   1.000000
      6        -40.504029   1.000000
      7          1.749940   1.000000
      8          4.438524   1.000000
      9          7.714443   1.000000
     10          8.246741   1.000000
     11          8.246742   1.000000
     12          8.640163   1.000000
     13          8.640164   1.000000
     14          9.969449   1.000000
     15          9.969449   1.000000
     16         11.015199   1.000000
     17         11.666165   1.000000
     18         11.666165   1.000000
     19         16.852836   0.000000
     20         26.910141   0.000000
     21         27.584381   0.000000
     22         29.145793   0.000000
     23         33.335312   0.000000
     24         33.335313   0.000000
 
  0.1000000E+00 -0.2081668E-16  0.0000000E+00  0.7500000E-02
      1        -40.874657   1.000000
      2        -40.706520   1.000000
      3        -40.676735   1.000000
      4        -40.661000   1.000000
      5        -40.626830   1.000000
      6        -40.507215   1.000000
      7          2.124929   1.000000
      8          4.779343   1.000000
      9          7.641121   1.000000
     10          8.256979   1.000000
     11          8.480732   1.000000
     12          8.537928   1.000000
     13          8.917690   1.000000
     14          9.332478   1.000000
     15          9.786215   1.000000
     16          9.930754   1.000000
     17         11.734755   0.999993
     18         13.449662   0.000000
     19         16.810465   0.000000
     20         27.413831   0.000000
     21         28.131384   0.000000
     22         29.578540   0.000000
     23         31.609965   0.000000
     24         31.804442   0.000000
 
  0.2000000E+00 -0.4163336E-16  0.0000000E+00  0.7500000E-02
      1        -40.836421   1.000000
      2        -40.815469   1.000000
      3        -40.769962   1.000000
      4        -40.707777   1.000000
      5        -40.649077   1.000000
      6        -40.516695   1.000000
      7          3.142991   1.000000
      8          5.522838   1.000000
      9          7.397759   1.000000
     10          7.894546   1.000000
     11          7.958661   1.000000
     12          8.918300   1.000000
     13          9.365893   1.000000
     14          9.381395   1.000000
     15          9.394313   1.000000
     16          9.699862   1.000000
     17         11.844857   0.889439
     18         15.702068   0.000000
     19         16.722007   0.000000
     20         26.218366   0.000000
     21         28.745148   0.000000
     22         29.320266   0.000000
     23         30.039578   0.000000
     24         30.222190   0.000000
 
  0.3000000E+00  0.0000000E+00  0.0000000E+00  0.7500000E-02
      1        -40.949707   1.000000
      2        -40.903472   1.000000
      3        -40.783492   1.000000
      4        -40.745494   1.000000
      5        -40.677459   1.000000
      6        -40.535724   1.000000
      7          4.372742   1.000000
      8          5.633898   1.000000
      9          6.780235   1.000000
     10          7.679439   1.000000
     11          8.062946   1.000000
     12          8.855043   1.000000
     13          8.965230   1.000000
     14         10.137242   1.000000
     15         10.558731   1.000000
     16         10.810714   1.000000
     17         11.904656   0.319955
     18         16.812068   0.000000
     19         17.981084   0.000000
     20         22.490206   0.000000
     21         26.863135   0.000000
     22         27.196189   0.000000
     23         29.249776   0.000000
     24         30.131307   0.000000
 
  0.4000000E+00 -0.2775558E-16  0.0000000E+00  0.7500000E-02
      1        -41.058022   1.000000
      2        -41.009106   1.000000
      3        -40.775425   1.000000
      4        -40.729865   1.000000
      5        -40.701127   1.000000
      6        -40.561686   1.000000
      7          5.020797   1.000000
      8          5.303638   1.000000
      9          6.088730   1.000000
     10          8.229716   1.000000
     11          8.461591   1.000000
     12          8.669842   1.000000
     13          8.908052   1.000000
     14         11.716688   0.999999
     15         11.908485   0.282266
     16         11.918537   0.194768
     17         12.109520   0.000000
     18         17.572197   0.000000
     19         18.808349   0.000000
     20         19.982198   0.000000
     21         24.708562   0.000000
     22         24.872611   0.000000
     23         25.894496   0.000000
     24         28.862324   0.000000
 
  0.5000000E+00 -0.5551115E-16  0.0000000E+00  0.3750000E-02
      1        -41.099497   1.000000
      2        -41.047787   1.000000
      3        -40.786191   1.000000
      4        -40.710415   1.000000
      5        -40.702365   1.000000
      6        -40.577757   1.000000
      7          5.080916   1.000000
      8          5.191962   1.000000
      9          5.854643   1.000000
     10          8.319362   1.000000
     11          8.564402   1.000000
     12          8.785017   1.000000
     13          9.109051   1.000000
     14         11.918714   0.193396
     15         12.206708   0.000000
     16         12.425393   0.000000
     17         14.236399   0.000000
     18         15.772495   0.000000
     19         19.362429   0.000000
     20         20.932260   0.000000
     21         21.763659   0.000000
     22         24.051247   0.000000
     23         25.302647   0.000000
     24         28.257708   0.000000
 
  0.1000000E+00  0.1000000E+00  0.0000000E+00  0.7500000E-02
      1        -40.848483   1.000000
      2        -40.774594   1.000000
      3        -40.745022   1.000000
      4        -40.691212   1.000000
      5        -40.648178   1.000000
      6        -40.513425   1.000000
      7          2.830557   1.000000
      8          5.373385   1.000000
      9          7.353578   1.000000
     10          8.167025   1.000000
     11          8.318824   1.000000
     12          8.491438   1.000000
     13          9.156175   1.000000
     14          9.163870   1.000000
     15          9.540580   1.000000
     16          9.849288   1.000000
     17         11.759576   0.999861
     18         15.110077   0.000000
     19         16.747283   0.000000
     20         27.519720   0.000000
     21         28.306791   0.000000
     22         29.062642   0.000000
     23         30.113656   0.000000
     24         30.980888   0.000000
 
  0.2000000E+00  0.1000000E+00  0.0000000E+00  0.1500000E-01
      1        -40.887262   1.000000
      2        -40.857457   1.000000
      3        -40.802881   1.000000
      4        -40.734644   1.000000
      5        -40.681746   1.000000
      6        -40.528204   1.000000
      7          4.034404   1.000000
      8          5.996969   1.000000
      9          7.166706   1.000000
     10          7.213760   1.000000
     11          7.883171   1.000000
     12          8.638121   1.000000
     13          9.140289   1.000000
     14          9.460817   1.000000
     15         10.276825   1.000000
     16         10.710687   1.000000
     17         11.762682   0.999806
     18         16.769426   0.000000
     19         17.267948   0.000000
     20         24.404740   0.000000
     21         26.292010   0.000000
     22         28.215824   0.000000
     23         30.217608   0.000000
     24         31.075023   0.000000
 
  0.3000000E+00  0.1000000E+00  0.0000000E+00  0.1500000E-01
      1        -41.004127   1.000000
      2        -40.963266   1.000000
      3        -40.779987   1.000000
      4        -40.748285   1.000000
      5        -40.714181   1.000000
      6        -40.551711   1.000000
      7          5.102288   1.000000
      8          5.734528   1.000000
      9          6.395968   1.000000
     10          7.695583   1.000000
     11          8.324996   1.000000
     12          8.355056   1.000000
     13          8.941371   1.000000
     14         10.305739   1.000000
     15         11.430767   1.000000
     16         11.750009   0.999953
     17         12.219306   0.000000
     18         17.342916   0.000000
     19         19.455350   0.000000
     20         20.521519   0.000000
     21         24.122994   0.000000
     22         26.781949   0.000000
     23         27.429093   0.000000
     24         29.295096   0.000000
 
  0.4000000E+00  0.1000000E+00  0.0000000E+00  0.1500000E-01
      1        -41.076804   1.000000
      2        -41.027182   1.000000
      3        -40.807469   1.000000
      4        -40.734342   1.000000
      5        -40.703337   1.000000
      6        -40.577545   1.000000
      7          5.380014   1.000000
      8          5.483082   1.000000
      9          5.969473   1.000000
     10          8.268268   1.000000
     11          8.515543   1.000000
     12          8.523934   1.000000
     13          8.875813   1.000000
     14         11.619533   1.000000
     15         11.732357   0.999995
     16         12.026605   0.000045
     17         13.992878   0.000000
     18         17.038039   0.000000
     19         19.037542   0.000000
     20         21.142469   0.000000
     21         21.925624   0.000000
     22         24.314508   0.000000
     23         25.798013   0.000000
     24         28.183047   0.000000
 
  0.2000000E+00  0.2000000E+00  0.0000000E+00  0.7500000E-02
      1        -40.954100   1.000000
      2        -40.952086   1.000000
      3        -40.785814   1.000000
      4        -40.754726   1.000000
      5        -40.739777   1.000000
      6        -40.548622   1.000000
      7          5.275959   1.000000
      8          6.609836   1.000000
      9          6.625001   1.000000
     10          6.690236   1.000000
     11          8.113377   1.000000
     12          8.121355   1.000000
     13          9.145061   1.000000
     14          9.522139   1.000000
     15         11.412864   1.000000
     16         11.570399   1.000000
     17         12.304127   0.000000
     18         17.331355   0.000000
     19         19.341310   0.000000
     20         21.972542   0.000000
     21         22.873720   0.000000
     22         27.551199   0.000000
     23         29.052194   0.000000
     24         29.447433   0.000000
 
  0.3000000E+00  0.2000000E+00  0.0000000E+00  0.1500000E-01
      1        -41.024406   1.000000
      2        -40.990579   1.000000
      3        -40.844626   1.000000
      4        -40.788889   1.000000
      5        -40.703776   1.000000
      6        -40.577158   1.000000
      7          6.060834   1.000000
      8          6.199936   1.000000
      9          6.259754   1.000000
     10          7.472911   1.000000
     11          7.968860   1.000000
     12          8.629030   1.000000
     13          8.690065   1.000000
     14         10.363572   1.000000
     15         11.423516   1.000000
     16         11.884058   0.545682
     17         14.059950   0.000000
     18         18.336166   0.000000
     19         19.257542   0.000000
     20         20.851284   0.000000
     21         21.476762   0.000000
     22         25.995524   0.000000
     23         26.849106   0.000000
     24         27.960620   0.000000
 
  0.4000000E+00  0.2000000E+00  0.0000000E+00  0.7500000E-02
      1        -41.049765   1.000000
      2        -40.999724   1.000000
      3        -40.873281   1.000000
      4        -40.807176   1.000000
      5        -40.674711   1.000000
      6        -40.597311   1.000000
      7          6.055141   1.000000
      8          6.098272   1.000000
      9          6.176246   1.000000
     10          8.072902   1.000000
     11          8.115131   1.000000
     12          8.230879   1.000000
     13          8.971624   1.000000
     14         11.174052   1.000000
     15         11.369981   1.000000
     16         11.680885   1.000000
     17         15.669333   0.000000
     18         16.240535   0.000000
     19         19.534471   0.000000
     20         21.206941   0.000000
     21         22.698099   0.000000
     22         23.813004   0.000000
     23         26.186282   0.000000
     24         27.348042   0.000000
 
  0.3000000E+00  0.3000000E+00  0.0000000E+00  0.7500000E-02
      1        -41.007957   1.000000
      2        -40.970042   1.000000
      3        -40.916536   1.000000
      4        -40.868510   1.000000
      5        -40.658587   1.000000
      6        -40.610344   1.000000
      7          6.150815   1.000000
      8          6.624471   1.000000
      9          6.887778   1.000000
     10          7.349947   1.000000
     11          7.919524   1.000000
     12          8.204772   1.000000
     13          9.068624   1.000000
     14         10.747490   1.000000
     15         11.192334   1.000000
     16         11.509152   1.000000
     17         15.704245   0.000000
     18         16.965802   0.000000
     19         18.386492   0.000000
     20         22.099508   0.000000
     21         23.665653   0.000000
     22         24.941853   0.000000
     23         25.806609   0.000000
     24         26.133559   0.000000
 
  0.0000000E+00  0.0000000E+00  0.1250000E+00  0.2500000E-02
      1        -40.874222   1.000000
      2        -40.662201   1.000000
      3        -40.662201   1.000000
      4        -40.619963   1.000000
      5        -40.619962   1.000000
      6        -40.518659   1.000000
      7          1.889363   1.000000
      8          4.421582   1.000000
      9          7.678366   1.000000
     10          8.225835   1.000000
     11          8.225836   1.000000
     12          8.598467   1.000000
     13          8.598468   1.000000
     14         10.075021   1.000000
     15         10.075021   1.000000
     16         10.398195   1.000000
     17         11.637874   1.000000
     18         11.637874   1.000000
     19         17.719268   0.000000
     20         26.458058   0.000000
     21         28.125573   0.000000
     22         28.847586   0.000000
     23         32.653518   0.000000
     24         32.653518   0.000000
 
  0.1000000E+00 -0.2081668E-16  0.1250000E+00  0.1500000E-01
      1        -40.862028   1.000000
      2        -40.703646   1.000000
      3        -40.674567   1.000000
      4        -40.663294   1.000000
      5        -40.628515   1.000000
      6        -40.520289   1.000000
      7          2.261480   1.000000
      8          4.769092   1.000000
      9          7.644373   1.000000
     10          8.163561   1.000000
     11          8.368249   1.000000
     12          8.507588   1.000000
     13          8.871641   1.000000
     14          9.278237   1.000000
     15          9.911039   1.000000
     16          9.941228   1.000000
     17         11.694461   1.000000
     18         12.922486   0.000000
     19         17.796577   0.000000
     20         27.009471   0.000000
     21         28.593538   0.000000
     22         29.304673   0.000000
     23         30.936116   0.000000
     24         31.683033   0.000000
 
  0.2000000E+00 -0.4163336E-16  0.1250000E+00  0.1500000E-01
      1        -40.841938   1.000000
      2        -40.797553   1.000000
      3        -40.773421   1.000000
      4        -40.705512   1.000000
      5        -40.651288   1.000000
      6        -40.527479   1.000000
      7          3.262698   1.000000
      8          5.536193   1.000000
      9          7.430860   1.000000
     10          7.632491   1.000000
     11          7.958032   1.000000
     12          8.792625   1.000000
     13          9.190010   1.000000
     14          9.560754   1.000000
     15          9.624887   1.000000
     16          9.748148   1.000000
     17         11.780620   0.998819
     18         14.526939   0.000000
     19         18.174261   0.000000
     20         26.309978   0.000000
     21         28.553078   0.000000
     22         29.477031   0.000000
     23         29.523510   0.000000
     24         30.684213   0.000000
 
  0.3000000E+00  0.0000000E+00  0.1250000E+00  0.1500000E-01
      1        -40.952669   1.000000
      2        -40.908031   1.000000
      3        -40.768696   1.000000
      4        -40.742760   1.000000
      5        -40.679954   1.000000
      6        -40.542809   1.000000
      7          4.424203   1.000000
      8          5.665621   1.000000
      9          6.764585   1.000000
     10          7.501157   1.000000
     11          8.089621   1.000000
     12          8.972151   1.000000
     13          9.031163   1.000000
     14         10.193883   1.000000
     15         10.581650   1.000000
     16         10.758237   1.000000
     17         11.829629   0.950962
     18         15.673154   0.000000
     19         19.133943   0.000000
     20         22.774959   0.000000
     21         27.047470   0.000000
     22         27.114372   0.000000
     23         28.771018   0.000000
     24         30.635395   0.000000
 
  0.4000000E+00 -0.2775558E-16  0.1250000E+00  0.1500000E-01
      1        -41.059395   1.000000
      2        -41.013875   1.000000
      3        -40.772571   1.000000
      4        -40.719631   1.000000
      5        -40.704054   1.000000
      6        -40.565225   1.000000
      7          4.948576   1.000000
      8          5.308523   1.000000
      9          6.260519   1.000000
     10          7.553188   1.000000
     11          8.701183   1.000000
     12          8.759971   1.000000
     13          9.481664   1.000000
     14         11.634276   1.000000
     15         11.733066   0.999994
     16         12.017112   0.000132
     17         12.019090   0.000106
     18         16.685629   0.000000
     19         18.850237   0.000000
     20         20.822503   0.000000
     21         24.418078   0.000000
     22         25.164939   0.000000
     23         26.241535   0.000000
     24         29.076347   0.000000
 
  0.5000000E+00 -0.5551115E-16  0.1250000E+00  0.7500000E-02
      1        -41.100770   1.000000
      2        -41.052958   1.000000
      3        -40.783632   1.000000
      4        -40.713077   1.000000
      5        -40.694912   1.000000
      6        -40.579597   1.000000
      7          5.017370   1.000000
      8          5.113085   1.000000
      9          6.099799   1.000000
     10          7.617541   1.000000
     11          8.659955   1.000000
     12          8.860331   1.000000
     13          9.949553   1.000000
     14         11.725680   0.999998
     15         12.228703   0.000000
     16         12.417883   0.000000
     17         13.977781   0.000000
     18         15.648532   0.000000
     19         19.235710   0.000000
     20         20.029907   0.000000
     21         22.922694   0.000000
     22         24.358853   0.000000
     23         25.438743   0.000000
     24         28.538456   0.000000
 
  0.1000000E+00  0.1000000E+00  0.1250000E+00  0.1500000E-01
      1        -40.841973   1.000000
      2        -40.767476   1.000000
      3        -40.746605   1.000000
      4        -40.690814   1.000000
      5        -40.650007   1.000000
      6        -40.524556   1.000000
      7          2.958228   1.000000
      8          5.378846   1.000000
      9          7.386957   1.000000
     10          7.861031   1.000000
     11          8.248408   1.000000
     12          8.483219   1.000000
     13          9.082366   1.000000
     14          9.315417   1.000000
     15          9.629939   1.000000
     16          9.928351   1.000000
     17         11.705358   1.000000
     18         14.155015   0.000000
     19         18.030806   0.000000
     20         27.444002   0.000000
     21         28.363369   0.000000
     22         29.026659   0.000000
     23         29.661702   0.000000
     24         31.238569   0.000000
 
  0.2000000E+00  0.1000000E+00  0.1250000E+00  0.3000000E-01
      1        -40.892809   1.000000
      2        -40.861110   1.000000
      3        -40.785172   1.000000
      4        -40.733584   1.000000
      5        -40.684256   1.000000
      6        -40.536135   1.000000
      7          4.126770   1.000000
      8          6.035237   1.000000
      9          7.029615   1.000000
     10          7.237152   1.000000
     11          7.846273   1.000000
     12          8.537936   1.000000
     13          9.292326   1.000000
     14          9.450405   1.000000
     15         10.394756   1.000000
     16         10.654242   1.000000
     17         11.707914   1.000000
     18         15.394093   0.000000
     19         18.800366   0.000000
     20         24.590366   0.000000
     21         26.424810   0.000000
     22         28.182207   0.000000
     23         29.680783   0.000000
     24         31.624154   0.000000
 
  0.3000000E+00  0.1000000E+00  0.1250000E+00  0.3000000E-01
      1        -41.006430   1.000000
      2        -40.967673   1.000000
      3        -40.778936   1.000000
      4        -40.736440   1.000000
      5        -40.716444   1.000000
      6        -40.556257   1.000000
      7          5.077785   1.000000
      8          5.771912   1.000000
      9          6.471300   1.000000
     10          7.397488   1.000000
     11          8.306098   1.000000
     12          8.703808   1.000000
     13          8.957338   1.000000
     14         10.322473   1.000000
     15         11.480910   1.000000
     16         11.544195   1.000000
     17         12.285867   0.000000
     18         16.509472   0.000000
     19         19.722937   0.000000
     20         21.300330   0.000000
     21         24.256761   0.000000
     22         26.447935   0.000000
     23         27.569053   0.000000
     24         29.525784   0.000000
 
  0.4000000E+00  0.1000000E+00  0.1250000E+00  0.3000000E-01
      1        -41.077841   1.000000
      2        -41.031779   1.000000
      3        -40.805674   1.000000
      4        -40.737848   1.000000
      5        -40.694243   1.000000
      6        -40.578788   1.000000
      7          5.256593   1.000000
      8          5.451557   1.000000
      9          6.252186   1.000000
     10          7.556574   1.000000
     11          8.384759   1.000000
     12          8.990650   1.000000
     13          9.404264   1.000000
     14         11.502969   1.000000
     15         11.625440   1.000000
     16         12.072787   0.000000
     17         13.940297   0.000000
     18         16.816808   0.000000
     19         18.708433   0.000000
     20         21.059888   0.000000
     21         22.409393   0.000000
     22         24.583761   0.000000
     23         26.008444   0.000000
     24         28.296443   0.000000
 
  0.2000000E+00  0.2000000E+00  0.1250000E+00  0.1500000E-01
      1        -40.956613   1.000000
      2        -40.955561   1.000000
      3        -40.785743   1.000000
      4        -40.750595   1.000000
      5        -40.733376   1.000000
      6        -40.552924   1.000000
      7          5.307152   1.000000
      8          6.442071   1.000000
      9          6.709274   1.000000
     10          6.799912   1.000000
     11          8.107814   1.000000
     12          8.122384   1.000000
     13          9.019419   1.000000
     14          9.681460   1.000000
     15         11.339187   1.000000
     16         11.532043   1.000000
     17         12.383165   0.000000
     18         16.520610   0.000000
     19         19.960257   0.000000
     20         22.443899   0.000000
     21         23.046313   0.000000
     22         27.438574   0.000000
     23         28.202278   0.000000
     24         30.125622   0.000000
 
  0.3000000E+00  0.2000000E+00  0.1250000E+00  0.3000000E-01
      1        -41.025359   1.000000
      2        -40.994635   1.000000
      3        -40.844947   1.000000
      4        -40.792686   1.000000
      5        -40.693442   1.000000
      6        -40.577770   1.000000
      7          5.874893   1.000000
      8          6.271221   1.000000
      9          6.451573   1.000000
     10          7.253841   1.000000
     11          8.122612   1.000000
     12          8.521979   1.000000
     13          8.834141   1.000000
     14         10.428185   1.000000
     15         11.204889   1.000000
     16         11.995601   0.001182
     17         14.106011   0.000000
     18         18.374794   0.000000
     19         18.559938   0.000000
     20         20.943073   0.000000
     21         22.304557   0.000000
     22         25.491398   0.000000
     23         26.860687   0.000000
     24         28.099260   0.000000
 
  0.4000000E+00  0.2000000E+00  0.1250000E+00  0.1500000E-01
      1        -41.050232   1.000000
      2        -41.004365   1.000000
      3        -40.873241   1.000000
      4        -40.811061   1.000000
      5        -40.667112   1.000000
      6        -40.596115   1.000000
      7          5.804384   1.000000
      8          6.147150   1.000000
      9          6.548224   1.000000
     10          7.485134   1.000000
     11          7.970686   1.000000
     12          8.723075   1.000000
     13          9.145776   1.000000
     14         11.142749   1.000000
     15         11.201350   1.000000
     16         11.762495   0.999810
     17         15.747843   0.000000
     18         16.273230   0.000000
     19         19.648113   0.000000
     20         20.891478   0.000000
     21         21.864965   0.000000
     22         24.906063   0.000000
     23         26.449691   0.000000
     24         26.665690   0.000000
 
  0.3000000E+00  0.3000000E+00  0.1250000E+00  0.1500000E-01
      1        -41.006894   1.000000
      2        -40.974498   1.000000
      3        -40.919063   1.000000
      4        -40.872378   1.000000
      5        -40.651597   1.000000
      6        -40.607584   1.000000
      7          6.189885   1.000000
      8          6.600795   1.000000
      9          6.919633   1.000000
     10          7.224129   1.000000
     11          8.058208   1.000000
     12          8.101071   1.000000
     13          9.077651   1.000000
     14         10.845668   1.000000
     15         10.963344   1.000000
     16         11.611024   1.000000
     17         15.804064   0.000000
     18         17.113251   0.000000
     19         18.655857   0.000000
     20         21.211069   0.000000
     21         23.898161   0.000000
     22         23.962148   0.000000
     23         25.879238   0.000000
     24         27.165718   0.000000
 
  0.0000000E+00  0.0000000E+00  0.2500000E+00  0.2500000E-02
      1        -40.832967   1.000000
      2        -40.657466   1.000000
      3        -40.657465   1.000000
      4        -40.625057   1.000000
      5        -40.625056   1.000000
      6        -40.560836   1.000000
      7          2.289539   1.000000
      8          4.333484   1.000000
      9          7.596189   1.000000
     10          8.192456   1.000000
     11          8.192457   1.000000
     12          8.491518   1.000000
     13          8.491518   1.000000
     14          9.227256   1.000000
     15         10.348050   1.000000
     16         10.348050   1.000000
     17         11.539117   1.000000
     18         11.539117   1.000000
     19         19.655240   0.000000
     20         25.965173   0.000000
     21         28.208483   0.000000
     22         28.521317   0.000000
     23         32.079230   0.000000
     24         32.079230   0.000000
 
  0.1000000E+00 -0.2081668E-16  0.2500000E+00  0.1500000E-01
      1        -40.825540   1.000000
      2        -40.695819   1.000000
      3        -40.671417   1.000000
      4        -40.668963   1.000000
      5        -40.633874   1.000000
      6        -40.556977   1.000000
      7          2.654528   1.000000
      8          4.696046   1.000000
      9          7.627266   1.000000
     10          8.000622   1.000000
     11          8.079090   1.000000
     12          8.459758   1.000000
     13          8.758297   1.000000
     14          8.867517   1.000000
     15         10.219575   1.000000
     16         10.221625   1.000000
     17         11.564317   1.000000
     18         12.195350   0.000000
     19         19.800841   0.000000
     20         26.512806   0.000000
     21         28.669728   0.000000
     22         28.935092   0.000000
     23         30.654373   0.000000
     24         31.577100   0.000000
 
  0.2000000E+00 -0.4163336E-16  0.2500000E+00  0.1500000E-01
      1        -40.841528   1.000000
      2        -40.786470   1.000000
      3        -40.756399   1.000000
      4        -40.699129   1.000000
      5        -40.657449   1.000000
      6        -40.556607   1.000000
      7          3.609049   1.000000
      8          5.520584   1.000000
      9          7.233670   1.000000
     10          7.547641   1.000000
     11          7.716223   1.000000
     12          8.583846   1.000000
     13          9.102769   1.000000
     14          9.485971   1.000000
     15         10.070643   1.000000
     16         10.094517   1.000000
     17         11.590739   1.000000
     18         13.261793   0.000000
     19         20.230162   0.000000
     20         26.574628   0.000000
     21         28.078579   0.000000
     22         28.881012   0.000000
     23         29.952812   0.000000
     24         30.892027   0.000000
 
  0.3000000E+00  0.0000000E+00  0.2500000E+00  0.1500000E-01
      1        -40.957276   1.000000
      2        -40.919792   1.000000
      3        -40.735399   1.000000
      4        -40.732581   1.000000
      5        -40.687480   1.000000
      6        -40.563395   1.000000
      7          4.582380   1.000000