       N       E                     dE             d eps       ncg     rms          rms(c)
DAV:   1     0.139889060252E+03    0.13989E+03   -0.23171E+04  3384   0.127E+03
DAV:   2    -0.114454544913E+02   -0.15133E+03   -0.15075E+03  3504   0.277E+02
DAV:   3    -0.126959797897E+02   -0.12505E+01   -0.12446E+01  4464   0.324E+01
DAV:   4    -0.126997064324E+02   -0.37266E-02   -0.37265E-02  4896   0.146E+00
DAV:   5    -0.126997081407E+02   -0.17084E-05   -0.17092E-05  4632   0.248E-02    0.217E+01
DAV:   6    -0.120436045467E+02    0.65610E+00   -0.24332E+00  3528   0.992E+00    0.712E+00
DAV:   7    -0.120063220902E+02    0.37282E-01   -0.16874E-01  4536   0.222E+00    0.203E+00
DAV:   8    -0.120038082970E+02    0.25138E-02   -0.75910E-03  3840   0.934E-01    0.311E-01
DAV:   9    -0.120036214685E+02    0.18683E-03   -0.24734E-04  4296   0.104E-01    0.351E-02
DAV:  10    -0.120036343348E+02   -0.12866E-04   -0.10639E-05  4200   0.249E-02    0.107E-02
DAV:  11    -0.120036337413E+02    0.59352E-06   -0.10113E-06  3456   0.803E-03
   1 F= -.12003634E+02 E0= -.12001432E+02  d E =-.120036E+02
