PROCAR lm decomposed
# of k-points:   70         # of bands:   24         # of ions:    2

 k-point     1 :    0.00000000 0.00000000 0.00000000     weight = 0.00125000

band     1 # energy  -40.88808558 # occ.  2.00000000
 
ion      s     py     pz     px    dxy    dyz    dz2    dxz  x2-y2    tot
    1  0.000  0.000  0.491  0.000  0.000  0.000  0.000  0.000  0.000  0.491
    2  0.000  0.000  0.491  0.000  0.000  0.000  0.000  0.000  0.000  0.491
tot    0.000  0.000  0.982  0.000  0.000  0.000  0.000  0.000  0.000  0.982
 
band     2 # energy  -40.66398149 # occ.  2.00000000
 
ion      s     py     pz     px    dxy    dyz    dz2    dxz  x2-y2    tot
    1  0.000  0.124  0.000  0.373  0.000  0.000  0.000  0.000  0.000  0.498
    2  0.000  0.124  0.000  0.373  0.000  0.000  0.000  0.000  0.000  0.498
tot    0.000  0.249  0.000  0.747  0.000  0.000  0.000  0.000  0.000  0.996
 
band     3 # energy  -40.66398054 # occ.  2.00000000
 
ion      s     py     pz     px    dxy    dyz    dz2    dxz  x2-y2    tot
    1  0.000  0.373  0.000  0.124  0.000  0.000  0.000  0.000  0.000  0.498
    2  0.000  0.373  0.000  0.124  0.000  0.000  0.000  0.000  0.000  0.498
tot    0.000  0.747  0.000  0.249  0.000  0.000  0.000  0.000  0.000  0.996
 
band     4 # energy  -40.61826585 # occ.  2.00000000
 
ion      s     py     pz     px    dxy    dyz    dz2    dxz  x2-y2    tot
    1  0.000  0.125  0.000  0.374  0.000  0.000  0.000  0.000  0.000  0.499
    2  0.000  0.125  0.000  0.374  0.000  0.000  0.000  0.000  0.000  0.499
tot    0.000  0.249  0.000  0.748  0.000  0.000  0.000  0.000  0.000  0.997
 
band     5 # energy  -40.61826490 # occ.  2.00000000
 
ion      s     py     pz     px    dxy    dyz    dz2    dxz  x2-y2    tot
    1  0.000  0.374  0.000  0.125  0.000  0.000  0.000  0.000  0.000  0.499
    2  0.000  0.374  0.000  0.125  0.000  0.000  0.000  0.000  0.000  0.499
tot    0.000  0.748  0.000  0.249  0.000  0.000  0.000  0.000  0.000  0.997
 
band     6 # energy  -40.50402891 # occ.  2.00000000
 
ion      s     py     pz     px    dxy    dyz    dz2    dxz  x2-y2    tot
    1  0.000  0.000  0.498  0.000  0.000  0.000  0.000  0.000  0.000  0.498
    2  0.000  0.000  0.498  0.000  0.000  0.000  0.000  0.000  0.000  0.498
tot    0.000  0.000  0.996  0.000  0.000  0.000  0.000  0.000  0.000  0.996
 
band     7 # energy    1.74994005 # occ.  2.00000000
 
ion      s     py     pz     px    dxy    dyz    dz2    dxz  x2-y2    tot
    1  0.200  0.000  0.000  0.000  0.000  0.000  0.000  0.000  0.000  0.200
    2  0.200  0.000  0.000  0.000  0.000  0.000  0.000  0.000  0.000  0.200
tot    0.400  0.000  0.000  0.000  0.000  0.000  0.001  0.000  0.000  0.401
 
band     8 # energy    4.43852375 # occ.  2.00000000
 
ion      s     py     pz     px    dxy    dyz    dz2    dxz  x2-y2    tot
    1  0.083  0.000  0.000  0.000  0.000  0.000  0.235  0.000  0.000  0.318
    2  0.083  0.000  0.000  0.000  0.000  0.000  0.235  0.000  0.000  0.318
tot    0.167  0.000  0.000  0.000  0.000  0.000  0.469  0.000  0.000  0.636
 
band     9 # energy    7.71444266 # occ.  2.00000000
 
ion      s     py     pz     px    dxy    dyz    dz2    dxz  x2-y2    tot
    1  0.000  0.000  0.000  0.000  0.000  0.000  0.415  0.000  0.000  0.415
    2  0.000  0.000  0.000  0.000  0.000  0.000  0.415  0.000  0.000  0.415
tot    0.000  0.000  0.000  0.000  0.000  0.000  0.830  0.000  0.000  0.830
 
band    10 # energy    8.24674144 # occ.  2.00000000
 
ion      s     py     pz     px    dxy    dyz    dz2    dxz  x2-y2    tot
    1  0.000  0.000  0.000  0.000  0.106  0.000  0.000  0.000  0.318  0.424
    2  0.000  0.000  0.000  0.000  0.106  0.000  0.000  0.000  0.318  0.424
tot    0.000  0.000  0.000  0.000  0.212  0.000  0.000  0.000  0.635  0.847
 
band    11 # energy    8.24674214 # occ.  2.00000000
 
ion      s     py     pz     px    dxy    dyz    dz2    dxz  x2-y2    tot
    1  0.000  0.000  0.000  0.000  0.318  0.000  0.000  0.000  0.106  0.424
    2  0.000  0.000  0.000  0.000  0.318  0.000  0.000  0.000  0.106  0.424
tot    0.000  0.000  0.000  0.000  0.635  0.000  0.000  0.000  0.212  0.847
 
band    12 # energy    8.64016305 # occ.  2.00000000
 
ion      s     py     pz     px    dxy    dyz    dz2    dxz  x2-y2    tot
    1  0.000  0.000  0.000  0.000  0.108  0.000  0.000  0.000  0.325  0.434
    2  0.000  0.000  0.000  0.000  0.108  0.000  0.000  0.000  0.325  0.434
tot    0.000  0.000  0.000  0.000  0.217  0.000  0.000  0.000  0.650  0.867
 
band    13 # energy    8.64016377 # occ.  2.00000000
 
ion      s     py     pz     px    dxy    dyz    dz2    dxz  x2-y2    tot
    1  0.000  0.000  0.000  0.000  0.325  0.000  0.000  0.000  0.108  0.434
    2  0.000  0.000  0.000  0.000  0.325  0.000  0.000  0.000  0.108  0.434
tot    0.000  0.000  0.000  0.000  0.650  0.000  0.000  0.000  0.217  0.867
 
band    14 # energy    9.96944908 # occ.  2.00000000
 
ion      s     py     pz     px    dxy    dyz    dz2    dxz  x2-y2    tot
    1  0.000  0.000  0.000  0.000  0.000  0.111  0.000  0.334  0.000  0.445
    2  0.000  0.000  0.000  0.000  0.000  0.111  0.000  0.334  0.000  0.445
tot    0.000  0.000  0.000  0.000  0.000  0.223  0.000  0.668  0.000  0.891
 
band    15 # energy    9.96944926 # occ.  2.00000000
 
ion      s     py     pz     px    dxy    dyz    dz2    dxz  x2-y2    tot
    1  0.000  0.000  0.000  0.000  0.000  0.334  0.000  0.111  0.000  0.445
    2  0.000  0.000  0.000  0.000  0.000  0.334  0.000  0.111  0.000  0.445
tot    0.000  0.000  0.000  0.000  0.000  0.668  0.000  0.223  0.000  0.891
 
band    16 # energy   11.01519925 # occ.  2.00000000
 
ion      s     py     pz     px    dxy    dyz    dz2    dxz  x2-y2    tot
    1  0.000  0.000  0.089  0.000  0.000  0.000  0.000  0.000  0.000  0.089
    2  0.000  0.000  0.089  0.000  0.000  0.000  0.000  0.000  0.000  0.089
tot    0.000  0.000  0.179  0.000  0.000  0.000  0.000  0.000  0.000  0.179
 
band    17 # energy   11.66616478 # occ.  2.00000000
 
ion      s     py     pz     px    dxy    dyz    dz2    dxz  x2-y2    tot
    1  0.000  0.000  0.000  0.000  0.000  0.117  0.000  0.350  0.000  0.466
    2  0.000  0.000  0.000  0.000  0.000  0.117  0.000  0.350  0.000  0.466
tot    0.000  0.000  0.000  0.000  0.000  0.233  0.000  0.699  0.000  0.932
 
band    18 # energy   11.66616498 # occ.  2.00000000
 
ion      s     py     pz     px    dxy    dyz    dz2    dxz  x2-y2    tot
    1  0.000  0.000  0.000  0.000  0.000  0.350  0.000  0.117  0.000  0.466
    2  0.000  0.000  0.000  0.000  0.000  0.350  0.000  0.117  0.000  0.466
tot    0.000  0.000  0.000  0.000  0.000  0.699  0.000  0.233  0.000  0.932
 
band    19 # energy   16.85283614 # occ.  0.00000000
 
ion      s     py     pz     px    dxy    dyz    dz2    dxz  x2-y2    tot
    1  0.181  0.000  0.000  0.000  0.000  0.000  0.226  0.000  0.000  0.407
    2  0.181  0.000  0.000  0.000  0.000  0.000  0.226  0.000  0.000  0.407
tot    0.363  0.000  0.000  0.000  0.000  0.000  0.452  0.000  0.000  0.814
 
band    20 # energy   26.91014141 # occ.  0.00000000
 
ion      s     py     pz     px    dxy    dyz    dz2    dxz  x2-y2    tot
    1  0.003  0.000  0.000  0.000  0.000  0.000  0.002  0.000  0.000  0.005
    2  0.003  0.000  0.000  0.000  0.000  0.000  0.002  0.000  0.000  0.005
tot    0.006  0.000  0.000  0.000  0.000  0.000  0.004  0.000  0.000  0.011
 
band    21 # energy   27.58438142 # occ.  0.00000000
 
ion      s     py     pz     px    dxy    dyz    dz2    dxz  x2-y2    tot
    1  0.000  0.000  0.020  0.000  0.000  0.000  0.000  0.000  0.000  0.020
    2  0.000  0.000  0.020  0.000  0.000  0.000  0.000  0.000  0.000  0.020
tot    0.000  0.000  0.039  0.000  0.000  0.000  0.000  0.000  0.000  0.039
 
band    22 # energy   29.14579273 # occ.  0.00000000
 
ion      s     py     pz     px    dxy    dyz    dz2    dxz  x2-y2    tot
    1  0.000  0.000  0.000  0.000  0.000  0.000  0.017  0.000  0.000  0.018
    2  0.000  0.000  0.000  0.000  0.000  0.000  0.017  0.000  0.000  0.018
tot    0.000  0.000  0.000  0.000  0.000  0.000  0.035  0.000  0.000  0.035
 
band    23 # energy   33.33531243 # occ.  0.00000000
 
ion      s     py     pz     px    dxy    dyz    dz2    dxz  x2-y2    tot
    1  0.000  0.033  0.000  0.095  0.016  0.000  0.000  0.000  0.006  0.149
    2  0.000  0.033  0.000  0.095  0.016  0.000  0.000  0.000  0.006  0.149
tot    0.000  0.065  0.000  0.189  0.032  0.000  0.000  0.000  0.011  0.298
 
band    24 # energy   33.33531270 # occ.  0.00000000
 
ion      s     py     pz     px    dxy    dyz    dz2    dxz  x2-y2    tot
    1  0.000  0.095  0.000  0.033  0.006  0.000  0.000  0.000  0.016  0.149
    2  0.000  0.095  0.000  0.033  0.006  0.000  0.000  0.000  0.016  0.149
tot    0.000  0.189  0.000  0.065  0.011  0.000  0.000  0.000  0.032  0.298
 

 k-point     2 :    0.10000000-0.00000000 0.00000000     weight = 0.00750000

band     1 # energy  -40.87465723 # occ.  2.00000000
 
ion      s     py     pz     px    dxy    dyz    dz2    dxz  x2-y2    tot
    1  0.000  0.000  0.491  0.000  0.000  0.000  0.000  0.000  0.000  0.491
    2  0.000  0.000  0.491  0.000  0.000  0.000  0.000  0.000  0.000  0.491
tot    0.000  0.000  0.983  0.000  0.000  0.000  0.000  0.000  0.000  0.983
 
band     2 # energy  -40.70652034 # occ.  2.00000000
 
ion      s     py     pz     px    dxy    dyz    dz2    dxz  x2-y2    tot
    1  0.000  0.124  0.000  0.373  0.000  0.000  0.000  0.000  0.000  0.497
    2  0.000  0.124  0.000  0.373  0.000  0.000  0.000  0.000  0.000  0.497
tot    0.000  0.249  0.000  0.746  0.000  0.000  0.000  0.000  0.000  0.995
 
band     3 # energy  -40.67673532 # occ.  2.00000000
 
ion      s     py     pz     px    dxy    dyz    dz2    dxz  x2-y2    tot
    1  0.000  0.373  0.000  0.124  0.000  0.000  0.000  0.000  0.000  0.498
    2  0.000  0.373  0.000  0.124  0.000  0.000  0.000  0.000  0.000  0.498
tot    0.000  0.747  0.000  0.249  0.000  0.000  0.000  0.000  0.000  0.995
 
band     4 # energy  -40.66100043 # occ.  2.00000000
 
ion      s     py     pz     px    dxy    dyz    dz2    dxz  x2-y2    tot
    1  0.000  0.124  0.000  0.373  0.000  0.000  0.000  0.000  0.000  0.498
    2  0.000  0.124  0.000  0.373  0.000  0.000  0.000  0.000  0.000  0.498
tot    0.000  0.249  0.000  0.747  0.000  0.000  0.000  0.000  0.000  0.996
 
band     5 # energy  -40.62683006 # occ.  2.00000000
 
ion      s     py     pz     px    dxy    dyz    dz2    dxz  x2-y2    tot
    1  0.000  0.374  0.000  0.125  0.000  0.000  0.000  0.000  0.000  0.499
    2  0.000  0.374  0.000  0.125  0.000  0.000  0.000  0.000  0.000  0.498
tot    0.000  0.748  0.000  0.249  0.000  0.000  0.000  0.000  0.000  0.997
 
band     6 # energy  -40.50721467 # occ.  2.00000000
 
ion      s     py     pz     px    dxy    dyz    dz2    dxz  x2-y2    tot
    1  0.000  0.000  0.498  0.000  0.000  0.000  0.000  0.000  0.000  0.498
    2  0.000  0.000  0.498  0.000  0.000  0.000  0.000  0.000  0.000  0.498
tot    0.000  0.000  0.995  0.000  0.000  0.000  0.000  0.000  0.000  0.995
 
band     7 # energy    2.12492891 # occ.  2.00000000
 
ion      s     py     pz     px    dxy    dyz    dz2    dxz  x2-y2    tot
    1  0.196  0.001  0.000  0.002  0.000  0.000  0.000  0.000  0.000  0.199
    2  0.196  0.001  0.000  0.002  0.000  0.000  0.000  0.000  0.000  0.199
tot    0.391  0.001  0.000  0.004  0.001  0.000  0.000  0.000  0.000  0.397
 
band     8 # energy    4.77934334 # occ.  2.00000000
 
ion      s     py     pz     px    dxy    dyz    dz2    dxz  x2-y2    tot
    1  0.076  0.001  0.000  0.002  0.002  0.000  0.238  0.000  0.001  0.319
    2  0.076  0.001  0.000  0.002  0.002  0.000  0.238  0.000  0.001  0.319
tot    0.153  0.001  0.000  0.003  0.004  0.000  0.477  0.000  0.001  0.639
 
band     9 # energy    7.64112076 # occ.  2.00000000
 
ion      s     py     pz     px    dxy    dyz    dz2    dxz  x2-y2    tot
    1  0.000  0.000  0.000  0.000  0.117  0.000  0.254  0.000  0.039  0.410
    2  0.000  0.000  0.000  0.000  0.117  0.000  0.254  0.000  0.039  0.410
tot    0.000  0.000  0.000  0.001  0.233  0.000  0.509  0.000  0.078  0.821
 
band    10 # energy    8.25697884 # occ.  2.00000000
 
ion      s     py     pz     px    dxy    dyz    dz2    dxz  x2-y2    tot
    1  0.000  0.000  0.000  0.000  0.211  0.000  0.139  0.000  0.070  0.421
    2  0.000  0.000  0.000  0.000  0.211  0.000  0.139  0.000  0.070  0.421
tot    0.000  0.000  0.000  0.001  0.423  0.000  0.278  0.000  0.141  0.842
 
band    11 # energy    8.48073206 # occ.  2.00000000
 
ion      s     py     pz     px    dxy    dyz    dz2    dxz  x2-y2    tot
    1  0.002  0.000  0.000  0.000  0.300  0.000  0.024  0.000  0.100  0.426
    2  0.002  0.000  0.000  0.000  0.300  0.000  0.024  0.000  0.100  0.426
tot    0.003  0.000  0.000  0.001  0.599  0.000  0.049  0.000  0.200  0.853
 
band    12 # energy    8.53792799 # occ.  2.00000000
 
ion      s     py     pz     px    dxy    dyz    dz2    dxz  x2-y2    tot
    1  0.000  0.000  0.000  0.000  0.106  0.000  0.000  0.000  0.319  0.425
    2  0.000  0.000  0.000  0.000  0.106  0.000  0.000  0.000  0.319  0.425
tot    0.000  0.001  0.000  0.000  0.212  0.000  0.000  0.000  0.637  0.851
 
band    13 # energy    8.91769035 # occ.  2.00000000
 
ion      s     py     pz     px    dxy    dyz    dz2    dxz  x2-y2    tot
    1  0.000  0.000  0.000  0.000  0.109  0.000  0.000  0.000  0.326  0.435
    2  0.000  0.000  0.000  0.000  0.109  0.000  0.000  0.000  0.326  0.435
tot    0.000  0.001  0.000  0.000  0.217  0.000  0.000  0.000  0.652  0.870
 
band    14 # energy    9.33247826 # occ.  2.00000000
 
ion      s     py     pz     px    dxy    dyz    dz2    dxz  x2-y2    tot
    1  0.000  0.000  0.022  0.000  0.000  0.078  0.000  0.235  0.000  0.335
    2  0.000  0.000  0.022  0.000  0.000  0.078  0.000  0.235  0.000  0.335
tot    0.000  0.000  0.045  0.000  0.000  0.156  0.000  0.469  0.000  0.671
 
band    15 # energy    9.78621548 # occ.  2.00000000
 
ion      s     py     pz     px    dxy    dyz    dz2    dxz  x2-y2    tot
    1  0.000  0.000  0.000  0.000  0.000  0.331  0.000  0.110  0.000  0.441
    2  0.000  0.000  0.000  0.000  0.000  0.331  0.000  0.110  0.000  0.441
tot    0.000  0.000  0.000  0.000  0.000  0.661  0.000  0.220  0.000  0.882
 
band    16 # energy    9.93075444 # occ.  2.00000000
 
ion      s     py     pz     px    dxy    dyz    dz2    dxz  x2-y2    tot
    1  0.000  0.000  0.020  0.000  0.000  0.085  0.000  0.255  0.000  0.360
    2  0.000  0.000  0.020  0.000  0.000  0.085  0.000  0.255  0.000  0.360
tot    0.000  0.000  0.040  0.000  0.000  0.170  0.000  0.510  0.000  0.720
 
band    17 # energy   11.73475481 # occ.  1.99998560
 
ion      s     py     pz     px    dxy    dyz    dz2    dxz  x2-y2    tot
    1  0.000  0.000  0.000  0.000  0.000  0.352  0.000  0.117  0.000  0.469
    2  0.000  0.000  0.000  0.000  0.000  0.352  0.000  0.117  0.000  0.469
tot    0.000  0.000  0.000  0.000  0.000  0.703  0.000  0.234  0.000  0.938
 
band    18 # energy   13.44966219 # occ.  0.00000000
 
ion      s     py     pz     px    dxy    dyz    dz2    dxz  x2-y2    tot
    1  0.000  0.000  0.048  0.000  0.000  0.063  0.000  0.188  0.000  0.299
    2  0.000  0.000  0.048  0.000  0.000  0.063  0.000  0.188  0.000  0.299
tot    0.000  0.000  0.095  0.000  0.000  0.126  0.000  0.377  0.000  0.598
 
band    19 # energy   16.81046458 # occ.  0.00000000
 
ion      s     py     pz     px    dxy    dyz    dz2    dxz  x2-y2    tot
    1  0.182  0.000  0.000  0.001  0.002  0.000  0.217  0.000  0.001  0.403
    2  0.182  0.000  0.000  0.001  0.002  0.000  0.217  0.000  0.001  0.403
tot    0.365  0.000  0.000  0.001  0.003  0.000  0.435  0.000  0.001  0.806
 
band    20 # energy   27.41383061 # occ.  0.00000000
 
ion      s     py     pz     px    dxy    dyz    dz2    dxz  x2-y2    tot
    1  0.005  0.001  0.000  0.002  0.017  0.000  0.003  0.000  0.006  0.033
    2  0.005  0.001  0.000  0.002  0.017  0.000  0.003  0.000  0.006  0.033
tot    0.010  0.001  0.000  0.004  0.034  0.000  0.005  0.000  0.011  0.066
 
band    21 # energy   28.13138382 # occ.  0.00000000
 
ion      s     py     pz     px    dxy    dyz    dz2    dxz  x2-y2    tot
    1  0.000  0.000  0.017  0.000  0.000  0.002  0.000  0.006  0.000  0.025
    2  0.000  0.000  0.017  0.000  0.000  0.002  0.000  0.006  0.000  0.025
tot    0.000  0.000  0.034  0.000  0.000  0.004  0.000  0.011  0.000  0.049
 
band    22 # energy   29.57853990 # occ.  0.00000000
 
ion      s     py     pz     px    dxy    dyz    dz2    dxz  x2-y2    tot
    1  0.002  0.003  0.000  0.009  0.016  0.000  0.023  0.000  0.005  0.058
    2  0.002  0.003  0.000  0.009  0.016  0.000  0.023  0.000  0.005  0.058
tot    0.004  0.006  0.000  0.018  0.032  0.000  0.047  0.000  0.011  0.117
 
band    23 # energy   31.60996465 # occ.  0.00000000
 
ion      s     py     pz     px    dxy    dyz    dz2    dxz  x2-y2    tot
    1  0.007  0.025  0.000  0.075  0.013  0.000  0.002  0.000  0.004  0.126
    2  0.007  0.025  0.000  0.075  0.013  0.000  0.002  0.000  0.004  0.126
tot    0.014  0.050  0.000  0.149  0.025  0.000  0.005  0.000  0.008  0.251
 
band    24 # energy   31.80444202 # occ.  0.00000000
 
ion      s     py     pz     px    dxy    dyz    dz2    dxz  x2-y2    tot
    1  0.000  0.086  0.000  0.029  0.010  0.000  0.000  0.000  0.029  0.154
    2  0.000  0.086  0.000  0.029  0.010  0.000  0.000  0.000  0.029  0.154
tot    0.000  0.173  0.000  0.058  0.019  0.000  0.000  0.000  0.058  0.307
 

 k-point     3 :    0.20000000-0.00000000 0.00000000     weight = 0.00750000

band     1 # energy  -40.83642059 # occ.  2.00000000
 
ion      s     py     pz     px    dxy    dyz    dz2    dxz  x2-y2    tot
    1  0.000  0.000  0.492  0.000  0.000  0.000  0.000  0.000  0.000  0.492
    2  0.000  0.000  0.492  0.000  0.000  0.000  0.000  0.000  0.000  0.492
tot    0.000  0.000  0.984  0.000  0.000  0.000  0.000  0.000  0.000  0.984
 
band     2 # energy  -40.81546862 # occ.  2.00000000
 
ion      s     py     pz     px    dxy    dyz    dz2    dxz  x2-y2    tot
    1  0.000  0.124  0.000  0.372  0.000  0.000  0.000  0.000  0.000  0.496
    2  0.000  0.124  0.000  0.372  0.000  0.000  0.000  0.000  0.000  0.496
tot    0.000  0.248  0.000  0.743  0.000  0.000  0.000  0.000  0.000  0.991
 
band     3 # energy  -40.76996219 # occ.  2.00000000
 
ion      s     py     pz     px    dxy    dyz    dz2    dxz  x2-y2    tot
    1  0.000  0.124  0.000  0.372  0.000  0.000  0.000  0.000  0.000  0.496
    2  0.000  0.124  0.000  0.372  0.000  0.000  0.000  0.000  0.000  0.496
tot    0.000  0.248  0.000  0.744  0.000  0.000  0.000  0.000  0.000  0.992
 
band     4 # energy  -40.70777731 # occ.  2.00000000
 
ion      s     py     pz     px    dxy    dyz    dz2    dxz  x2-y2    tot
    1  0.000  0.373  0.000  0.124  0.000  0.000  0.000  0.000  0.000  0.497
    2  0.000  0.373  0.000  0.124  0.000  0.000  0.000  0.000  0.000  0.497
tot    0.000  0.746  0.000  0.249  0.000  0.000  0.000  0.000  0.000  0.995
 
band     5 # energy  -40.64907708 # occ.  2.00000000
 
ion      s     py     pz     px    dxy    dyz    dz2    dxz  x2-y2    tot
    1  0.000  0.374  0.000  0.125  0.000  0.000  0.000  0.000  0.000  0.498
    2  0.000  0.374  0.000  0.125  0.000  0.000  0.000  0.000  0.000  0.498
tot    0.000  0.747  0.000  0.249  0.000  0.000  0.000  0.000  0.000  0.996
 
band     6 # energy  -40.51669516 # occ.  2.00000000
 
ion      s     py     pz     px    dxy    dyz    dz2    dxz  x2-y2    tot
    1  0.000  0.000  0.498  0.000  0.000  0.000  0.000  0.000  0.000  0.498
    2  0.000  0.000  0.498  0.000  0.000  0.000  0.000  0.000  0.000  0.498
tot    0.000  0.000  0.995  0.000  0.000  0.000  0.000  0.000  0.000  0.995
 
band     7 # energy    3.14299054 # occ.  2.00000000
 
ion      s     py     pz     px    dxy    dyz    dz2    dxz  x2-y2    tot
    1  0.181  0.002  0.000  0.006  0.006  0.000  0.001  0.000  0.002  0.199
    2  0.181  0.002  0.000  0.006  0.006  0.000  0.001  0.000  0.002  0.199
tot    0.361  0.004  0.000  0.013  0.013  0.000  0.002  0.000  0.004  0.397
 
band     8 # energy    5.52283822 # occ.  2.00000000
 
ion      s     py     pz     px    dxy    dyz    dz2    dxz  x2-y2    tot
    1  0.051  0.001  0.000  0.004  0.040  0.000  0.222  0.000  0.013  0.333
    2  0.051  0.001  0.000  0.004  0.040  0.000  0.222  0.000  0.013  0.333
tot    0.103  0.003  0.000  0.008  0.081  0.000  0.444  0.000  0.027  0.665
 
band     9 # energy    7.39775854 # occ.  2.00000000
 
ion      s     py     pz     px    dxy    dyz    dz2    dxz  x2-y2    tot
    1  0.003  0.001  0.000  0.004  0.187  0.000  0.128  0.000  0.062  0.385
    2  0.003  0.001  0.000  0.004  0.187  0.000  0.128  0.000  0.062  0.385
tot    0.006  0.002  0.000  0.007  0.373  0.000  0.256  0.000  0.124  0.770
 
band    10 # energy    7.89454582 # occ.  2.00000000
 
ion      s     py     pz     px    dxy    dyz    dz2    dxz  x2-y2    tot
    1  0.000  0.000  0.019  0.000  0.000  0.075  0.000  0.225  0.000  0.319
    2  0.000  0.000  0.019  0.000  0.000  0.075  0.000  0.225  0.000  0.319
tot    0.000  0.000  0.039  0.000  0.000  0.150  0.000  0.449  0.000  0.638
 
band    11 # energy    7.95866094 # occ.  2.00000000
 
ion      s     py     pz     px    dxy    dyz    dz2    dxz  x2-y2    tot
    1  0.006  0.000  0.000  0.001  0.257  0.000  0.057  0.000  0.086  0.407
    2  0.006  0.000  0.000  0.001  0.257  0.000  0.057  0.000  0.086  0.407
tot    0.011  0.001  0.000  0.002  0.514  0.000  0.115  0.000  0.171  0.815
 
band    12 # energy    8.91830020 # occ.  2.00000000
 
ion      s     py     pz     px    dxy    dyz    dz2    dxz  x2-y2    tot
    1  0.004  0.001  0.000  0.002  0.110  0.000  0.269  0.000  0.037  0.422
    2  0.004  0.001  0.000  0.002  0.110  0.000  0.269  0.000  0.037  0.422
tot    0.008  0.001  0.000  0.004  0.220  0.000  0.538  0.000  0.073  0.844
 
band    13 # energy    9.36589346 # occ.  2.00000000
 
ion      s     py     pz     px    dxy    dyz    dz2    dxz  x2-y2    tot
    1  0.000  0.001  0.000  0.000  0.108  0.000  0.000  0.000  0.323  0.431
    2  0.000  0.001  0.000  0.000  0.108  0.000  0.000  0.000  0.323  0.431
tot    0.000  0.002  0.000  0.001  0.215  0.000  0.000  0.000  0.645  0.863
 
band    14 # energy    9.38139459 # occ.  2.00000000
 
ion      s     py     pz     px    dxy    dyz    dz2    dxz  x2-y2    tot
    1  0.000  0.000  0.000  0.000  0.000  0.324  0.000  0.108  0.000  0.432
    2  0.000  0.000  0.000  0.000  0.000  0.324  0.000  0.108  0.000  0.432
tot    0.000  0.000  0.000  0.000  0.000  0.648  0.000  0.216  0.000  0.864
 
band    15 # energy    9.39431297 # occ.  2.00000000
 
ion      s     py     pz     px    dxy    dyz    dz2    dxz  x2-y2    tot
    1  0.000  0.000  0.010  0.000  0.000  0.095  0.000  0.285  0.000  0.390
    2  0.000  0.000  0.010  0.000  0.000  0.095  0.000  0.285  0.000  0.390
tot    0.000  0.000  0.020  0.000  0.000  0.190  0.000  0.570  0.000  0.780
 
band    16 # energy    9.69986180 # occ.  2.00000000
 
ion      s     py     pz     px    dxy    dyz    dz2    dxz  x2-y2    tot
    1  0.000  0.001  0.000  0.000  0.110  0.000  0.000  0.000  0.330  0.441
    2  0.000  0.001  0.000  0.000  0.110  0.000  0.000  0.000  0.330  0.441
tot    0.000  0.002  0.000  0.001  0.220  0.000  0.000  0.000  0.659  0.882
 
band    17 # energy   11.84485652 # occ.  1.77887821
 
ion      s     py     pz     px    dxy    dyz    dz2    dxz  x2-y2    tot
    1  0.000  0.000  0.000  0.000  0.000  0.355  0.000  0.118  0.000  0.473
    2  0.000  0.000  0.000  0.000  0.000  0.355  0.000  0.118  0.000  0.473
tot    0.000  0.000  0.000  0.000  0.000  0.709  0.000  0.236  0.000  0.946
 
band    18 # energy   15.70206831 # occ.  0.00000000
 
ion      s     py     pz     px    dxy    dyz    dz2    dxz  x2-y2    tot
    1  0.000  0.000  0.063  0.000  0.000  0.051  0.000  0.154  0.000  0.268
    2  0.000  0.000  0.063  0.000  0.000  0.051  0.000  0.154  0.000  0.268
tot    0.000  0.000  0.126  0.000  0.000  0.103  0.000  0.309  0.000  0.537
 
band    19 # energy   16.72200696 # occ.  0.00000000
 
ion      s     py     pz     px    dxy    dyz    dz2    dxz  x2-y2    tot
    1  0.185  0.001  0.000  0.003  0.005  0.000  0.188  0.000  0.002  0.385
    2  0.185  0.001  0.000  0.003  0.005  0.000  0.188  0.000  0.002  0.385
tot    0.371  0.002  0.000  0.006  0.011  0.000  0.376  0.000  0.004  0.770
 
band    20 # energy   26.21836593 # occ.  0.00000000
 
ion      s     py     pz     px    dxy    dyz    dz2    dxz  x2-y2    tot
    1  0.026  0.016  0.000  0.049  0.054  0.000  0.026  0.000  0.018  0.189
    2  0.026  0.016  0.000  0.049  0.054  0.000  0.026  0.000  0.018  0.189
tot    0.051  0.033  0.000  0.098  0.109  0.000  0.051  0.000  0.036  0.379
 
band    21 # energy   28.74514783 # occ.  0.00000000
 
ion      s     py     pz     px    dxy    dyz    dz2    dxz  x2-y2    tot
    1  0.000  0.000  0.010  0.000  0.000  0.003  0.000  0.008  0.000  0.021
    2  0.000  0.000  0.010  0.000  0.000  0.003  0.000  0.008  0.000  0.021
tot    0.000  0.000  0.020  0.000  0.000  0.005  0.000  0.016  0.000  0.041
 
band    22 # energy   29.32026563 # occ.  0.00000000
 
ion      s     py     pz     px    dxy    dyz    dz2    dxz  x2-y2    tot
    1  0.000  0.082  0.000  0.027  0.011  0.000  0.000  0.000  0.034  0.155
    2  0.000  0.082  0.000  0.027  0.011  0.000  0.000  0.000  0.034  0.155
tot    0.000  0.165  0.000  0.055  0.022  0.000  0.000  0.000  0.067  0.309
 
band    23 # energy   30.03957809 # occ.  0.00000000
 
ion      s     py     pz     px    dxy    dyz    dz2    dxz  x2-y2    tot
    1  0.005  0.004  0.000  0.013  0.033  0.000  0.018  0.000  0.011  0.085
    2  0.005  0.004  0.000  0.013  0.033  0.000  0.018  0.000  0.011  0.085
tot    0.009  0.009  0.000  0.027  0.066  0.000  0.036  0.000  0.022  0.169
 
band    24 # energy   30.22219004 # occ.  0.00000000
 
ion      s     py     pz     px    dxy    dyz    dz2    dxz  x2-y2    tot
    1  0.000  0.000  0.004  0.000  0.000  0.016  0.000  0.047  0.000  0.067
    2  0.000  0.000  0.004  0.000  0.000  0.016  0.000  0.047  0.000  0.067
tot    0.000  0.000  0.008  0.000  0.000  0.032  0.000  0.095  0.000  0.134
 

 k-point     4 :    0.30000000 0.00000000 0.00000000     weight = 0.00750000

band     1 # energy  -40.94970668 # occ.  2.00000000
 
ion      s     py     pz     px    dxy    dyz    dz2    dxz  x2-y2    tot
    1  0.000  0.123  0.000  0.370  0.000  0.000  0.000  0.000  0.000  0.493
    2  0.000  0.123  0.000  0.370  0.000  0.000  0.000  0.000  0.000  0.493
tot    0.000  0.247  0.000  0.740  0.000  0.000  0.000  0.000  0.000  0.987
 
band     2 # energy  -40.90347160 # occ.  2.00000000
 
ion      s     py     pz     px    dxy    dyz    dz2    dxz  x2-y2    tot
    1  0.000  0.124  0.000  0.371  0.000  0.000  0.000  0.000  0.000  0.494
    2  0.000  0.124  0.000  0.371  0.000  0.000  0.000  0.000  0.000  0.494
tot    0.000  0.247  0.000  0.741  0.000  0.000  0.000  0.000  0.000  0.989
 
band     3 # energy  -40.78349171 # occ.  2.00000000
 
ion      s     py     pz     px    dxy    dyz    dz2    dxz  x2-y2    tot
    1  0.000  0.000  0.493  0.000  0.000  0.000  0.000  0.000  0.000  0.493
    2  0.000  0.000  0.493  0.000  0.000  0.000  0.000  0.000  0.000  0.493
tot    0.000  0.000  0.986  0.000  0.000  0.000  0.000  0.000  0.000  0.986
 
band     4 # energy  -40.74549392 # occ.  2.00000000
 
ion      s     py     pz     px    dxy    dyz    dz2    dxz  x2-y2    tot
    1  0.000  0.373  0.000  0.124  0.000  0.000  0.000  0.000  0.000  0.497
    2  0.000  0.373  0.000  0.124  0.000  0.000  0.000  0.000  0.000  0.497
tot    0.000  0.745  0.000  0.248  0.000  0.000  0.000  0.000  0.000  0.993
 
band     5 # energy  -40.67745857 # occ.  2.00000000
 
ion      s     py     pz     px    dxy    dyz    dz2    dxz  x2-y2    tot
    1  0.000  0.373  0.000  0.124  0.000  0.000  0.000  0.000  0.000  0.498
    2  0.000  0.373  0.000  0.124  0.000  0.000  0.000  0.000  0.000  0.498
tot    0.000  0.747  0.000  0.249  0.000  0.000  0.000  0.000  0.000  0.996
 
band     6 # energy  -40.53572395 # occ.  2.00000000
 
ion      s     py     pz     px    dxy    dyz    dz2    dxz  x2-y2    tot
    1  0.000  0.000  0.497  0.000  0.000  0.000  0.000  0.000  0.000  0.497
    2  0.000  0.000  0.497  0.000  0.000  0.000  0.000  0.000  0.000  0.497
tot    0.000  0.000  0.995  0.000  0.000  0.000  0.000  0.000  0.000  0.995
 
band     7 # energy    4.37274239 # occ.  2.00000000
 
ion      s     py     pz     px    dxy    dyz    dz2    dxz  x2-y2    tot
    1  0.141  0.003  0.000  0.009  0.050  0.000  0.006  0.000  0.017  0.227
    2  0.141  0.003  0.000  0.009  0.050  0.000  0.006  0.000  0.017  0.227
tot    0.283  0.006  0.000  0.018  0.101  0.000  0.012  0.000  0.034  0.453
 
band     8 # energy    5.63389755 # occ.  2.00000000
 
ion      s     py     pz     px    dxy    dyz    dz2    dxz  x2-y2    tot
    1  0.021  0.000  0.000  0.001  0.164  0.000  0.119  0.000  0.055  0.361
    2  0.021  0.000  0.000  0.001  0.164  0.000  0.119  0.000  0.055  0.361
tot    0.042  0.001  0.000  0.002  0.328  0.000  0.238  0.000  0.109  0.721
 
band     9 # energy    6.78023544 # occ.  2.00000000
 
ion      s     py     pz     px    dxy    dyz    dz2    dxz  x2-y2    tot
    1  0.000  0.000  0.011  0.000  0.000  0.079  0.000  0.238  0.000  0.329
    2  0.000  0.000  0.011  0.000  0.000  0.079  0.000  0.238  0.000  0.329
tot    0.000  0.000  0.023  0.000  0.000  0.159  0.000  0.476  0.000  0.658
 
band    10 # energy    7.67943851 # occ.  2.00000000
 
ion      s     py     pz     px    dxy    dyz    dz2    dxz  x2-y2    tot
    1  0.013  0.003  0.000  0.010  0.206  0.000  0.046  0.000  0.069  0.348
    2  0.013  0.003  0.000  0.010  0.206  0.000  0.046  0.000  0.069  0.348
tot    0.027  0.007  0.000  0.020  0.413  0.000  0.092  0.000  0.138  0.696
 
band    11 # energy    8.06294632 # occ.  2.00000000
 
ion      s     py     pz     px    dxy    dyz    dz2    dxz  x2-y2    tot