Pt-hcc                                  
           1
     2.725442    0.000000    0.000000
    -1.362721    2.360302    0.000000
     0.000000    0.000000    4.721765
   Pt
     2
Direct configuration=     1
   0.00000000  0.00000000  0.00000000
   0.33333333  0.66666667  0.50000000
