Co-hcc                                  
   1.00000000000000     
     2.492465    0.000000   -0.000000
    -1.246232    2.158538    0.000000
    -0.000000   -0.000000    4.032707
   Co
     2
Direct
  0.000000 -0.000000  0.000000
  0.333333  0.666667  0.500000
 
   32   32  108
 0.20564804694E+03 0.20105272258E+03 0.18789963175E+03 0.16792342187E+03 0.14352965096E+03
 0.11728077502E+03 0.91482918107E+02 0.67956137234E+02 0.47971382628E+02 0.32261148585E+02
 0.21022071293E+02 0.13919768813E+02 0.10124529045E+02 0.84532347043E+01 0.76571313147E+01
 0.71769946970E+01 0.70248934243E+01 0.71774592375E+01 0.76550726154E+01 0.84563682169E+01
 0.10122727718E+02 0.13920168791E+02 0.21021962315E+02 0.32261386897E+02 0.47971122224E+02
 0.67956503979E+02 0.91482590464E+02 0.11728119249E+03 0.14352936708E+03 0.16792352606E+03
 0.18789960715E+03 0.20105263591E+03 0.20105263591E+03 0.20105267168E+03 0.19218329591E+03
 0.17564411932E+03 0.15352245536E+03 0.12831714342E+03 0.10245792162E+03 0.77997306426E+02
 0.56463990560E+02 0.38853503988E+02 0.25625583202E+02 0.16712145075E+02 0.11515042291E+02
 0.90174403776E+01 0.79410033939E+01 0.73155441210E+01 0.70062503032E+01 0.70038066688E+01
 0.73184820121E+01 0.79388739099E+01 0.90173874520E+01 0.11515852081E+02 0.16711728625E+02
 0.25625710760E+02 0.38853379395E+02 0.56463924543E+02 0.77997234124E+02 0.10245793067E+03
 0.12831679429E+03 0.15352301529E+03 0.17564375949E+03 0.19218362408E+03 0.18789960715E+03
 0.19217880590E+03 0.18789978976E+03 0.17564383966E+03 0.15700737017E+03 0.13421107659E+03
 0.10963953275E+03 0.85458436248E+02 0.63400249854E+02 0.44692744377E+02 0.30044354617E+02
 0.19643754349E+02 0.13144558182E+02 0.97280738088E+01 0.82288379927E+01 0.74726607358E+01
 0.70142586918E+01 0.68689919986E+01 0.70143164077E+01 0.74714138695E+01 0.82314548984E+01
 0.97257503156E+01 0.13146209999E+02 0.19642536446E+02 0.30045281446E+02 0.44692340855E+02
 0.63400658952E+02 0.85458317790E+02 0.10963990286E+03 0.13421078828E+03 0.15700758100E+03
 0.17564375949E+03 0.16792352606E+03 0.17563189993E+03 0.17563165991E+03 0.16792334964E+03
 0.15352284641E+03 0.13421118783E+03 0.11214013918E+03 0.89439184962E+02 0.67946398990E+02
 0.49062711939E+02 0.33717335095E+02 0.22327135869E+02 0.14802157060E+02 0.10536297863E+02
 0.85424416119E+01 0.76245491830E+01 0.70478279499E+01 0.67676606333E+01 0.67660702452E+01
 0.70501693846E+01 0.76217753885E+01 0.85443805714E+01 0.10535181995E+02 0.14802561708E+02
 0.22327181221E+02 0.33716931756E+02 0.49062850316E+02 0.67946086757E+02 0.89439048513E+02
 0.11214043795E+03 0.13421078828E+03 0.15352301529E+03 0.14352936708E+03 0.15350341537E+03
 0.15698079099E+03 0.15350353044E+03 0.14352973944E+03 0.12831636451E+03 0.10963981774E+03
 0.89438993660E+02 0.69529078172E+02 0.51402762677E+02 0.36146843491E+02 0.24379873726E+02
 0.16233487440E+02 0.11328150924E+02 0.88684016174E+01 0.77596619703E+01 0.70934965373E+01
 0.66996924431E+01 0.65718387915E+01 0.66990190379E+01 0.70942736491E+01 0.77596644034E+01
 0.88677514411E+01 0.11329327724E+02 0.16232401299E+02 0.24380917481E+02 0.36146139143E+02
 0.51403581268E+02 0.69528762049E+02 0.89439048513E+02 0.10963990286E+03 0.12831679429E+03
 0.11728119249E+03 0.12829410904E+03 0.13417382008E+03 0.13417368941E+03 0.12829413430E+03
 0.11728103778E+03 0.10245833993E+03 0.85458591152E+02 0.67945986505E+02 0.51403360576E+02
 0.36996642212E+02 0.25491983697E+02 0.17202778825E+02 0.11962566994E+02 0.91642895277E+01
 0.78731454785E+01 0.71387700062E+01 0.66590125468E+01 0.64278777282E+01 0.64288599060E+01
 0.66583234417E+01 0.71386266133E+01 0.78738324066E+01 0.91632465455E+01 0.11963336987E+02
 0.17201835704E+02 0.25492782971E+02 0.36995796725E+02 0.51403581268E+02 0.67946086757E+02
 0.85458317790E+02 0.10245793067E+03 0.91482590464E+02 0.10243860165E+03 0.10960220726E+03
 0.11209543043E+03 0.10960201605E+03 0.10243847088E+03 0.91482775969E+02 0.77996823819E+02
 0.63400283385E+02 0.49063190407E+02 0.36146215992E+02 0.25492165491E+02 0.17546217943E+02
 0.12314397691E+02 0.93741589828E+01 0.79581267022E+01 0.71767008430E+01 0.66350766572E+01
 0.63305468975E+01 0.62290251604E+01 0.63303310058E+01 0.66358849505E+01 0.71755985684E+01
 0.79594059168E+01 0.93732066603E+01 0.12315633595E+02 0.17545357540E+02 0.25492782971E+02
 0.36146139143E+02 0.49062850316E+02 0.63400658952E+02 0.77997234124E+02 0.67956503979E+02
 0.77987765334E+02 0.85433940350E+02 0.89404280861E+02 0.89404636524E+02 0.85434520173E+02
 0.77987810909E+02 0.67956478389E+02 0.56464297200E+02 0.44692916465E+02 0.33716345804E+02
 0.24380810520E+02 0.17202245775E+02 0.12315061594E+02 0.94495863267E+01 0.80056739406E+01
 0.71997296004E+01 0.66243733333E+01 0.62672786518E+01 0.60964416834E+01 0.60969845678E+01
 0.62663244518E+01 0.66254526197E+01 0.71984942052E+01 0.80065441239E+01 0.94484309783E+01
 0.12315633595E+02 0.17201835704E+02 0.24380917481E+02 0.33716931756E+02 0.44692340855E+02
 0.56463924543E+02 0.47971122224E+02 0.56470735517E+02 0.63402432109E+02 0.67940251143E+02
 0.69519083171E+02 0.67939537099E+02 0.63401814655E+02 0.56470718852E+02 0.47971181080E+02
 0.38853041025E+02 0.30044381512E+02 0.22328382593E+02 0.16232226373E+02 0.11963074363E+02
 0.93734538037E+01 0.80057146675E+01 0.72078241013E+01 0.66197063598E+01 0.62332831331E+01
 0.60153987105E+01 0.59476647317E+01 0.60159061899E+01 0.62326766634E+01 0.66205806944E+01
 0.72073298822E+01 0.80065441239E+01 0.93732066603E+01 0.11963336987E+02 0.16232401299E+02
 0.22327181221E+02 0.30045281446E+02 0.38853379395E+02 0.32261386897E+02 0.38878077733E+02
 0.44727074007E+02 0.49099337899E+02 0.51438693768E+02 0.51439136146E+02 0.49100033590E+02
 0.44728027773E+02 0.38877858702E+02 0.32261345351E+02 0.25626036056E+02 0.19643410326E+02
 0.14800789182E+02 0.11329915039E+02 0.91633951010E+01 0.79591766873E+01 0.71994472971E+01
 0.66199795924E+01 0.62223005156E+01 0.59780920562E+01 0.58659063834E+01 0.58648495658E+01
 0.59790136971E+01 0.62211816876E+01 0.66205806944E+01 0.71984942052E+01 0.79594059168E+01
 0.91632465455E+01 0.11329327724E+02 0.14802561708E+02 0.19642536446E+02 0.25625710760E+02
 0.21021962315E+02 0.25666558560E+02 0.30113957834E+02 0.33801062300E+02 0.36237539047E+02
 0.37089007652E+02 0.36237217781E+02 0.33799928513E+02 0.30113036151E+02 0.25666727276E+02
 0.21022173614E+02 0.16711410370E+02 0.13145268792E+02 0.10537427717E+02 0.88664759232E+01
 0.78743526032E+01 0.71752320183E+01 0.66249691539E+01 0.62326714631E+01 0.59784493791E+01
 0.58393956926E+01 0.57958747601E+01 0.58392997678E+01 0.59790136971E+01 0.62326766634E+01
 0.66254526197E+01 0.71755985684E+01 0.78738324066E+01 0.88677514411E+01 0.10535181995E+02
 0.13146209999E+02 0.16711728625E+02 0.13920168791E+02 0.16765443372E+02 0.19738316170E+02
 0.22453665153E+02 0.24525990031E+02 0.25647052318E+02 0.25646994420E+02 0.24526507947E+02
 0.22454932429E+02 0.19739385121E+02 0.16765125295E+02 0.13919311196E+02 0.11516570917E+02
 0.97266576401E+01 0.85418251324E+01 0.77613959876E+01 0.71376443539E+01 0.66366884663E+01
 0.62666572620E+01 0.60160486805E+01 0.58656225845E+01 0.57954273128E+01 0.57958747601E+01
 0.58648495658E+01 0.60159061899E+01 0.62663244518E+01 0.66358849505E+01 0.71386266133E+01
 0.77596644034E+01 0.85443805714E+01 0.97257503156E+01 0.11515852081E+02 0.10122727718E+02
 0.11575983084E+02 0.13259555381E+02 0.14959533203E+02 0.16421016970E+02 0.17409776980E+02
 0.17759501295E+02 0.17409567376E+02 0.16420628284E+02 0.14957602597E+02 0.13258603227E+02
 0.11576693200E+02 0.10124608099E+02 0.90150209121E+01 0.82317651035E+01 0.76239530946E+01
 0.70925701747E+01 0.66595464288E+01 0.63290788446E+01 0.60969516298E+01 0.59469131208E+01
 0.58656225845E+01 0.58393956926E+01 0.58659063834E+01 0.59476647317E+01 0.60969845678E+01
 0.63303310058E+01 0.66583234417E+01 0.70942736491E+01 0.76217753885E+01 0.82314548984E+01
 0.90173874520E+01 0.84563682169E+01 0.90805811491E+01 0.98491936348E+01 0.10710615943E+02
 0.11546120421E+02 0.12208887681E+02 0.12575605658E+02 0.12575821985E+02 0.12208860382E+02
 0.11547015054E+02 0.10712814033E+02 0.98501781035E+01 0.90781922913E+01 0.84554191823E+01
 0.79422657762E+01 0.74694656256E+01 0.70491830606E+01 0.66998618905E+01 0.64281317554E+01
 0.62301771397E+01 0.60969516298E+01 0.60160486805E+01 0.59784493791E+01 0.59780920562E+01
 0.60153987105E+01 0.60964416834E+01 0.62290251604E+01 0.64288599060E+01 0.66990190379E+01
 0.70501693846E+01 0.74714138695E+01 0.79388739099E+01 0.76550726154E+01 0.80035103652E+01
 0.83589261622E+01 0.87270507270E+01 0.90981903304E+01 0.94305674409E+01 0.96635990075E+01
 0.97471742196E+01 0.96636860528E+01 0.94302209750E+01 0.90969967716E+01 0.87243845928E+01
 0.83592674956E+01 0.80068876044E+01 0.76538183959E+01 0.73161454773E+01 0.70164871392E+01
 0.67666458310E+01 0.65715733370E+01 0.64281317554E+01 0.63290788446E+01 0.62666572620E+01
 0.62326714631E+01 0.62223005156E+01 0.62332831331E+01 0.62672786518E+01 0.63305468975E+01
 0.64278777282E+01 0.65718387915E+01 0.67660702452E+01 0.70143164077E+01 0.73184820121E+01
 0.71774592375E+01 0.73841003931E+01 0.76006397048E+01 0.78084623213E+01 0.79980485387E+01
 0.81551054807E+01 0.82701211792E+01 0.83322289536E+01 0.83317720960E+01 0.82703639342E+01
 0.81556522168E+01 0.79999212186E+01 0.78105805811E+01 0.75987321663E+01 0.73817250794E+01
 0.71796202724E+01 0.70050627737E+01 0.68671709883E+01 0.67666458310E+01 0.66998618905E+01
 0.66595464288E+01 0.66366884663E+01 0.66249691539E+01 0.66199795924E+01 0.66197063598E+01
 0.66243733333E+01 0.66350766572E+01 0.66590125468E+01 0.66996924431E+01 0.67676606333E+01
 0.68689919986E+01 0.70038066688E+01 0.70248934243E+01 0.70700069384E+01 0.71447574799E+01
 0.72404077346E+01 0.73385099478E+01 0.74280923617E+01 0.74980382626E+01 0.75413938498E+01
 0.75568639803E+01 0.75416246370E+01 0.74977743392E+01 0.74267344232E+01 0.73369366111E+01
 0.72393365490E+01 0.71469876671E+01 0.70712497152E+01 0.70228531691E+01 0.70050627737E+01
 0.70164871392E+01 0.70491830606E+01 0.70925701747E+01 0.71376443539E+01 0.71752320183E+01
 0.71994472971E+01 0.72078241013E+01 0.71997296004E+01 0.71767008430E+01 0.71387700062E+01
 0.70934965373E+01 0.70478279499E+01 0.70142586918E+01 0.70062503032E+01 0.71769946970E+01
 0.70724445567E+01 0.69999431407E+01 0.69581222089E+01 0.69468210247E+01 0.69531713293E+01
 0.69680011329E+01 0.69836777074E+01 0.69920286202E+01 0.69923873094E+01 0.69831444901E+01
 0.69691762822E+01 0.69544025192E+01 0.69476727408E+01 0.69586611599E+01 0.69981232486E+01
 0.70712497152E+01 0.71796202724E+01 0.73161454773E+01 0.74694656256E+01 0.76239530946E+01
 0.77613959876E+01 0.78743526032E+01 0.79591766873E+01 0.80057146675E+01 0.80056739406E+01
 0.79581267022E+01 0.78731454785E+01 0.77596619703E+01 0.76245491830E+01 0.74726607358E+01
 0.73155441210E+01 0.76571313147E+01 0.73811696948E+01 0.71446715122E+01 0.69597553930E+01
 0.68207704033E+01 0.67274470048E+01 0.66699689991E+01 0.66364435764E+01 0.66213620913E+01
 0.66162200055E+01 0.66213886961E+01 0.66362281668E+01 0.66687781450E+01 0.67265371781E+01
 0.68206555590E+01 0.69586611599E+01 0.71469876671E+01 0.73817250794E+01 0.76538183959E+01
 0.79422657762E+01 0.82317651035E+01 0.85418251324E+01 0.88664759232E+01 0.91633951010E+01
 0.93734538037E+01 0.94495863267E+01 0.93741589828E+01 0.91642895277E+01 0.88684016174E+01
 0.85424416119E+01 0.82288379927E+01 0.79410033939E+01 0.84532347043E+01 0.80055936199E+01
 0.76019344433E+01 0.72380035496E+01 0.69475212995E+01 0.67262672270E+01 0.65709259232E+01
 0.64720363901E+01 0.64138772613E+01 0.63885992539E+01 0.63880418253E+01 0.64146514593E+01
 0.64720976543E+01 0.65721595493E+01 0.67265371781E+01 0.69476727408E+01 0.72393365490E+01
 0.75987321663E+01 0.80068876044E+01 0.84554191823E+01 0.90150209121E+01 0.97266576401E+01
 0.10537427717E+02 0.11329915039E+02 0.11963074363E+02 0.12315061594E+02 0.12314397691E+02
 0.11962566994E+02 0.11328150924E+02 0.10536297863E+02 0.97280738088E+01 0.90174403776E+01
 0.10124529045E+02 0.90806765453E+01 0.83562634328E+01 0.78112796066E+01 0.73376337962E+01
 0.69541225637E+01 0.66700376003E+01 0.64719392924E+01 0.63500491904E+01 0.62836919261E+01
 0.62640315954E+01 0.62836019982E+01 0.63493244019E+01 0.64720976543E+01 0.66687781450E+01
 0.69544025192E+01 0.73369366111E+01 0.78105805811E+01 0.83592674956E+01 0.90781922913E+01
 0.10124608099E+02 0.11516570917E+02 0.13145268792E+02 0.14800789182E+02 0.16232226373E+02
 0.17202245775E+02 0.17546217943E+02 0.17202778825E+02 0.16233487440E+02 0.14802157060E+02
 0.13144558182E+02 0.11515042291E+02 0.13919768813E+02 0.11575106871E+02 0.98516208773E+01
 0.87250009581E+01 0.79982282714E+01 0.74279162130E+01 0.69673581616E+01 0.66370206343E+01
 0.64135095326E+01 0.62841284891E+01 0.62233345399E+01 0.62245083202E+01 0.62836019982E+01
 0.64146514593E+01 0.66362281668E+01 0.69691762822E+01 0.74267344232E+01 0.79999212186E+01
 0.87243845928E+01 0.98501781035E+01 0.11576693200E+02 0.13919311196E+02 0.16711410370E+02
 0.19643410326E+02 0.22328382593E+02 0.24380810520E+02 0.25492165491E+02 0.25491983697E+02
 0.24379873726E+02 0.22327135869E+02 0.19643754349E+02 0.16712145075E+02 0.21022071293E+02
 0.16766004894E+02 0.13257813007E+02 0.10711810066E+02 0.90987075252E+01 0.81545901525E+01
 0.74991096673E+01 0.69828229137E+01 0.66219569755E+01 0.63879255323E+01 0.62645743648E+01
 0.62233345399E+01 0.62640315954E+01 0.63880418253E+01 0.66213886961E+01 0.69831444901E+01
 0.74977743392E+01 0.81556522168E+01 0.90969967716E+01 0.10712814033E+02 0.13258603227E+02
 0.16765125295E+02 0.21022173614E+02 0.25626036056E+02 0.30044381512E+02 0.33716345804E+02
 0.36146215992E+02 0.36996642212E+02 0.36146843491E+02 0.33717335095E+02 0.30044354617E+02
 0.25625583202E+02 0.32261148585E+02 0.25666219910E+02 0.19739696377E+02 0.14958915120E+02
 0.11545363069E+02 0.94311428757E+01 0.82692825936E+01 0.75418947408E+01 0.69918015931E+01
 0.66165399347E+01 0.63879255323E+01 0.62841284891E+01 0.62836919261E+01 0.63885992539E+01
 0.66162200055E+01 0.69923873094E+01 0.75416246370E+01 0.82703639342E+01 0.94302209750E+01
 0.11547015054E+02 0.14957602597E+02 0.19739385121E+02 0.25666727276E+02 0.32261345351E+02
 0.38853041025E+02 0.44692916465E+02 0.49063190407E+02 0.51403360576E+02 0.51402762677E+02
 0.49062711939E+02 0.44692744377E+02 0.38853503988E+02 0.47971382628E+02 0.38878395340E+02
 0.30112959802E+02 0.22453842148E+02 0.16421842002E+02 0.12208263786E+02 0.96644146368E+01
 0.83316419665E+01 0.75572998504E+01 0.69918015931E+01 0.66219569755E+01 0.64135095326E+01
 0.63500491904E+01 0.64138772613E+01 0.66213620913E+01 0.69920286202E+01 0.75568639803E+01
 0.83317720960E+01 0.96636860528E+01 0.12208860382E+02 0.16420628284E+02 0.22454932429E+02
 0.30113036151E+02 0.38877858702E+02 0.47971181080E+02 0.56464297200E+02 0.63400283385E+02
 0.67945986505E+02 0.69529078172E+02 0.67946398990E+02 0.63400249854E+02 0.56463990560E+02
 0.67956137234E+02 0.56470422796E+02 0.44727791639E+02 0.33800987092E+02 0.24525398148E+02
 0.17410227337E+02 0.12575095428E+02 0.97474490113E+01 0.83316419665E+01 0.75418947408E+01
 0.69828229137E+01 0.66370206343E+01 0.64719392924E+01 0.64720363901E+01 0.66364435764E+01
 0.69836777074E+01 0.75413938498E+01 0.83322289536E+01 0.97471742196E+01 0.12575821985E+02
 0.17409567376E+02 0.24526507947E+02 0.33799928513E+02 0.44728027773E+02 0.56470718852E+02
 0.67956478389E+02 0.77996823819E+02 0.85458591152E+02 0.89438993660E+02 0.89439184962E+02
 0.85458436248E+02 0.77997306426E+02 0.91482918107E+02 0.77987994321E+02 0.63402101845E+02
 0.49099201875E+02 0.36238236221E+02 0.25646342156E+02 0.17760260661E+02 0.12575095428E+02
 0.96644146368E+01 0.82692825936E+01 0.74991096673E+01 0.69673581616E+01 0.66700376003E+01
 0.65709259232E+01 0.66699689991E+01 0.69680011329E+01 0.74980382626E+01 0.82701211792E+01
 0.96635990075E+01 0.12575605658E+02 0.17759501295E+02 0.25646994420E+02 0.36237217781E+02
 0.49100033590E+02 0.63401814655E+02 0.77987810909E+02 0.91482775969E+02 0.10245833993E+03
 0.10963981774E+03 0.11214013918E+03 0.10963953275E+03 0.10245792162E+03 0.11728077502E+03
 0.10243848247E+03 0.85434125509E+02 0.67940296006E+02 0.51438062031E+02 0.37089671905E+02
 0.25646342156E+02 0.17410227337E+02 0.12208263786E+02 0.94311428757E+01 0.81545901525E+01
 0.74279162130E+01 0.69541225637E+01 0.67262672270E+01 0.67274470048E+01 0.69531713293E+01
 0.74280923617E+01 0.81551054807E+01 0.94305674409E+01 0.12208887681E+02 0.17409776980E+02
 0.25647052318E+02 0.37089007652E+02 0.51439136146E+02 0.67939537099E+02 0.85434520173E+02
 0.10243847088E+03 0.11728103778E+03 0.12831636451E+03 0.13421118783E+03 0.13421107659E+03
 0.12831714342E+03 0.14352965096E+03 0.12829405665E+03 0.10960238739E+03 0.89403857619E+02
 0.69520110476E+02 0.51438062031E+02 0.36238236221E+02 0.24525398148E+02 0.16421842002E+02
 0.11545363069E+02 0.90987075252E+01 0.79982282714E+01 0.73376337962E+01 0.69475212995E+01
 0.68207704033E+01 0.69468210247E+01 0.73385099478E+01 0.79980485387E+01 0.90981903304E+01
 0.11546120421E+02 0.16421016970E+02 0.24525990031E+02 0.36237539047E+02 0.51438693768E+02
 0.69519083171E+02 0.89404636524E+02 0.10960201605E+03 0.12829413430E+03 0.14352973944E+03
 0.15352284641E+03 0.15700737017E+03 0.15352245536E+03 0.16792342187E+03 0.15350363578E+03
 0.13417369889E+03 0.11209573351E+03 0.89403857619E+02 0.67940296006E+02 0.49099201875E+02
 0.33800987092E+02 0.22453842148E+02 0.14958915120E+02 0.10711810066E+02 0.87250009581E+01
 0.78112796066E+01 0.72380035496E+01 0.69597553930E+01 0.69581222089E+01 0.72404077346E+01
 0.78084623213E+01 0.87270507270E+01 0.10710615943E+02 0.14959533203E+02 0.22453665153E+02
 0.33801062300E+02 0.49099337899E+02 0.67940251143E+02 0.89404280861E+02 0.11209543043E+03
 0.13417368941E+03 0.15350353044E+03 0.16792334964E+03 0.17564383966E+03 0.17564411932E+03
 0.18789963175E+03 0.17563188390E+03 0.15698058950E+03 0.13417369889E+03 0.10960238739E+03
 0.85434125509E+02 0.63402101845E+02 0.44727791639E+02 0.30112959802E+02 0.19739696377E+02
 0.13257813007E+02 0.98516208773E+01 0.83562634328E+01 0.76019344433E+01 0.71446715122E+01
 0.69999431407E+01 0.71447574799E+01 0.76006397048E+01 0.83589261622E+01 0.98491936348E+01
 0.13259555381E+02 0.19738316170E+02 0.30113957834E+02 0.44727074007E+02 0.63402432109E+02
 0.85433940350E+02 0.10960220726E+03 0.13417382008E+03 0.15698079099E+03 0.17563165991E+03
 0.18789978976E+03 0.19218329591E+03 0.20105272258E+03 0.19217876626E+03 0.17563188390E+03
 0.15350363578E+03 0.12829405665E+03 0.10243848247E+03 0.77987994321E+02 0.56470422796E+02
 0.38878395340E+02 0.25666219910E+02 0.16766004894E+02 0.11575106871E+02 0.90806765453E+01
 0.80055936199E+01 0.73811696948E+01 0.70724445567E+01 0.70700069384E+01 0.73841003931E+01
 0.80035103652E+01 0.90805811491E+01 0.11575983084E+02 0.16765443372E+02 0.25666558560E+02
 0.38878077733E+02 0.56470735517E+02 0.77987765334E+02 0.10243860165E+03 0.12829410904E+03
 0.15350341537E+03 0.17563189993E+03 0.19217880590E+03 0.20105267168E+03 0.20458162011E+03
 0.20001139289E+03 0.18692930896E+03 0.16705936980E+03 0.14279221861E+03 0.11667640536E+03
 0.91006913909E+02 0.67596673513E+02 0.47713316579E+02 0.32087534301E+02 0.20915199120E+02
 0.13861179816E+02 0.10096595177E+02 0.84395259439E+01 0.76468488517E+01 0.71684563287E+01
 0.70169323828E+01 0.71688930490E+01 0.76448650856E+01 0.84426467807E+01 0.10094690037E+02
 0.13861661458E+02 0.20915114257E+02 0.32087861706E+02 0.47713073981E+02 0.67597176331E+02
 0.91006586403E+02 0.11667701154E+03 0.14279193638E+03 0.16705938665E+03 0.18692928579E+03
 0.20001124433E+03 0.20001126316E+03 0.20001122651E+03 0.19118989724E+03 0.17473888828E+03
 0.15273317381E+03 0.12765670142E+03 0.10192677924E+03 0.77587166151E+02 0.56161456898E+02
 0.38642779355E+02 0.25489554927E+02 0.16632933110E+02 0.11474377318E+02 0.89983592115E+01
 0.79293505821E+01 0.73058764100E+01 0.69978406955E+01 0.69953850859E+01 0.73088277757E+01
 0.79271034520E+01 0.89984566096E+01 0.11475179912E+02 0.16632464642E+02 0.25489582764E+02
 0.38642645283E+02 0.56161261788E+02 0.77587090802E+02 0.10192663776E+03 0.12765637647E+03
 0.15273365823E+03 0.17473864796E+03 0.19119017662E+03 0.18692933957E+03 0.19118560831E+03
 0.18692948576E+03 0.17473873354E+03 0.15619968919E+03 0.13352022562E+03 0.10907209194E+03
 0.85010602580E+02 0.63061923764E+02 0.44450067550E+02 0.29881659698E+02 0.19544016898E+02
 0.13090259711E+02 0.97018699197E+01 0.82151700659E+01 0.74618926269E+01 0.70053121915E+01
 0.68605309336E+01 0.70053553386E+01 0.74607376670E+01 0.82177339202E+01 0.96994848013E+01
 0.13091934703E+02 0.19542883807E+02 0.29882642222E+02 0.44449754864E+02 0.63062354922E+02
 0.85010614693E+02 0.10907241982E+03 0.13351997101E+03 0.15619995252E+03 0.17473857534E+03
 0.16705942240E+03 0.17472726396E+03 0.17472713496E+03 0.16705915066E+03 0.15273357313E+03
 0.13352046978E+03 0.11156005797E+03 0.88971342268E+02 0.67584832245E+02 0.48796636512E+02
 0.33533278472E+02 0.22209716923E+02 0.14734747406E+02 0.10502081338E+02 0.85256795501E+01
 0.76128976055E+01 0.70382073909E+01 0.67591058228E+01 0.67575964889E+01 0.70404290509E+01
 0.76101790522E+01 0.85276399970E+01 0.10500963201E+02 0.14735125129E+02 0.22209702517E+02
 0.33532751450E+02 0.48796784072E+02 0.67584374825E+02 0.88971265293E+02 0.11156033787E+03
 0.13352006054E+03 0.15273364131E+03 0.14279208824E+03 0.15271503206E+03 0.15617459919E+03
 0.15271516933E+03 0.14279238186E+03 0.12765571795E+03 0.10907243758E+03 0.88971022382E+02
 0.69159462574E+02 0.51124167585E+02 0.35948937725E+02 0.24249137909E+02 0.16155438409E+02
 0.11286546499E+02 0.88481128676E+01 0.77471271462E+01 0.70832261404E+01 0.66909448434E+01
 0.65636726875E+01 0.66902900914E+01 0.70840417817E+01 0.77470437440E+01 0.88475395454E+01
 0.11287712354E+02 0.16154363723E+02 0.24250306263E+02 0.35948257077E+02 0.51125099784E+02
 0.69159103240E+02 0.88971077691E+02 0.10907251789E+03 0.12765620578E+03 0.11667677517E+03
 0.12763508459E+03 0.13348517024E+03 0.13348517659E+03 0.12763499294E+03 0.11667692157E+03
 0.10192708199E+03 0.85010950359E+02 0.67584293653E+02 0.51124990150E+02 0.36793777606E+02
 0.25354553334E+02 0.17117419667E+02 0.11915420822E+02 0.91405070062E+01 0.78597878793E+01
 0.71277928701E+01 0.66501623680E+01 0.64196861930E+01 0.64209133590E+01 0.66491977372E+01
 0.71279543147E+01 0.78601787835E+01 0.91396733168E+01 0.11915949671E+02 0.17116664584E+02
 0.25355061613E+02 0.36793056184E+02 0.51125015262E+02 0.67584646950E+02 0.85010432102E+02
 0.10192689297E+03 0.91006609025E+02 0.10190914523E+03 0.10903762494E+03 0.11151867511E+03
 0.10903739053E+03 0.10190890743E+03 0.91006776717E+02 0.77586599681E+02 0.63061963557E+02
 0.48797071271E+02 0.35948255868E+02 0.25354503343E+02 0.17458574741E+02 0.12264114744E+02
 0.93481696264E+01 0.79437151828E+01 0.71654403751E+01 0.66258257350E+01 0.63225149334E+01
 0.62214379694E+01 0.63223047907E+01 0.66265892406E+01 0.71643821010E+01 0.79450362582E+01
 0.93472312641E+01 0.12265414970E+02 0.17457676722E+02 0.25355275365E+02 0.35948127847E+02
 0.48796725699E+02 0.63062323761E+02 0.77587049346E+02 0.67596989843E+02 0.77579444477E+02
 0.84989363405E+02 0.88940546111E+02 0.88940861956E+02 0.84990156236E+02 0.77579366164E+02
 0.67597182055E+02 0.56161676089E+02 0.44450374910E+02 0.33532187127E+02 0.24250341219E+02
 0.17116905222E+02 0.12264837480E+02 0.94226536994E+01 0.79907933628E+01 0.71881279880E+01
 0.66149980379E+01 0.62590853508E+01 0.60891397412E+01 0.60894943644E+01 0.62583749202E+01
 0.66158472969E+01 0.71870326648E+01 0.79914647287E+01 0.94216007235E+01 0.12265251104E+02
 0.17116614697E+02 0.24250271627E+02 0.33532973688E+02 0.44449622160E+02 0.56161467109E+02
 0.47713043397E+02 0.56170010076E+02 0.63067442716E+02 0.67583238335E+02 0.69154225438E+02
 0.67582393282E+02 0.63066837312E+02 0.56169918233E+02 0.47713090187E+02 0.38642284176E+02
 0.29881677762E+02 0.22210877086E+02 0.16154094439E+02 0.11915886197E+02 0.93474293293E+01
 0.79907709584E+01 0.71962090489E+01 0.66101290919E+01 0.62251256297E+01 0.60081560533E+01
 0.59406345754E+01 0.60086109789E+01 0.62245387611E+01 0.66110572785E+01 0.71957275321E+01
 0.79916818016E+01 0.93471780574E+01 0.11916216631E+02 0.16154181286E+02 0.22209697352E+02
 0.29882557854E+02 0.38642657034E+02 0.32087752368E+02 0.38668995671E+02 0.44487637921E+02
 0.48837753360E+02 0.51165437909E+02 0.51165970634E+02 0.48838437523E+02 0.44488700896E+02
 0.38668722155E+02 0.32087836883E+02 0.25489961114E+02 0.19543821728E+02 0.14733333319E+02
 0.11288373446E+02 0.91396652522E+01 0.79448327505E+01 0.71878733470E+01 0.66104480700E+01
 0.62140602552E+01 0.59708755125E+01 0.58590139029E+01 0.58581087428E+01 0.59716723181E+01
 0.62130168784E+01 0.66109173568E+01 0.71869555136E+01 0.79449495433E+01 0.91395462793E+01
 0.11287754869E+02 0.14735270217E+02 0.19542828253E+02 0.25489710934E+02 0.20915054392E+02
 0.25532028338E+02 0.29954154320E+02 0.33621316293E+02 0.36044607219E+02 0.36891654285E+02
 0.36044336106E+02 0.33620069558E+02 0.29953253241E+02 0.25532140797E+02 0.20915260589E+02
 0.16632107590E+02 0.13090958066E+02 0.10503273054E+02 0.88461134250E+01 0.78609186895E+01
 0.71639258054E+01 0.66155385345E+01 0.62244926804E+01 0.59712531392E+01 0.58325785914E+01
 0.57892552302E+01 0.58325093977E+01 0.59718415205E+01 0.62245094804E+01 0.66160936504E+01
 0.71642996135E+01 0.78604750234E+01 0.88473278282E+01 0.10500987316E+02 0.13091821054E+02
 0.16632505674E+02 0.13861698746E+02 0.16687383745E+02 0.19641281570E+02 0.22339919285E+02
 0.24400247130E+02 0.25514787625E+02 0.25514747360E+02 0.24400688315E+02 0.22341329016E+02
 0.19642289423E+02 0.16687147656E+02 0.13860837673E+02 0.11475945969E+02 0.97003464433E+01
 0.85251208701E+01 0.77488550497E+01 0.71268125559E+01 0.66274265375E+01 0.62585724686E+01
 0.60087341879E+01 0.58588005845E+01 0.57888217411E+01 0.57892326530E+01 0.58579621176E+01
 0.60086176824E+01 0.62581511439E+01 0.66266491508E+01 0.71276806520E+01 0.77472328841E+01
 0.85276384592E+01 0.96995758726E+01 0.11475161457E+02 0.10094710715E+02 0.11536466786E+02
 0.13207449904E+02 0.14895590955E+02 0.16347102543E+02 0.17329421869E+02 0.17676930675E+02
 0.17329219500E+02 0.16346757899E+02 0.14893556509E+02 0.13206532683E+02 0.11537125610E+02
 0.10096599482E+02 0.89960116626E+01 0.82181268734E+01 0.76122502734E+01 0.70823193462E+01
 0.66505328691E+01 0.63210735888E+01 0.60895711581E+01 0.59399205103E+01 0.58587426188E+01
 0.58326591343E+01 0.58591025624E+01 0.59406858376E+01 0.60896601750E+01 0.63223028462E+01
 0.66494134343E+01 0.70839106074E+01 0.76101226243E+01 0.82177008145E+01 0.89984170986E+01
 0.84426007459E+01 0.90625669451E+01 0.98249520647E+01 0.10679353791E+02 0.11508442102E+02
 0.12166239193E+02 0.12530176263E+02 0.12530460372E+02 0.12166147357E+02 0.11509355298E+02
 0.10681588464E+02 0.98259626210E+01 0.90600934674E+01 0.84417711232E+01 0.79304909189E+01
 0.74587718925E+01 0.70395292714E+01 0.66911537091E+01 0.64200540992E+01 0.62225622682E+01
 0.60895458014E+01 0.60088175103E+01 0.59711472396E+01 0.59708122098E+01 0.60080794344E+01
 0.60889992873E+01 0.62214145572E+01 0.64207230187E+01 0.66903959089E+01 0.70405108355E+01
 0.74607454160E+01 0.79271683197E+01 0.76448566618E+01 0.79927253847E+01 0.83469773587E+01
 0.87131133537E+01 0.90812775192E+01 0.94109870049E+01 0.96420867168E+01 0.97249601007E+01
 0.96421653629E+01 0.94106328703E+01 0.90801300731E+01 0.87103420483E+01 0.83474602119E+01
 0.79960523343E+01 0.76435365153E+01 0.73065421122E+01 0.70074715544E+01 0.67581340490E+01
 0.65633750517E+01 0.64201085578E+01 0.63210444870E+01 0.62585436048E+01 0.62245441215E+01
 0.62141780166E+01 0.62251477901E+01 0.62592802633E+01 0.63224838870E+01 0.64199309919E+01
 0.65635124113E+01 0.67575691628E+01 0.70052931311E+01 0.73088173666E+01 0.71688903251E+01
 0.73752385282E+01 0.75916960743E+01 0.77993055112E+01 0.79887901665E+01 0.81454739117E+01
 0.82600255708E+01 0.83218574214E+01 0.83213823394E+01 0.82603076591E+01 0.81460133013E+01
 0.79906482814E+01 0.78013938390E+01 0.75897005264E+01 0.73729680128E+01 0.71710508920E+01
 0.69966419842E+01 0.68587578807E+01 0.67581229012E+01 0.66911103983E+01 0.66505508232E+01
 0.66274665491E+01 0.66154759457E+01 0.66103414564E+01 0.66100957838E+01 0.66148142732E+01
 0.66258456336E+01 0.66499287168E+01 0.66910939719E+01 0.67591442966E+01 0.68605819934E+01
 0.69954066427E+01 0.70169418249E+01 0.70624778211E+01 0.71373754284E+01 0.72331718720E+01
 0.73312063949E+01 0.74208925155E+01 0.74909435391E+01 0.75343114778E+01 0.75498135051E+01
 0.75345297883E+01 0.74906498260E+01 0.74195043286E+01 0.73297712036E+01 0.72321226714E+01
 0.71396125978E+01 0.70636575668E+01 0.70149011793E+01 0.69966352662E+01 0.70074894202E+01
 0.70395658642E+01 0.70823081102E+01 0.71267658262E+01 0.71639951123E+01 0.71879732425E+01
 0.71962490751E+01 0.71883050346E+01 0.71654271946E+01 0.71280198032E+01 0.70830837301E+01
 0.70381621990E+01 0.70052678499E+01 0.69978124205E+01 0.71684420375E+01 0.70648016126E+01
 0.69931388395E+01 0.69519141999E+01 0.69411921402E+01 0.69477773527E+01 0.69627116435E+01
 0.69784877969E+01 0.69868426166E+01 0.69872389913E+01 0.69779531642E+01 0.69639642474E+01
 0.69489219485E+01 0.69419029414E+01 0.69524820740E+01 0.69913206534E+01 0.70636527176E+01
 0.71710624593E+01 0.73065193972E+01 0.74587401489E+01 0.76122566602E+01 0.77489066286E+01
 0.78608445334E+01 0.79447377042E+01 0.79907260830E+01 0.79906211654E+01 0.79437235141E+01
 0.78595657955E+01 0.77472647073E+01 0.76129476466E+01 0.74619321194E+01 0.73059095341E+01
 0.76468609677E+01 0.73724201714E+01 0.71373147362E+01 0.69536178726E+01 0.68154016679E+01
 0.67228059961E+01 0.66658138720E+01 0.66325441165E+01 0.66176252074E+01 0.66124913557E+01
 0.66176286323E+01 0.66322764341E+01 0.66646589487E+01 0.67219812210E+01 0.68154018052E+01
 0.69524842493E+01 0.71396152718E+01 0.73729586207E+01 0.76435570551E+01 0.79305248377E+01
 0.82181183114E+01 0.85250714664E+01 0.88461854058E+01 0.91397624737E+01 0.93474720295E+01
 0.94228280721E+01 0.93481591199E+01 0.91407312653E+01 0.88479731313E+01 0.85256316842E+01