   2   2   1   0
  0.2137190E+02  0.2470000E-09  0.2470000E-09  0.8090000E-09  0.5000000E-15
  1.000000000000000E-004
  CAR 
 Co-hcc                                  
     37.39982542     -0.37668175  301     10.20321888      1.00000000
     -0.377  0.0000E+00  0.0000E+00  0.0000E+00  0.0000E+00
     -0.251  0.0000E+00  0.0000E+00  0.0000E+00  0.0000E+00
     -0.125  0.0000E+00  0.0000E+00  0.0000E+00  0.0000E+00
      0.001  0.0000E+00  0.0000E+00  0.0000E+00  0.0000E+00
      0.127  0.0000E+00  0.0000E+00  0.0000E+00  0.0000E+00
      0.253  0.0000E+00  0.0000E+00  0.0000E+00  0.0000E+00
      0.379  0.0000E+00  0.0000E+00  0.0000E+00  0.0000E+00
      0.505  0.0000E+00  0.0000E+00  0.0000E+00  0.0000E+00
      0.631  0.0000E+00  0.0000E+00  0.0000E+00  0.0000E+00
      0.757  0.0000E+00  0.0000E+00  0.0000E+00  0.0000E+00
      0.883  0.0000E+00  0.0000E+00  0.0000E+00  0.0000E+00
      1.008  0.0000E+00  0.0000E+00  0.0000E+00  0.0000E+00
      1.134  0.2783E-12  0.3617E-13  0.3504E-13  0.4555E-14
      1.260  0.1163E-05  0.4653E-06  0.1464E-06  0.5859E-07
      1.386  0.8857E-04  0.8220E-04  0.1130E-04  0.1041E-04
      1.512  0.1397E-03  0.1200E-03  0.2889E-04  0.2552E-04
      1.638  0.1120E-03  0.1152E-03  0.4299E-04  0.4003E-04
      1.764  0.5563E-03  0.5556E-03  0.1130E-03  0.1100E-03
      1.890  0.1079E-02  0.9965E-03  0.2490E-03  0.2355E-03
      2.016  0.2949E-03  0.3879E-03  0.2861E-03  0.2843E-03
      2.142  0.1114E-04  0.2527E-04  0.2875E-03  0.2875E-03
      2.268  0.2698E-03  0.1143E-03  0.3215E-03  0.3019E-03
      2.394  0.1407E-02  0.1438E-02  0.4986E-03  0.4829E-03
      2.520  0.8774E-03  0.6945E-03  0.6091E-03  0.5704E-03
      2.645  0.5524E-03  0.7591E-03  0.6787E-03  0.6660E-03
      2.771  0.7749E-03  0.7482E-03  0.7762E-03  0.7602E-03
      2.897  0.1279E-02  0.1132E-02  0.9373E-03  0.9027E-03
      3.023  0.1840E-02  0.1585E-02  0.1169E-02  0.1102E-02
      3.149  0.3679E-03  0.8742E-03  0.1215E-02  0.1212E-02
      3.275  0.1088E-02  0.6427E-03  0.1352E-02  0.1293E-02
      3.401  0.8044E-04  0.5493E-03  0.1363E-02  0.1362E-02
      3.527  0.1438E-03  0.1095E-05  0.1381E-02  0.1363E-02
      3.653  0.2654E-02  0.1391E-02  0.1715E-02  0.1538E-02
      3.779  0.2175E-02  0.2638E-02  0.1989E-02  0.1870E-02
      3.905  0.2061E-02  0.1167E-02  0.2248E-02  0.2017E-02
      4.031  0.1666E-02  0.2086E-02  0.2458E-02  0.2280E-02
      4.156  0.2315E-02  0.1717E-02  0.2749E-02  0.2496E-02
      4.282  0.5016E-03  0.1675E-02  0.2813E-02  0.2707E-02
      4.408  0.1432E-02  0.8381E-03  0.2993E-02  0.2812E-02
      4.534  0.2320E-02  0.5545E-03  0.3285E-02  0.2882E-02
      4.660  0.2504E-02  0.1746E-02  0.3600E-02  0.3102E-02
      4.786  0.1927E-02  0.3111E-02  0.3843E-02  0.3494E-02
      4.912  0.3213E-02  0.7921E-03  0.4248E-02  0.3593E-02
      5.038  0.4990E-02  0.1572E-02  0.4876E-02  0.3791E-02
      5.164  0.1027E-01  0.2577E-02  0.6170E-02  0.4116E-02
      5.290  0.1073E-01  0.2877E-02  0.7521E-02  0.4478E-02
      5.416  0.9243E-02  0.1960E-02  0.8685E-02  0.4725E-02
      5.542  0.6933E-02  0.5721E-02  0.9558E-02  0.5445E-02
      5.668  0.1584E-01  0.8924E-03  0.1155E-01  0.5558E-02
      5.793  0.2290E-01  0.5777E-02  0.1444E-01  0.6285E-02
      5.919  0.1186E-01  0.3892E-02  0.1593E-01  0.6775E-02
      6.045  0.1600E-01  0.1280E-02  0.1794E-01  0.6936E-02
      6.171  0.2299E-01  0.1259E-02  0.2084E-01  0.7095E-02
      6.297  0.1340E-01  0.1321E-01  0.2253E-01  0.8758E-02
      6.423  0.1514E-01  0.1081E-01  0.2443E-01  0.1012E-01
      6.549  0.1869E-01  0.7969E-02  0.2679E-01  0.1112E-01
      6.675  0.1982E-01  0.6673E-02  0.2928E-01  0.1196E-01
      6.801  0.2265E-01  0.9259E-02  0.3213E-01  0.1313E-01
      6.927  0.2121E-01  0.1300E-01  0.3480E-01  0.1477E-01
      7.053  0.1759E-01  0.1007E-01  0.3702E-01  0.1604E-01
      7.179  0.1232E-01  0.9259E-02  0.3857E-01  0.1720E-01
      7.305  0.1392E-01  0.1948E-01  0.4032E-01  0.1965E-01
      7.430  0.2855E-01  0.1519E-01  0.4392E-01  0.2157E-01
      7.556  0.3048E-01  0.8138E-02  0.4776E-01  0.2259E-01
      7.682  0.2457E-01  0.1281E-01  0.5085E-01  0.2420E-01
      7.808  0.3283E-01  0.1532E-01  0.5498E-01  0.2613E-01
      7.934  0.2965E-01  0.1849E-01  0.5872E-01  0.2846E-01
      8.060  0.3166E-01  0.1574E-01  0.6270E-01  0.3044E-01
      8.186  0.2791E-01  0.2316E-01  0.6622E-01  0.3336E-01
      8.312  0.2616E-01  0.1832E-01  0.6951E-01  0.3567E-01
      8.438  0.1912E-01  0.1274E-01  0.7192E-01  0.3727E-01
      8.564  0.1725E-01  0.7267E-02  0.7409E-01  0.3819E-01
      8.690  0.1947E-01  0.9218E-02  0.7654E-01  0.3935E-01
      8.816  0.1183E-01  0.1319E-01  0.7803E-01  0.4101E-01
      8.942  0.2556E-01  0.1859E-01  0.8125E-01  0.4335E-01
      9.067  0.2161E-01  0.2602E-01  0.8397E-01  0.4662E-01
      9.193  0.1813E-01  0.2796E-01  0.8626E-01  0.5015E-01
      9.319  0.2668E-01  0.2220E-01  0.8961E-01  0.5294E-01
      9.445  0.4204E-01  0.2453E-01  0.9491E-01  0.5603E-01
      9.571  0.4865E-01  0.2769E-01  0.1010E+00  0.5952E-01
      9.697  0.2181E-01  0.3162E-01  0.1038E+00  0.6350E-01
      9.823  0.2740E-02  0.2293E-01  0.1041E+00  0.6639E-01
      9.949  0.8945E-02  0.2121E-01  0.1053E+00  0.6906E-01
     10.075  0.6648E-02  0.1416E-01  0.1061E+00  0.7084E-01
     10.201  0.4571E-02  0.1941E-01  0.1067E+00  0.7328E-01
     10.327  0.2215E-02  0.1183E-01  0.1069E+00  0.7477E-01
     10.453  0.5199E-04  0.1489E-01  0.1069E+00  0.7665E-01
     10.579  0.2966E-10  0.1220E-01  0.1070E+00  0.7818E-01
     10.704  0.1085E-04  0.1399E-01  0.1070E+00  0.7995E-01
     10.830  0.3095E-02  0.2431E-01  0.1073E+00  0.8301E-01
     10.956  0.4430E-02  0.1132E-01  0.1079E+00  0.8443E-01
     11.082  0.2079E-02  0.1773E-01  0.1082E+00  0.8666E-01
     11.208  0.2202E-02  0.2257E-01  0.1084E+00  0.8951E-01
     11.334  0.7754E-02  0.3519E-01  0.1094E+00  0.9394E-01
     11.460  0.3657E-02  0.4328E-01  0.1099E+00  0.9939E-01
     11.586  0.4585E-02  0.3348E-01  0.1105E+00  0.1036E+00
     11.712  0.1074E-02  0.1817E-01  0.1106E+00  0.1059E+00
     11.838  0.3031E-03  0.6480E-02  0.1106E+00  0.1067E+00
     11.964  0.3376E-02  0.2490E-02  0.1111E+00  0.1070E+00
     12.090  0.2942E-02  0.1556E-02  0.1114E+00  0.1072E+00
     12.215  0.4971E-02  0.4512E-02  0.1120E+00  0.1078E+00
     12.341  0.2105E-02  0.2399E-02  0.1123E+00  0.1081E+00
     12.467  0.2011E-05  0.2420E-02  0.1123E+00  0.1084E+00
     12.593  0.2032E-02  0.6178E-02  0.1126E+00  0.1092E+00
     12.719  0.3321E-02  0.5833E-02  0.1130E+00  0.1099E+00
     12.845  0.6696E-05  0.3600E-02  0.1130E+00  0.1104E+00
     12.971  0.7464E-03  0.2372E-02  0.1131E+00  0.1107E+00
     13.097  0.2861E-02  0.4835E-02  0.1134E+00  0.1113E+00
     13.223  0.1742E-02  0.4840E-02  0.1137E+00  0.1119E+00
     13.349  0.1210E-02  0.1946E-02  0.1138E+00  0.1121E+00
     13.475  0.1966E-02  0.2126E-02  0.1141E+00  0.1124E+00
     13.601  0.4837E-02  0.7872E-03  0.1147E+00  0.1125E+00
     13.727  0.4748E-02  0.3764E-02  0.1153E+00  0.1130E+00
     13.852  0.3430E-02  0.2127E-02  0.1157E+00  0.1132E+00
     13.978  0.2339E-02  0.1405E-02  0.1160E+00  0.1134E+00
     14.104  0.1407E-02  0.1961E-02  0.1162E+00  0.1137E+00
     14.230  0.3597E-03  0.8120E-03  0.1162E+00  0.1138E+00
     14.356  0.5015E-02  0.8946E-03  0.1168E+00  0.1139E+00
     14.482  0.2951E-02  0.7056E-02  0.1172E+00  0.1148E+00
     14.608  0.1203E-02  0.4108E-02  0.1174E+00  0.1153E+00
     14.734  0.6225E-03  0.4013E-02  0.1174E+00  0.1158E+00
     14.860  0.7119E-05  0.3077E-02  0.1175E+00  0.1162E+00
     14.986  0.1989E-02  0.1512E-03  0.1177E+00  0.1162E+00
     15.112  0.3410E-02  0.1112E-02  0.1181E+00  0.1163E+00
     15.238  0.6333E-03  0.3053E-02  0.1182E+00  0.1167E+00
     15.364  0.3087E-02  0.4443E-02  0.1186E+00  0.1173E+00
     15.489  0.4033E-03  0.7368E-03  0.1186E+00  0.1174E+00
     15.615  0.1334E-03  0.7123E-03  0.1187E+00  0.1175E+00
     15.741  0.1212E-02  0.3077E-02  0.1188E+00  0.1178E+00
     15.867  0.1029E-02  0.2832E-02  0.1189E+00  0.1182E+00
     15.993  0.8191E-05  0.7149E-04  0.1190E+00  0.1182E+00
     16.119  0.6684E-04  0.3024E-02  0.1190E+00  0.1186E+00
     16.245  0.1136E-02  0.5489E-03  0.1191E+00  0.1187E+00
     16.371  0.3760E-02  0.1094E-02  0.1196E+00  0.1188E+00
     16.497  0.1607E-02  0.4704E-03  0.1198E+00  0.1189E+00
     16.623  0.8433E-03  0.7885E-03  0.1199E+00  0.1189E+00
     16.749  0.6190E-03  0.8336E-04  0.1200E+00  0.1190E+00
     16.875  0.1945E-02  0.1110E-02  0.1202E+00  0.1191E+00
     17.001  0.1796E-02  0.2692E-02  0.1204E+00  0.1194E+00
     17.126  0.3146E-03  0.2043E-02  0.1205E+00  0.1197E+00
     17.252  0.2618E-02  0.1030E-02  0.1208E+00  0.1198E+00
     17.378  0.1467E-02  0.2080E-03  0.1210E+00  0.1199E+00
     17.504  0.4633E-03  0.1072E-02  0.1210E+00  0.1200E+00
     17.630  0.1624E-02  0.6372E-03  0.1212E+00  0.1201E+00
     17.756  0.4291E-02  0.2466E-02  0.1218E+00  0.1204E+00
     17.882  0.4309E-02  0.1580E-02  0.1223E+00  0.1206E+00
     18.008  0.2874E-02  0.2900E-02  0.1227E+00  0.1209E+00
     18.134  0.4978E-02  0.3615E-03  0.1233E+00  0.1210E+00
     18.260  0.2461E-02  0.6424E-04  0.1236E+00  0.1210E+00
     18.386  0.1075E-02  0.1183E-02  0.1238E+00  0.1211E+00
     18.512  0.5957E-02  0.1805E-02  0.1245E+00  0.1214E+00
     18.637  0.2249E-02  0.4235E-02  0.1248E+00  0.1219E+00
     18.763  0.4960E-02  0.5700E-02  0.1254E+00  0.1226E+00
     18.889  0.5369E-02  0.3641E-02  0.1261E+00  0.1231E+00
     19.015  0.3276E-02  0.4161E-02  0.1265E+00  0.1236E+00
     19.141  0.1284E-02  0.3474E-02  0.1267E+00  0.1240E+00
     19.267  0.1802E-02  0.3682E-02  0.1269E+00  0.1245E+00
     19.393  0.3105E-02  0.6246E-02  0.1273E+00  0.1253E+00
     19.519  0.4516E-02  0.4328E-02  0.1279E+00  0.1258E+00
     19.645  0.1665E-02  0.3420E-02  0.1281E+00  0.1263E+00
     19.771  0.4040E-02  0.2817E-02  0.1286E+00  0.1266E+00
     19.897  0.4706E-02  0.1940E-02  0.1292E+00  0.1269E+00
     20.023  0.1807E-02  0.5135E-02  0.1294E+00  0.1275E+00
     20.149  0.5263E-03  0.2141E-02  0.1295E+00  0.1278E+00
     20.274  0.5963E-02  0.4364E-02  0.1302E+00  0.1283E+00
     20.400  0.2388E-02  0.2183E-02  0.1305E+00  0.1286E+00
     20.526  0.7034E-02  0.4595E-02  0.1314E+00  0.1292E+00
     20.652  0.1374E-02  0.1694E-02  0.1316E+00  0.1294E+00
     20.778  0.6392E-02  0.1259E-02  0.1324E+00  0.1296E+00
     20.904  0.6262E-02  0.6884E-02  0.1332E+00  0.1304E+00
     21.030  0.2588E-02  0.5434E-02  0.1335E+00  0.1311E+00
     21.156  0.6711E-02  0.4476E-02  0.1343E+00  0.1317E+00
     21.282  0.1829E-02  0.4956E-02  0.1346E+00  0.1323E+00
     21.408  0.7963E-03  0.5794E-02  0.1347E+00  0.1330E+00
     21.534  0.1992E-02  0.2310E-02  0.1349E+00  0.1333E+00
     21.660  0.1620E-02  0.5195E-02  0.1351E+00  0.1340E+00
     21.786  0.4454E-02  0.4850E-02  0.1357E+00  0.1346E+00
     21.911  0.5386E-02  0.7317E-03  0.1364E+00  0.1347E+00
     22.037  0.3121E-02  0.2421E-02  0.1368E+00  0.1350E+00
     22.163  0.5557E-02  0.2962E-02  0.1375E+00  0.1354E+00
     22.289  0.1302E-02  0.2434E-02  0.1376E+00  0.1357E+00
     22.415  0.2047E-02  0.5368E-02  0.1379E+00  0.1363E+00
     22.541  0.2133E-02  0.4304E-02  0.1381E+00  0.1369E+00
     22.667  0.9741E-03  0.4876E-02  0.1383E+00  0.1375E+00
     22.793  0.4180E-02  0.1004E-02  0.1388E+00  0.1376E+00
     22.919  0.1687E-02  0.2737E-02  0.1390E+00  0.1380E+00
     23.045  0.3562E-02  0.1169E-02  0.1395E+00  0.1381E+00
     23.171  0.5497E-02  0.2133E-02  0.1402E+00  0.1384E+00
     23.297  0.1777E-02  0.3240E-02  0.1404E+00  0.1388E+00
     23.423  0.6229E-03  0.3244E-02  0.1405E+00  0.1392E+00
     23.548  0.2651E-02  0.4615E-02  0.1408E+00  0.1398E+00
     23.674  0.4885E-02  0.3658E-02  0.1414E+00  0.1402E+00
     23.800  0.1344E-02  0.1128E-02  0.1416E+00  0.1404E+00
     23.926  0.4952E-02  0.1128E-02  0.1422E+00  0.1405E+00
     24.052  0.5669E-02  0.3502E-02  0.1429E+00  0.1410E+00
     24.178  0.4773E-02  0.4379E-02  0.1435E+00  0.1415E+00
     24.304  0.3049E-02  0.3304E-02  0.1439E+00  0.1419E+00
     24.430  0.2449E-02  0.5015E-02  0.1442E+00  0.1426E+00
     24.556  0.8838E-03  0.6062E-02  0.1443E+00  0.1433E+00
     24.682  0.9696E-03  0.2670E-02  0.1444E+00  0.1437E+00
     24.808  0.5933E-02  0.3526E-02  0.1452E+00  0.1441E+00
     24.934  0.4360E-02  0.1462E-02  0.1457E+00  0.1443E+00
     25.059  0.2435E-02  0.3878E-03  0.1460E+00  0.1443E+00
     25.185  0.4058E-02  0.4035E-02  0.1465E+00  0.1448E+00
     25.311  0.3226E-02  0.5313E-02  0.1470E+00  0.1455E+00
     25.437  0.1899E-02  0.3821E-02  0.1472E+00  0.1460E+00
     25.563  0.2483E-02  0.3377E-02  0.1475E+00  0.1464E+00
     25.689  0.5440E-02  0.3141E-02  0.1482E+00  0.1468E+00
     25.815  0.5736E-02  0.3125E-02  0.1489E+00  0.1472E+00
     25.941  0.2769E-02  0.2845E-02  0.1493E+00  0.1476E+00
     26.067  0.3122E-02  0.5118E-02  0.1497E+00  0.1482E+00
     26.193  0.3611E-02  0.6725E-02  0.1501E+00  0.1491E+00
     26.319  0.5551E-02  0.2236E-02  0.1508E+00  0.1493E+00
     26.445  0.1012E-02  0.2928E-02  0.1509E+00  0.1497E+00
     26.571  0.1588E-02  0.4933E-02  0.1511E+00  0.1503E+00
     26.696  0.3177E-02  0.5278E-02  0.1515E+00  0.1510E+00
     26.822  0.7286E-03  0.9462E-03  0.1516E+00  0.1511E+00
     26.948  0.2067E-02  0.2173E-02  0.1519E+00  0.1514E+00
     27.074  0.1423E-02  0.1943E-02  0.1521E+00  0.1516E+00
     27.200  0.4034E-02  0.1041E-02  0.1526E+00  0.1518E+00
     27.326  0.4620E-02  0.2029E-02  0.1532E+00  0.1520E+00
     27.452  0.2599E-02  0.1724E-02  0.1535E+00  0.1522E+00
     27.578  0.4825E-03  0.4008E-02  0.1535E+00  0.1527E+00
     27.704  0.3365E-02  0.5631E-02  0.1540E+00  0.1534E+00
     27.830  0.1706E-02  0.3849E-03  0.1542E+00  0.1535E+00
     27.956  0.2692E-02  0.3883E-02  0.1545E+00  0.1540E+00
     28.082  0.2557E-02  0.8288E-03  0.1548E+00  0.1541E+00
     28.208  0.9239E-03  0.2482E-02  0.1550E+00  0.1544E+00
     28.333  0.1002E-02  0.2359E-02  0.1551E+00  0.1547E+00
     28.459  0.2267E-02  0.2420E-02  0.1554E+00  0.1550E+00
     28.585  0.1265E-02  0.1027E-02  0.1555E+00  0.1551E+00
     28.711  0.6342E-03  0.8780E-03  0.1556E+00  0.1552E+00
     28.837  0.2742E-03  0.1940E-02  0.1556E+00  0.1555E+00
     28.963  0.2811E-02  0.1490E-02  0.1560E+00  0.1557E+00
     29.089  0.3415E-02  0.3718E-03  0.1564E+00  0.1557E+00
     29.215  0.7553E-04  0.2285E-02  0.1564E+00  0.1560E+00
     29.341  0.2240E-02  0.2529E-02  0.1567E+00  0.1563E+00
     29.467  0.1986E-02  0.1029E-02  0.1570E+00  0.1565E+00
     29.593  0.1724E-02  0.2686E-02  0.1572E+00  0.1568E+00
     29.719  0.1560E-02  0.1092E-02  0.1574E+00  0.1569E+00
     29.845  0.8029E-03  0.1939E-02  0.1575E+00  0.1572E+00
     29.970  0.9339E-04  0.2352E-02  0.1575E+00  0.1575E+00
     30.096  0.1129E-02  0.4219E-03  0.1576E+00  0.1575E+00
     30.222  0.1121E-02  0.8586E-03  0.1578E+00  0.1576E+00
     30.348  0.8973E-04  0.1847E-05  0.1578E+00  0.1576E+00
     30.474  0.1124E-02  0.5890E-03  0.1579E+00  0.1577E+00
     30.600  0.1159E-02  0.1798E-02  0.1581E+00  0.1579E+00
     30.726  0.1180E-02  0.1103E-02  0.1582E+00  0.1581E+00
     30.852  0.6125E-04  0.1029E-02  0.1582E+00  0.1582E+00
     30.978  0.1237E-09  0.2460E-03  0.1582E+00  0.1582E+00
     31.104  0.4960E-05  0.3595E-04  0.1582E+00  0.1582E+00
     31.230  0.1096E-02  0.7017E-03  0.1584E+00  0.1583E+00
     31.356  0.5423E-03  0.6518E-03  0.1584E+00  0.1584E+00
     31.482  0.5116E-03  0.1401E-03  0.1585E+00  0.1584E+00
     31.607  0.2093E-02  0.7112E-03  0.1588E+00  0.1585E+00
     31.733  0.1197E-03  0.2102E-02  0.1588E+00  0.1588E+00
     31.859  0.4235E-05  0.8386E-04  0.1588E+00  0.1588E+00
     31.985  0.9581E-03  0.1203E-02  0.1589E+00  0.1589E+00
     32.111  0.2552E-03  0.2264E-03  0.1589E+00  0.1590E+00
     32.237  0.7864E-03  0.5932E-08  0.1590E+00  0.1590E+00
     32.363  0.1044E-02  0.2259E-04  0.1592E+00  0.1590E+00
     32.489  0.1499E-02  0.1050E-02  0.1594E+00  0.1591E+00
     32.615  0.1226E-02  0.1581E-02  0.1595E+00  0.1593E+00
     32.741  0.8770E-03  0.2409E-02  0.1596E+00  0.1596E+00
     32.867  0.6488E-05  0.2978E-03  0.1596E+00  0.1597E+00
     32.993  0.1135E-02  0.8023E-03  0.1598E+00  0.1598E+00
     33.118  0.2485E-03  0.3878E-03  0.1598E+00  0.1598E+00
     33.244  0.5296E-08  0.4754E-05  0.1598E+00  0.1598E+00
     33.370  0.1138E-10  0.1825E-03  0.1598E+00  0.1598E+00
     33.496  0.8122E-05  0.1133E-04  0.1598E+00  0.1598E+00
     33.622  0.1836E-03  0.2703E-10  0.1598E+00  0.1598E+00
     33.748  0.6805E-05  0.4143E-16  0.1598E+00  0.1598E+00
     33.874  0.7526E-11  0.3731E-07  0.1598E+00  0.1598E+00
     34.000  0.2991E-05  0.2341E-03  0.1598E+00  0.1599E+00
     34.126  0.4963E-03  0.5201E-03  0.1599E+00  0.1599E+00
     34.252  0.1061E-03  0.3983E-04  0.1599E+00  0.1599E+00
     34.378  0.2414E-03  0.4944E-04  0.1599E+00  0.1599E+00
     34.504  0.1456E-03  0.1487E-03  0.1599E+00  0.1599E+00
     34.630  0.2525E-06  0.3896E-06  0.1599E+00  0.1600E+00
     34.755  0.4682E-14  0.6160E-06  0.1599E+00  0.1600E+00
     34.881  0.6224E-08  0.1573E-03  0.1600E+00  0.1600E+00
     35.007  0.6545E-04  0.4064E-04  0.1600E+00  0.1600E+00
     35.133  0.1329E-03  0.4086E-05  0.1600E+00  0.1600E+00
     35.259  0.1305E-05  0.9180E-04  0.1600E+00  0.1600E+00
     35.385  0.8824E-04  0.4419E-05  0.1600E+00  0.1600E+00
     35.511  0.9906E-05  0.8778E-04  0.1600E+00  0.1600E+00
     35.637  0.9692E-05  0.1046E-04  0.1600E+00  0.1600E+00
     35.763  0.8841E-04  0.7366E-10  0.1600E+00  0.1600E+00
     35.889  0.1163E-05  0.0000E+00  0.1600E+00  0.1600E+00
     36.015  0.2783E-12  0.0000E+00  0.1600E+00  0.1600E+00
     36.141  0.0000E+00  0.0000E+00  0.1600E+00  0.1600E+00
     36.267  0.0000E+00  0.0000E+00  0.1600E+00  0.1600E+00
     36.392  0.0000E+00  0.0000E+00  0.1600E+00  0.1600E+00
     36.518  0.0000E+00  0.0000E+00  0.1600E+00  0.1600E+00
     36.644  0.0000E+00  0.0000E+00  0.1600E+00  0.1600E+00
     36.770  0.0000E+00  0.0000E+00  0.1600E+00  0.1600E+00
     36.896  0.0000E+00  0.0000E+00  0.1600E+00  0.1600E+00
     37.022  0.0000E+00  0.0000E+00  0.1600E+00  0.1600E+00
     37.148  0.0000E+00  0.0000E+00  0.1600E+00  0.1600E+00
     37.274  0.0000E+00  0.0000E+00  0.1600E+00  0.1600E+00
     37.400  0.0000E+00  0.0000E+00  0.1600E+00  0.1600E+00
     37.39982542     -0.37668175  301     10.20321888      1.00000000
     -0.377  0.0000E+00  0.0000E+00  0.0000E+00  0.0000E+00  0.0000E+00  0.0000E+00  0.0000E+00  0.0000E+00  0.0000E+00  0.0000E+00  0.0000E+00  0.0000E+00  0.0000E+00  0.0000E+00  0.0000E+00  0.0000E+00  0.0000E+00  0.0000E+00
     -0.251  0.0000E+00  0.0000E+00  0.0000E+00  0.0000E+00  0.0000E+00  0.0000E+00  0.0000E+00  0.0000E+00  0.0000E+00  0.0000E+00  0.0000E+00  0.0000E+00  0.0000E+00  0.0000E+00  0.0000E+00  0.0000E+00  0.0000E+00  0.0000E+00
     -0.125  0.0000E+00  0.0000E+00  0.0000E+00  0.0000E+00  0.0000E+00  0.0000E+00  0.0000E+00  0.0000E+00  0.0000E+00  0.0000E+00  0.0000E+00  0.0000E+00  0.0000E+00  0.0000E+00  0.0000E+00  0.0000E+00  0.0000E+00  0.0000E+00
      0.001  0.0000E+00  0.0000E+00  0.0000E+00  0.0000E+00  0.0000E+00  0.0000E+00  0.0000E+00  0.0000E+00  0.0000E+00  0.0000E+00  0.0000E+00  0.0000E+00  0.0000E+00  0.0000E+00  0.0000E+00  0.0000E+00  0.0000E+00  0.0000E+00
      0.127  0.0000E+00  0.0000E+00  0.0000E+00  0.0000E+00  0.0000E+00  0.0000E+00  0.0000E+00  0.0000E+00  0.0000E+00  0.0000E+00  0.0000E+00  0.0000E+00  0.0000E+00  0.0000E+00  0.0000E+00  0.0000E+00  0.0000E+00  0.0000E+00
      0.253  0.0000E+00  0.0000E+00  0.0000E+00  0.0000E+00  0.0000E+00  0.0000E+00  0.0000E+00  0.0000E+00  0.0000E+00  0.0000E+00  0.0000E+00  0.0000E+00  0.0000E+00  0.0000E+00  0.0000E+00  0.0000E+00  0.0000E+00  0.0000E+00
      0.379  0.0000E+00  0.0000E+00  0.0000E+00  0.0000E+00  0.0000E+00  0.0000E+00  0.0000E+00  0.0000E+00  0.0000E+00  0.0000E+00  0.0000E+00  0.0000E+00  0.0000E+00  0.0000E+00  0.0000E+00  0.0000E+00  0.0000E+00  0.0000E+00
      0.505  0.0000E+00  0.0000E+00  0.0000E+00  0.0000E+00  0.0000E+00  0.0000E+00  0.0000E+00  0.0000E+00  0.0000E+00  0.0000E+00  0.0000E+00  0.0000E+00  0.0000E+00  0.0000E+00  0.0000E+00  0.0000E+00  0.0000E+00  0.0000E+00
      0.631  0.0000E+00  0.0000E+00  0.0000E+00  0.0000E+00  0.0000E+00  0.0000E+00  0.0000E+00  0.0000E+00  0.0000E+00  0.0000E+00  0.0000E+00  0.0000E+00  0.0000E+00  0.0000E+00  0.0000E+00  0.0000E+00  0.0000E+00  0.0000E+00
      0.757  0.0000E+00  0.0000E+00  0.0000E+00  0.0000E+00  0.0000E+00  0.0000E+00  0.0000E+00  0.0000E+00  0.0000E+00  0.0000E+00  0.0000E+00  0.0000E+00  0.0000E+00  0.0000E+00  0.0000E+00  0.0000E+00  0.0000E+00  0.0000E+00
      0.883  0.0000E+00  0.0000E+00  0.0000E+00  0.0000E+00  0.0000E+00  0.0000E+00  0.0000E+00  0.0000E+00  0.0000E+00  0.0000E+00  0.0000E+00  0.0000E+00  0.0000E+00  0.0000E+00  0.0000E+00  0.0000E+00  0.0000E+00  0.0000E+00
      1.008  0.0000E+00  0.0000E+00  0.0000E+00  0.0000E+00  0.0000E+00  0.0000E+00  0.0000E+00  0.0000E+00  0.0000E+00  0.0000E+00  0.0000E+00  0.0000E+00  0.0000E+00  0.0000E+00  0.0000E+00  0.0000E+00  0.0000E+00  0.0000E+00
      1.134  0.1008E-10  0.1310E-11  0.6230E-26  0.1075E-26  0.5124E-38  0.2027E-35  0.6230E-26  0.1075E-26  0.3194E-24  0.2112E-24  0.4094E-25  0.1674E-23  0.4041E-16  0.8675E-17  0.4094E-25  0.1674E-23  0.3194E-24  0.2112E-24
      1.260  0.4211E-04  0.1685E-04  0.2602E-19  0.1383E-19  0.9505E-15  0.8259E-16  0.2602E-19  0.1383E-19  0.1334E-17  0.2717E-17  0.1710E-18  0.2153E-16  0.1688E-09  0.1116E-09  0.1710E-18  0.2153E-16  0.1334E-17  0.2717E-17
      1.386  0.3208E-02  0.2977E-02  0.2049E-17  0.2445E-17  0.8376E-07  0.2410E-07  0.2049E-17  0.2445E-17  0.1019E-15  0.4801E-15  0.1489E-16  0.3804E-14  0.1385E-07  0.1989E-07  0.1489E-16  0.3804E-14  0.1019E-15  0.4801E-15
      1.512  0.4991E-02  0.4290E-02  0.9344E-10  0.1249E-10  0.6981E-04  0.5582E-04  0.9344E-10  0.1249E-10  0.2505E-11  0.2429E-12  0.1574E-14  0.4067E-14  0.8476E-06  0.4234E-06  0.1574E-14  0.4067E-14  0.2505E-11  0.2429E-12
      1.638  0.3968E-02  0.4097E-02  0.2566E-04  0.1192E-04  0.3671E-04  0.5135E-04  0.2566E-04  0.1192E-04  0.6877E-06  0.2312E-06  0.9879E-13  0.1830E-13  0.1036E-05  0.6044E-06  0.9879E-13  0.1830E-13  0.6877E-06  0.2312E-06
      1.764  0.1948E-01  0.1945E-01  0.3273E-03  0.3288E-03  0.7738E-05  0.2543E-05  0.3273E-03  0.3288E-03  0.8781E-05  0.6376E-05  0.3770E-06  0.9011E-07  0.7352E-05  0.5980E-05  0.3770E-06  0.9011E-07  0.8781E-05  0.6376E-05
      1.890  0.3724E-01  0.3437E-01  0.6265E-03  0.5837E-03  0.5705E-03  0.5174E-03  0.6265E-03  0.5837E-03  0.1744E-04  0.1162E-04  0.2732E-04  0.1834E-04  0.1603E-05  0.1137E-05  0.2732E-04  0.1834E-04  0.1744E-04  0.1162E-04
      2.016  0.1010E-01  0.1330E-01  0.6548E-04  0.1268E-03  0.4348E-03  0.4717E-03  0.6548E-04  0.1268E-03  0.1823E-05  0.2526E-05  0.2884E-05  0.4087E-05  0.2654E-04  0.1705E-04  0.2884E-05  0.4087E-05  0.1823E-05  0.2526E-05
      2.142  0.3798E-03  0.8608E-03  0.5677E-08  0.3100E-08  0.2292E-04  0.5253E-04  0.5677E-08  0.3100E-08  0.1812E-09  0.6256E-10  0.1004E-08  0.1388E-09  0.1614E-05  0.2484E-05  0.1004E-08  0.1388E-09  0.1812E-09  0.6256E-10
      2.268  0.8865E-02  0.3757E-02  0.1557E-03  0.6575E-04  0.5404E-03  0.2329E-03  0.1557E-03  0.6575E-04  0.5218E-05  0.1471E-05  0.2826E-04  0.8709E-05  0.1903E-04  0.5358E-05  0.2826E-04  0.8709E-05  0.5218E-05  0.1471E-05
      2.394  0.4612E-01  0.4716E-01  0.1335E-02  0.1241E-02  0.1861E-02  0.2172E-02  0.1335E-02  0.1241E-02  0.8489E-04  0.5084E-04  0.9737E-04  0.8123E-04  0.1196E-03  0.8036E-04  0.9737E-04  0.8123E-04  0.8489E-04  0.5084E-04
      2.520  0.2820E-01  0.2242E-01  0.1446E-02  0.1149E-02  0.3897E-03  0.2620E-03  0.1446E-02  0.1149E-02  0.1258E-03  0.6912E-04  0.7200E-04  0.3085E-04  0.6156E-04  0.3973E-04  0.7200E-04  0.3085E-04  0.1258E-03  0.6912E-04
      2.645  0.1762E-01  0.2434E-01  0.9193E-03  0.1273E-02  0.3185E-03  0.3886E-03  0.9193E-03  0.1273E-02  0.9398E-04  0.7962E-04  0.3965E-04  0.4733E-04  0.7183E-04  0.3939E-04  0.3965E-04  0.4733E-04  0.9398E-04  0.7962E-04
      2.771  0.2424E-01  0.2352E-01  0.1281E-02  0.1231E-02  0.7792E-03  0.7968E-03  0.1281E-02  0.1231E-02  0.1931E-03  0.1202E-03  0.1593E-04  0.1415E-05  0.2766E-03  0.1906E-03  0.1593E-04  0.1415E-05  0.1931E-03  0.1202E-03
      2.897  0.3927E-01  0.3497E-01  0.2565E-02  0.2383E-02  0.9289E-03  0.6435E-03  0.2565E-02  0.2383E-02  0.3875E-03  0.2408E-03  0.2315E-03  0.1088E-03  0.1507E-03  0.1120E-03  0.2315E-03  0.1088E-03  0.3875E-03  0.2408E-03
      3.023  0.5558E-01  0.4821E-01  0.2036E-02  0.2220E-02  0.5414E-02  0.3798E-02  0.2036E-02  0.2220E-02  0.1823E-03  0.1506E-03  0.5896E-03  0.3650E-03  0.5966E-03  0.1775E-03  0.5896E-03  0.3650E-03  0.1823E-03  0.1506E-03
      3.149  0.1103E-01  0.2641E-01  0.2381E-03  0.5409E-03  0.1465E-02  0.3605E-02  0.2381E-03  0.5409E-03  0.1779E-04  0.1849E-04  0.9866E-04  0.1569E-03  0.2379E-03  0.3649E-03  0.9866E-04  0.1569E-03  0.1779E-04  0.1849E-04
      3.275  0.3146E-01  0.1877E-01  0.2151E-02  0.1317E-02  0.2004E-02  0.1220E-02  0.2151E-02  0.1317E-02  0.4183E-03  0.1546E-03  0.6362E-03  0.2452E-03  0.1606E-04  0.5795E-05  0.6362E-03  0.2452E-03  0.4183E-03  0.1546E-03
      3.401  0.2327E-02  0.1604E-01  0.1591E-03  0.1127E-02  0.1482E-03  0.1040E-02  0.1591E-03  0.1127E-02  0.3093E-04  0.1324E-03  0.4705E-04  0.2098E-03  0.1187E-05  0.4483E-05  0.4705E-04  0.2098E-03  0.3093E-04  0.1324E-03
      3.527  0.3945E-02  0.3069E-04  0.3650E-03  0.3238E-05  0.2349E-03  0.1066E-05  0.3650E-03  0.3238E-05  0.9777E-04  0.5407E-06  0.3477E-04  0.1664E-06  0.1310E-03  0.3947E-06  0.3477E-04  0.1664E-06  0.9777E-04  0.5407E-06
      3.653  0.7255E-01  0.3868E-01  0.6206E-02  0.3512E-02  0.5580E-02  0.2785E-02  0.6206E-02  0.3512E-02  0.1575E-02  0.5518E-03  0.1111E-02  0.3461E-03  0.1965E-02  0.6106E-03  0.1111E-02  0.3461E-03  0.1575E-02  0.5518E-03
      3.779  0.5834E-01  0.7256E-01  0.6940E-02  0.7448E-02  0.1207E-02  0.4057E-02  0.6940E-02  0.7448E-02  0.2129E-02  0.1297E-02  0.7875E-03  0.6701E-03  0.1267E-02  0.1174E-02  0.7875E-03  0.6701E-03  0.2129E-02  0.1297E-02
      3.905  0.5309E-01  0.3164E-01  0.2502E-02  0.3599E-02  0.9881E-02  0.1431E-02  0.2502E-02  0.3599E-02  0.6135E-03  0.6640E-03  0.1913E-02  0.3767E-03  0.3477E-02  0.4365E-03  0.1913E-02  0.3767E-03  0.6135E-03  0.6640E-03
      4.031  0.4128E-01  0.5510E-01  0.4321E-02  0.2458E-02  0.3644E-02  0.1118E-01  0.4321E-02  0.2458E-02  0.1716E-02  0.3093E-03  0.1929E-02  0.1201E-02  0.1360E-02  0.2327E-02  0.1929E-02  0.1201E-02  0.1716E-02  0.3093E-03
      4.156  0.5601E-01  0.4382E-01  0.7406E-02  0.5429E-02  0.2016E-02  0.3015E-02  0.7406E-02  0.5429E-02  0.4276E-02  0.1232E-02  0.2023E-02  0.1305E-02  0.1586E-02  0.4705E-03  0.2023E-02  0.1305E-02  0.4276E-02  0.1232E-02
      4.282  0.1176E-01  0.4239E-01  0.1685E-02  0.5976E-02  0.1663E-03  0.1536E-02  0.1685E-02  0.5976E-02  0.1308E-02  0.1821E-02  0.3016E-03  0.8040E-03  0.5022E-03  0.7347E-03  0.3016E-03  0.8040E-03  0.1308E-02  0.1821E-02
      4.408  0.3106E-01  0.2075E-01  0.2808E-02  0.3220E-02  0.5111E-02  0.3189E-03  0.2808E-02  0.3220E-02  0.2217E-02  0.1258E-02  0.2686E-02  0.2702E-03  0.2974E-02  0.5384E-03  0.2686E-02  0.2702E-03  0.2217E-02  0.1258E-02
      4.534  0.4933E-01  0.1322E-01  0.4940E-02  0.8004E-03  0.8083E-02  0.3518E-02  0.4940E-02  0.8004E-03  0.3153E-02  0.9919E-04  0.5821E-02  0.5997E-03  0.3141E-02  0.7145E-03  0.5821E-02  0.5997E-03  0.3153E-02  0.9919E-04
      4.660  0.5211E-01  0.4044E-01  0.4736E-02  0.4523E-02  0.1097E-01  0.6104E-02  0.4736E-02  0.4523E-02  0.2506E-02  0.1803E-02  0.6706E-02  0.2111E-02  0.4360E-02  0.1545E-02  0.6706E-02  0.2111E-02  0.2506E-02  0.1803E-02
      4.786  0.3526E-01  0.7002E-01  0.2445E-02  0.7901E-02  0.7920E-02  0.1269E-01  0.2445E-02  0.7901E-02  0.3043E-02  0.2283E-02  0.4468E-02  0.5363E-02  0.1269E-01  0.1840E-02  0.4468E-02  0.5363E-02  0.3043E-02  0.2283E-02
      4.912  0.5883E-01  0.1775E-01  0.1163E-01  0.1446E-02  0.1545E-02  0.4658E-02  0.1163E-01  0.1446E-02  0.1259E-01  0.3430E-03  0.3772E-02  0.1238E-02  0.9685E-02  0.9328E-03  0.3772E-02  0.1238E-02  0.1259E-01  0.3430E-03
      5.038  0.7674E-01  0.3387E-01  0.1419E-01  0.2946E-02  0.1874E-02  0.8440E-02  0.1419E-01  0.2946E-02  0.2542E-01  0.9006E-03  0.1462E-01  0.4757E-03  0.1440E-01  0.8369E-02  0.1462E-01  0.4757E-03  0.2542E-01  0.9006E-03
      5.164  0.1236E+00  0.5281E-01  0.1509E-01  0.1036E-01  0.1674E-01  0.3706E-02  0.1509E-01  0.1036E-01  0.4966E-01  0.5128E-02  0.5494E-01  0.3557E-02  0.4655E-01  0.2587E-02  0.5494E-01  0.3557E-02  0.4966E-01  0.5128E-02
      5.290  0.9640E-01  0.5744E-01  0.8864E-02  0.1298E-01  0.1498E-01  0.9037E-03  0.8864E-02  0.1298E-01  0.5422E-01  0.8849E-02  0.7833E-01  0.1604E-02  0.6373E-01  0.4276E-02  0.7833E-01  0.1604E-02  0.5422E-01  0.8849E-02
      5.416  0.7263E-01  0.3764E-01  0.7972E-02  0.8129E-02  0.1081E-01  0.2881E-02  0.7972E-02  0.8129E-02  0.5093E-01  0.4299E-02  0.6906E-01  0.3349E-02  0.5863E-01  0.2312E-02  0.6906E-01  0.3349E-02  0.5093E-01  0.4299E-02
      5.542  0.3703E-01  0.1036E+00  0.4849E-02  0.1552E-01  0.5062E-02  0.2295E-01  0.4849E-02  0.1552E-01  0.6945E-01  0.9853E-02  0.4644E-01  0.1491E-01  0.1983E-01  0.1144E-01  0.4644E-01  0.1491E-01  0.6945E-01  0.9853E-02
      5.668  0.8058E-01  0.1518E-01  0.1373E-01  0.2279E-02  0.1578E-01  0.3097E-02  0.1373E-01  0.2279E-02  0.1204E+00  0.2741E-02  0.1060E+00  0.1497E-02  0.1181E+00  0.3439E-02  0.1060E+00  0.1497E-02  0.1204E+00  0.2741E-02
      5.793  0.1078E+00  0.9014E-01  0.2232E-01  0.1402E-01  0.2391E-01  0.1802E-01  0.2232E-01  0.1402E-01  0.1764E+00  0.1900E-01  0.1499E+00  0.1686E-01  0.1775E+00  0.1925E-01  0.1499E+00  0.1686E-01  0.1764E+00  0.1900E-01
      5.919  0.3237E-01  0.5619E-01  0.8256E-02  0.9170E-02  0.1199E-01  0.8759E-02  0.8256E-02  0.9170E-02  0.8112E-01  0.1248E-01  0.1131E+00  0.1586E-01  0.7929E-01  0.1487E-01  0.1131E+00  0.1586E-01  0.8112E-01  0.1248E-01