   2   2   1   0
  0.1064014E+02  0.2472000E-09  0.2472000E-09  0.4021144E-09  0.5000000E-15
  1.000000000000000E-004
  CAR 
 Co-hcp                                  
     36.89067826     -0.31951816  301     10.26669515      1.00000000
     -0.320  0.0000E+00  0.0000E+00  0.0000E+00  0.0000E+00
     -0.195  0.0000E+00  0.0000E+00  0.0000E+00  0.0000E+00
     -0.071  0.0000E+00  0.0000E+00  0.0000E+00  0.0000E+00
      0.053  0.0000E+00  0.0000E+00  0.0000E+00  0.0000E+00
      0.177  0.0000E+00  0.0000E+00  0.0000E+00  0.0000E+00
      0.301  0.0000E+00  0.0000E+00  0.0000E+00  0.0000E+00
      0.425  0.0000E+00  0.0000E+00  0.0000E+00  0.0000E+00
      0.549  0.0000E+00  0.0000E+00  0.0000E+00  0.0000E+00
      0.673  0.0000E+00  0.0000E+00  0.0000E+00  0.0000E+00
      0.797  0.0000E+00  0.0000E+00  0.0000E+00  0.0000E+00
      0.921  0.0000E+00  0.0000E+00  0.0000E+00  0.0000E+00
      1.045  0.0000E+00  0.0000E+00  0.0000E+00  0.0000E+00
      1.169  0.1910E-12  0.3299E-12  0.2369E-13  0.4092E-13
      1.293  0.7035E-06  0.8952E-06  0.8726E-07  0.1110E-06
      1.417  0.6107E-04  0.6211E-04  0.7662E-05  0.7814E-05
      1.541  0.9553E-04  0.9952E-04  0.1951E-04  0.2016E-04
      1.665  0.4340E-03  0.4333E-03  0.7334E-04  0.7391E-04
      1.789  0.5911E-03  0.5992E-03  0.1467E-03  0.1482E-03
      1.913  0.2884E-03  0.2756E-03  0.1824E-03  0.1824E-03
      2.037  0.1438E-03  0.1413E-03  0.2003E-03  0.1999E-03
      2.161  0.4309E-03  0.4271E-03  0.2537E-03  0.2529E-03
      2.285  0.1570E-02  0.1538E-02  0.4484E-03  0.4437E-03
      2.409  0.5486E-03  0.5715E-03  0.5165E-03  0.5146E-03
      2.533  0.7756E-03  0.7744E-03  0.6127E-03  0.6106E-03
      2.657  0.2238E-03  0.1702E-03  0.6404E-03  0.6317E-03
      2.781  0.7733E-03  0.8280E-03  0.7364E-03  0.7344E-03
      2.905  0.5862E-03  0.3746E-03  0.8091E-03  0.7809E-03
      3.029  0.1853E-02  0.1926E-02  0.1039E-02  0.1020E-02
      3.153  0.1482E-02  0.1237E-02  0.1223E-02  0.1173E-02
      3.277  0.2925E-03  0.6891E-03  0.1259E-02  0.1259E-02
      3.402  0.9391E-03  0.4650E-03  0.1376E-02  0.1316E-02
      3.526  0.2086E-02  0.1247E-02  0.1634E-02  0.1471E-02
      3.650  0.1683E-02  0.2769E-02  0.1843E-02  0.1814E-02
      3.774  0.8794E-04  0.2753E-03  0.1854E-02  0.1849E-02
      3.898  0.1488E-02  0.3419E-03  0.2038E-02  0.1891E-02
      4.022  0.5228E-03  0.1397E-02  0.2103E-02  0.2064E-02
      4.146  0.2739E-02  0.5922E-03  0.2443E-02  0.2138E-02
      4.270  0.2933E-02  0.3034E-02  0.2807E-02  0.2514E-02
      4.394  0.1482E-02  0.2452E-02  0.2991E-02  0.2818E-02
      4.518  0.2841E-02  0.1125E-02  0.3343E-02  0.2958E-02
      4.642  0.1678E-02  0.1822E-02  0.3551E-02  0.3184E-02
      4.766  0.1234E-02  0.1865E-02  0.3704E-02  0.3415E-02
      4.890  0.3522E-02  0.1035E-02  0.4141E-02  0.3543E-02
      5.014  0.2338E-02  0.1263E-02  0.4431E-02  0.3700E-02
      5.138  0.7086E-02  0.2837E-02  0.5310E-02  0.4052E-02
      5.262  0.1010E-01  0.1939E-02  0.6563E-02  0.4292E-02
      5.386  0.9922E-02  0.2998E-02  0.7793E-02  0.4664E-02
      5.510  0.8356E-02  0.2695E-02  0.8830E-02  0.4999E-02
      5.634  0.1450E-01  0.3495E-02  0.1063E-01  0.5432E-02
      5.758  0.1601E-01  0.3197E-02  0.1261E-01  0.5829E-02
      5.882  0.1057E-01  0.3291E-02  0.1392E-01  0.6237E-02
      6.006  0.2584E-01  0.6480E-02  0.1713E-01  0.7041E-02
      6.130  0.1483E-01  0.3267E-02  0.1897E-01  0.7446E-02
      6.254  0.1500E-01  0.4462E-02  0.2083E-01  0.7999E-02
      6.378  0.1557E-01  0.8985E-02  0.2276E-01  0.9114E-02
      6.502  0.1922E-01  0.1183E-01  0.2514E-01  0.1058E-01
      6.626  0.1517E-01  0.7079E-02  0.2703E-01  0.1146E-01
      6.750  0.2301E-01  0.9438E-02  0.2988E-01  0.1263E-01
      6.874  0.1904E-01  0.7845E-02  0.3224E-01  0.1360E-01
      6.998  0.2316E-01  0.1074E-01  0.3511E-01  0.1494E-01
      7.123  0.1813E-01  0.1506E-01  0.3736E-01  0.1680E-01
      7.247  0.8749E-02  0.1315E-01  0.3845E-01  0.1843E-01
      7.371  0.1553E-01  0.1473E-01  0.4037E-01  0.2026E-01
      7.495  0.2930E-01  0.1215E-01  0.4401E-01  0.2177E-01
      7.619  0.3007E-01  0.1192E-01  0.4774E-01  0.2325E-01
      7.743  0.2585E-01  0.1381E-01  0.5094E-01  0.2496E-01
      7.867  0.2954E-01  0.1361E-01  0.5461E-01  0.2665E-01
      7.991  0.3027E-01  0.2006E-01  0.5836E-01  0.2914E-01
      8.115  0.3214E-01  0.1688E-01  0.6235E-01  0.3123E-01
      8.239  0.2808E-01  0.2283E-01  0.6583E-01  0.3406E-01
      8.363  0.2551E-01  0.1784E-01  0.6899E-01  0.3627E-01
      8.487  0.1916E-01  0.8500E-02  0.7137E-01  0.3733E-01
      8.611  0.1719E-01  0.9427E-02  0.7350E-01  0.3850E-01
      8.735  0.2231E-01  0.7391E-02  0.7627E-01  0.3941E-01
      8.859  0.1824E-01  0.1554E-01  0.7853E-01  0.4134E-01
      8.983  0.1306E-01  0.2226E-01  0.8015E-01  0.4410E-01
      9.107  0.1682E-01  0.2334E-01  0.8224E-01  0.4700E-01
      9.231  0.2888E-01  0.2385E-01  0.8582E-01  0.4996E-01
      9.355  0.2300E-01  0.2801E-01  0.8867E-01  0.5343E-01
      9.479  0.3493E-01  0.2260E-01  0.9300E-01  0.5623E-01
      9.603  0.4567E-01  0.2916E-01  0.9867E-01  0.5985E-01
      9.727  0.4005E-01  0.3089E-01  0.1036E+00  0.6368E-01
      9.851  0.6502E-02  0.2562E-01  0.1044E+00  0.6686E-01
      9.975  0.1455E-02  0.1561E-01  0.1046E+00  0.6880E-01
     10.099  0.3119E-02  0.1670E-01  0.1050E+00  0.7087E-01
     10.223  0.7972E-02  0.1886E-01  0.1060E+00  0.7321E-01
     10.347  0.5160E-02  0.1047E-01  0.1066E+00  0.7450E-01
     10.471  0.1989E-02  0.1519E-01  0.1069E+00  0.7639E-01
     10.595  0.3071E-02  0.1920E-01  0.1073E+00  0.7877E-01
     10.720  0.8219E-03  0.8919E-02  0.1074E+00  0.7988E-01
     10.844  0.1716E-02  0.1429E-01  0.1076E+00  0.8165E-01
     10.968  0.4808E-03  0.1635E-01  0.1076E+00  0.8368E-01
     11.092  0.1592E-02  0.2575E-01  0.1078E+00  0.8687E-01
     11.216  0.3104E-02  0.1883E-01  0.1082E+00  0.8921E-01
     11.340  0.5409E-02  0.2989E-01  0.1089E+00  0.9291E-01
     11.464  0.6237E-02  0.3926E-01  0.1097E+00  0.9778E-01
     11.588  0.4271E-02  0.4369E-01  0.1102E+00  0.1032E+00
     11.712  0.3043E-02  0.1518E-01  0.1106E+00  0.1051E+00
     11.836  0.9249E-03  0.9409E-02  0.1107E+00  0.1063E+00
     11.960  0.2068E-02  0.4229E-02  0.1109E+00  0.1068E+00
     12.084  0.1665E-02  0.4479E-02  0.1112E+00  0.1073E+00
     12.208  0.2030E-02  0.2633E-02  0.1114E+00  0.1077E+00
     12.332  0.3090E-02  0.3266E-02  0.1118E+00  0.1081E+00
     12.456  0.1348E-02  0.4150E-02  0.1120E+00  0.1086E+00
     12.580  0.1587E-02  0.3125E-02  0.1122E+00  0.1090E+00
     12.704  0.3516E-02  0.3840E-02  0.1126E+00  0.1094E+00
     12.828  0.2428E-02  0.5117E-02  0.1129E+00  0.1101E+00
     12.952  0.1113E-02  0.4591E-02  0.1130E+00  0.1106E+00
     13.076  0.3459E-02  0.3780E-02  0.1135E+00  0.1111E+00
     13.200  0.4032E-02  0.1056E-02  0.1140E+00  0.1112E+00
     13.324  0.5071E-03  0.4731E-02  0.1140E+00  0.1118E+00
     13.448  0.1227E-02  0.2083E-02  0.1142E+00  0.1121E+00
     13.572  0.2023E-02  0.1558E-02  0.1144E+00  0.1123E+00
     13.696  0.2401E-02  0.1253E-02  0.1147E+00  0.1124E+00
     13.820  0.3345E-02  0.5733E-02  0.1151E+00  0.1132E+00
     13.944  0.5737E-02  0.1179E-02  0.1158E+00  0.1133E+00
     14.068  0.8952E-03  0.2053E-02  0.1160E+00  0.1136E+00
     14.192  0.1900E-02  0.3165E-02  0.1162E+00  0.1139E+00
     14.316  0.2456E-02  0.1413E-02  0.1165E+00  0.1141E+00
     14.441  0.1595E-02  0.2859E-02  0.1167E+00  0.1145E+00
     14.565  0.2879E-02  0.3705E-02  0.1171E+00  0.1149E+00
     14.689  0.1958E-03  0.4169E-02  0.1171E+00  0.1155E+00
     14.813  0.9973E-03  0.3125E-02  0.1172E+00  0.1158E+00
     14.937  0.2173E-02  0.1299E-02  0.1175E+00  0.1160E+00
     15.061  0.9276E-03  0.8300E-03  0.1176E+00  0.1161E+00
     15.185  0.1001E-02  0.2861E-02  0.1177E+00  0.1165E+00
     15.309  0.1411E-02  0.3341E-02  0.1179E+00  0.1169E+00
     15.433  0.5359E-03  0.1705E-02  0.1180E+00  0.1171E+00
     15.557  0.2174E-02  0.1983E-02  0.1182E+00  0.1173E+00
     15.681  0.6227E-02  0.1114E-02  0.1190E+00  0.1175E+00
     15.805  0.2447E-02  0.1122E-02  0.1193E+00  0.1176E+00
     15.929  0.1388E-02  0.1700E-02  0.1195E+00  0.1178E+00
     16.053  0.1103E-02  0.6636E-03  0.1196E+00  0.1179E+00
     16.177  0.5196E-03  0.9239E-03  0.1197E+00  0.1180E+00
     16.301  0.4200E-06  0.2824E-02  0.1197E+00  0.1184E+00
     16.425  0.5755E-06  0.5529E-02  0.1197E+00  0.1191E+00
     16.549  0.2062E-03  0.2583E-02  0.1197E+00  0.1194E+00
     16.673  0.3288E-03  0.1492E-02  0.1197E+00  0.1196E+00
     16.797  0.1476E-02  0.6843E-03  0.1199E+00  0.1196E+00
     16.921  0.1510E-02  0.2396E-03  0.1201E+00  0.1197E+00
     17.045  0.2603E-03  0.1930E-07  0.1201E+00  0.1197E+00
     17.169  0.8649E-03  0.3237E-07  0.1202E+00  0.1197E+00
     17.293  0.6775E-03  0.1804E-03  0.1203E+00  0.1197E+00
     17.417  0.2061E-03  0.1452E-02  0.1204E+00  0.1199E+00
     17.541  0.1810E-02  0.7448E-03  0.1206E+00  0.1200E+00
     17.665  0.1099E-02  0.6556E-05  0.1207E+00  0.1200E+00
     17.789  0.2912E-02  0.6081E-03  0.1211E+00  0.1200E+00
     17.913  0.4526E-02  0.1167E-02  0.1216E+00  0.1202E+00
     18.038  0.9761E-02  0.1191E-02  0.1229E+00  0.1203E+00
     18.162  0.4187E-02  0.1026E-02  0.1234E+00  0.1205E+00
     18.286  0.1933E-02  0.1123E-02  0.1236E+00  0.1206E+00
     18.410  0.2430E-02  0.6666E-03  0.1239E+00  0.1207E+00
     18.534  0.5290E-02  0.3802E-02  0.1246E+00  0.1212E+00
     18.658  0.2367E-02  0.6129E-02  0.1249E+00  0.1219E+00
     18.782  0.3975E-02  0.5338E-02  0.1254E+00  0.1226E+00
     18.906  0.4071E-02  0.5057E-02  0.1259E+00  0.1232E+00
     19.030  0.1354E-02  0.3400E-02  0.1260E+00  0.1236E+00
     19.154  0.4108E-02  0.3923E-02  0.1265E+00  0.1241E+00
     19.278  0.3061E-02  0.5006E-02  0.1269E+00  0.1247E+00
     19.402  0.1468E-02  0.2484E-02  0.1271E+00  0.1250E+00
     19.526  0.4182E-02  0.5065E-02  0.1276E+00  0.1257E+00
     19.650  0.2165E-02  0.2704E-02  0.1279E+00  0.1260E+00
     19.774  0.3178E-02  0.4199E-02  0.1283E+00  0.1265E+00
     19.898  0.2728E-02  0.1946E-02  0.1286E+00  0.1268E+00
     20.022  0.3691E-02  0.2344E-02  0.1291E+00  0.1271E+00
     20.146  0.1024E-02  0.5672E-02  0.1292E+00  0.1278E+00
     20.270  0.6860E-02  0.1418E-02  0.1301E+00  0.1279E+00
     20.394  0.3104E-02  0.3673E-02  0.1304E+00  0.1284E+00
     20.518  0.3939E-02  0.3066E-02  0.1309E+00  0.1288E+00
     20.642  0.2264E-02  0.3017E-02  0.1312E+00  0.1291E+00
     20.766  0.7305E-02  0.1702E-02  0.1321E+00  0.1294E+00
     20.890  0.3094E-02  0.6438E-02  0.1325E+00  0.1302E+00
     21.014  0.7595E-03  0.4346E-02  0.1326E+00  0.1307E+00
     21.138  0.4781E-02  0.5331E-02  0.1332E+00  0.1314E+00
     21.262  0.6759E-02  0.5802E-02  0.1340E+00  0.1321E+00
     21.386  0.4027E-02  0.2952E-02  0.1345E+00  0.1324E+00
     21.510  0.2135E-02  0.1010E-02  0.1348E+00  0.1326E+00
     21.634  0.3388E-02  0.4358E-02  0.1352E+00  0.1331E+00
     21.759  0.1631E-02  0.6967E-02  0.1354E+00  0.1340E+00
     21.883  0.2549E-02  0.4315E-02  0.1357E+00  0.1345E+00
     22.007  0.3214E-02  0.2480E-02  0.1361E+00  0.1348E+00
     22.131  0.5935E-02  0.3783E-02  0.1369E+00  0.1353E+00
     22.255  0.3930E-02  0.1935E-02  0.1373E+00  0.1355E+00
     22.379  0.2116E-02  0.3238E-02  0.1376E+00  0.1359E+00
     22.503  0.3527E-02  0.3371E-02  0.1380E+00  0.1363E+00
     22.627  0.1748E-02  0.4702E-02  0.1383E+00  0.1369E+00
     22.751  0.9129E-03  0.4595E-02  0.1384E+00  0.1375E+00
     22.875  0.3814E-02  0.1366E-02  0.1389E+00  0.1377E+00
     22.999  0.3743E-02  0.3676E-02  0.1393E+00  0.1381E+00
     23.123  0.2161E-02  0.1069E-02  0.1396E+00  0.1383E+00
     23.247  0.1160E-02  0.3024E-02  0.1397E+00  0.1386E+00
     23.371  0.1679E-02  0.2437E-02  0.1399E+00  0.1389E+00
     23.495  0.3964E-02  0.3718E-02  0.1404E+00  0.1394E+00
     23.619  0.7109E-02  0.1962E-02  0.1413E+00  0.1396E+00
     23.743  0.2573E-02  0.1023E-02  0.1416E+00  0.1398E+00
     23.867  0.2429E-02  0.2684E-02  0.1419E+00  0.1401E+00
     23.991  0.1796E-02  0.6747E-02  0.1422E+00  0.1409E+00
     24.115  0.6179E-03  0.4523E-02  0.1422E+00  0.1415E+00
     24.239  0.3027E-02  0.1879E-02  0.1426E+00  0.1417E+00
     24.363  0.7395E-02  0.2616E-02  0.1435E+00  0.1421E+00
     24.487  0.5311E-02  0.8699E-03  0.1442E+00  0.1422E+00
     24.611  0.2060E-02  0.3201E-02  0.1444E+00  0.1426E+00
     24.735  0.1058E-02  0.6444E-02  0.1446E+00  0.1434E+00
     24.859  0.3830E-02  0.4813E-02  0.1450E+00  0.1440E+00
     24.983  0.2955E-02  0.3464E-02  0.1454E+00  0.1444E+00
     25.107  0.3693E-02  0.1173E-02  0.1459E+00  0.1445E+00
     25.231  0.1737E-02  0.2571E-02  0.1461E+00  0.1448E+00
     25.356  0.4971E-02  0.3705E-02  0.1467E+00  0.1453E+00
     25.480  0.5864E-02  0.4130E-02  0.1474E+00  0.1458E+00
     25.604  0.3307E-02  0.2732E-02  0.1478E+00  0.1462E+00
     25.728  0.2626E-02  0.5244E-02  0.1482E+00  0.1468E+00
     25.852  0.5396E-02  0.5466E-02  0.1488E+00  0.1475E+00
     25.976  0.3202E-02  0.3462E-02  0.1492E+00  0.1479E+00
     26.100  0.4508E-02  0.2877E-02  0.1498E+00  0.1483E+00
     26.224  0.1024E-02  0.4606E-02  0.1499E+00  0.1488E+00
     26.348  0.2012E-02  0.3815E-02  0.1502E+00  0.1493E+00
     26.472  0.9381E-03  0.3895E-02  0.1503E+00  0.1498E+00
     26.596  0.2728E-02  0.8764E-03  0.1506E+00  0.1499E+00
     26.720  0.5306E-02  0.3109E-02  0.1513E+00  0.1503E+00
     26.844  0.1398E-02  0.6307E-03  0.1514E+00  0.1504E+00
     26.968  0.1356E-02  0.4903E-02  0.1516E+00  0.1510E+00
     27.092  0.3468E-02  0.3750E-02  0.1520E+00  0.1514E+00
     27.216  0.5946E-02  0.1043E-02  0.1528E+00  0.1516E+00
     27.340  0.1468E-02  0.1686E-02  0.1530E+00  0.1518E+00
     27.464  0.1453E-02  0.4520E-02  0.1531E+00  0.1523E+00
     27.588  0.3300E-02  0.4916E-02  0.1536E+00  0.1530E+00
     27.712  0.1722E-02  0.4725E-03  0.1538E+00  0.1530E+00
     27.836  0.4990E-02  0.2907E-02  0.1544E+00  0.1534E+00
     27.960  0.1703E-02  0.2723E-02  0.1546E+00  0.1537E+00
     28.084  0.3460E-03  0.4543E-02  0.1546E+00  0.1543E+00
     28.208  0.5072E-03  0.2431E-02  0.1547E+00  0.1546E+00
     28.332  0.9144E-03  0.5389E-03  0.1548E+00  0.1546E+00
     28.456  0.1165E-02  0.5188E-03  0.1550E+00  0.1547E+00
     28.580  0.2009E-02  0.1035E-02  0.1552E+00  0.1548E+00
     28.704  0.2463E-02  0.1353E-02  0.1555E+00  0.1550E+00
     28.828  0.2256E-02  0.1567E-02  0.1558E+00  0.1552E+00
     28.953  0.1719E-02  0.2559E-02  0.1560E+00  0.1555E+00
     29.077  0.3113E-02  0.2033E-02  0.1564E+00  0.1558E+00
     29.201  0.1036E-02  0.2724E-02  0.1565E+00  0.1561E+00
     29.325  0.9616E-03  0.1775E-02  0.1566E+00  0.1563E+00
     29.449  0.1217E-02  0.1253E-02  0.1568E+00  0.1565E+00
     29.573  0.1649E-02  0.1870E-02  0.1570E+00  0.1567E+00
     29.697  0.8553E-03  0.9194E-03  0.1571E+00  0.1568E+00
     29.821  0.1129E-04  0.1419E-02  0.1571E+00  0.1570E+00
     29.945  0.8718E-03  0.5095E-03  0.1572E+00  0.1571E+00
     30.069  0.1339E-02  0.7143E-03  0.1574E+00  0.1572E+00
     30.193  0.1084E-02  0.1297E-02  0.1575E+00  0.1573E+00
     30.317  0.2384E-03  0.8658E-03  0.1575E+00  0.1574E+00
     30.441  0.1204E-02  0.9981E-03  0.1577E+00  0.1575E+00
     30.565  0.2115E-02  0.1457E-02  0.1580E+00  0.1577E+00
     30.689  0.1023E-02  0.1924E-02  0.1581E+00  0.1580E+00
     30.813  0.5227E-03  0.1012E-02  0.1582E+00  0.1581E+00
     30.937  0.7012E-03  0.4715E-03  0.1582E+00  0.1582E+00
     31.061  0.1540E-02  0.5073E-03  0.1584E+00  0.1582E+00
     31.185  0.3605E-03  0.1185E-02  0.1585E+00  0.1584E+00
     31.309  0.7536E-03  0.9223E-03  0.1586E+00  0.1585E+00
     31.433  0.1406E-03  0.8707E-03  0.1586E+00  0.1586E+00
     31.557  0.5545E-03  0.6397E-04  0.1587E+00  0.1586E+00
     31.681  0.3033E-03  0.8052E-03  0.1587E+00  0.1587E+00
     31.805  0.1551E-02  0.7959E-03  0.1589E+00  0.1588E+00
     31.929  0.1368E-02  0.9156E-03  0.1591E+00  0.1589E+00
     32.053  0.2021E-03  0.1459E-02  0.1591E+00  0.1591E+00
     32.177  0.6578E-03  0.7793E-03  0.1592E+00  0.1592E+00
     32.301  0.1775E-03  0.3844E-04  0.1592E+00  0.1592E+00
     32.425  0.2514E-03  0.7977E-03  0.1592E+00  0.1593E+00
     32.549  0.6059E-03  0.1673E-03  0.1593E+00  0.1593E+00
     32.674  0.1634E-03  0.7597E-05  0.1593E+00  0.1593E+00
     32.798  0.1694E-02  0.9746E-03  0.1595E+00  0.1594E+00
     32.922  0.1224E-02  0.6202E-03  0.1597E+00  0.1595E+00
     33.046  0.6772E-03  0.9334E-03  0.1598E+00  0.1596E+00
     33.170  0.2183E-04  0.4087E-03  0.1598E+00  0.1597E+00
     33.294  0.4123E-09  0.6973E-03  0.1598E+00  0.1598E+00
     33.418  0.6549E-11  0.1330E-03  0.1598E+00  0.1598E+00
     33.542  0.4701E-05  0.4489E-05  0.1598E+00  0.1598E+00
     33.666  0.1288E-03  0.1032E-06  0.1598E+00  0.1598E+00
     33.790  0.2484E-03  0.3669E-03  0.1598E+00  0.1598E+00
     33.914  0.5966E-03  0.4725E-03  0.1599E+00  0.1599E+00
     34.038  0.1339E-05  0.5950E-06  0.1599E+00  0.1599E+00
     34.162  0.4564E-08  0.1014E-03  0.1599E+00  0.1599E+00
     34.286  0.9831E-04  0.4499E-04  0.1599E+00  0.1599E+00
     34.410  0.4454E-03  0.3768E-03  0.1599E+00  0.1599E+00
     34.534  0.2609E-04  0.5904E-04  0.1599E+00  0.1600E+00
     34.658  0.1272E-03  0.1166E-03  0.1600E+00  0.1600E+00
     34.782  0.8129E-05  0.8643E-06  0.1600E+00  0.1600E+00
     34.906  0.1303E-03  0.7320E-04  0.1600E+00  0.1600E+00
     35.030  0.1280E-03  0.6671E-04  0.1600E+00  0.1600E+00
     35.154  0.1649E-04  0.1417E-04  0.1600E+00  0.1600E+00
     35.278  0.1873E-09  0.1240E-03  0.1600E+00  0.1600E+00
     35.402  0.0000E+00  0.1790E-05  0.1600E+00  0.1600E+00
     35.526  0.0000E+00  0.6598E-12  0.1600E+00  0.1600E+00
     35.650  0.0000E+00  0.0000E+00  0.1600E+00  0.1600E+00
     35.774  0.0000E+00  0.0000E+00  0.1600E+00  0.1600E+00
     35.898  0.0000E+00  0.0000E+00  0.1600E+00  0.1600E+00
     36.022  0.0000E+00  0.0000E+00  0.1600E+00  0.1600E+00
     36.146  0.0000E+00  0.0000E+00  0.1600E+00  0.1600E+00
     36.271  0.0000E+00  0.0000E+00  0.1600E+00  0.1600E+00
     36.395  0.0000E+00  0.0000E+00  0.1600E+00  0.1600E+00
     36.519  0.0000E+00  0.0000E+00  0.1600E+00  0.1600E+00
     36.643  0.0000E+00  0.0000E+00  0.1600E+00  0.1600E+00
     36.767  0.0000E+00  0.0000E+00  0.1600E+00  0.1600E+00
     36.891  0.0000E+00  0.0000E+00  0.1600E+00  0.1600E+00
     36.89067826     -0.31951816  301     10.26669515      1.00000000
     -0.320  0.0000E+00  0.0000E+00  0.0000E+00  0.0000E+00  0.0000E+00  0.0000E+00  0.0000E+00  0.0000E+00  0.0000E+00  0.0000E+00  0.0000E+00  0.0000E+00  0.0000E+00  0.0000E+00  0.0000E+00  0.0000E+00  0.0000E+00  0.0000E+00
     -0.195  0.0000E+00  0.0000E+00  0.0000E+00  0.0000E+00  0.0000E+00  0.0000E+00  0.0000E+00  0.0000E+00  0.0000E+00  0.0000E+00  0.0000E+00  0.0000E+00  0.0000E+00  0.0000E+00  0.0000E+00  0.0000E+00  0.0000E+00  0.0000E+00
     -0.071  0.0000E+00  0.0000E+00  0.0000E+00  0.0000E+00  0.0000E+00  0.0000E+00  0.0000E+00  0.0000E+00  0.0000E+00  0.0000E+00  0.0000E+00  0.0000E+00  0.0000E+00  0.0000E+00  0.0000E+00  0.0000E+00  0.0000E+00  0.0000E+00
      0.053  0.0000E+00  0.0000E+00  0.0000E+00  0.0000E+00  0.0000E+00  0.0000E+00  0.0000E+00  0.0000E+00  0.0000E+00  0.0000E+00  0.0000E+00  0.0000E+00  0.0000E+00  0.0000E+00  0.0000E+00  0.0000E+00  0.0000E+00  0.0000E+00
      0.177  0.0000E+00  0.0000E+00  0.0000E+00  0.0000E+00  0.0000E+00  0.0000E+00  0.0000E+00  0.0000E+00  0.0000E+00  0.0000E+00  0.0000E+00  0.0000E+00  0.0000E+00  0.0000E+00  0.0000E+00  0.0000E+00  0.0000E+00  0.0000E+00
      0.301  0.0000E+00  0.0000E+00  0.0000E+00  0.0000E+00  0.0000E+00  0.0000E+00  0.0000E+00  0.0000E+00  0.0000E+00  0.0000E+00  0.0000E+00  0.0000E+00  0.0000E+00  0.0000E+00  0.0000E+00  0.0000E+00  0.0000E+00  0.0000E+00
      0.425  0.0000E+00  0.0000E+00  0.0000E+00  0.0000E+00  0.0000E+00  0.0000E+00  0.0000E+00  0.0000E+00  0.0000E+00  0.0000E+00  0.0000E+00  0.0000E+00  0.0000E+00  0.0000E+00  0.0000E+00  0.0000E+00  0.0000E+00  0.0000E+00
      0.549  0.0000E+00  0.0000E+00  0.0000E+00  0.0000E+00  0.0000E+00  0.0000E+00  0.0000E+00  0.0000E+00  0.0000E+00  0.0000E+00  0.0000E+00  0.0000E+00  0.0000E+00  0.0000E+00  0.0000E+00  0.0000E+00  0.0000E+00  0.0000E+00
      0.673  0.0000E+00  0.0000E+00  0.0000E+00  0.0000E+00  0.0000E+00  0.0000E+00  0.0000E+00  0.0000E+00  0.0000E+00  0.0000E+00  0.0000E+00  0.0000E+00  0.0000E+00  0.0000E+00  0.0000E+00  0.0000E+00  0.0000E+00  0.0000E+00
      0.797  0.0000E+00  0.0000E+00  0.0000E+00  0.0000E+00  0.0000E+00  0.0000E+00  0.0000E+00  0.0000E+00  0.0000E+00  0.0000E+00  0.0000E+00  0.0000E+00  0.0000E+00  0.0000E+00  0.0000E+00  0.0000E+00  0.0000E+00  0.0000E+00
      0.921  0.0000E+00  0.0000E+00  0.0000E+00  0.0000E+00  0.0000E+00  0.0000E+00  0.0000E+00  0.0000E+00  0.0000E+00  0.0000E+00  0.0000E+00  0.0000E+00  0.0000E+00  0.0000E+00  0.0000E+00  0.0000E+00  0.0000E+00  0.0000E+00
      1.045  0.0000E+00  0.0000E+00  0.0000E+00  0.0000E+00  0.0000E+00  0.0000E+00  0.0000E+00  0.0000E+00  0.0000E+00  0.0000E+00  0.0000E+00  0.0000E+00  0.0000E+00  0.0000E+00  0.0000E+00  0.0000E+00  0.0000E+00  0.0000E+00
      1.169  0.6946E-11  0.1200E-10  0.5656E-27  0.1322E-25  0.1171E-37  0.7939E-33  0.5656E-27  0.1322E-25  0.5920E-25  0.4586E-24  0.1398E-26  0.2273E-24  0.4364E-16  0.9975E-16  0.1398E-26  0.2273E-24  0.5920E-25  0.4586E-24
      1.293  0.2559E-04  0.3256E-04  0.2084E-20  0.3587E-19  0.3666E-15  0.6243E-15  0.2084E-20  0.3587E-19  0.2181E-18  0.1244E-17  0.5149E-20  0.6168E-18  0.1608E-09  0.2707E-09  0.5149E-20  0.6168E-18  0.2181E-18  0.1244E-17
      1.417  0.2221E-02  0.2259E-02  0.1050E-11  0.1550E-11  0.3629E-07  0.4775E-07  0.1050E-11  0.1550E-11  0.1903E-13  0.2064E-13  0.6338E-18  0.4274E-16  0.1435E-07  0.1909E-07  0.6338E-18  0.4274E-16  0.1903E-13  0.2064E-13
      1.541  0.3426E-02  0.3567E-02  0.2475E-05  0.2937E-05  0.4412E-04  0.4661E-04  0.2475E-05  0.2937E-05  0.4483E-07  0.3894E-07  0.6688E-15  0.3738E-15  0.5379E-06  0.3743E-06  0.6688E-15  0.3738E-15  0.4483E-07  0.3894E-07
      1.665  0.1544E-01  0.1541E-01  0.1553E-03  0.1575E-03  0.3225E-04  0.3025E-04  0.1553E-03  0.1575E-03  0.2812E-05  0.2089E-05  0.1406E-07  0.1207E-07  0.3183E-05  0.2543E-05  0.1406E-07  0.1207E-07  0.2812E-05  0.2089E-05
      1.789  0.2071E-01  0.2098E-01  0.2425E-03  0.2472E-03  0.2956E-03  0.3041E-03  0.2425E-03  0.2472E-03  0.4517E-05  0.3342E-05  0.9597E-05  0.7332E-05  0.3115E-06  0.2179E-06  0.9597E-05  0.7332E-05  0.4517E-05  0.3342E-05
      1.913  0.1009E-01  0.9643E-02  0.1178E-03  0.1132E-03  0.1562E-03  0.1501E-03  0.1178E-03  0.1132E-03  0.2199E-05  0.1533E-05  0.4998E-05  0.3569E-05  0.1637E-06  0.1017E-06  0.4998E-05  0.3569E-05  0.2199E-05  0.1533E-05
      2.037  0.4910E-02  0.4825E-02  0.2891E-04  0.2697E-04  0.2487E-03  0.2499E-03  0.2891E-04  0.2697E-04  0.1591E-05  0.1072E-05  0.6620E-09  0.4158E-09  0.1850E-04  0.1262E-04  0.6620E-09  0.4158E-09  0.1591E-05  0.1072E-05
      2.161  0.1459E-01  0.1446E-01  0.4774E-03  0.4788E-03  0.8277E-04  0.7700E-04  0.4774E-03  0.4788E-03  0.2605E-04  0.1889E-04  0.1832E-05  0.1077E-05  0.2605E-04  0.1899E-04  0.1832E-05  0.1077E-05  0.2605E-04  0.1889E-04
      2.285  0.5233E-01  0.5127E-01  0.1281E-02  0.1255E-02  0.1951E-02  0.1950E-02  0.1281E-02  0.1255E-02  0.6547E-04  0.4501E-04  0.9824E-04  0.7048E-04  0.9143E-04  0.6195E-04  0.9824E-04  0.7048E-04  0.6547E-04  0.4501E-04
      2.409  0.1815E-01  0.1893E-01  0.7497E-03  0.7773E-03  0.1867E-03  0.2103E-03  0.7497E-03  0.7773E-03  0.6143E-04  0.4352E-04  0.1319E-04  0.9836E-05  0.4414E-04  0.3301E-04  0.1319E-04  0.9836E-05  0.6143E-04  0.4352E-04
      2.533  0.2518E-01  0.2516E-01  0.1189E-02  0.1204E-02  0.3929E-03  0.3958E-03  0.1189E-02  0.1204E-02  0.1110E-03  0.7638E-04  0.6619E-04  0.4623E-04  0.4095E-04  0.2933E-04  0.6619E-04  0.4623E-04  0.1110E-03  0.7638E-04
      2.657  0.7098E-02  0.5427E-02  0.2637E-03  0.2141E-03  0.4087E-03  0.2766E-03  0.2637E-03  0.2141E-03  0.1874E-04  0.1102E-04  0.4972E-04  0.2415E-04  0.7527E-05  0.3705E-05  0.4972E-04  0.2415E-04  0.1874E-04  0.1102E-04
      2.781  0.2442E-01  0.2621E-01  0.7380E-03  0.8223E-03  0.1829E-02  0.1949E-02  0.7380E-03  0.8223E-03  0.4909E-04  0.3740E-04  0.1593E-03  0.1232E-03  0.1302E-03  0.7988E-04  0.1593E-03  0.1232E-03  0.4909E-04  0.3740E-04
      2.905  0.1799E-01  0.1156E-01  0.7685E-03  0.5003E-03  0.1330E-02  0.8533E-03  0.7685E-03  0.5003E-03  0.8484E-04  0.3558E-04  0.1856E-03  0.8196E-04  0.7600E-04  0.2737E-04  0.1856E-03  0.8196E-04  0.8484E-04  0.3558E-04
      3.029  0.5660E-01  0.5908E-01  0.2724E-02  0.2733E-02  0.3855E-02  0.4381E-02  0.2724E-02  0.2733E-02  0.3819E-03  0.2440E-03  0.2516E-03  0.2189E-03  0.8094E-03  0.5212E-03  0.2516E-03  0.2189E-03  0.3819E-03  0.2440E-03
      3.153  0.4427E-01  0.3725E-01  0.3688E-02  0.3094E-02  0.6996E-03  0.6600E-03  0.3688E-02  0.3094E-02  0.6370E-03  0.3503E-03  0.2581E-03  0.1251E-03  0.3583E-03  0.2203E-03  0.2581E-03  0.1251E-03  0.6370E-03  0.3503E-03
      3.277  0.8719E-02  0.2067E-01  0.7281E-03  0.1770E-02  0.1473E-03  0.3330E-03  0.7281E-03  0.1770E-02  0.1263E-03  0.2026E-03  0.5519E-04  0.8360E-04  0.6885E-04  0.1082E-03  0.5519E-04  0.8360E-04  0.1263E-03  0.2026E-03
      3.402  0.2691E-01  0.1345E-01  0.1563E-02  0.7082E-03  0.2690E-02  0.1563E-02  0.1563E-02  0.7082E-03  0.3309E-03  0.7946E-04  0.3796E-03  0.1466E-03  0.4516E-03  0.1447E-03  0.3796E-03  0.1466E-03  0.3309E-03  0.7946E-04
      3.526  0.5835E-01  0.3576E-01  0.5000E-02  0.2728E-02  0.3327E-02  0.2651E-02  0.5000E-02  0.2728E-02  0.1272E-02  0.4043E-03  0.1194E-02  0.3679E-03  0.4984E-03  0.3057E-03  0.1194E-02  0.3679E-03  0.1272E-02  0.4043E-03
      3.650  0.4668E-01  0.7814E-01  0.3131E-02  0.6475E-02  0.4758E-02  0.5825E-02  0.3131E-02  0.6475E-02  0.7004E-03  0.9516E-03  0.1144E-02  0.1190E-02  0.8045E-03  0.4194E-03  0.1144E-02  0.1190E-02  0.7004E-03  0.9516E-03
      3.774  0.2351E-02  0.7687E-02  0.4252E-04  0.2256E-03  0.4900E-03  0.1435E-02  0.4252E-04  0.2256E-03  0.9768E-05  0.2303E-04  0.2516E-04  0.8080E-04  0.2826E-03  0.3404E-03  0.2516E-04  0.8080E-04  0.9768E-05  0.2303E-04
      3.898  0.3859E-01  0.9163E-02  0.2172E-02  0.3003E-03  0.5895E-02  0.1942E-02  0.2172E-02  0.3003E-03  0.8304E-03  0.4981E-04  0.1058E-02  0.1055E-03  0.2984E-02  0.5992E-03  0.1058E-02  0.1055E-03  0.8304E-03  0.4981E-04
      4.022  0.1352E-01  0.3722E-01  0.1750E-02  0.2683E-02  0.4307E-03  0.5122E-02  0.1750E-02  0.2683E-02  0.5972E-03  0.5797E-03  0.1721E-03  0.6628E-03  0.5228E-03  0.1366E-02  0.1721E-03  0.6628E-03  0.5972E-03  0.5797E-03
      4.146  0.6788E-01  0.1547E-01  0.8059E-02  0.2256E-02  0.5283E-02  0.3530E-03  0.8059E-02  0.2256E-02  0.3037E-02  0.4670E-03  0.2819E-02  0.1278E-03  0.1545E-02  0.3355E-03  0.2819E-02  0.1278E-03  0.3037E-02  0.4670E-03
      4.270  0.7080E-01  0.7736E-01  0.8174E-02  0.9310E-02  0.6334E-02  0.6780E-02  0.8174E-02  0.9310E-02  0.4179E-02  0.2088E-02  0.2259E-02  0.2012E-02  0.4129E-02  0.1139E-02  0.2259E-02  0.2012E-02  0.4179E-02  0.2088E-02
      4.394  0.3390E-01  0.6129E-01  0.3439E-02  0.7478E-02  0.4957E-02  0.5833E-02  0.3439E-02  0.7478E-02  0.1664E-02  0.2185E-02  0.2652E-02  0.1084E-02  0.1689E-02  0.2357E-02  0.2652E-02  0.1084E-02  0.1664E-02  0.2185E-02
      4.518  0.6188E-01  0.2715E-01  0.7377E-02  0.2779E-02  0.6810E-02  0.4485E-02  0.7377E-02  0.2779E-02  0.4951E-02  0.6675E-03  0.5600E-02  0.1131E-02  0.4068E-02  0.9518E-03  0.5600E-02  0.1131E-02  0.4951E-02  0.6675E-03
      4.642  0.3408E-01  0.4310E-01  0.4769E-02  0.5148E-02  0.2023E-02  0.5879E-02  0.4769E-02  0.5148E-02  0.5647E-02  0.1475E-02  0.1689E-02  0.2403E-02  0.5069E-02  0.7551E-03  0.1689E-02  0.2403E-02  0.5647E-02  0.1475E-02
      4.766  0.2275E-01  0.4269E-01  0.1761E-02  0.6562E-02  0.4037E-02  0.3023E-02  0.1761E-02  0.6562E-02  0.2833E-02  0.2816E-02  0.2179E-02  0.1815E-02  0.8568E-02  0.1907E-02  0.2179E-02  0.1815E-02  0.2833E-02  0.2816E-02
      4.890  0.6523E-01  0.2295E-01  0.7568E-02  0.3696E-02  0.1273E-01  0.1407E-02  0.7568E-02  0.3696E-02  0.6581E-02  0.2278E-02  0.1399E-01  0.4340E-03  0.2466E-02  0.2016E-02  0.1399E-01  0.4340E-03  0.6581E-02  0.2278E-02
      5.014  0.3824E-01  0.2731E-01  0.3907E-02  0.1523E-02  0.7761E-02  0.8406E-02  0.3907E-02  0.1523E-02  0.5674E-02  0.4049E-03  0.9559E-02  0.1289E-02  0.8734E-02  0.5514E-02  0.9559E-02  0.1289E-02  0.5674E-02  0.4049E-03
      5.138  0.1023E+00  0.5896E-01  0.1640E-01  0.7832E-02  0.8676E-02  0.1119E-01  0.1640E-01  0.7832E-02  0.3321E-01  0.3541E-02  0.2093E-01  0.6236E-02  0.3736E-01  0.1480E-02  0.2093E-01  0.6236E-02  0.3321E-01  0.3541E-02
      5.262  0.1081E+00  0.3835E-01  0.1455E-01  0.5821E-02  0.7881E-02  0.6176E-02  0.1455E-01  0.5821E-02  0.5698E-01  0.3086E-02  0.5716E-01  0.5015E-02  0.5356E-01  0.1228E-02  0.5716E-01  0.5015E-02  0.5698E-01  0.3086E-02
      5.386  0.8452E-01  0.5954E-01  0.9155E-02  0.1012E-01  0.1144E-01  0.1012E-01  0.9155E-02  0.1012E-01  0.5622E-01  0.4685E-02  0.7629E-01  0.3498E-02  0.4572E-01  0.7413E-02  0.7629E-01  0.3498E-02  0.5622E-01  0.4685E-02
      5.510  0.6388E-01  0.5043E-01  0.8172E-02  0.9130E-02  0.9649E-02  0.7349E-02  0.8172E-02  0.9130E-02  0.4931E-01  0.6324E-02  0.6477E-01  0.3829E-02  0.4165E-01  0.7121E-02  0.6477E-01  0.3829E-02  0.4931E-01  0.6324E-02
      5.634  0.9235E-01  0.6161E-01  0.1258E-01  0.1364E-01  0.1790E-01  0.3373E-02  0.1258E-01  0.1364E-01  0.9741E-01  0.1259E-01  0.9248E-01  0.5199E-02  0.1165E+00  0.8176E-02  0.9248E-01  0.5199E-02  0.9741E-01  0.1259E-01
      5.758  0.6998E-01  0.5148E-01  0.1237E-01  0.9321E-02  0.1431E-01  0.7086E-02  0.1237E-01  0.9321E-02  0.1542E+00  0.9000E-02  0.9961E-01  0.8967E-02  0.8925E-01  0.1266E-01  0.9961E-01  0.8967E-02  0.1542E+00  0.9000E-02
      5.882  0.4135E-01  0.5082E-01  0.9619E-02  0.7511E-02  0.1317E-01  0.1306E-01  0.9619E-02  0.7511E-02  0.8928E-01  0.8455E-02  0.7610E-01  0.1232E-01  0.6205E-01  0.8602E-02  0.7610E-01  0.1232E-01  0.8928E-01  0.8455E-02