    2    2  100    2
  0.1064014E+02  0.2472000E-09  0.2472000E-09  0.4021144E-09  0.5000000E-15
  1.000000000000000E-004
  CAR 
 Co-hcp                                  
     18     95     16
 
  0.0000000E+00  0.0000000E+00  0.0000000E+00  0.8680556E-03
      1          1.375103        1.371854   1.000000   1.000000
      2          5.151754        6.108939   1.000000   1.000000
      3          7.685373        9.336563   1.000000   1.000000
      4          7.690964        9.343001   1.000000   1.000000
      5          7.690964        9.343002   1.000000   1.000000
      6          8.006852        9.713831   1.000000   1.000000
      7          8.006852        9.713832   1.000000   1.000000
      8          8.352749       10.121252   1.000000   0.999981
      9          8.352750       10.121252   1.000000   0.999981
     10          9.466144       10.193071   1.000000   0.981347
     11          9.466144       11.353034   1.000000   0.000000
     12         10.257847       11.353034   0.598804   0.000000
     13         16.713388       17.734709   0.000000   0.000000
     14         32.277434       31.995602   0.000000   0.000000
     15         34.845172       35.199305   0.000000   0.000000
     16         34.845173       35.199306   0.000000   0.000000
 
  0.8333333E-01  0.1387779E-16  0.0000000E+00  0.5208333E-02
      1          1.618431        1.616098   1.000000   1.000000
      2          5.296111        6.273695   1.000000   1.000000
      3          7.458974        9.064698   1.000000   1.000000
      4          7.803986        9.467452   1.000000   1.000000
      5          7.878756        9.489746   1.000000   1.000000
      6          7.961893        9.556363   1.000000   1.000000
      7          8.106344        9.652469   1.000000   1.000000
      8          8.204562        9.823294   1.000000   1.000000
      9          8.281761       10.038245   1.000000   1.000000
     10          8.710994       10.067071   1.000000   1.000000
     11          9.496546       11.389191   1.000000   0.000000
     12         11.327367       12.261370   0.000000   0.000000
     13         16.756062       17.754170   0.000000   0.000000
     14         30.417065       30.509643   0.000000   0.000000
     15         32.723170       32.819649   0.000000   0.000000
     16         32.760683       33.053655   0.000000   0.000000
 
  0.1666667E+00  0.1387779E-16  0.0000000E+00  0.5208333E-02
      1          2.322163        2.327032   1.000000   1.000000
      2          5.652394        6.696333   1.000000   1.000000
      3          7.184973        8.617122   1.000000   1.000000
      4          7.506825        8.710515   1.000000   1.000000
      5          7.791827        9.430868   1.000000   1.000000
      6          8.106659        9.821648   1.000000   1.000000
      7          8.123767        9.834890   1.000000   1.000000
      8          8.183891        9.888477   1.000000   1.000000
      9          8.326199        9.907693   1.000000   1.000000
     10          8.386576       10.132645   1.000000   0.999925
     11          9.561534       11.465581   1.000000   0.000000
     12         12.918400       13.757646   0.000000   0.000000
     13         16.905229       17.830704   0.000000   0.000000
     14         26.598671       26.930397   0.000000   0.000000
     15         30.327889       30.636438   0.000000   0.000000
     16         31.821026       31.902964   0.000000   0.000000
 
  0.2500000E+00  0.1387779E-16  0.0000000E+00  0.5208333E-02
      1          3.385687        3.427913   1.000000   1.000000
      2          5.934044        7.105899   1.000000   1.000000
      3          6.782039        7.924289   1.000000   1.000000
      4          7.021902        8.402937   1.000000   1.000000
      5          7.703281        9.281857   1.000000   1.000000
      6          7.895982        9.591951   1.000000   1.000000
      7          8.126712        9.694125   1.000000   1.000000
      8          8.586534       10.330113   1.000000   0.036429
      9          8.611308       10.340164   1.000000   0.018854
     10          8.788961       10.578779   1.000000   0.000000
     11          9.623126       11.536936   1.000000   0.000000
     12         14.716931       15.469155   0.000000   0.000000
     13         17.192153       17.989655   0.000000   0.000000
     14         22.890854       23.361868   0.000000   0.000000
     15         28.249630       28.519747   0.000000   0.000000
     16         30.380941       30.513391   0.000000   0.000000
 
  0.3333333E+00  0.2775558E-16  0.0000000E+00  0.5208333E-02
      1          4.540871        4.742034   1.000000   1.000000
      2          5.862845        7.131258   1.000000   1.000000
      3          6.252905        7.435609   1.000000   1.000000
      4          7.140684        8.297110   1.000000   1.000000
      5          7.706313        9.374370   1.000000   1.000000
      6          7.830030        9.382965   1.000000   1.000000
      7          7.952294        9.484430   1.000000   1.000000
      8          9.078970       10.901897   1.000000   0.000000
      9          9.225227       10.983145   1.000000   0.000000
     10          9.296869       11.065521   1.000000   0.000000
     11          9.665624       11.585511   1.000000   0.000000
     12         16.678624       17.334181   0.000000   0.000000
     13         17.256750       17.897276   0.000000   0.000000
     14         20.033461       20.641966   0.000000   0.000000
     15         26.601110       26.817733   0.000000   0.000000
     16         27.308826       27.575220   0.000000   0.000000
 
  0.4166667E+00  0.5551115E-16  0.0000000E+00  0.5208333E-02
      1          5.288029        5.899205   1.000000   1.000000
      2          5.676788        6.919726   1.000000   1.000000
      3          5.935388        7.147381   1.000000   1.000000
      4          7.515763        8.345226   1.000000   1.000000
      5          7.576827        9.226326   1.000000   1.000000
      6          7.829443        9.332720   1.000000   1.000000
      7          8.033425        9.608600   1.000000   1.000000
      8          9.446743       11.325782   1.000000   0.000000
      9          9.586109       11.476152   1.000000   0.000000
     10          9.688516       11.611377   1.000000   0.000000
     11         10.420727       11.930176   0.000007   0.000000
     12         15.365776       16.134881   0.000000   0.000000
     13         18.707939       19.244645   0.000000   0.000000
     14         19.960862       20.466685   0.000000   0.000000
     15         24.625910       25.038358   0.000000   0.000000
     16         25.517682       25.681265   0.000000   0.000000
 
  0.5000000E+00  0.2775558E-16  0.0000000E+00  0.2604167E-02
      1          5.525646        6.421658   1.000000   1.000000
      2          5.550542        6.737326   1.000000   1.000000
      3          5.829890        7.052531   1.000000   1.000000
      4          7.531025        8.439563   1.000000   1.000000
      5          7.767406        9.174045   1.000000   1.000000
      6          7.785244        9.277646   1.000000   1.000000
      7          8.109909        9.698060   1.000000   1.000000
      8          9.579620       11.477902   1.000000   0.000000
      9          9.695479       11.619183   1.000000   0.000000
     10          9.731953       11.646615   1.000000   0.000000
     11         11.597540       12.847029   0.000000   0.000000
     12         13.615054       14.605329   0.000000   0.000000
     13         20.034506       20.450898   0.000000   0.000000
     14         20.684520       21.066060   0.000000   0.000000
     15         23.084264       23.626944   0.000000   0.000000
     16         24.315921       24.879977   0.000000   0.000000
 
  0.8333333E-01  0.8333333E-01  0.0000000E+00  0.5208333E-02
      1          2.092843        2.094207   1.000000   1.000000
      2          5.552350        6.571893   1.000000   1.000000
      3          7.242533        8.797048   1.000000   1.000000
      4          7.752109        8.846167   1.000000   1.000000
      5          7.857072        9.512458   1.000000   1.000000
      6          8.035440        9.722131   1.000000   1.000000
      7          8.036375        9.732859   1.000000   1.000000
      8          8.080152        9.795681   1.000000   1.000000
      9          8.327965       10.054813   1.000000   1.000000
     10          8.444827       10.063609   1.000000   1.000000
     11          9.534583       11.433706   1.000000   0.000000
     12         12.471491       13.335792   0.000000   0.000000
     13         16.853928       17.804200   0.000000   0.000000
     14         28.341759       28.559919   0.000000   0.000000
     15         29.065599       29.407479   0.000000   0.000000
     16         34.312059       34.361909   0.000000   0.000000
 
  0.1666667E+00  0.8333333E-01  0.0000000E+00  0.1041667E-01
      1          2.985268        3.004903   1.000000   1.000000
      2          5.916143        7.024613   1.000000   1.000000
      3          6.971658        8.169385   1.000000   1.000000
      4          7.049721        8.434924   1.000000   1.000000
      5          7.740219        9.342757   1.000000   1.000000
      6          7.858027        9.524385   1.000000   1.000000
      7          8.288602        9.914776   1.000000   1.000000
      8          8.289739       10.010892   1.000000   1.000000
      9          8.457085       10.186281   1.000000   0.988530
     10          8.742668       10.504847   1.000000   0.000000
     11          9.581614       11.488355   1.000000   0.000000
     12         14.067509       14.855213   0.000000   0.000000
     13         17.093284       17.943953   0.000000   0.000000
     14         24.785828       25.177633   0.000000   0.000000
     15         27.003382       27.335697   0.000000   0.000000
     16         32.079135       32.110039   0.000000   0.000000
 
  0.2500000E+00  0.8333333E-01  0.0000000E+00  0.1041667E-01
      1          4.132694        4.232004   1.000000   1.000000
      2          6.030614        7.270187   1.000000   1.000000
      3          6.470404        7.637622   1.000000   1.000000
      4          6.906329        8.202161   1.000000   1.000000
      5          7.671451        9.297991   1.000000   1.000000
      6          7.756234        9.312776   1.000000   1.000000
      7          8.094994        9.690477   1.000000   1.000000
      8          8.688887       10.438761   1.000000   0.000001
      9          8.956518       10.747953   1.000000   0.000000
     10          9.308116       11.075166   1.000000   0.000000
     11          9.621334       11.534101   1.000000   0.000000
     12         15.909371       16.611987   0.000000   0.000000
     13         17.452933       18.152540   0.000000   0.000000
     14         21.334596       21.863649   0.000000   0.000000
     15         25.462242       25.782364   0.000000   0.000000
     16         28.916663       29.099738   0.000000   0.000000
 
  0.3333333E+00  0.8333333E-01  0.0000000E+00  0.1041667E-01
      1          5.132295        5.514480   1.000000   1.000000
      2          5.855408        7.125039   1.000000   1.000000
      3          6.076482        7.283720   1.000000   1.000000
      4          7.148357        8.188113   1.000000   1.000000
      5          7.550305        9.158244   1.000000   1.000000
      6          7.904341        9.454869   1.000000   1.000000
      7          7.950194        9.516176   1.000000   1.000000
      8          9.187397       10.988523   1.000000   0.000000
      9          9.382632       11.233901   1.000000   0.000000
     10          9.646083       11.562218   1.000000   0.000000
     11         10.116286       11.770720   0.999990   0.000000
     12         16.725356       17.375659   0.000000   0.000000
     13         17.912179       18.513992   0.000000   0.000000
     14         19.726032       20.302544   0.000000   0.000000
     15         24.266927       24.555261   0.000000   0.000000
     16         26.033445       26.363012   0.000000   0.000000
 
  0.4166667E+00  0.8333333E-01  0.0000000E+00  0.1041667E-01
      1          5.565495        6.391176   1.000000   1.000000
      2          5.697692        6.903509   1.000000   1.000000
      3          5.879136        7.109074   1.000000   1.000000
      4          7.501576        8.289458   1.000000   1.000000
      5          7.522635        9.120546   1.000000   1.000000
      6          7.778330        9.280996   1.000000   1.000000
      7          8.105705        9.697164   1.000000   1.000000
      8          9.542256       11.421524   1.000000   0.000000
      9          9.612997       11.500110   1.000000   0.000000
     10          9.657081       11.574550   1.000000   0.000000
     11         11.417734       12.729968   0.000000   0.000000
     12         14.387943       15.284934   0.000000   0.000000
     13         19.832432       20.303730   0.000000   0.000000
     14         20.585581       21.006393   0.000000   0.000000
     15         23.476053       23.775194   0.000000   0.000000
     16         23.678599       24.162342   0.000000   0.000000
 
  0.1666667E+00  0.1666667E+00  0.0000000E+00  0.5208333E-02
      1          3.988448        4.055343   1.000000   1.000000
      2          6.210250        7.396863   1.000000   1.000000
      3          6.584902        7.742700   1.000000   1.000000
      4          6.679461        8.067587   1.000000   1.000000
      5          7.602204        9.219874   1.000000   1.000000
      6          7.751517        9.315433   1.000000   1.000000
      7          8.186950        9.801816   1.000000   1.000000
      8          8.456205       10.202805   1.000000   0.964626
      9          8.945427       10.724220   1.000000   0.000000
     10          9.328893       11.088122   1.000000   0.000000
     11          9.583344       11.489985   1.000000   0.000000
     12         15.649004       16.372004   0.000000   0.000000
     13         17.492375       18.221527   0.000000   0.000000
     14         23.047331       23.470605   0.000000   0.000000
     15         23.509080       23.934758   0.000000   0.000000
     16         30.447941       30.447106   0.000000   0.000000
 
  0.2500000E+00  0.1666667E+00  0.0000000E+00  0.1041667E-01
      1          5.081710        5.307637   1.000000   1.000000
      2          6.192047        7.424790   1.000000   1.000000
      3          6.217469        7.460798   1.000000   1.000000
      4          6.659018        7.888821   1.000000   1.000000
      5          7.448424        9.025057   1.000000   1.000000
      6          7.897409        9.456395   1.000000   1.000000
      7          7.997016        9.574883   1.000000   1.000000
      8          8.762003       10.539353   1.000000   0.000000
      9          9.385079       11.225876   1.000000   0.000000
     10          9.581174       11.487356   1.000000   0.000000
     11         10.136226       11.811530   0.999888   0.000000
     12         17.512332       18.156916   0.000000   0.000000
     13         17.870345       18.459428   0.000000   0.000000
     14         20.218052       20.767840   0.000000   0.000000
     15         22.097381       22.510418   0.000000   0.000000
     16         27.795214       28.013539   0.000000   0.000000
 
  0.3333333E+00  0.1666667E+00  0.0000000E+00  0.1041667E-01
      1          5.757181        6.393634   1.000000   1.000000
      2          5.989512        7.236225   1.000000   1.000000
      3          5.992577        7.239898   1.000000   1.000000
      4          6.981015        7.959694   1.000000   1.000000
      5          7.406250        8.968425   1.000000   1.000000
      6          7.791277        9.321043   1.000000   1.000000
      7          8.099394        9.692104   1.000000   1.000000
      8          9.165394       10.983626   1.000000   0.000000
      9          9.578404       11.483889   1.000000   0.000000
     10          9.603531       11.484944   1.000000   0.000000
     11         11.329589       12.736419   0.000000   0.000000
     12         16.060661       16.777123   0.000000   0.000000
     13         19.535018       20.081155   0.000000   0.000000
     14         20.163146       20.648154   0.000000   0.000000
     15         21.336688       21.721575   0.000000   0.000000
     16         25.115462       25.498156   0.000000   0.000000
 
  0.4166667E+00  0.1666667E+00  0.0000000E+00  0.5208333E-02
      1          5.895191        6.835864   1.000000   1.000000
      2          5.912989        7.106776   1.000000   1.000000
      3          5.920944        7.174610   1.000000   1.000000
      4          7.205135        8.040455   1.000000   1.000000
      5          7.423133        9.004028   1.000000   1.000000
      6          7.684427        9.171843   1.000000   1.000000
      7          8.185441        9.797088   1.000000   1.000000
      8          9.437547       11.293050   1.000000   0.000000
      9          9.577137       11.468205   1.000000   0.000000
     10          9.582798       11.482280   1.000000   0.000000
     11         12.618845       13.671368   0.000000   0.000000
     12         14.188471       15.171692   0.000000   0.000000
     13         20.660462       21.059381   0.000000   0.000000
     14         20.974614       21.413551   0.000000   0.000000
     15         21.376048       21.750561   0.000000   0.000000
     16         23.454090       23.961839   0.000000   0.000000
 
  0.2500000E+00  0.2500000E+00  0.0000000E+00  0.5208333E-02
      1          5.894369        6.410808   1.000000   1.000000
      2          6.052897        7.309527   1.000000   1.000000
      3          6.391301        7.590343   1.000000   1.000000
      4          6.444717        7.614869   1.000000   1.000000
      5          7.342892        8.879321   1.000000   1.000000
      6          7.806449        9.345573   1.000000   1.000000
      7          8.103990        9.693143   1.000000   1.000000
      8          8.940649       10.746796   1.000000   0.000000
      9          9.538009       11.437759   1.000000   0.000000
     10          9.609990       11.490315   1.000000   0.000000
     11         11.333377       12.771519   0.000000   0.000000
     12         17.851910       18.385705   0.000000   0.000000
     13         18.577128       19.159521   0.000000   0.000000
     14         19.417404       19.992405   0.000000   0.000000
     15         20.770884       21.234045   0.000000   0.000000
     16         26.967794       27.258590   0.000000   0.000000
 
  0.3333333E+00  0.2500000E+00  0.0000000E+00  0.1041667E-01
      1          5.974613        7.100684   1.000000   1.000000
      2          6.167564        7.267197   1.000000   1.000000
      3          6.258280        7.431559   1.000000   1.000000
      4          6.764230        7.720811   1.000000   1.000000
      5          7.362772        8.884103   1.000000   1.000000
      6          7.609095        9.108497   1.000000   1.000000
      7          8.270637        9.891085   1.000000   1.000000
      8          9.212923       11.048635   1.000000   0.000000
      9          9.512525       11.408460   1.000000   0.000000
     10          9.556240       11.435888   1.000000   0.000000
     11         13.011922       14.081486   0.000000   0.000000
     12         15.594163       16.363546   0.000000   0.000000
     13         17.935076       18.485450   0.000000   0.000000
     14         21.454463       21.941537   0.000000   0.000000
     15         21.831847       22.223507   0.000000   0.000000
     16         24.490946       24.914928   0.000000   0.000000
 
  0.3333333E+00  0.3333333E+00  0.0000000E+00  0.1736111E-02
      1          5.979679        7.295112   1.000000   1.000000
      2          6.359398        7.436934   1.000000   1.000000
      3          6.359399        7.436934   1.000000   1.000000
      4          6.642939        7.644671   1.000000   1.000000
      5          7.439895        8.933666   1.000000   1.000000
      6          7.439895        8.933666   1.000000   1.000000
      7          8.367071        9.996792   1.000000   1.000000
      8          9.357760       11.214655   1.000000   0.000000
      9          9.357760       11.214656   1.000000   0.000000
     10          9.486138       11.378333   1.000000   0.000000
     11         14.767143       15.552495   0.000000   0.000000
     12         15.589525       16.355559   0.000000   0.000000
     13         15.589525       16.355562   0.000000   0.000000
     14         22.698283       23.062746   0.000000   0.000000
     15         23.447180       23.888583   0.000000   0.000000
     16         23.447180       23.888583   0.000000   0.000000
 
  0.0000000E+00  0.0000000E+00  0.1250000E+00  0.1736111E-02
      1          1.533751        1.531058   1.000000   1.000000
      2          5.122061        5.995015   1.000000   1.000000
      3          7.644229        9.283533   1.000000   1.000000
      4          7.648219        9.297810   1.000000   1.000000
      5          7.648219        9.297810   1.000000   1.000000
      6          7.963366        9.663728   1.000000   1.000000
      7          7.963367        9.663728   1.000000   1.000000
      8          8.451790        9.791227   1.000000   1.000000
      9          8.451790       10.230067   1.000000   0.849901
     10          9.458003       10.230067   1.000000   0.849899
     11          9.458003       11.346130   1.000000   0.000000
     12          9.635853       11.346130   1.000000   0.000000
     13         17.646867       18.532399   0.000000   0.000000
     14         32.220330       31.912755   0.000000   0.000000
     15         34.586072       34.569029   0.000000   0.000000
     16         34.988236       34.904076   0.000000   0.000000
 
  0.8333333E-01  0.1387779E-16  0.1250000E+00  0.1041667E-01
      1          1.774683        1.773217   1.000000   1.000000
      2          5.274853        6.168339   1.000000   1.000000
      3          7.456067        9.061594   1.000000   1.000000
      4          7.749054        9.187971   1.000000   1.000000
      5          7.768561        9.409729   1.000000   1.000000
      6          7.856451        9.431449   1.000000   1.000000
      7          8.058010        9.706137   1.000000   1.000000
      8          8.336439        9.766750   1.000000   1.000000
      9          8.400445       10.169019   1.000000   0.997134
     10          8.624721       10.190097   1.000000   0.984864
     11          9.484057       11.377020   1.000000   0.000000
     12         10.784325       12.011734   0.000000   0.000000
     13         17.739123       18.597723   0.000000   0.000000
     14         30.498828       30.565567   0.000000   0.000000
     15         32.739698       32.776029   0.000000   0.000000
     16         32.875825       33.202993   0.000000   0.000000
 
  0.1666667E+00  0.1387779E-16  0.1250000E+00  0.1041667E-01
      1          2.469166        2.476640   1.000000   1.000000
      2          5.656515        6.619296   1.000000   1.000000
      3          7.201353        8.441848   1.000000   1.000000
      4          7.342954        8.731636   1.000000   1.000000
      5          7.737334        9.384655   1.000000   1.000000
      6          7.964812        9.658272   1.000000   1.000000
      7          8.100633        9.666741   1.000000   1.000000
      8          8.275287        9.997745   1.000000   1.000000
      9          8.396725       10.154425   1.000000   0.999252
     10          8.482697       10.186839   1.000000   0.988048
     11          9.539221       11.441574   1.000000   0.000000
     12         12.147982       13.216318   0.000000   0.000000
     13         18.047934       18.826660   0.000000   0.000000
     14         26.728679       27.054397   0.000000   0.000000
     15         30.508829       30.818478   0.000000   0.000000
     16         31.543011       31.612395   0.000000   0.000000
 
  0.2500000E+00  0.1387779E-16  0.1250000E+00  0.1041667E-01
      1          3.507990        3.560246   1.000000   1.000000
      2          5.967192        7.074457   1.000000   1.000000
      3          6.696893        7.827414   1.000000   1.000000
      4          7.052651        8.438620   1.000000   1.000000
      5          7.607553        9.195904   1.000000   1.000000
      6          7.916247        9.611548   1.000000   1.000000
      7          8.137458        9.664416   1.000000   1.000000
      8          8.621253       10.376301   1.000000   0.000967
      9          8.677786       10.423076   1.000000   0.000005
     10          8.755394       10.545362   1.000000   0.000000
     11          9.591315       11.501364   1.000000   0.000000
     12         13.571162       14.517761   0.000000   0.000000
     13         18.630578       19.287539   0.000000   0.000000
     14         23.034999       23.501974   0.000000   0.000000
     15         28.455776       28.731276   0.000000   0.000000
     16         29.056655       29.290785   0.000000   0.000000
 
  0.3333333E+00  0.2775558E-16  0.1250000E+00  0.1041667E-01
      1          4.595983        4.834297   1.000000   1.000000
      2          5.890837        7.105791   1.000000   1.000000
      3          6.276467        7.438321   1.000000   1.000000
      4          7.038850        8.298348   1.000000   1.000000
      5          7.758626        9.267894   1.000000   1.000000
      6          7.763297        9.431100   1.000000   1.000000
      7          8.184329        9.624193   1.000000   1.000000
      8          9.096225       10.918582   1.000000   0.000000
      9          9.170045       10.972571   1.000000   0.000000
     10          9.256203       11.005451   1.000000   0.000000
     11          9.631086       11.545607   1.000000   0.000000
     12         14.920152       15.696320   0.000000   0.000000
     13         18.920854       19.529955   0.000000   0.000000
     14         20.457465       21.000287   0.000000   0.000000
     15         26.071221       26.448503   0.000000   0.000000
     16         26.828409       27.054880   0.000000   0.000000
 
  0.4166667E+00  0.5551115E-16  0.1250000E+00  0.1041667E-01
      1          5.211781        5.900416   1.000000   1.000000
      2          5.668929        6.883604   1.000000   1.000000
      3          6.147738        7.293309   1.000000   1.000000
      4          7.054779        8.169283   1.000000   1.000000
      5          7.641136        9.296665   1.000000   1.000000
      6          8.027248        9.553315   1.000000   1.000000
      7          8.408037        9.669022   1.000000   1.000000
      8          9.440254       11.321443   1.000000   0.000000
      9          9.512196       11.391262   1.000000   0.000000
     10          9.676096       11.591820   1.000000   0.000000
     11         10.333172       11.836461   0.030037   0.000000
     12         14.934379       15.643588   0.000000   0.000000
     13         18.088557       18.809828   0.000000   0.000000
     14         20.841275       21.244247   0.000000   0.000000
     15         23.905983       24.414673   0.000000   0.000000
     16         25.760163       25.937678   0.000000   0.000000
 
  0.5000000E+00  0.2775558E-16  0.1250000E+00  0.5208333E-02
      1          5.341690        6.301427   1.000000   1.000000
      2          5.558275        6.751892   1.000000   1.000000
      3          6.143172        7.302312   1.000000   1.000000
      4          7.077981        8.111333   1.000000   1.000000
      5          7.598694        9.248149   1.000000   1.000000
      6          8.109987        9.667165   1.000000   1.000000
      7          8.579756        9.756818   1.000000   1.000000
      8          9.533709       11.429911   1.000000   0.000000
      9          9.646190       11.554499   1.000000   0.000000
     10          9.727485       11.641611   1.000000   0.000000
     11         11.486572       12.671882   0.000000   0.000000
     12         13.523441       14.477903   0.000000   0.000000
     13         19.445237       19.966754   0.000000   0.000000
     14         19.804006       20.342489   0.000000   0.000000
     15         24.256445       24.664337   0.000000   0.000000
     16         25.226365       25.540094   0.000000   0.000000
 
  0.8333333E-01  0.8333333E-01  0.1250000E+00  0.1041667E-01
      1          2.243389        2.246590   1.000000   1.000000
      2          5.548395        6.485122   1.000000   1.000000
      3          7.255974        8.639585   1.000000   1.000000
      4          7.525185        8.813524   1.000000   1.000000
      5          7.810546        9.473835   1.000000   1.000000
      6          7.910171        9.556018   1.000000   1.000000
      7          8.042644        9.637175   1.000000   1.000000
      8          8.204575        9.920749   1.000000   1.000000
      9          8.402616       10.157921   1.000000   0.998953
     10          8.500361       10.180070   1.000000   0.992860
     11          9.517069       11.414913   1.000000   0.000000
     12         11.776381       12.879833   0.000000   0.000000
     13         17.941546       18.746778   0.000000   0.000000
     14         28.452215       28.659856   0.000000   0.000000
     15         29.208398       29.546019   0.000000   0.000000
     16         33.809603       33.795433   0.000000   0.000000
 
  0.1666667E+00  0.8333333E-01  0.1250000E+00  0.2083333E-01
      1          3.120015        3.145416   1.000000   1.000000
      2          5.944712        6.979112   1.000000   1.000000
      3          6.918241        8.034995   1.000000   1.000000
      4          7.004757        8.465927   1.000000   1.000000
      5          7.674837        9.298740   1.000000   1.000000
      6          7.873723        9.491189   1.000000   1.000000