PROCAR lm decomposed
# of k-points:   95         # of bands:   16         # of ions:    2

 k-point     1 :    0.00000000 0.00000000 0.00000000     weight = 0.00086806

band     1 # energy    1.37510319 # occ.  1.00000000
 
ion      s     py     pz     px    dxy    dyz    dz2    dxz  x2-y2    tot
    1  0.364  0.000  0.000  0.000  0.000  0.000  0.000  0.000  0.000  0.364
    2  0.364  0.000  0.000  0.000  0.000  0.000  0.000  0.000  0.000  0.364
tot    0.727  0.000  0.000  0.000  0.000  0.000  0.000  0.000  0.000  0.727
 
band     2 # energy    5.15175445 # occ.  1.00000000
 
ion      s     py     pz     px    dxy    dyz    dz2    dxz  x2-y2    tot
    1  0.080  0.000  0.000  0.000  0.000  0.000  0.367  0.000  0.000  0.447
    2  0.080  0.000  0.000  0.000  0.000  0.000  0.367  0.000  0.000  0.447
tot    0.159  0.000  0.000  0.000  0.000  0.000  0.735  0.000  0.000  0.894
 
band     3 # energy    7.68537269 # occ.  1.00000000
 
ion      s     py     pz     px    dxy    dyz    dz2    dxz  x2-y2    tot
    1  0.000  0.000  0.000  0.000  0.000  0.000  0.486  0.000  0.000  0.486
    2  0.000  0.000  0.000  0.000  0.000  0.000  0.486  0.000  0.000  0.486
tot    0.000  0.000  0.000  0.000  0.000  0.000  0.972  0.000  0.000  0.972
 
band     4 # energy    7.69096399 # occ.  1.00000000
 
ion      s     py     pz     px    dxy    dyz    dz2    dxz  x2-y2    tot
    1  0.000  0.001  0.000  0.000  0.000  0.000  0.000  0.000  0.482  0.483
    2  0.000  0.001  0.000  0.000  0.000  0.000  0.000  0.000  0.482  0.483
tot    0.000  0.001  0.000  0.000  0.000  0.000  0.000  0.000  0.964  0.966
 
band     5 # energy    7.69096408 # occ.  1.00000000
 
ion      s     py     pz     px    dxy    dyz    dz2    dxz  x2-y2    tot
    1  0.000  0.000  0.000  0.001  0.482  0.000  0.000  0.000  0.000  0.483
    2  0.000  0.000  0.000  0.001  0.482  0.000  0.000  0.000  0.000  0.483
tot    0.000  0.000  0.000  0.001  0.964  0.000  0.000  0.000  0.000  0.966
 
band     6 # energy    8.00685170 # occ.  1.00000000
 
ion      s     py     pz     px    dxy    dyz    dz2    dxz  x2-y2    tot
    1  0.000  0.001  0.000  0.000  0.000  0.000  0.000  0.000  0.487  0.487
    2  0.000  0.001  0.000  0.000  0.000  0.000  0.000  0.000  0.487  0.487
tot    0.000  0.001  0.000  0.000  0.000  0.000  0.000  0.000  0.973  0.975
 
band     7 # energy    8.00685182 # occ.  1.00000000
 
ion      s     py     pz     px    dxy    dyz    dz2    dxz  x2-y2    tot
    1  0.000  0.000  0.000  0.001  0.487  0.000  0.000  0.000  0.000  0.487
    2  0.000  0.000  0.000  0.001  0.487  0.000  0.000  0.000  0.000  0.487
tot    0.000  0.000  0.000  0.001  0.973  0.000  0.000  0.000  0.000  0.975
 
band     8 # energy    8.35274949 # occ.  1.00000000
 
ion      s     py     pz     px    dxy    dyz    dz2    dxz  x2-y2    tot
    1  0.000  0.000  0.000  0.000  0.000  0.490  0.000  0.000  0.000  0.490
    2  0.000  0.000  0.000  0.000  0.000  0.490  0.000  0.000  0.000  0.490
tot    0.000  0.000  0.000  0.000  0.000  0.979  0.000  0.000  0.000  0.979
 
band     9 # energy    8.35274954 # occ.  1.00000000
 
ion      s     py     pz     px    dxy    dyz    dz2    dxz  x2-y2    tot
    1  0.000  0.000  0.000  0.000  0.000  0.000  0.000  0.490  0.000  0.490
    2  0.000  0.000  0.000  0.000  0.000  0.000  0.000  0.490  0.000  0.490
tot    0.000  0.000  0.000  0.000  0.000  0.000  0.000  0.979  0.000  0.979
 
band    10 # energy    9.46614434 # occ.  1.00000000
 
ion      s     py     pz     px    dxy    dyz    dz2    dxz  x2-y2    tot
    1  0.000  0.000  0.000  0.000  0.000  0.000  0.000  0.492  0.000  0.492
    2  0.000  0.000  0.000  0.000  0.000  0.000  0.000  0.492  0.000  0.492
tot    0.000  0.000  0.000  0.000  0.000  0.000  0.000  0.985  0.000  0.985
 
band    11 # energy    9.46614434 # occ.  1.00000000
 
ion      s     py     pz     px    dxy    dyz    dz2    dxz  x2-y2    tot
    1  0.000  0.000  0.000  0.000  0.000  0.492  0.000  0.000  0.000  0.492
    2  0.000  0.000  0.000  0.000  0.000  0.492  0.000  0.000  0.000  0.492
tot    0.000  0.000  0.000  0.000  0.000  0.985  0.000  0.000  0.000  0.985
 
band    12 # energy   10.25784742 # occ.  0.59880369
 
ion      s     py     pz     px    dxy    dyz    dz2    dxz  x2-y2    tot
    1  0.000  0.000  0.347  0.000  0.000  0.000  0.000  0.000  0.000  0.347
    2  0.000  0.000  0.347  0.000  0.000  0.000  0.000  0.000  0.000  0.347
tot    0.000  0.000  0.693  0.000  0.000  0.000  0.000  0.000  0.000  0.693
 
band    13 # energy   16.71338756 # occ.  0.00000000
 
ion      s     py     pz     px    dxy    dyz    dz2    dxz  x2-y2    tot
    1  0.225  0.000  0.000  0.000  0.000  0.000  0.229  0.000  0.000  0.453
    2  0.225  0.000  0.000  0.000  0.000  0.000  0.229  0.000  0.000  0.453
tot    0.449  0.000  0.000  0.000  0.000  0.000  0.458  0.000  0.000  0.907
 
band    14 # energy   32.27743396 # occ.  0.00000000
 
ion      s     py     pz     px    dxy    dyz    dz2    dxz  x2-y2    tot
    1  0.007  0.000  0.000  0.000  0.000  0.000  0.033  0.000  0.000  0.040
    2  0.007  0.000  0.000  0.000  0.000  0.000  0.033  0.000  0.000  0.040
tot    0.013  0.000  0.000  0.000  0.000  0.000  0.066  0.000  0.000  0.079
 
band    15 # energy   34.84517180 # occ.  0.00000000
 
ion      s     py     pz     px    dxy    dyz    dz2    dxz  x2-y2    tot
    1  0.000  0.271  0.000  0.000  0.000  0.000  0.000  0.000  0.120  0.391
    2  0.000  0.271  0.000  0.000  0.000  0.000  0.000  0.000  0.120  0.391
tot    0.000  0.542  0.000  0.000  0.000  0.000  0.000  0.000  0.240  0.782
 
band    16 # energy   34.84517326 # occ.  0.00000000
 
ion      s     py     pz     px    dxy    dyz    dz2    dxz  x2-y2    tot
    1  0.000  0.000  0.000  0.271  0.120  0.000  0.000  0.000  0.000  0.391
    2  0.000  0.000  0.000  0.271  0.120  0.000  0.000  0.000  0.000  0.391
tot    0.000  0.000  0.000  0.542  0.240  0.000  0.000  0.000  0.000  0.782
 

 k-point     2 :    0.08333333 0.00000000 0.00000000     weight = 0.00520833

band     1 # energy    1.61843104 # occ.  1.00000000
 
ion      s     py     pz     px    dxy    dyz    dz2    dxz  x2-y2    tot
    1  0.355  0.002  0.000  0.006  0.000  0.000  0.000  0.000  0.000  0.364
    2  0.355  0.002  0.000  0.006  0.000  0.000  0.000  0.000  0.000  0.364
tot    0.711  0.004  0.000  0.012  0.000  0.000  0.000  0.000  0.000  0.728
 
band     2 # energy    5.29611120 # occ.  1.00000000
 
ion      s     py     pz     px    dxy    dyz    dz2    dxz  x2-y2    tot
    1  0.072  0.001  0.000  0.004  0.002  0.000  0.368  0.000  0.001  0.448
    2  0.072  0.001  0.000  0.004  0.002  0.000  0.368  0.000  0.001  0.448
tot    0.144  0.003  0.000  0.008  0.004  0.000  0.736  0.000  0.001  0.896
 
band     3 # energy    7.45897425 # occ.  1.00000000
 
ion      s     py     pz     px    dxy    dyz    dz2    dxz  x2-y2    tot
    1  0.000  0.000  0.000  0.001  0.239  0.000  0.161  0.000  0.080  0.481
    2  0.000  0.000  0.000  0.001  0.239  0.000  0.161  0.000  0.080  0.481
tot    0.000  0.001  0.000  0.002  0.477  0.000  0.323  0.000  0.159  0.962
 
band     4 # energy    7.80398592 # occ.  1.00000000
 
ion      s     py     pz     px    dxy    dyz    dz2    dxz  x2-y2    tot
    1  0.000  0.001  0.000  0.000  0.120  0.000  0.000  0.000  0.361  0.483
    2  0.000  0.001  0.000  0.000  0.120  0.000  0.000  0.000  0.361  0.483
tot    0.000  0.002  0.000  0.001  0.241  0.000  0.000  0.000  0.723  0.966
 
band     5 # energy    7.87875564 # occ.  1.00000000
 
ion      s     py     pz     px    dxy    dyz    dz2    dxz  x2-y2    tot
    1  0.000  0.000  0.000  0.000  0.152  0.000  0.283  0.000  0.051  0.486
    2  0.000  0.000  0.000  0.000  0.152  0.000  0.283  0.000  0.051  0.486
tot    0.000  0.000  0.000  0.001  0.303  0.000  0.566  0.000  0.101  0.972
 
band     6 # energy    7.96189303 # occ.  1.00000000
 
ion      s     py     pz     px    dxy    dyz    dz2    dxz  x2-y2    tot
    1  0.001  0.000  0.000  0.001  0.331  0.000  0.043  0.000  0.110  0.486
    2  0.001  0.000  0.000  0.001  0.331  0.000  0.043  0.000  0.110  0.486
tot    0.002  0.000  0.000  0.001  0.662  0.000  0.086  0.000  0.221  0.972
 
band     7 # energy    8.10634438 # occ.  1.00000000
 
ion      s     py     pz     px    dxy    dyz    dz2    dxz  x2-y2    tot
    1  0.000  0.001  0.000  0.000  0.122  0.000  0.000  0.000  0.365  0.488
    2  0.000  0.001  0.000  0.000  0.122  0.000  0.000  0.000  0.365  0.488
tot    0.000  0.002  0.000  0.001  0.243  0.000  0.000  0.000  0.730  0.975
 
band     8 # energy    8.20456208 # occ.  1.00000000
 
ion      s     py     pz     px    dxy    dyz    dz2    dxz  x2-y2    tot
    1  0.000  0.000  0.011  0.000  0.000  0.118  0.000  0.353  0.000  0.482
    2  0.000  0.000  0.011  0.000  0.000  0.118  0.000  0.353  0.000  0.482
tot    0.000  0.000  0.022  0.000  0.000  0.235  0.000  0.706  0.000  0.964
 
band     9 # energy    8.28176133 # occ.  1.00000000
 
ion      s     py     pz     px    dxy    dyz    dz2    dxz  x2-y2    tot
    1  0.000  0.000  0.000  0.000  0.000  0.367  0.000  0.122  0.000  0.489
    2  0.000  0.000  0.000  0.000  0.000  0.367  0.000  0.122  0.000  0.489
tot    0.000  0.000  0.000  0.000  0.000  0.733  0.000  0.244  0.000  0.978
 
band    10 # energy    8.71099372 # occ.  1.00000000
 
ion      s     py     pz     px    dxy    dyz    dz2    dxz  x2-y2    tot
    1  0.000  0.000  0.087  0.000  0.000  0.091  0.000  0.273  0.000  0.451
    2  0.000  0.000  0.087  0.000  0.000  0.091  0.000  0.273  0.000  0.451
tot    0.000  0.000  0.174  0.000  0.000  0.182  0.000  0.546  0.000  0.902
 
band    11 # energy    9.49654622 # occ.  1.00000000
 
ion      s     py     pz     px    dxy    dyz    dz2    dxz  x2-y2    tot
    1  0.000  0.000  0.000  0.000  0.000  0.370  0.000  0.123  0.000  0.493
    2  0.000  0.000  0.000  0.000  0.000  0.370  0.000  0.123  0.000  0.493
tot    0.000  0.000  0.000  0.000  0.000  0.740  0.000  0.247  0.000  0.986
 
band    12 # energy   11.32736717 # occ.  0.00000000
 
ion      s     py     pz     px    dxy    dyz    dz2    dxz  x2-y2    tot
    1  0.000  0.000  0.245  0.000  0.000  0.038  0.000  0.113  0.000  0.396
    2  0.000  0.000  0.245  0.000  0.000  0.038  0.000  0.113  0.000  0.396
tot    0.000  0.000  0.490  0.000  0.000  0.076  0.000  0.227  0.000  0.792
 
band    13 # energy   16.75606181 # occ.  0.00000000
 
ion      s     py     pz     px    dxy    dyz    dz2    dxz  x2-y2    tot
    1  0.221  0.002  0.000  0.005  0.000  0.000  0.223  0.000  0.000  0.451
    2  0.221  0.002  0.000  0.005  0.000  0.000  0.223  0.000  0.000  0.451
tot    0.442  0.004  0.000  0.011  0.000  0.000  0.446  0.000  0.000  0.902
 
band    14 # energy   30.41706497 # occ.  0.00000000
 
ion      s     py     pz     px    dxy    dyz    dz2    dxz  x2-y2    tot
    1  0.014  0.024  0.000  0.072  0.111  0.000  0.024  0.000  0.037  0.281
    2  0.014  0.024  0.000  0.072  0.111  0.000  0.024  0.000  0.037  0.281
tot    0.028  0.048  0.000  0.144  0.221  0.000  0.048  0.000  0.074  0.563
 
band    15 # energy   32.72317017 # occ.  0.00000000
 
ion      s     py     pz     px    dxy    dyz    dz2    dxz  x2-y2    tot
    1  0.000  0.176  0.000  0.059  0.042  0.000  0.000  0.000  0.125  0.401
    2  0.000  0.176  0.000  0.059  0.042  0.000  0.000  0.000  0.125  0.401
tot    0.000  0.351  0.000  0.117  0.084  0.000  0.000  0.000  0.251  0.803
 
band    16 # energy   32.76068301 # occ.  0.00000000
 
ion      s     py     pz     px    dxy    dyz    dz2    dxz  x2-y2    tot
    1  0.022  0.022  0.000  0.066  0.063  0.000  0.040  0.000  0.021  0.234
    2  0.022  0.022  0.000  0.066  0.063  0.000  0.040  0.000  0.021  0.234
tot    0.044  0.044  0.000  0.131  0.127  0.000  0.080  0.000  0.042  0.468
 

 k-point     3 :    0.16666667 0.00000000 0.00000000     weight = 0.00520833

band     1 # energy    2.32216267 # occ.  1.00000000
 
ion      s     py     pz     px    dxy    dyz    dz2    dxz  x2-y2    tot
    1  0.330  0.008  0.000  0.023  0.002  0.000  0.001  0.000  0.001  0.365
    2  0.330  0.008  0.000  0.023  0.002  0.000  0.001  0.000  0.001  0.365
tot    0.661  0.016  0.000  0.047  0.004  0.000  0.002  0.000  0.001  0.730
 
band     2 # energy    5.65239429 # occ.  1.00000000
 
ion      s     py     pz     px    dxy    dyz    dz2    dxz  x2-y2    tot
    1  0.051  0.004  0.000  0.012  0.019  0.000  0.359  0.000  0.006  0.452
    2  0.051  0.004  0.000  0.012  0.019  0.000  0.359  0.000  0.006  0.452
tot    0.103  0.008  0.000  0.024  0.038  0.000  0.717  0.000  0.013  0.903
 
band     3 # energy    7.18497347 # occ.  1.00000000
 
ion      s     py     pz     px    dxy    dyz    dz2    dxz  x2-y2    tot
    1  0.000  0.001  0.000  0.004  0.265  0.000  0.115  0.000  0.088  0.474
    2  0.000  0.001  0.000  0.004  0.265  0.000  0.115  0.000  0.088  0.474
tot    0.001  0.003  0.000  0.009  0.530  0.000  0.230  0.000  0.177  0.948
 
band     4 # energy    7.50682500 # occ.  1.00000000
 
ion      s     py     pz     px    dxy    dyz    dz2    dxz  x2-y2    tot
    1  0.000  0.000  0.060  0.000  0.000  0.098  0.000  0.293  0.000  0.451
    2  0.000  0.000  0.060  0.000  0.000  0.098  0.000  0.293  0.000  0.451
tot    0.000  0.000  0.120  0.000  0.000  0.196  0.000  0.587  0.000  0.902
 
band     5 # energy    7.79182712 # occ.  1.00000000
 
ion      s     py     pz     px    dxy    dyz    dz2    dxz  x2-y2    tot
    1  0.004  0.000  0.000  0.001  0.315  0.000  0.056  0.000  0.105  0.483
    2  0.004  0.000  0.000  0.001  0.315  0.000  0.056  0.000  0.105  0.483
tot    0.009  0.001  0.000  0.003  0.630  0.000  0.112  0.000  0.210  0.965
 
band     6 # energy    8.10665867 # occ.  1.00000000
 
ion      s     py     pz     px    dxy    dyz    dz2    dxz  x2-y2    tot
    1  0.000  0.000  0.000  0.000  0.000  0.365  0.000  0.122  0.000  0.487
    2  0.000  0.000  0.000  0.000  0.000  0.365  0.000  0.122  0.000  0.487
tot    0.000  0.000  0.000  0.000  0.000  0.730  0.000  0.243  0.000  0.974
 
band     7 # energy    8.12376718 # occ.  1.00000000
 
ion      s     py     pz     px    dxy    dyz    dz2    dxz  x2-y2    tot
    1  0.000  0.002  0.000  0.001  0.120  0.000  0.000  0.000  0.361  0.484
    2  0.000  0.002  0.000  0.001  0.120  0.000  0.000  0.000  0.361  0.484
tot    0.000  0.003  0.000  0.001  0.241  0.000  0.000  0.000  0.723  0.968
 
band     8 # energy    8.18389079 # occ.  1.00000000
 
ion      s     py     pz     px    dxy    dyz    dz2    dxz  x2-y2    tot
    1  0.001  0.000  0.000  0.001  0.113  0.000  0.333  0.000  0.038  0.486
    2  0.001  0.000  0.000  0.001  0.113  0.000  0.333  0.000  0.038  0.486
tot    0.003  0.001  0.000  0.002  0.225  0.000  0.667  0.000  0.075  0.973
 
band     9 # energy    8.32619890 # occ.  1.00000000
 
ion      s     py     pz     px    dxy    dyz    dz2    dxz  x2-y2    tot
    1  0.000  0.000  0.036  0.000  0.000  0.109  0.000  0.328  0.000  0.473
    2  0.000  0.000  0.036  0.000  0.000  0.109  0.000  0.328  0.000  0.473
tot    0.000  0.000  0.071  0.000  0.000  0.219  0.000  0.657  0.000  0.947
 
band    10 # energy    8.38657557 # occ.  1.00000000
 
ion      s     py     pz     px    dxy    dyz    dz2    dxz  x2-y2    tot
    1  0.000  0.002  0.000  0.001  0.122  0.000  0.000  0.000  0.365  0.488
    2  0.000  0.002  0.000  0.001  0.122  0.000  0.000  0.000  0.365  0.488
tot    0.000  0.003  0.000  0.001  0.243  0.000  0.000  0.000  0.729  0.976
 
band    11 # energy    9.56153445 # occ.  1.00000000
 
ion      s     py     pz     px    dxy    dyz    dz2    dxz  x2-y2    tot
    1  0.000  0.000  0.000  0.000  0.000  0.371  0.000  0.124  0.000  0.494
    2  0.000  0.000  0.000  0.000  0.000  0.371  0.000  0.124  0.000  0.494
tot    0.000  0.000  0.000  0.000  0.000  0.742  0.000  0.247  0.000  0.989
 
band    12 # energy   12.91839976 # occ.  0.00000000
 
ion      s     py     pz     px    dxy    dyz    dz2    dxz  x2-y2    tot
    1  0.000  0.000  0.238  0.000  0.000  0.042  0.000  0.125  0.000  0.405
    2  0.000  0.000  0.238  0.000  0.000  0.042  0.000  0.125  0.000  0.405
tot    0.000  0.000  0.477  0.000  0.000  0.083  0.000  0.250  0.000  0.810
 
band    13 # energy   16.90522913 # occ.  0.00000000
 
ion      s     py     pz     px    dxy    dyz    dz2    dxz  x2-y2    tot
    1  0.207  0.008  0.000  0.024  0.001  0.000  0.205  0.000  0.000  0.443
    2  0.207  0.008  0.000  0.024  0.001  0.000  0.205  0.000  0.000  0.443
tot    0.413  0.016  0.000  0.047  0.001  0.000  0.409  0.000  0.000  0.887
 
band    14 # energy   26.59867147 # occ.  0.00000000
 
ion      s     py     pz     px    dxy    dyz    dz2    dxz  x2-y2    tot
    1  0.043  0.037  0.000  0.111  0.118  0.000  0.023  0.000  0.039  0.371
    2  0.043  0.037  0.000  0.111  0.118  0.000  0.023  0.000  0.039  0.371
tot    0.086  0.074  0.000  0.223  0.235  0.000  0.045  0.000  0.078  0.742
 
band    15 # energy   30.32788855 # occ.  0.00000000
 
ion      s     py     pz     px    dxy    dyz    dz2    dxz  x2-y2    tot
    1  0.000  0.191  0.000  0.064  0.032  0.000  0.000  0.000  0.097  0.384
    2  0.000  0.191  0.000  0.064  0.032  0.000  0.000  0.000  0.097  0.384
tot    0.000  0.382  0.000  0.127  0.065  0.000  0.000  0.000  0.194  0.768
 
band    16 # energy   31.82102611 # occ.  0.00000000
 
ion      s     py     pz     px    dxy    dyz    dz2    dxz  x2-y2    tot
    1  0.023  0.006  0.000  0.017  0.143  0.000  0.048  0.000  0.048  0.284
    2  0.023  0.006  0.000  0.017  0.143  0.000  0.048  0.000  0.048  0.284
tot    0.045  0.011  0.000  0.033  0.286  0.000  0.097  0.000  0.095  0.568
 

 k-point     4 :    0.25000000 0.00000000 0.00000000     weight = 0.00520833

band     1 # energy    3.38568731 # occ.  1.00000000
 
ion      s     py     pz     px    dxy    dyz    dz2    dxz  x2-y2    tot
    1  0.286  0.015  0.000  0.045  0.014  0.000  0.005  0.000  0.005  0.370
    2  0.286  0.015  0.000  0.045  0.014  0.000  0.005  0.000  0.005  0.370
tot    0.571  0.030  0.000  0.090  0.028  0.000  0.010  0.000  0.009  0.740
 
band     2 # energy    5.93404405 # occ.  1.00000000
 
ion      s     py     pz     px    dxy    dyz    dz2    dxz  x2-y2    tot
    1  0.025  0.004  0.000  0.012  0.105  0.000  0.278  0.000  0.035  0.459
    2  0.025  0.004  0.000  0.012  0.105  0.000  0.278  0.000  0.035  0.459
tot    0.051  0.008  0.000  0.023  0.210  0.000  0.556  0.000  0.070  0.917
 
band     3 # energy    6.78203943 # occ.  1.00000000
 
ion      s     py     pz     px    dxy    dyz    dz2    dxz  x2-y2    tot
    1  0.000  0.000  0.051  0.000  0.000  0.099  0.000  0.297  0.000  0.447
    2  0.000  0.000  0.051  0.000  0.000  0.099  0.000  0.297  0.000  0.447
tot    0.000  0.000  0.102  0.000  0.000  0.198  0.000  0.594  0.000  0.894
 
band     4 # energy    7.02190221 # occ.  1.00000000
 
ion      s     py     pz     px    dxy    dyz    dz2    dxz  x2-y2    tot
    1  0.001  0.007  0.000  0.020  0.230  0.000  0.129  0.000  0.077  0.463
    2  0.001  0.007  0.000  0.020  0.230  0.000  0.129  0.000  0.077  0.463
tot    0.002  0.013  0.000  0.040  0.459  0.000  0.259  0.000  0.153  0.926
 
band     5 # energy    7.70328074 # occ.  1.00000000
 
ion      s     py     pz     px    dxy    dyz    dz2    dxz  x2-y2    tot
    1  0.010  0.001  0.000  0.004  0.251  0.000  0.129  0.000  0.084  0.479
    2  0.010  0.001  0.000  0.004  0.251  0.000  0.129  0.000  0.084  0.479
tot    0.020  0.003  0.000  0.008  0.502  0.000  0.257  0.000  0.167  0.958
 
band     6 # energy    7.89598156 # occ.  1.00000000
 
ion      s     py     pz     px    dxy    dyz    dz2    dxz  x2-y2    tot
    1  0.000  0.000  0.000  0.000  0.000  0.364  0.000  0.121  0.000  0.485
    2  0.000  0.000  0.000  0.000  0.000  0.364  0.000  0.121  0.000  0.485
tot    0.000  0.000  0.000  0.000  0.000  0.728  0.000  0.243  0.000  0.970
 
band     7 # energy    8.12671154 # occ.  1.00000000
 
ion      s     py     pz     px    dxy    dyz    dz2    dxz  x2-y2    tot
    1  0.000  0.000  0.028  0.000  0.000  0.112  0.000  0.336  0.000  0.476
    2  0.000  0.000  0.028  0.000  0.000  0.112  0.000  0.336  0.000  0.476
tot    0.000  0.000  0.056  0.000  0.000  0.224  0.000  0.672  0.000  0.951
 
band     8 # energy    8.58653440 # occ.  1.00000000
 
ion      s     py     pz     px    dxy    dyz    dz2    dxz  x2-y2    tot
    1  0.000  0.002  0.000  0.001  0.121  0.000  0.000  0.000  0.363  0.486
    2  0.000  0.002  0.000  0.001  0.121  0.000  0.000  0.000  0.363  0.486
tot    0.000  0.003  0.000  0.001  0.242  0.000  0.000  0.000  0.725  0.972
 
band     9 # energy    8.61130822 # occ.  1.00000000
 
ion      s     py     pz     px    dxy    dyz    dz2    dxz  x2-y2    tot
    1  0.006  0.002  0.000  0.005  0.101  0.000  0.338  0.000  0.034  0.485
    2  0.006  0.002  0.000  0.005  0.101  0.000  0.338  0.000  0.034  0.485
tot    0.011  0.003  0.000  0.010  0.202  0.000  0.677  0.000  0.067  0.971
 
band    10 # energy    8.78896110 # occ.  1.00000000
 
ion      s     py     pz     px    dxy    dyz    dz2    dxz  x2-y2    tot
    1  0.000  0.002  0.000  0.001  0.122  0.000  0.000  0.000  0.365  0.490
    2  0.000  0.002  0.000  0.001  0.122  0.000  0.000  0.000  0.365  0.490
tot    0.000  0.004  0.000  0.001  0.243  0.000  0.000  0.000  0.730  0.980
 
band    11 # energy    9.62312623 # occ.  1.00000000
 
ion      s     py     pz     px    dxy    dyz    dz2    dxz  x2-y2    tot
    1  0.000  0.000  0.000  0.000  0.000  0.372  0.000  0.124  0.000  0.495
    2  0.000  0.000  0.000  0.000  0.000  0.372  0.000  0.124  0.000  0.495
tot    0.000  0.000  0.000  0.000  0.000  0.743  0.000  0.248  0.000  0.991
 
band    12 # energy   14.71693072 # occ.  0.00000000
 
ion      s     py     pz     px    dxy    dyz    dz2    dxz  x2-y2    tot
    1  0.000  0.000  0.242  0.000  0.000  0.042  0.000  0.125  0.000  0.408
    2  0.000  0.000  0.242  0.000  0.000  0.042  0.000  0.125  0.000  0.408
tot    0.000  0.000  0.483  0.000  0.000  0.083  0.000  0.249  0.000  0.816
 
band    13 # energy   17.19215297 # occ.  0.00000000
 
ion      s     py     pz     px    dxy    dyz    dz2    dxz  x2-y2    tot
    1  0.167  0.022  0.000  0.065  0.000  0.000  0.177  0.000  0.000  0.431
    2  0.167  0.022  0.000  0.065  0.000  0.000  0.177  0.000  0.000  0.431
tot    0.334  0.043  0.000  0.130  0.001  0.000  0.353  0.000  0.000  0.862
 
band    14 # energy   22.89085396 # occ.  0.00000000
 
ion      s     py     pz     px    dxy    dyz    dz2    dxz  x2-y2    tot
    1  0.096  0.034  0.000  0.103  0.107  0.000  0.018  0.000  0.036  0.394
    2  0.096  0.034  0.000  0.103  0.107  0.000  0.018  0.000  0.036  0.394
tot    0.192  0.069  0.000  0.207  0.214  0.000  0.036  0.000  0.071  0.788
 
band    15 # energy   28.24963016 # occ.  0.00000000
 
ion      s     py     pz     px    dxy    dyz    dz2    dxz  x2-y2    tot
    1  0.000  0.209  0.000  0.070  0.021  0.000  0.000  0.000  0.063  0.363
    2  0.000  0.209  0.000  0.070  0.021  0.000  0.000  0.000  0.063  0.363
tot    0.000  0.418  0.000  0.139  0.042  0.000  0.000  0.000  0.127  0.726
 
band    16 # energy   30.38094137 # occ.  0.00000000
 
ion      s     py     pz     px    dxy    dyz    dz2    dxz  x2-y2    tot
    1  0.000  0.000  0.073  0.000  0.000  0.059  0.000  0.178  0.000  0.311
    2  0.000  0.000  0.073  0.000  0.000  0.059  0.000  0.178  0.000  0.311
tot    0.000  0.000  0.146  0.000  0.000  0.119  0.000  0.357  0.000  0.622
 

 k-point     5 :    0.33333333 0.00000000 0.00000000     weight = 0.00520833

band     1 # energy    4.54087076 # occ.  1.00000000
 
ion      s     py     pz     px    dxy    dyz    dz2    dxz  x2-y2    tot
    1  0.210  0.018  0.000  0.054  0.067  0.000  0.017  0.000  0.022  0.388
    2  0.210  0.018  0.000  0.054  0.067  0.000  0.017  0.000  0.022  0.388
tot    0.420  0.036  0.000  0.108  0.134  0.000  0.034  0.000  0.045  0.776
 
band     2 # energy    5.86284488 # occ.  1.00000000
 
ion      s     py     pz     px    dxy    dyz    dz2    dxz  x2-y2    tot
    1  0.014  0.001  0.000  0.003  0.211  0.000  0.162  0.000  0.070  0.462
    2  0.014  0.001  0.000  0.003  0.211  0.000  0.162  0.000  0.070  0.462
tot    0.029  0.002  0.000  0.006  0.422  0.000  0.325  0.000  0.141  0.925
 
band     3 # energy    6.25290494 # occ.  1.00000000
 
ion      s     py     pz     px    dxy    dyz    dz2    dxz  x2-y2    tot
    1  0.000  0.000  0.034  0.000  0.000  0.103  0.000  0.310  0.000  0.447
    2  0.000  0.000  0.034  0.000  0.000  0.103  0.000  0.310  0.000  0.447
tot    0.000  0.000  0.068  0.000  0.000  0.207  0.000  0.620  0.000  0.895
 
band     4 # energy    7.14068425 # occ.  1.00000000
 
ion      s     py     pz     px    dxy    dyz    dz2    dxz  x2-y2    tot
    1  0.009  0.017  0.000  0.051  0.171  0.000  0.139  0.000  0.057  0.445
    2  0.009  0.017  0.000  0.051  0.171  0.000  0.139  0.000  0.057  0.445
tot    0.019  0.034  0.000  0.102  0.342  0.000  0.278  0.000  0.114  0.890
 
band     5 # energy    7.70631335 # occ.  1.00000000
 
ion      s     py     pz     px    dxy    dyz    dz2    dxz  x2-y2    tot
    1  0.000  0.000  0.000  0.000  0.000  0.363  0.000  0.121  0.000  0.484
    2  0.000  0.000  0.000  0.000  0.000  0.363  0.000  0.121  0.000  0.484
tot    0.000  0.000  0.000  0.000  0.000  0.725  0.000  0.242  0.000  0.967
 
band     6 # energy    7.83002963 # occ.  1.00000000
 
ion      s     py     pz     px    dxy    dyz    dz2    dxz  x2-y2    tot
    1  0.009  0.004  0.000  0.011  0.132  0.000  0.280  0.000  0.044  0.478
    2  0.009  0.004  0.000  0.011  0.132  0.000  0.280  0.000  0.044  0.478
tot    0.017  0.007  0.000  0.021  0.264  0.000  0.559  0.000  0.088  0.957
 
band     7 # energy    7.95229399 # occ.  1.00000000
 
ion      s     py     pz     px    dxy    dyz    dz2    dxz  x2-y2    tot
    1  0.000  0.000  0.028  0.000  0.000  0.112  0.000  0.335  0.000  0.475
    2  0.000  0.000  0.028  0.000  0.000  0.112  0.000  0.335  0.000  0.475
tot    0.000  0.000  0.056  0.000  0.000  0.223  0.000  0.670  0.000  0.950
 
band     8 # energy    9.07897017 # occ.  1.00000000
 
ion      s     py     pz     px    dxy    dyz    dz2    dxz  x2-y2    tot
    1  0.000  0.001  0.000  0.000  0.122  0.000  0.000  0.000  0.366  0.490
    2  0.000  0.001  0.000  0.000  0.122  0.000  0.000  0.000  0.366  0.490
tot    0.000  0.002  0.000  0.001  0.244  0.000  0.000  0.000  0.733  0.980
 
band     9 # energy    9.22522668 # occ.  1.00000000
 
ion      s     py     pz     px    dxy    dyz    dz2    dxz  x2-y2    tot
    1  0.000  0.002  0.000  0.001  0.122  0.000  0.000  0.000  0.367  0.492
    2  0.000  0.002  0.000  0.001  0.122  0.000  0.000  0.000  0.367  0.492
tot    0.000  0.005  0.000  0.002  0.245  0.000  0.000  0.000  0.734  0.985
 
band    10 # energy    9.29686905 # occ.  1.00000000
 
ion      s     py     pz     px    dxy    dyz    dz2    dxz  x2-y2    tot
    1  0.018  0.006  0.000  0.017  0.104  0.000  0.300  0.000  0.035  0.480
    2  0.018  0.006  0.000  0.017  0.104  0.000  0.300  0.000  0.035  0.480
tot    0.036  0.012  0.000  0.035  0.208  0.000  0.600  0.000  0.069  0.960
 
band    11 # energy    9.66562355 # occ.  1.00000000
 
ion      s     py     pz     px    dxy    dyz    dz2    dxz  x2-y2    tot
    1  0.000  0.000  0.000  0.000  0.000  0.372  0.000  0.124  0.000  0.496
    2  0.000  0.000  0.000  0.000  0.000  0.372  0.000  0.124  0.000  0.496
tot    0.000  0.000  0.000  0.000  0.000  0.744  0.000  0.248  0.000  0.992
 
band    12 # energy   16.67862419 # occ.  0.00000000
 
ion      s     py     pz     px    dxy    dyz    dz2    dxz  x2-y2    tot
    1  0.000  0.000  0.245  0.000  0.000  0.041  0.000  0.123  0.000  0.408
    2  0.000  0.000  0.245  0.000  0.000  0.041  0.000  0.123  0.000  0.408
tot    0.000  0.000  0.489  0.000  0.000  0.082  0.000  0.245  0.000  0.817
 
band    13 # energy   17.25674960 # occ.  0.00000000
 
ion      s     py     pz     px    dxy    dyz    dz2    dxz  x2-y2    tot
    1  0.047  0.054  0.000  0.163  0.007  0.000  0.145  0.000  0.002  0.417
    2  0.047  0.054  0.000  0.163  0.007  0.000  0.145  0.000  0.002  0.417
tot    0.093  0.108  0.000  0.325  0.013  0.000  0.289  0.000  0.004  0.834
 
band    14 # energy   20.03346058 # occ.  0.00000000
 
ion      s     py     pz     px    dxy    dyz    dz2    dxz  x2-y2    tot
    1  0.220  0.011  0.000  0.034  0.097  0.000  0.009  0.000  0.032  0.404
    2  0.220  0.011  0.000  0.034  0.097  0.000  0.009  0.000  0.032  0.404
tot    0.440  0.023  0.000  0.069  0.194  0.000  0.018  0.000  0.065  0.808
 
band    15 # energy   26.60111030 # occ.  0.00000000
 
ion      s     py     pz     px    dxy    dyz    dz2    dxz  x2-y2    tot
    1  0.000  0.225  0.000  0.075  0.011  0.000  0.000  0.000  0.032  0.343
    2  0.000  0.225  0.000  0.075  0.011  0.000  0.000  0.000  0.032  0.343
tot    0.000  0.450  0.000  0.150  0.021  0.000  0.000  0.000  0.064  0.687
 
band    16 # energy   27.30882625 # occ.  0.00000000
 
ion      s     py     pz     px    dxy    dyz    dz2    dxz  x2-y2    tot
    1  0.000  0.000  0.100  0.000  0.000  0.063  0.000  0.188  0.000  0.350
    2  0.000  0.000  0.100  0.000  0.000  0.063  0.000  0.188  0.000  0.350
tot    0.000  0.000  0.200  0.000  0.000  0.125  0.000  0.375  0.000  0.700
 

 k-point     6 :    0.41666667 0.00000000 0.00000000     weight = 0.00520833

band     1 # energy    5.28802898 # occ.  1.00000000
 
ion      s     py     pz     px    dxy    dyz    dz2    dxz  x2-y2    tot
    1  0.109  0.010  0.000  0.030  0.180  0.000  0.036  0.000  0.060  0.425
    2  0.109  0.010  0.000  0.030  0.180  0.000  0.036  0.000  0.060  0.425
tot    0.218  0.020  0.000  0.061  0.360  0.000  0.071  0.000  0.120  0.851
 
band     2 # energy    5.67678786 # occ.  1.00000000
 
ion      s     py     pz     px    dxy    dyz    dz2    dxz  x2-y2    tot
    1  0.022  0.001  0.000  0.002  0.247  0.000  0.106  0.000  0.082  0.459
    2  0.022  0.001  0.000  0.002  0.247  0.000  0.106  0.000  0.082  0.459
tot    0.044  0.001  0.000  0.004  0.493  0.000  0.212  0.000  0.164  0.919