<?xml version="1.0" encoding="ISO-8859-1"?>
<modeling>
 <generator>
  <i name="program" type="string">vasp </i>
  <i name="version" type="string">6.3.2  </i>
  <i name="subversion" type="string">27Jun22 (build Aug 12 2022 00:53:59) complex                          parallel </i>
  <i name="platform" type="string">tv2STD </i>
  <i name="date" type="string">2024 12 02 </i>
  <i name="time" type="string">17:05:39 </i>
 </generator>
 <incar>
  <i type="string" name="SYSTEM">Co-hcp</i>
  <i type="int" name="ISTART">     0</i>
  <i type="string" name="PREC">Accurate      normal | accurate</i>
  <i type="string" name="ALGO">Normal     Normal, Fast, Very_Fast</i>
  <i type="logical" name="ADDGRID"> F  </i>
  <i type="int" name="ISPIN">     2</i>
  <i type="int" name="ICHARG">     2</i>
  <i type="int" name="INIWAV">     1</i>
  <i type="int" name="NELM">   100</i>
  <i type="int" name="IBRION">     2</i>
  <i name="EDIFF">      0.00000100</i>
  <i name="EDIFFG">     -0.02000000</i>
  <i type="int" name="NSW">   100</i>
  <i type="int" name="ISIF">     3</i>
  <i type="int" name="ISYM">     1</i>
  <i name="ENCUT">    425.00000000</i>
  <v name="MAGMOM">      3.00000000      3.00000000</v>
  <i type="logical" name="LREAL"> F  </i>
  <i type="int" name="ISMEAR">     0</i>
  <i name="SIGMA">      0.05000000</i>
  <i type="int" name="NWRITE">     2</i>
  <i type="logical" name="LWAVE"> F  </i>
  <i type="logical" name="LCHARG"> F  </i>
  <i type="int" name="LORBIT">    11</i>
 </incar>
 <primitive_cell>
  <structure name="primitive_cell" >
   <crystal>
    <varray name="basis" >
     <v>       1.23599995      -2.14081471       0.00000000 </v>
     <v>       1.23599995       2.14081471       0.00000000 </v>
     <v>       0.00000000       0.00000000       4.02114408 </v>
    </varray>
    <i name="volume">     21.28027152 </i>
    <varray name="rec_basis" >
     <v>       0.40453076      -0.23355594       0.00000000 </v>
     <v>       0.40453076       0.23355594       0.00000000 </v>
     <v>       0.00000000       0.00000000       0.24868544 </v>
    </varray>
   </crystal>
   <varray name="positions" >
    <v>       0.33333333       0.66666667       0.25000000 </v>
    <v>       0.66666667       0.33333333       0.75000000 </v>
   </varray>
  </structure>
  <varray name="primitive_index" >
   <v type="int" >        1 </v>
   <v type="int" >        2 </v>
  </varray>
 </primitive_cell>
 <kpoints>
  <generation param="Gamma">
   <v type="int" name="divisions">      12       12        8 </v>
   <v name="usershift">      0.00000000       0.00000000       0.00000000 </v>
   <v name="genvec1">      0.08333333       0.00000000       0.00000000 </v>
   <v name="genvec2">      0.00000000       0.08333333       0.00000000 </v>
   <v name="genvec3">      0.00000000       0.00000000       0.12500000 </v>
   <v name="shift">      0.00000000       0.00000000       0.00000000 </v>
  </generation>
  <varray name="kpointlist" >
   <v>       0.00000000       0.00000000       0.00000000 </v>
   <v>       0.08333333       0.00000000       0.00000000 </v>
   <v>       0.16666667       0.00000000       0.00000000 </v>
   <v>       0.25000000       0.00000000       0.00000000 </v>
   <v>       0.33333333       0.00000000       0.00000000 </v>
   <v>       0.41666667       0.00000000       0.00000000 </v>
   <v>       0.50000000       0.00000000       0.00000000 </v>
   <v>       0.08333333       0.08333333       0.00000000 </v>
   <v>       0.16666667       0.08333333       0.00000000 </v>
   <v>       0.25000000       0.08333333       0.00000000 </v>
   <v>       0.33333333       0.08333333       0.00000000 </v>
   <v>       0.41666667       0.08333333       0.00000000 </v>
   <v>       0.16666667       0.16666667       0.00000000 </v>
   <v>       0.25000000       0.16666667       0.00000000 </v>
   <v>       0.33333333       0.16666667       0.00000000 </v>
   <v>       0.41666667       0.16666667       0.00000000 </v>
   <v>       0.25000000       0.25000000       0.00000000 </v>
   <v>       0.33333333       0.25000000       0.00000000 </v>
   <v>       0.33333333       0.33333333       0.00000000 </v>
   <v>       0.00000000       0.00000000       0.12500000 </v>
   <v>       0.08333333       0.00000000       0.12500000 </v>
   <v>       0.16666667       0.00000000       0.12500000 </v>
   <v>       0.25000000       0.00000000       0.12500000 </v>
   <v>       0.33333333       0.00000000       0.12500000 </v>
   <v>       0.41666667       0.00000000       0.12500000 </v>
   <v>       0.50000000       0.00000000       0.12500000 </v>
   <v>       0.08333333       0.08333333       0.12500000 </v>
   <v>       0.16666667       0.08333333       0.12500000 </v>
   <v>       0.25000000       0.08333333       0.12500000 </v>
   <v>       0.33333333       0.08333333       0.12500000 </v>
   <v>       0.41666667       0.08333333       0.12500000 </v>
   <v>       0.16666667       0.16666667       0.12500000 </v>
   <v>       0.25000000       0.16666667       0.12500000 </v>
   <v>       0.33333333       0.16666667       0.12500000 </v>
   <v>       0.41666667       0.16666667       0.12500000 </v>
   <v>       0.25000000       0.25000000       0.12500000 </v>
   <v>       0.33333333       0.25000000       0.12500000 </v>
   <v>       0.33333333       0.33333333       0.12500000 </v>
   <v>       0.00000000       0.00000000       0.25000000 </v>
   <v>       0.08333333       0.00000000       0.25000000 </v>
   <v>       0.16666667       0.00000000       0.25000000 </v>
   <v>       0.25000000       0.00000000       0.25000000 </v>
   <v>       0.33333333       0.00000000       0.25000000 </v>
   <v>       0.41666667       0.00000000       0.25000000 </v>
   <v>       0.50000000       0.00000000       0.25000000 </v>
   <v>       0.08333333       0.08333333       0.25000000 </v>
   <v>       0.16666667       0.08333333       0.25000000 </v>
   <v>       0.25000000       0.08333333       0.25000000 </v>
   <v>       0.33333333       0.08333333       0.25000000 </v>
   <v>       0.41666667       0.08333333       0.25000000 </v>
   <v>       0.16666667       0.16666667       0.25000000 </v>
   <v>       0.25000000       0.16666667       0.25000000 </v>
   <v>       0.33333333       0.16666667       0.25000000 </v>
   <v>       0.41666667       0.16666667       0.25000000 </v>
   <v>       0.25000000       0.25000000       0.25000000 </v>
   <v>       0.33333333       0.25000000       0.25000000 </v>
   <v>       0.33333333       0.33333333       0.25000000 </v>
   <v>       0.00000000       0.00000000       0.37500000 </v>
   <v>       0.08333333       0.00000000       0.37500000 </v>
   <v>       0.16666667       0.00000000       0.37500000 </v>
   <v>       0.25000000       0.00000000       0.37500000 </v>
   <v>       0.33333333       0.00000000       0.37500000 </v>
   <v>       0.41666667       0.00000000       0.37500000 </v>
   <v>       0.50000000       0.00000000       0.37500000 </v>
   <v>       0.08333333       0.08333333       0.37500000 </v>
   <v>       0.16666667       0.08333333       0.37500000 </v>
   <v>       0.25000000       0.08333333       0.37500000 </v>
   <v>       0.33333333       0.08333333       0.37500000 </v>
   <v>       0.41666667       0.08333333       0.37500000 </v>
   <v>       0.16666667       0.16666667       0.37500000 </v>
   <v>       0.25000000       0.16666667       0.37500000 </v>
   <v>       0.33333333       0.16666667       0.37500000 </v>
   <v>       0.41666667       0.16666667       0.37500000 </v>
   <v>       0.25000000       0.25000000       0.37500000 </v>
   <v>       0.33333333       0.25000000       0.37500000 </v>
   <v>       0.33333333       0.33333333       0.37500000 </v>
   <v>       0.00000000       0.00000000       0.50000000 </v>
   <v>       0.08333333       0.00000000       0.50000000 </v>
   <v>       0.16666667       0.00000000       0.50000000 </v>
   <v>       0.25000000       0.00000000       0.50000000 </v>
   <v>       0.33333333       0.00000000       0.50000000 </v>
   <v>       0.41666667       0.00000000       0.50000000 </v>
   <v>       0.50000000       0.00000000       0.50000000 </v>
   <v>       0.08333333       0.08333333       0.50000000 </v>
   <v>       0.16666667       0.08333333       0.50000000 </v>
   <v>       0.25000000       0.08333333       0.50000000 </v>
   <v>       0.33333333       0.08333333       0.50000000 </v>
   <v>       0.41666667       0.08333333       0.50000000 </v>
   <v>       0.16666667       0.16666667       0.50000000 </v>
   <v>       0.25000000       0.16666667       0.50000000 </v>
   <v>       0.33333333       0.16666667       0.50000000 </v>
   <v>       0.41666667       0.16666667       0.50000000 </v>
   <v>       0.25000000       0.25000000       0.50000000 </v>
   <v>       0.33333333       0.25000000       0.50000000 </v>
   <v>       0.33333333       0.33333333       0.50000000 </v>
  </varray>
  <varray name="weights" >
   <v>       0.00086806 </v>
   <v>       0.00520833 </v>
   <v>       0.00520833 </v>
   <v>       0.00520833 </v>
   <v>       0.00520833 </v>
   <v>       0.00520833 </v>
   <v>       0.00260417 </v>
   <v>       0.00520833 </v>
   <v>       0.01041667 </v>
   <v>       0.01041667 </v>
   <v>       0.01041667 </v>
   <v>       0.01041667 </v>
   <v>       0.00520833 </v>
   <v>       0.01041667 </v>
   <v>       0.01041667 </v>
   <v>       0.00520833 </v>
   <v>       0.00520833 </v>
   <v>       0.01041667 </v>
   <v>       0.00173611 </v>
   <v>       0.00173611 </v>
   <v>       0.01041667 </v>
   <v>       0.01041667 </v>
   <v>       0.01041667 </v>
   <v>       0.01041667 </v>
   <v>       0.01041667 </v>
   <v>       0.00520833 </v>
   <v>       0.01041667 </v>
   <v>       0.02083333 </v>
   <v>       0.02083333 </v>
   <v>       0.02083333 </v>
   <v>       0.02083333 </v>
   <v>       0.01041667 </v>
   <v>       0.02083333 </v>
   <v>       0.02083333 </v>
   <v>       0.01041667 </v>
   <v>       0.01041667 </v>
   <v>       0.02083333 </v>
   <v>       0.00347222 </v>
   <v>       0.00173611 </v>
   <v>       0.01041667 </v>
   <v>       0.01041667 </v>
   <v>       0.01041667 </v>
   <v>       0.01041667 </v>
   <v>       0.01041667 </v>
   <v>       0.00520833 </v>
   <v>       0.01041667 </v>
   <v>       0.02083333 </v>
   <v>       0.02083333 </v>
   <v>       0.02083333 </v>
   <v>       0.02083333 </v>
   <v>       0.01041667 </v>
   <v>       0.02083333 </v>
   <v>       0.02083333 </v>
   <v>       0.01041667 </v>
   <v>       0.01041667 </v>
   <v>       0.02083333 </v>
   <v>       0.00347222 </v>
   <v>       0.00173611 </v>
   <v>       0.01041667 </v>
   <v>       0.01041667 </v>
   <v>       0.01041667 </v>
   <v>       0.01041667 </v>
   <v>       0.01041667 </v>
   <v>       0.00520833 </v>
   <v>       0.01041667 </v>
   <v>       0.02083333 </v>
   <v>       0.02083333 </v>
   <v>       0.02083333 </v>
   <v>       0.02083333 </v>
   <v>       0.01041667 </v>
   <v>       0.02083333 </v>
   <v>       0.02083333 </v>
   <v>       0.01041667 </v>
   <v>       0.01041667 </v>
   <v>       0.02083333 </v>
   <v>       0.00347222 </v>
   <v>       0.00086806 </v>
   <v>       0.00520833 </v>
   <v>       0.00520833 </v>
   <v>       0.00520833 </v>
   <v>       0.00520833 </v>
   <v>       0.00520833 </v>
   <v>       0.00260417 </v>
   <v>       0.00520833 </v>
   <v>       0.01041667 </v>
   <v>       0.01041667 </v>
   <v>       0.01041667 </v>
   <v>       0.01041667 </v>
   <v>       0.00520833 </v>
   <v>       0.01041667 </v>
   <v>       0.01041667 </v>
   <v>       0.00520833 </v>
   <v>       0.00520833 </v>
   <v>       0.01041667 </v>
   <v>       0.00173611 </v>
  </varray>
 </kpoints>
 <parameters>
  <separator name="general" >
   <i type="string" name="SYSTEM">Co-hcp</i>
   <i type="logical" name="LCOMPAT"> F  </i>
  </separator>
  <separator name="electronic" >
   <i type="string" name="PREC">accura</i>
   <i name="ENMAX">    425.00000000</i>
   <i name="ENAUG">    477.81800000</i>
   <i name="EDIFF">      0.00000100</i>
   <i type="int" name="IALGO">    38</i>
   <i type="int" name="IWAVPR">    11</i>
   <i type="int" name="NBANDS">    16</i>
   <i type="int" name="NBANDSLOW">    -1</i>
   <i type="int" name="NBANDSHIGH">    -1</i>
   <i name="NELECT">     18.00000000</i>
   <i type="int" name="TURBO">     0</i>
   <i type="int" name="IRESTART">     0</i>
   <i type="int" name="NREBOOT">     0</i>
   <i type="int" name="NMIN">     0</i>
   <i name="EREF">      0.00000000</i>
   <separator name="electronic smearing" >
    <i type="int" name="ISMEAR">     0</i>
    <i name="SIGMA">      0.05000000</i>
    <i name="KSPACING">      0.50000000</i>
    <i type="logical" name="KGAMMA"> T  </i>
    <i type="logical" name="KBLOWUP"> T  </i>
   </separator>
   <separator name="electronic projectors" >
    <i type="logical" name="LREAL"> F  </i>
    <v name="ROPT">      0.00000000</v>
    <i type="int" name="LMAXPAW">  -100</i>
    <i type="int" name="LMAXMIX">     2</i>
    <i type="logical" name="NLSPLINE"> F  </i>
   </separator>
   <separator name="electronic startup" >
    <i type="int" name="ISTART">     0</i>
    <i type="int" name="ICHARG">     2</i>
    <i type="int" name="INIWAV">     1</i>
   </separator>
   <separator name="electronic spin" >
    <i type="int" name="ISPIN">     2</i>
    <i type="logical" name="LNONCOLLINEAR"> F  </i>
    <v name="MAGMOM">      3.00000000      3.00000000</v>
    <i name="NUPDOWN">     -1.00000000</i>
    <i type="logical" name="LSORBIT"> F  </i>
    <v name="SAXIS">      0.00000000      0.00000000      1.00000000</v>
    <i type="logical" name="LSPIRAL"> F  </i>
    <v name="QSPIRAL">      0.00000000      0.00000000      0.00000000</v>
    <i type="logical" name="LZEROZ"> F  </i>
   </separator>
   <separator name="electronic exchange-correlation" >
    <i type="logical" name="LASPH"> F  </i>
    <i type="logical" name="LMETAGGA"> F  </i>
   </separator>
   <separator name="electronic convergence" >
    <i type="int" name="NELM">   100</i>
    <i type="int" name="NELMDL">    -5</i>
    <i type="int" name="NELMIN">     2</i>
    <i name="ENINI">    425.00000000</i>
    <separator name="electronic convergence detail" >
     <i type="logical" name="LDIAG"> T  </i>
     <i type="logical" name="LSUBROT"> F  </i>
     <i name="WEIMIN">      0.00100000</i>
     <i name="EBREAK">      0.00000002</i>
     <i name="DEPER">      0.30000000</i>
     <i type="int" name="NRMM">     4</i>
     <i name="TIME">      0.40000000</i>
    </separator>
   </separator>
   <separator name="electronic mixer" >
    <i name="AMIX">      0.40000000</i>
    <i name="BMIX">      1.00000000</i>
    <i name="AMIN">      0.10000000</i>
    <i name="AMIX_MAG">      1.60000000</i>
    <i name="BMIX_MAG">      1.00000000</i>
    <separator name="electronic mixer details" >
     <i type="int" name="IMIX">     4</i>
     <i type="logical" name="MIXFIRST"> F  </i>
     <i type="int" name="MAXMIX">   -45</i>
     <i name="WC">    100.00000000</i>
     <i type="int" name="INIMIX">     1</i>
     <i type="int" name="MIXPRE">     1</i>
     <i type="int" name="MREMOVE">     5</i>
    </separator>
   </separator>
   <separator name="electronic dipolcorrection" >
    <i type="logical" name="LDIPOL"> F  </i>
    <i type="logical" name="LMONO"> F  </i>
    <i type="int" name="IDIPOL">     0</i>
    <i name="EPSILON">      1.00000000</i>
    <v name="DIPOL">   -100.00000000   -100.00000000   -100.00000000</v>
    <i name="EFIELD">      0.00000000</i>
   </separator>
  </separator>
  <separator name="grids" >
   <i type="int" name="NGX">    18</i>
   <i type="int" name="NGY">    18</i>
   <i type="int" name="NGZ">    28</i>
   <i type="int" name="NGXF">    36</i>
   <i type="int" name="NGYF">    36</i>
   <i type="int" name="NGZF">    56</i>
   <i type="logical" name="ADDGRID"> F  </i>
  </separator>
  <separator name="ionic" >
   <i type="int" name="NSW">   100</i>
   <i type="int" name="IBRION">     2</i>
   <i type="int" name="MDALGO">     0</i>
   <i type="int" name="ISIF">     3</i>
   <i name="PSTRESS">      0.00000000</i>
   <i name="EDIFFG">     -0.02000000</i>
   <i type="int" name="NFREE">     1</i>
   <i name="POTIM">      0.50000000</i>
   <i name="SMASS">     -3.00000000</i>
   <i name="SCALEE">      1.00000000</i>
  </separator>
  <separator name="ionic md" >
   <i name="TEBEG">      0.00010000</i>
   <i name="TEEND">      0.00010000</i>
   <i type="int" name="NBLOCK">     1</i>
   <i type="int" name="KBLOCK">   100</i>
   <i type="int" name="NPACO">   256</i>
   <i name="APACO">     10.00000000</i>
  </separator>
  <separator name="symmetry" >
   <i type="int" name="ISYM">     1</i>
   <i name="SYMPREC">      0.00001000</i>
  </separator>
  <separator name="dos" >
   <i type="int" name="LORBIT">    11</i>
   <v name="RWIGS">     -1.00000000</v>
   <i type="int" name="NEDOS">   301</i>
   <i name="EMIN">     10.00000000</i>
   <i name="EMAX">    -10.00000000</i>
   <i name="EFERMI">      0.00000000</i>
  </separator>
  <separator name="writing" >
   <i type="int" name="NWRITE">     2</i>
   <i type="logical" name="LWAVE"> F  </i>
   <i type="logical" name="LDOWNSAMPLE"> F  </i>
   <i type="logical" name="LCHARG"> F  </i>
   <i type="logical" name="LPARD"> F  </i>
   <i type="logical" name="LVTOT"> F  </i>
   <i type="logical" name="LVHAR"> F  </i>
   <i type="logical" name="LELF"> F  </i>
   <i type="logical" name="LOPTICS"> F  </i>
   <v name="STM">      0.00000000      0.00000000      0.00000000      0.00000000      0.00000000      0.00000000      0.00000000</v>
  </separator>
  <separator name="performance" >
   <i type="int" name="NPAR">     4</i>
   <i type="int" name="NSIM">     4</i>
   <i type="int" name="NBLK">    -1</i>
   <i type="logical" name="LPLANE"> T  </i>
   <i type="logical" name="LSCALAPACK"> T  </i>
   <i type="logical" name="LSCAAWARE"> F  </i>
   <i type="logical" name="LSCALU"> F  </i>
   <i type="logical" name="LASYNC"> F  </i>
   <i type="logical" name="LORBITALREAL"> F  </i>
  </separator>
  <separator name="miscellaneous" >
   <i type="int" name="IDIOT">     3</i>
   <i type="int" name="PHON_NSTRUCT">    -1</i>
   <i type="logical" name="LMUSIC"> F  </i>
   <v name="POMASS">     58.93300000</v>
   <v name="DARWINR">      0.00000000</v>
   <v name="DARWINV">      1.00000000</v>
   <i type="logical" name="LCORR"> T  </i>
  </separator>
  <i type="logical" name="GGA_COMPAT"> T  </i>
  <i type="logical" name="LBERRY"> F  </i>
  <i type="int" name="ICORELEVEL">     0</i>
  <i type="logical" name="LDAU"> F  </i>
  <i type="int" name="I_CONSTRAINED_M">     0</i>
  <separator name="electronic exchange-correlation" >
   <i type="string" name="GGA">--</i>
   <i type="int" name="VOSKOWN">     0</i>
   <i type="logical" name="LHFCALC"> F  </i>
   <i type="string" name="PRECFOCK"></i>
   <i type="logical" name="LSYMGRAD"> F  </i>
   <i type="logical" name="LHFONE"> F  </i>
   <i type="logical" name="LRHFCALC"> F  </i>
   <i type="logical" name="LTHOMAS"> F  </i>
   <i type="logical" name="LMODELHF"> F  </i>
   <i type="logical" name="LFOCKACE"> F  </i>
   <i name="ENCUT4O">     -1.00000000</i>
   <i type="int" name="EXXOEP">     0</i>
   <i type="int" name="FOURORBIT">     0</i>
   <i name="AEXX">      0.00000000</i>
   <i name="HFALPHA">      0.00000000</i>
   <i name="MCALPHA">      0.00000000</i>
   <i name="ALDAX">      1.00000000</i>
   <i name="AGGAX">      1.00000000</i>
   <i name="ALDAC">      1.00000000</i>
   <i name="AGGAC">      1.00000000</i>
   <i type="int" name="NKREDX">     1</i>
   <i type="int" name="NKREDY">     1</i>
   <i type="int" name="NKREDZ">     1</i>
   <i type="logical" name="SHIFTRED"> F  </i>
   <i type="logical" name="ODDONLY"> F  </i>
   <i type="logical" name="EVENONLY"> F  </i>
   <i type="int" name="LMAXFOCK">     0</i>
   <i type="int" name="NMAXFOCKAE">     0</i>
   <i type="logical" name="LFOCKAEDFT"> F  </i>
   <i name="HFSCREEN">      0.00000000</i>
   <i name="HFSCREENC">      0.00000000</i>
   <i type="int" name="NBANDSGWLOW">     0</i>
  </separator>
  <separator name="vdW DFT" >
   <i type="logical" name="LUSE_VDW"> F  </i>
   <i name="Zab_VDW">     -0.84910000</i>
   <i name="PARAM1">      0.12340000</i>
   <i name="PARAM2">      1.00000000</i>
   <i name="PARAM3">      0.00000000</i>
  </separator>
  <separator name="model GW" >
   <i type="int" name="MODEL_GW">     0</i>
   <i name="MODEL_EPS0">      6.38408146</i>
   <i name="MODEL_ALPHA">      1.00000000</i>
  </separator>
  <separator name="linear response parameters" >
   <i type="logical" name="LEPSILON"> F  </i>
   <i type="logical" name="LRPA"> F  </i>
   <i type="logical" name="LNABLA"> F  </i>
   <i type="logical" name="LVEL"> F  </i>
   <i name="CSHIFT">      0.10000000</i>
   <i name="OMEGAMAX">     -1.00000000</i>
   <i name="DEG_THRESHOLD">      0.00200000</i>
   <i name="RTIME">     -0.10000000</i>
   <i name="WPLASMAI">      0.00000000</i>
   <v name="DFIELD">      0.00000000      0.00000000      0.00000000</v>
   <v name="WPLASMA">      0.00000000      0.00000000      0.00000000      0.00000000      0.00000000      0.00000000      0.00000000      0.00000000      0.00000000</v>
  </separator>
  <separator name="orbital magnetization" >
   <i type="logical" name="NUCIND"> F  </i>
   <v name="MAGPOS">      0.00000000      0.00000000      0.00000000</v>
   <i type="logical" name="LNICSALL"> T  </i>
   <i type="logical" name="ORBITALMAG"> F  </i>
   <i type="logical" name="LMAGBLOCH"> F  </i>
   <i type="logical" name="LCHIMAG"> F  </i>
   <i type="logical" name="LGAUGE"> T  </i>
   <i type="int" name="MAGATOM">     0</i>
   <v name="MAGDIPOL">      0.00000000      0.00000000      0.00000000</v>
   <v name="AVECCONST">      0.00000000      0.00000000      0.00000000</v>
  </separator>
  <separator name="response functions" >
   <i type="logical" name="LFINITE_TEMPERATURE"> F  </i>
   <i type="logical" name="LADDER"> F  </i>
   <i type="logical" name="LRPAFORCE"> F  </i>
   <i type="logical" name="LFXC"> F  </i>
   <i type="logical" name="LHARTREE"> T  </i>
   <i type="int" name="IBSE">     0</i>
   <v type="int" name="KPOINT">    -1     0     0     0</v>
   <i type="logical" name="LTCTC"> F  </i>
   <i type="logical" name="LTCTE"> F  </i>
   <i type="logical" name="LTETE"> F  </i>
   <i type="logical" name="LTRIPLET"> F  </i>
   <i type="logical" name="LFXCEPS"> F  </i>
   <i type="logical" name="LFXHEG"> F  </i>
   <i type="int" name="NATURALO">     2</i>
   <i type="logical" name="LHOLEGF"> F  </i>
   <i type="logical" name="L2ORDER"> F  </i>
   <i type="logical" name="LDMP1"> F  </i>
   <i type="logical" name="LMP2LT"> F  </i>
   <i type="logical" name="LSMP2LT"> F  </i>
   <i type="logical" name="LGWLF"> F  </i>
   <i name="ENCUTGW">     -2.00000000</i>
   <i name="ENCUTGWSOFT">     -2.00000000</i>
   <i name="ENCUTLF">     -1.00000000</i>
   <i type="logical" name="LESF_SPLINES"> F  </i>
   <i type="int" name="LMAXMP2">    -1</i>
   <i name="SCISSOR">      0.00000000</i>
   <i type="int" name="NOMEGA">     0</i>
   <i type="int" name="NOMEGAR">     0</i>
   <i type="int" name="NBANDSGW">    -1</i>
   <i type="int" name="NBANDSO">    -1</i>
   <i type="int" name="NBANDSV">    -1</i>
   <i type="int" name="NELMGW">     1</i>
   <i type="int" name="NELMHF">     1</i>
   <i type="int" name="DIM">     3</i>
   <i type="int" name="IESPILON">     4</i>
   <i type="int" name="ANTIRES">     0</i>
   <i name="OMEGAMAX">    -30.00000000</i>
   <i name="OMEGAMIN">    -30.00000000</i>
   <i name="OMEGATL">   -200.00000000</i>
   <i type="int" name="OMEGAGRID">     0</i>
   <i name="CSHIFT">     -0.10000000</i>
   <i type="logical" name="LSELFENERGY"> F  </i>
   <i type="logical" name="LSPECTRAL"> F  </i>
   <i type="logical" name="LSPECTRALGW"> F  </i>
   <i type="logical" name="LSINGLES"> F  </i>
   <i type="logical" name="LFERMIGW"> F  </i>
   <i type="logical" name="ODDONLYGW"> F  </i>
   <i type="logical" name="EVENONLYGW"> F  </i>
   <i type="int" name="NKREDLFX">     1</i>
   <i type="int" name="NKREDLFY">     1</i>
   <i type="int" name="NKREDLFZ">     1</i>
   <i type="int" name="MAXMEM">  2800</i>
   <i type="int" name="TELESCOPE">     0</i>
   <i type="int" name="NTAUPAR">    -1</i>
   <i type="int" name="NOMEGAPAR">    -1</i>
   <i name="DAMP_NEWTON">      0.80000001</i>
   <i name="LAMBDA">      1.00000000</i>
  </separator>
  <separator name="External order field" >
   <i name="OFIELD_KAPPA">      0.00000000</i>
   <v name="OFIELD_K">      0.00000000      0.00000000      0.00000000</v>
   <i name="OFIELD_Q6_NEAR">      0.00000000</i>
   <i name="OFIELD_Q6_FAR">      0.00000000</i>
   <i name="OFIELD_A">      0.00000000</i>
  </separator>
  <separator name="optional k-points parameters" >
   <i type="int" name="KPOINTS_OPT_MODE">     1</i>
   <i type="logical" name="LKPOINTS_OPT"> F  </i>
  </separator>
 </parameters>
 <atominfo>
  <atoms>       2 </atoms>
  <types>       1 </types>
  <array name="atoms" >
   <dimension dim="1">ion</dimension>
   <field type="string">element</field>
   <field type="int">atomtype</field>
   <set>
    <rc><c>Co</c><c>   1</c></rc>
    <rc><c>Co</c><c>   1</c></rc>
   </set>
  </array>
  <array name="atomtypes" >
   <dimension dim="1">type</dimension>
   <field type="int">atomspertype</field>
   <field type="string">element</field>
   <field>mass</field>
   <field>valence</field>
   <field type="string">pseudopotential</field>
   <set>
    <rc><c>   2</c><c>Co</c><c>     58.93300000</c><c>      9.00000000</c><c>  PAW_PBE Co 02Aug2007                  </c></rc>
   </set>
  </array>
 </atominfo>
 <structure name="initialpos" >
  <crystal>
   <varray name="basis" >
    <v>       1.23599995      -2.14081471       0.00000000 </v>
    <v>       1.23599995       2.14081471       0.00000000 </v>
    <v>       0.00000000       0.00000000       4.02114408 </v>
   </varray>
   <i name="volume">     21.28027152 </i>
   <varray name="rec_basis" >
    <v>       0.40453076      -0.23355594       0.00000000 </v>
    <v>       0.40453076       0.23355594       0.00000000 </v>
    <v>       0.00000000       0.00000000       0.24868544 </v>
   </varray>
  </crystal>
  <varray name="positions" >
   <v>       0.33333333       0.66666667       0.25000000 </v>
   <v>       0.66666667       0.33333333       0.75000000 </v>
  </varray>
 </structure>
 <calculation>
  <scstep>
   <time name="dav">    0.59    0.60</time>
   <time name="total">    0.61    0.61</time>
   <energy>
    <i name="alphaZ">     79.61870385 </i>
    <i name="ewald">  -1531.60263765 </i>
    <i name="hartreedc">   -295.86427829 </i>
    <i name="XCdc">     35.75670864 </i>
    <i name="pawpsdc">   1439.98163886 </i>
    <i name="pawaedc">  -1545.88690193 </i>
    <i name="eentropy">     -0.00160404 </i>
    <i name="bandstr">    259.92342659 </i>
    <i name="atom">   1626.72322989 </i>
    <i name="e_fr_energy">     68.64828591 </i>
    <i name="e_wo_entrp">     68.64988996 </i>
    <i name="e_0_energy">     68.64908793 </i>
   </energy>
  </scstep>
  <scstep>
   <time name="dav">    0.55    0.55</time>
   <time name="total">    0.55    0.55</time>
   <energy>
    <i name="e_fr_energy">    -13.64870192 </i>
    <i name="e_wo_entrp">    -13.64668827 </i>
    <i name="e_0_energy">    -13.64769510 </i>
   </energy>
  </scstep>
  <scstep>
   <time name="dav">    0.68    0.68</time>
   <time name="total">    0.68    0.69</time>
   <energy>
    <i name="e_fr_energy">    -15.58113228 </i>
    <i name="e_wo_entrp">    -15.57924345 </i>
    <i name="e_0_energy">    -15.58018787 </i>
   </energy>
  </scstep>
  <scstep>
   <time name="dav">    0.72    0.73</time>
   <time name="total">    0.72    0.73</time>
   <energy>
    <i name="e_fr_energy">    -15.61260949 </i>
    <i name="e_wo_entrp">    -15.61072379 </i>
    <i name="e_0_energy">    -15.61166664 </i>
   </energy>
  </scstep>
  <scstep>
   <time name="dav">    0.67    0.68</time>
   <time name="total">    0.70    0.71</time>
   <energy>
    <i name="e_fr_energy">    -15.61291491 </i>
    <i name="e_wo_entrp">    -15.61102992 </i>
    <i name="e_0_energy">    -15.61197241 </i>
   </energy>
  </scstep>
  <scstep>
   <time name="dav">    0.59    0.59</time>
   <time name="total">    0.63    0.63</time>
   <energy>
    <i name="e_fr_energy">    -14.41187774 </i>
    <i name="e_wo_entrp">    -14.40950655 </i>
    <i name="e_0_energy">    -14.41069215 </i>
   </energy>
  </scstep>
  <scstep>
   <time name="dav">    0.62    0.62</time>
   <time name="total">    0.66    0.66</time>
   <energy>
    <i name="e_fr_energy">    -14.10008870 </i>
    <i name="e_wo_entrp">    -14.09868799 </i>
    <i name="e_0_energy">    -14.09938834 </i>
   </energy>
  </scstep>
  <scstep>
   <time name="dav">    0.75    0.75</time>
   <time name="total">    0.79    0.79</time>
   <energy>
    <i name="e_fr_energy">    -14.07554464 </i>
    <i name="e_wo_entrp">    -14.07415171 </i>
    <i name="e_0_energy">    -14.07484818 </i>
   </energy>
  </scstep>
  <scstep>
   <time name="dav">    0.76    0.77</time>
   <time name="total">    0.80    0.80</time>
   <energy>
    <i name="e_fr_energy">    -14.06157261 </i>
    <i name="e_wo_entrp">    -14.06008860 </i>
    <i name="e_0_energy">    -14.06083061 </i>
   </energy>
  </scstep>
  <scstep>
   <time name="dav">    0.71    0.71</time>
   <time name="total">    0.75    0.75</time>
   <energy>
    <i name="e_fr_energy">    -14.06048715 </i>
    <i name="e_wo_entrp">    -14.05896166 </i>
    <i name="e_0_energy">    -14.05972441 </i>
   </energy>
  </scstep>
  <scstep>
   <time name="dav">    0.79    0.79</time>
   <time name="total">    0.83    0.83</time>
   <energy>
    <i name="e_fr_energy">    -14.06049753 </i>
    <i name="e_wo_entrp">    -14.05894505 </i>
    <i name="e_0_energy">    -14.05972129 </i>
   </energy>
  </scstep>
  <scstep>
   <time name="dav">    0.58    0.58</time>
   <time name="total">    0.61    0.62</time>
   <energy>
    <i name="e_fr_energy">    -14.06049498 </i>
    <i name="e_wo_entrp">    -14.05894210 </i>
    <i name="e_0_energy">    -14.05971854 </i>
   </energy>
  </scstep>
  <scstep>
   <time name="dav">    0.43    0.44</time>
   <time name="total">    0.45    0.45</time>
   <energy>
    <i name="alphaZ">     79.61870385 </i>
    <i name="ewald">  -1531.60263765 </i>
    <i name="hartreedc">   -260.52071663 </i>
    <i name="XCdc">     32.94976861 </i>
    <i name="pawpsdc">   1828.07915088 </i>
    <i name="pawaedc">  -1934.25181085 </i>
    <i name="eentropy">     -0.00155729 </i>
    <i name="bandstr">    144.94537435 </i>
    <i name="atom">   1626.72322989 </i>
    <i name="e_fr_energy">    -14.06049484 </i>
    <i name="e_wo_entrp">    -14.05893755 </i>
    <i name="e_0_energy">    -14.05971620 </i>
   </energy>
  </scstep>
  <structure>
   <crystal>
    <varray name="basis" >
     <v>       1.23599995      -2.14081471       0.00000000 </v>
     <v>       1.23599995       2.14081471       0.00000000 </v>
     <v>       0.00000000       0.00000000       4.02114408 </v>
    </varray>
    <i name="volume">     21.28027152 </i>
    <varray name="rec_basis" >
     <v>       0.40453076      -0.23355594       0.00000000 </v>
     <v>       0.40453076       0.23355594       0.00000000 </v>
     <v>       0.00000000       0.00000000       0.24868544 </v>
    </varray>
   </crystal>
   <varray name="positions" >
    <v>       0.33333333       0.66666667       0.25000000 </v>
    <v>       0.66666667       0.33333333       0.75000000 </v>
   </varray>
  </structure>
  <varray name="forces" >
   <v>       0.00000000       0.00000000       0.00000000 </v>
   <v>      -0.00000000      -0.00000000      -0.00000000 </v>
  </varray>
  <varray name="stress" >
   <v>      45.51581662       0.00000000       0.00000000 </v>
   <v>       0.00000000      45.51581662       0.00000000 </v>
   <v>       0.00000000       0.00000000      17.43070326 </v>
  </varray>
  <energy>
   <i name="e_fr_energy">    -14.06049484 </i>
   <i name="e_wo_entrp">    -14.05893755 </i>
   <i name="e_0_energy">    -14.05971620 </i>
  </energy>
  <time name="totalsc">    8.95    9.00</time>
 </calculation>
 <calculation>
  <scstep>
   <time name="dav">    0.55    0.55</time>
   <time name="total">    0.59    0.59</time>
   <energy>
    <i name="alphaZ">     76.91691568 </i>
    <i name="ewald">  -1514.04122609 </i>
    <i name="hartreedc">   -257.55334833 </i>
    <i name="XCdc">     32.14368727 </i>
    <i name="pawpsdc">   1828.05168612 </i>
    <i name="pawaedc">  -1934.22092523 </i>
    <i name="eentropy">     -0.00276591 </i>
    <i name="bandstr">    127.64414794 </i>
    <i name="atom">   1626.72322989 </i>
    <i name="e_fr_energy">    -14.33859867 </i>
    <i name="e_wo_entrp">    -14.33583276 </i>
    <i name="e_0_energy">    -14.33721571 </i>
   </energy>
  </scstep>
  <scstep>
   <time name="dav">    0.59    0.60</time>
   <time name="total">    0.63    0.63</time>
   <energy>
    <i name="e_fr_energy">    -14.12660322 </i>
    <i name="e_wo_entrp">    -14.12479884 </i>
    <i name="e_0_energy">    -14.12570103 </i>
   </energy>
  </scstep>
  <scstep>
   <time name="dav">    0.59    0.60</time>
   <time name="total">    0.63    0.64</time>
   <energy>
    <i name="e_fr_energy">    -14.06813973 </i>
    <i name="e_wo_entrp">    -14.06611900 </i>
    <i name="e_0_energy">    -14.06712937 </i>
   </energy>
  </scstep>
  <scstep>
   <time name="dav">    0.64    0.64</time>
   <time name="total">    0.68    0.68</time>
   <energy>
    <i name="e_fr_energy">    -14.06415019 </i>
    <i name="e_wo_entrp">    -14.06197070 </i>
    <i name="e_0_energy">    -14.06306045 </i>
   </energy>
  </scstep>
  <scstep>
   <time name="dav">    0.75    0.76</time>
   <time name="total">    0.79    0.80</time>
   <energy>
    <i name="e_fr_energy">    -14.06066894 </i>
    <i name="e_wo_entrp">    -14.05826921 </i>
    <i name="e_0_energy">    -14.05946908 </i>
   </energy>
  </scstep>
  <scstep>
   <time name="dav">    0.61    0.61</time>
   <time name="total">    0.64    0.65</time>
   <energy>
    <i name="e_fr_energy">    -14.06069444 </i>
    <i name="e_wo_entrp">    -14.05830404 </i>
    <i name="e_0_energy">    -14.05949924 </i>
   </energy>
  </scstep>
  <scstep>
   <time name="dav">    0.74    0.75</time>
   <time name="total">    0.78    0.78</time>
   <energy>
    <i name="e_fr_energy">    -14.06071018 </i>
    <i name="e_wo_entrp">    -14.05832064 </i>
    <i name="e_0_energy">    -14.05951541 </i>
   </energy>
  </scstep>
  <scstep>
   <time name="dav">    0.49    0.49</time>
   <time name="total">    0.52    0.53</time>
   <energy>
    <i name="e_fr_energy">    -14.06071212 </i>
    <i name="e_wo_entrp">    -14.05831967 </i>
    <i name="e_0_energy">    -14.05951589 </i>
   </energy>
  </scstep>
  <scstep>
   <time name="dav">    0.39    0.39</time>
   <time name="total">    0.40    0.41</time>
   <energy>
    <i name="alphaZ">     76.91691568 </i>
    <i name="ewald">  -1514.04122609 </i>
    <i name="hartreedc">   -267.86685310 </i>
    <i name="XCdc">     32.77806959 </i>
    <i name="pawpsdc">   1790.20167450 </i>
    <i name="pawaedc">  -1896.08804193 </i>
    <i name="eentropy">     -0.00239318 </i>
    <i name="bandstr">    137.31791228 </i>
    <i name="atom">   1626.72322989 </i>
    <i name="e_fr_energy">    -14.06071237 </i>
    <i name="e_wo_entrp">    -14.05831919 </i>
    <i name="e_0_energy">    -14.05951578 </i>
   </energy>
  </scstep>
  <structure>
   <crystal>
    <varray name="basis" >
     <v>       1.25402384      -2.17203301      -0.00000000 </v>
     <v>       1.25402384       2.17203301       0.00000000 </v>
     <v>       0.00000000       0.00000000       4.04360008 </v>
    </varray>
    <i name="volume">     22.02776361 </i>
    <varray name="rec_basis" >
     <v>       0.39871650      -0.23019908       0.00000000 </v>
     <v>       0.39871650       0.23019908      -0.00000000 </v>
     <v>      -0.00000000      -0.00000000       0.24730438 </v>
    </varray>
   </crystal>
   <varray name="positions" >
    <v>       0.33333333       0.66666667       0.25000000 </v>
    <v>       0.66666667       0.33333333       0.75000000 </v>
   </varray>
  </structure>
  <varray name="forces" >
   <v>       0.00000000       0.00000000      -0.00000000 </v>
   <v>      -0.00000000      -0.00000000       0.00000000 </v>
  </varray>
  <varray name="stress" >
   <v>     -36.26527511       0.00000000       0.00000000 </v>
   <v>      -0.00000000     -36.26527511      -0.00000000 </v>
   <v>      -0.00000000       0.00000000     -36.19655748 </v>
  </varray>
  <energy>
   <i name="e_fr_energy">    -14.06071237 </i>
   <i name="e_wo_entrp">    -14.05831919 </i>
   <i name="e_0_energy">    -14.05951578 </i>
  </energy>
  <time name="totalsc">    5.84    5.88</time>
 </calculation>
 <calculation>
  <scstep>
   <time name="dav">    0.55    0.55</time>
   <time name="total">    0.59    0.59</time>
   <energy>
    <i name="alphaZ">     78.25730921 </i>
    <i name="ewald">  -1522.80822641 </i>
    <i name="hartreedc">   -269.39827800 </i>
    <i name="XCdc">     33.18620915 </i>
    <i name="pawpsdc">   1790.18314764 </i>
    <i name="pawaedc">  -1896.07228090 </i>
    <i name="eentropy">     -0.00221720 </i>
    <i name="bandstr">    145.79765790 </i>
    <i name="atom">   1626.72322989 </i>
    <i name="e_fr_energy">    -14.13344873 </i>
    <i name="e_wo_entrp">    -14.13123153 </i>
    <i name="e_0_energy">    -14.13234013 </i>
   </energy>
  </scstep>
  <scstep>
   <time name="dav">    0.60    0.60</time>
   <time name="total">    0.63    0.64</time>
   <energy>
    <i name="e_fr_energy">    -14.07926658 </i>
    <i name="e_wo_entrp">    -14.07713709 </i>
    <i name="e_0_energy">    -14.07820183 </i>
   </energy>
  </scstep>
  <scstep>
   <time name="dav">    0.58    0.59</time>
   <time name="total">    0.62    0.63</time>
   <energy>
    <i name="e_fr_energy">    -14.06699575 </i>
    <i name="e_wo_entrp">    -14.06516177 </i>
    <i name="e_0_energy">    -14.06607876 </i>
   </energy>
  </scstep>
  <scstep>
   <time name="dav">    0.63    0.63</time>
   <time name="total">    0.67    0.67</time>
   <energy>
    <i name="e_fr_energy">    -14.06598836 </i>
    <i name="e_wo_entrp">    -14.06424067 </i>
    <i name="e_0_energy">    -14.06511451 </i>
   </energy>
  </scstep>
  <scstep>
   <time name="dav">    0.79    0.79</time>
   <time name="total">    0.82    0.83</time>
   <energy>
    <i name="e_fr_energy">    -14.06517010 </i>
    <i name="e_wo_entrp">    -14.06347028 </i>
    <i name="e_0_energy">    -14.06432019 </i>
   </energy>
  </scstep>
  <scstep>
   <time name="dav">    0.62    0.62</time>
   <time name="total">    0.66    0.66</time>
   <energy>
    <i name="e_fr_energy">    -14.06515864 </i>
    <i name="e_wo_entrp">    -14.06344006 </i>
    <i name="e_0_energy">    -14.06429935 </i>
   </energy>
  </scstep>
  <scstep>
   <time name="dav">    0.52    0.52</time>
   <time name="total">    0.53    0.53</time>
   <energy>
    <i name="alphaZ">     78.25730921 </i>
    <i name="ewald">  -1522.80822641 </i>
    <i name="hartreedc">   -264.16294938 </i>
    <i name="XCdc">     32.85884590 </i>
    <i name="pawpsdc">   1808.52077797 </i>
    <i name="pawaedc">  -1914.55919816 </i>
    <i name="eentropy">     -0.00171707 </i>
    <i name="bandstr">    141.10676947 </i>
    <i name="atom">   1626.72322989 </i>
    <i name="e_fr_energy">    -14.06515859 </i>
    <i name="e_wo_entrp">    -14.06344152 </i>
    <i name="e_0_energy">    -14.06430005 </i>
   </energy>
  </scstep>
  <structure>
   <crystal>
    <varray name="basis" >
     <v>       1.24497479      -2.15635959      -0.00000000 </v>
     <v>       1.24497479       2.15635959       0.00000000 </v>
     <v>       0.00000000       0.00000000       4.03232585 </v>
    </varray>
    <i name="volume">     21.65047142 </i>
    <varray name="rec_basis" >
     <v>       0.40161456      -0.23187227       0.00000000 </v>
     <v>       0.40161456       0.23187227      -0.00000000 </v>
     <v>      -0.00000000      -0.00000000       0.24799583 </v>
    </varray>
   </crystal>
   <varray name="positions" >
    <v>       0.33333333       0.66666667       0.25000000 </v>
    <v>       0.66666667       0.33333333       0.75000000 </v>
   </varray>
  </structure>
  <varray name="forces" >
   <v>       0.00000000       0.00000000      -0.00000000 </v>
   <v>      -0.00000000      -0.00000000       0.00000000 </v>
  </varray>
  <varray name="stress" >
   <v>       0.22922042      -0.00000000       0.00000000 </v>
   <v>       0.00000000       0.22922042      -0.00000000 </v>
   <v>       0.00000000      -0.00000000     -12.75608800 </v>
  </varray>
  <energy>
   <i name="e_fr_energy">    -14.06515859 </i>
   <i name="e_wo_entrp">    -14.06344152 </i>
   <i name="e_0_energy">    -14.06430005 </i>
  </energy>
  <time name="totalsc">    4.69    4.74</time>
 </calculation>
 <calculation>
  <scstep>
   <time name="dav">    0.55    0.55</time>
   <time name="total">    0.59    0.59</time>
   <energy>
    <i name="alphaZ">     78.31661716 </i>
    <i name="ewald">  -1523.19363393 </i>
    <i name="hartreedc">   -264.24507783 </i>
    <i name="XCdc">     32.87679493 </i>
    <i name="pawpsdc">   1808.60974417 </i>
    <i name="pawaedc">  -1914.63063886 </i>
    <i name="eentropy">     -0.00168603 </i>
    <i name="bandstr">    141.47937479 </i>
    <i name="atom">   1626.72322989 </i>
    <i name="e_fr_energy">    -14.06527571 </i>
    <i name="e_wo_entrp">    -14.06358968 </i>
    <i name="e_0_energy">    -14.06443270 </i>
   </energy>
  </scstep>
  <scstep>
   <time name="dav">    0.60    0.60</time>
   <time name="total">    0.63    0.64</time>
   <energy>
    <i name="e_fr_energy">    -14.06517777 </i>
    <i name="e_wo_entrp">    -14.06346871 </i>
    <i name="e_0_energy">    -14.06432324 </i>
   </energy>
  </scstep>
  <scstep>
   <time name="dav">    0.59    0.59</time>
   <time name="total">    0.63    0.63</time>
   <energy>
    <i name="e_fr_energy">    -14.06515210 </i>
    <i name="e_wo_entrp">    -14.06345837 </i>
    <i name="e_0_energy">    -14.06430523 </i>
   </energy>
  </scstep>
  <scstep>
   <time name="dav">    0.46    0.46</time>
   <time name="total">    0.50    0.50</time>
   <energy>
    <i name="e_fr_energy">    -14.06515049 </i>
    <i name="e_wo_entrp">    -14.06345914 </i>
    <i name="e_0_energy">    -14.06430482 </i>
   </energy>
  </scstep>
  <scstep>
   <time name="dav">    0.39    0.39</time>
   <time name="total">    0.42    0.43</time>
   <energy>
    <i name="e_fr_energy">    -14.06514931 </i>
    <i name="e_wo_entrp">    -14.06345941 </i>
    <i name="e_0_energy">    -14.06430436 </i>
   </energy>
  </scstep>
  <scstep>
   <time name="dav">    0.38    0.38</time>
   <time name="total">    0.39    0.39</time>
   <energy>
    <i name="alphaZ">     78.31661716 </i>
    <i name="ewald">  -1523.19363393 </i>
    <i name="hartreedc">   -264.02346090 </i>
    <i name="XCdc">     32.86315758 </i>
    <i name="pawpsdc">   1809.47717525 </i>
    <i name="pawaedc">  -1915.50237736 </i>
    <i name="eentropy">     -0.00169033 </i>
    <i name="bandstr">    141.27583340 </i>
    <i name="atom">   1626.72322989 </i>
    <i name="e_fr_energy">    -14.06514925 </i>
    <i name="e_wo_entrp">    -14.06345892 </i>
    <i name="e_0_energy">    -14.06430409 </i>
   </energy>
  </scstep>
  <structure>
   <crystal>
    <varray name="basis" >
     <v>       1.24457934      -2.15567465      -0.00000000 </v>
     <v>       1.24457934       2.15567465       0.00000000 </v>
     <v>       0.00000000       0.00000000       4.03183315 </v>
    </varray>
    <i name="volume">     21.63407585 </i>
    <varray name="rec_basis" >
     <v>       0.40174217      -0.23194595       0.00000000 </v>
     <v>       0.40174217       0.23194595      -0.00000000 </v>
     <v>      -0.00000000      -0.00000000       0.24802614 </v>
    </varray>
   </crystal>
   <varray name="positions" >
    <v>       0.33333333       0.66666667       0.25000000 </v>
    <v>       0.66666667       0.33333333       0.75000000 </v>
   </varray>
  </structure>
  <varray name="forces" >
   <v>       0.00000000      -0.00000000       0.00000000 </v>
   <v>      -0.00000000       0.00000000      -0.00000000 </v>
  </varray>
  <varray name="stress" >
   <v>       3.52721824       0.00000000       0.00000000 </v>
   <v>       0.00000000       3.52721824       0.00000000 </v>
   <v>       0.00000000       0.00000000      -9.62221301 </v>
  </varray>
  <energy>
   <i name="e_fr_energy">    -14.06514925 </i>
   <i name="e_wo_entrp">    -14.06345892 </i>
   <i name="e_0_energy">    -14.06430409 </i>
  </energy>
  <time name="totalsc">    3.33    3.38</time>
 </calculation>
 <calculation>
  <scstep>
   <time name="dav">    0.55    0.55</time>
   <time name="total">    0.58    0.59</time>
   <energy>
    <i name="alphaZ">     78.29098748 </i>
    <i name="ewald">  -1523.02710748 </i>
    <i name="hartreedc">   -263.99403563 </i>
    <i name="XCdc">     32.85536709 </i>
    <i name="pawpsdc">   1809.49209655 </i>
    <i name="pawaedc">  -1915.51698742 </i>
    <i name="eentropy">     -0.00170298 </i>
    <i name="bandstr">    141.11297183 </i>
    <i name="atom">   1626.72322989 </i>
    <i name="e_fr_energy">    -14.06518066 </i>
    <i name="e_wo_entrp">    -14.06347768 </i>
    <i name="e_0_energy">    -14.06432917 </i>
   </energy>
  </scstep>
  <scstep>
   <time name="dav">    0.59    0.59</time>
   <time name="total">    0.62    0.63</time>
   <energy>
    <i name="e_fr_energy">    -14.06516076 </i>
    <i name="e_wo_entrp">    -14.06346914 </i>
    <i name="e_0_energy">    -14.06431495 </i>
   </energy>
  </scstep>
  <scstep>
   <time name="dav">    0.58    0.59</time>
   <time name="total">    0.62    0.62</time>
   <energy>
    <i name="e_fr_energy">    -14.06515551 </i>
    <i name="e_wo_entrp">    -14.06345727 </i>
    <i name="e_0_energy">    -14.06430639 </i>
   </energy>
  </scstep>
  <scstep>
   <time name="dav">    0.38    0.38</time>
   <time name="total">    0.39    0.39</time>
   <energy>
    <i name="alphaZ">     78.29098748 </i>
    <i name="ewald">  -1523.02710748 </i>
    <i name="hartreedc">   -264.08291184 </i>
    <i name="XCdc">     32.86070333 </i>
    <i name="pawpsdc">   1809.23268840 </i>
    <i name="pawaedc">  -1915.26201937 </i>
    <i name="eentropy">     -0.00169933 </i>
    <i name="bandstr">    141.20097387 </i>
    <i name="atom">   1626.72322989 </i>
    <i name="e_fr_energy">    -14.06515506 </i>
    <i name="e_wo_entrp">    -14.06345573 </i>
    <i name="e_0_energy">    -14.06430539 </i>
   </energy>
  </scstep>
  <structure>
   <crystal>
    <varray name="basis" >
     <v>       1.24475018      -2.15597055      -0.00000000 </v>
     <v>       1.24475018       2.15597055       0.00000000 </v>
     <v>       0.00000000       0.00000000       4.03204600 </v>
    </varray>
    <i name="volume">     21.64115808 </i>
    <varray name="rec_basis" >
     <v>       0.40168703      -0.23191411       0.00000000 </v>
     <v>       0.40168703       0.23191411      -0.00000000 </v>
     <v>      -0.00000000      -0.00000000       0.24801304 </v>
    </varray>
   </crystal>
   <varray name="positions" >
    <v>       0.33333333       0.66666667       0.25000000 </v>
    <v>       0.66666667       0.33333333       0.75000000 </v>
   </varray>
  </structure>
  <varray name="forces" >
   <v>      -0.00000000       0.00000000       0.00000000 </v>
   <v>       0.00000000      -0.00000000      -0.00000000 </v>
  </varray>
  <varray name="stress" >
   <v>       3.31009666      -0.00000000      -0.00000000 </v>
   <v>       0.00000000       3.31009666       0.00000000 </v>
   <v>       0.00000000      -0.00000000      -9.87911605 </v>
  </varray>
  <energy>
   <i name="e_fr_energy">    -14.06515506 </i>
   <i name="e_wo_entrp">    -14.06345573 </i>
   <i name="e_0_energy">    -14.06430539 </i>
  </energy>
  <time name="totalsc">    2.39    2.41</time>
 </calculation>
 <calculation>
  <scstep>
   <time name="dav">    0.55    0.55</time>
   <time name="total">    0.58    0.59</time>
   <energy>
    <i name="alphaZ">     78.27414585 </i>
    <i name="ewald">  -1522.91765920 </i>
    <i name="hartreedc">   -264.07390483 </i>
    <i name="XCdc">     32.85632627 </i>
    <i name="pawpsdc">   1809.14739551 </i>
    <i name="pawaedc">  -1915.16958949 </i>
    <i name="eentropy">     -0.00170817 </i>
    <i name="bandstr">    141.09659633 </i>
    <i name="atom">   1626.72322989 </i>
    <i name="e_fr_energy">    -14.06516785 </i>
    <i name="e_wo_entrp">    -14.06345968 </i>
    <i name="e_0_energy">    -14.06431376 </i>
   </energy>
  </scstep>
  <scstep>
   <time name="dav">    0.61    0.61</time>
   <time name="total">    0.64    0.65</time>
   <energy>
    <i name="e_fr_energy">    -14.06515909 </i>
    <i name="e_wo_entrp">    -14.06345830 </i>
    <i name="e_0_energy">    -14.06430870 </i>
   </energy>
  </scstep>
  <scstep>
   <time name="dav">    0.57    0.57</time>
   <time name="total">    0.61    0.61</time>
   <energy>
    <i name="e_fr_energy">    -14.06515682 </i>
    <i name="e_wo_entrp">    -14.06345171 </i>
    <i name="e_0_energy">    -14.06430427 </i>
   </energy>
  </scstep>
  <scstep>
   <time name="dav">    0.37    0.37</time>
   <time name="total">    0.38    0.39</time>
   <energy>
    <i name="alphaZ">     78.27414585 </i>
    <i name="ewald">  -1522.91765920 </i>
    <i name="hartreedc">   -264.13230989 </i>
    <i name="XCdc">     32.85984405 </i>
    <i name="pawpsdc">   1808.96176250 </i>
    <i name="pawaedc">  -1914.98666176 </i>
    <i name="eentropy">     -0.00170583 </i>
    <i name="bandstr">    141.15419778 </i>
    <i name="atom">   1626.72322989 </i>
    <i name="e_fr_energy">    -14.06515662 </i>
    <i name="e_wo_entrp">    -14.06345079 </i>
    <i name="e_0_energy">    -14.06430370 </i>
   </energy>
  </scstep>
  <structure>
   <crystal>
    <varray name="basis" >
     <v>       1.24486249      -2.15616507      -0.00000000 </v>
     <v>       1.24486249       2.15616507       0.00000000 </v>
     <v>       0.00000000       0.00000000       4.03218592 </v>
    </varray>
    <i name="volume">     21.64581443 </i>
    <varray name="rec_basis" >
     <v>       0.40165079      -0.23189319       0.00000000 </v>
     <v>       0.40165079       0.23189319      -0.00000000 </v>
     <v>      -0.00000000      -0.00000000       0.24800444 </v>
    </varray>
   </crystal>
   <varray name="positions" >
    <v>       0.33333333       0.66666667       0.25000000 </v>
    <v>       0.66666667       0.33333333       0.75000000 </v>
   </varray>
  </structure>
  <varray name="forces" >
   <v>      -0.00000000       0.00000000       0.00000000 </v>
   <v>       0.00000000      -0.00000000      -0.00000000 </v>
  </varray>
  <varray name="stress" >
   <v>       2.72483296      -0.00000000       0.00000000 </v>
   <v>      -0.00000000       2.72483296       0.00000000 </v>
   <v>       0.00000000      -0.00000000     -10.17257337 </v>
  </varray>
  <energy>
   <i name="e_fr_energy">    -14.06515662 </i>
   <i name="e_wo_entrp">    -14.06345079 </i>
   <i name="e_0_energy">    -14.06430370 </i>
  </energy>
  <time name="totalsc">    2.40    2.42</time>
 </calculation>
 <calculation>
  <scstep>
   <time name="dav">    0.56    0.56</time>
   <time name="total">    0.59    0.60</time>
   <energy>
    <i name="alphaZ">     78.26572690 </i>
    <i name="ewald">  -1522.86294087 </i>
    <i name="hartreedc">   -264.12944318 </i>
    <i name="XCdc">     32.85778211 </i>
    <i name="pawpsdc">   1808.89939533 </i>
    <i name="pawaedc">  -1914.91952537 </i>
    <i name="eentropy">     -0.00171034 </i>
    <i name="bandstr">    141.10232576 </i>
    <i name="atom">   1626.72322989 </i>
    <i name="e_fr_energy">    -14.06515976 </i>
    <i name="e_wo_entrp">    -14.06344942 </i>
    <i name="e_0_energy">    -14.06430459 </i>
   </energy>
  </scstep>
  <scstep>
   <time name="dav">    0.60    0.60</time>
   <time name="total">    0.64    0.64</time>
   <energy>
    <i name="e_fr_energy">    -14.06515749 </i>
    <i name="e_wo_entrp">    -14.06345079 </i>
    <i name="e_0_energy">    -14.06430414 </i>
   </energy>
  </scstep>
  <scstep>
   <time name="dav">    0.38    0.38</time>
   <time name="total">    0.39    0.39</time>
   <energy>
    <i name="alphaZ">     78.26572690 </i>
    <i name="ewald">  -1522.86294087 </i>
    <i name="hartreedc">   -264.15756056 </i>
    <i name="XCdc">     32.85944627 </i>
    <i name="pawpsdc">   1808.82287155 </i>
    <i name="pawaedc">  -1914.84620465 </i>
    <i name="eentropy">     -0.00170885 </i>
    <i name="bandstr">    141.13198340 </i>
    <i name="atom">   1626.72322989 </i>
    <i name="e_fr_energy">    -14.06515692 </i>
    <i name="e_wo_entrp">    -14.06344807 </i>
    <i name="e_0_energy">    -14.06430250 </i>
   </energy>
  </scstep>
  <structure>
   <crystal>
    <varray name="basis" >
     <v>       1.24491864      -2.15626233      -0.00000000 </v>
     <v>       1.24491864       2.15626233       0.00000000 </v>
     <v>       0.00000000       0.00000000       4.03225589 </v>
    </varray>
    <i name="volume">     21.64814285 </i>
    <varray name="rec_basis" >
     <v>       0.40163267      -0.23188273       0.00000000 </v>
     <v>       0.40163267       0.23188273      -0.00000000 </v>
     <v>      -0.00000000      -0.00000000       0.24800013 </v>
    </varray>
   </crystal>
   <varray name="positions" >
    <v>       0.33333333       0.66666667       0.25000000 </v>
    <v>       0.66666667       0.33333333       0.75000000 </v>
   </varray>
  </structure>
  <varray name="forces" >
   <v>       0.00000000      -0.00000000      -0.00000000 </v>
   <v>      -0.00000000       0.00000000       0.00000000 </v>
  </varray>
  <varray name="stress" >
   <v>       2.00175614      -0.00000000       0.00000000 </v>
   <v>       0.00000000       2.00175614       0.00000000 </v>
   <v>       0.00000000       0.00000000     -10.75325112 </v>
  </varray>
  <energy>
   <i name="e_fr_energy">    -14.06515692 </i>
   <i name="e_wo_entrp">    -14.06344807 </i>
   <i name="e_0_energy">    -14.06430250 </i>
  </energy>
  <time name="totalsc">    1.80    1.83</time>
 </calculation>
 <calculation>
  <scstep>
   <time name="dav">    0.59    0.60</time>
   <time name="total">    0.63    0.63</time>
   <energy>
    <i name="alphaZ">     78.34771475 </i>
    <i name="ewald">  -1523.37454503 </i>
    <i name="hartreedc">   -264.25851242 </i>
    <i name="XCdc">     32.88423280 </i>
    <i name="pawpsdc">   1808.80725783 </i>
    <i name="pawaedc">  -1914.82879306 </i>
    <i name="eentropy">     -0.00154174 </i>
    <i name="bandstr">    141.63424426 </i>
    <i name="atom">   1626.72322989 </i>
    <i name="e_fr_energy">    -14.06671274 </i>
    <i name="e_wo_entrp">    -14.06517100 </i>
    <i name="e_0_energy">    -14.06594187 </i>
   </energy>
  </scstep>
  <scstep>
   <time name="dav">    0.65    0.66</time>
   <time name="total">    0.69    0.69</time>
   <energy>
    <i name="e_fr_energy">    -14.06573970 </i>
    <i name="e_wo_entrp">    -14.06408803 </i>
    <i name="e_0_energy">    -14.06491387 </i>
   </energy>
  </scstep>
  <scstep>
   <time name="dav">    0.66    0.66</time>
   <time name="total">    0.70    0.70</time>
   <energy>
    <i name="e_fr_energy">    -14.06548286 </i>
    <i name="e_wo_entrp">    -14.06380129 </i>
    <i name="e_0_energy">    -14.06464208 </i>
   </energy>
  </scstep>
  <scstep>
   <time name="dav">    0.66    0.67</time>
   <time name="total">    0.70    0.71</time>
   <energy>
    <i name="e_fr_energy">    -14.06540160 </i>
    <i name="e_wo_entrp">    -14.06367587 </i>
    <i name="e_0_energy">    -14.06453874 </i>
   </energy>
  </scstep>
  <scstep>
   <time name="dav">    0.66    0.67</time>
   <time name="total">    0.70    0.71</time>
   <energy>
    <i name="e_fr_energy">    -14.06539600 </i>
    <i name="e_wo_entrp">    -14.06366582 </i>
    <i name="e_0_energy">    -14.06453091 </i>
   </energy>
  </scstep>
  <scstep>
   <time name="dav">    0.39    0.39</time>
   <time name="total">    0.43    0.43</time>
   <energy>
    <i name="e_fr_energy">    -14.06539494 </i>
    <i name="e_wo_entrp">    -14.06366933 </i>
    <i name="e_0_energy">    -14.06453213 </i>
   </energy>
  </scstep>
  <scstep>
   <time name="dav">    0.37    0.37</time>
   <time name="total">    0.38    0.38</time>
   <energy>
    <i name="alphaZ">     78.34771475 </i>
    <i name="ewald">  -1523.37454503 </i>
    <i name="hartreedc">   -263.96936500 </i>
    <i name="XCdc">     32.86582877 </i>
    <i name="pawpsdc">   1810.01472392 </i>
    <i name="pawaedc">  -1916.04258875 </i>
    <i name="eentropy">     -0.00172421 </i>
    <i name="bandstr">    141.37133095 </i>
    <i name="atom">   1626.72322989 </i>
    <i name="e_fr_energy">    -14.06539472 </i>
    <i name="e_wo_entrp">    -14.06367051 </i>
    <i name="e_0_energy">    -14.06453262 </i>
   </energy>
  </scstep>
  <structure>
   <crystal>
    <varray name="basis" >
     <v>       1.24613780      -2.15837399      -0.00000000 </v>
     <v>       1.24613780       2.15837399       0.00000000 </v>
     <v>       0.00000000       0.00000000       4.02015843 </v>
    </varray>
    <i name="volume">     21.62548890 </i>
    <varray name="rec_basis" >
     <v>       0.40123973      -0.23165587      -0.00000000 </v>
     <v>       0.40123973       0.23165587      -0.00000000 </v>
     <v>      -0.00000000      -0.00000000       0.24874642 </v>
    </varray>
   </crystal>
   <varray name="positions" >
    <v>       0.33333333       0.66666667       0.25000000 </v>
    <v>       0.66666667       0.33333333       0.75000000 </v>
   </varray>
  </structure>
  <varray name="forces" >
   <v>       0.00000000      -0.00000000       0.00000000 </v>
   <v>      -0.00000000       0.00000000      -0.00000000 </v>
  </varray>
  <varray name="stress" >
   <v>       0.27967276       0.00000000       0.00000000 </v>
   <v>       0.00000000       0.27967276       0.00000000 </v>
   <v>       0.00000000       0.00000000       0.24859981 </v>
  </varray>
  <energy>
   <i name="e_fr_energy">    -14.06539472 </i>
   <i name="e_wo_entrp">    -14.06367051 </i>
   <i name="e_0_energy">    -14.06453262 </i>
  </energy>
  <time name="totalsc">    4.37    4.40</time>
  <eigenvalues>
   <array>
    <dimension dim="1">band</dimension>
    <dimension dim="2">kpoint</dimension>
    <dimension dim="3">spin</dimension>
    <field>eigene</field>
    <field>occ</field>
    <set>
     <set comment="spin 1">
      <set comment="kpoint 1">
       <r>    1.3751    1.0000 </r>
       <r>    5.1518    1.0000 </r>
       <r>    7.6854    1.0000 </r>
       <r>    7.6910    1.0000 </r>
       <r>    7.6910    1.0000 </r>
       <r>    8.0069    1.0000 </r>
       <r>    8.0069    1.0000 </r>
       <r>    8.3527    1.0000 </r>
       <r>    8.3527    1.0000 </r>
       <r>    9.4661    1.0000 </r>
       <r>    9.4661    1.0000 </r>
       <r>   10.2578    0.5988 </r>
       <r>   16.7134    0.0000 </r>
       <r>   32.2774    0.0000 </r>
       <r>   34.8452    0.0000 </r>
       <r>   34.8452    0.0000 </r>
      </set>
      <set comment="kpoint 2">
       <r>    1.6184    1.0000 </r>
       <r>    5.2961    1.0000 </r>
       <r>    7.4590    1.0000 </r>
       <r>    7.8040    1.0000 </r>
       <r>    7.8788    1.0000 </r>
       <r>    7.9619    1.0000 </r>
       <r>    8.1063    1.0000 </r>
       <r>    8.2046    1.0000 </r>
       <r>    8.2818    1.0000 </r>
       <r>    8.7110    1.0000 </r>
       <r>    9.4965    1.0000 </r>
       <r>   11.3274    0.0000 </r>
       <r>   16.7561    0.0000 </r>
       <r>   30.4171    0.0000 </r>
       <r>   32.7232    0.0000 </r>
       <r>   32.7607    0.0000 </r>
      </set>
      <set comment="kpoint 3">
       <r>    2.3222    1.0000 </r>
       <r>    5.6524    1.0000 </r>
       <r>    7.1850    1.0000 </r>
       <r>    7.5068    1.0000 </r>
       <r>    7.7918    1.0000 </r>
       <r>    8.1067    1.0000 </r>
       <r>    8.1238    1.0000 </r>
       <r>    8.1839    1.0000 </r>
       <r>    8.3262    1.0000 </r>
       <r>    8.3866    1.0000 </r>
       <r>    9.5615    1.0000 </r>
       <r>   12.9184    0.0000 </r>
       <r>   16.9052    0.0000 </r>
       <r>   26.5987    0.0000 </r>
       <r>   30.3279    0.0000 </r>
       <r>   31.8210    0.0000 </r>
      </set>
      <set comment="kpoint 4">
       <r>    3.3857    1.0000 </r>
       <r>    5.9340    1.0000 </r>
       <r>    6.7820    1.0000 </r>
       <r>    7.0219    1.0000 </r>
       <r>    7.7033    1.0000 </r>
       <r>    7.8960    1.0000 </r>
       <r>    8.1267    1.0000 </r>
       <r>    8.5865    1.0000 </r>
       <r>    8.6113    1.0000 </r>
       <r>    8.7890    1.0000 </r>
       <r>    9.6231    1.0000 </r>
       <r>   14.7169    0.0000 </r>
       <r>   17.1922    0.0000 </r>
       <r>   22.8909    0.0000 </r>
       <r>   28.2496    0.0000 </r>
       <r>   30.3809    0.0000 </r>
      </set>
      <set comment="kpoint 5">
       <r>    4.5409    1.0000 </r>
       <r>    5.8628    1.0000 </r>
       <r>    6.2529    1.0000 </r>
       <r>    7.1407    1.0000 </r>
       <r>    7.7063    1.0000 </r>
       <r>    7.8300    1.0000 </r>
       <r>    7.9523    1.0000 </r>
       <r>    9.0790    1.0000 </r>
       <r>    9.2252    1.0000 </r>
       <r>    9.2969    1.0000 </r>
       <r>    9.6656    1.0000 </r>
       <r>   16.6786    0.0000 </r>
       <r>   17.2567    0.0000 </r>
       <r>   20.0335    0.0000 </r>
       <r>   26.6011    0.0000 </r>
       <r>   27.3088    0.0000 </r>
      </set>
      <set comment="kpoint 6">
       <r>    5.2880    1.0000 </r>
       <r>    5.6768    1.0000 </r>
       <r>    5.9354    1.0000 </r>
       <r>    7.5158    1.0000 </r>
       <r>    7.5768    1.0000 </r>
       <r>    7.8294    1.0000 </r>
       <r>    8.0334    1.0000 </r>
       <r>    9.4467    1.0000 </r>
       <r>    9.5861    1.0000 </r>
       <r>    9.6885    1.0000 </r>
       <r>   10.4207    0.0000 </r>
       <r>   15.3658    0.0000 </r>
       <r>   18.7079    0.0000 </r>
       <r>   19.9609    0.0000 </r>
       <r>   24.6259    0.0000 </r>
       <r>   25.5177    0.0000 </r>
      </set>
      <set comment="kpoint 7">
       <r>    5.5256    1.0000 </r>
       <r>    5.5505    1.0000 </r>
       <r>    5.8299    1.0000 </r>
       <r>    7.5310    1.0000 </r>
       <r>    7.7674    1.0000 </r>
       <r>    7.7852    1.0000 </r>
       <r>    8.1099    1.0000 </r>
       <r>    9.5796    1.0000 </r>
       <r>    9.6955    1.0000 </r>
       <r>    9.7320    1.0000 </r>
       <r>   11.5975    0.0000 </r>
       <r>   13.6151    0.0000 </r>
       <r>   20.0345    0.0000 </r>
       <r>   20.6845    0.0000 </r>
       <r>   23.0843    0.0000 </r>
       <r>   24.3159    0.0000 </r>
      </set>
      <set comment="kpoint 8">
       <r>    2.0928    1.0000 </r>
       <r>    5.5524    1.0000 </r>
       <r>    7.2425    1.0000 </r>
       <r>    7.7521    1.0000 </r>
       <r>    7.8571    1.0000 </r>
       <r>    8.0354    1.0000 </r>
       <r>    8.0364    1.0000 </r>
       <r>    8.0802    1.0000 </r>
       <r>    8.3280    1.0000 </r>
       <r>    8.4448    1.0000 </r>
       <r>    9.5346    1.0000 </r>
       <r>   12.4715    0.0000 </r>
       <r>   16.8539    0.0000 </r>
       <r>   28.3418    0.0000 </r>
       <r>   29.0656    0.0000 </r>
       <r>   34.3121    0.0000 </r>
      </set>
      <set comment="kpoint 9">
       <r>    2.9853    1.0000 </r>
       <r>    5.9161    1.0000 </r>
       <r>    6.9717    1.0000 </r>
       <r>    7.0497    1.0000 </r>
       <r>    7.7402    1.0000 </r>
       <r>    7.8580    1.0000 </r>
       <r>    8.2886    1.0000 </r>
       <r>    8.2897    1.0000 </r>
       <r>    8.4571    1.0000 </r>
       <r>    8.7427    1.0000 </r>
       <r>    9.5816    1.0000 </r>
       <r>   14.0675    0.0000 </r>
       <r>   17.0933    0.0000 </r>
       <r>   24.7858    0.0000 </r>
       <r>   27.0034    0.0000 </r>
       <r>   32.0791    0.0000 </r>
      </set>
      <set comment="kpoint 10">
       <r>    4.1327    1.0000 </r>
       <r>    6.0306    1.0000 </r>
       <r>    6.4704    1.0000 </r>
       <r>    6.9063    1.0000 </r>
       <r>    7.6715    1.0000 </r>
       <r>    7.7562    1.0000 </r>
       <r>    8.0950    1.0000 </r>
       <r>    8.6889    1.0000 </r>
       <r>    8.9565    1.0000 </r>
       <r>    9.3081    1.0000 </r>
       <r>    9.6213    1.0000 </r>
       <r>   15.9094    0.0000 </r>
       <r>   17.4529    0.0000 </r>
       <r>   21.3346    0.0000 </r>
       <r>   25.4622    0.0000 </r>
       <r>   28.9167    0.0000 </r>
      </set>
      <set comment="kpoint 11">
       <r>    5.1323    1.0000 </r>
       <r>    5.8554    1.0000 </r>
       <r>    6.0765    1.0000 </r>
       <r>    7.1484    1.0000 </r>
       <r>    7.5503    1.0000 </r>
       <r>    7.9043    1.0000 </r>
       <r>    7.9502    1.0000 </r>
       <r>    9.1874    1.0000 </r>
       <r>    9.3826    1.0000 </r>
       <r>    9.6461    1.0000 </r>
       <r>   10.1163    1.0000 </r>
       <r>   16.7254    0.0000 </r>
       <r>   17.9122    0.0000 </r>
       <r>   19.7260    0.0000 </r>
       <r>   24.2669    0.0000 </r>
       <r>   26.0334    0.0000 </r>
      </set>
      <set comment="kpoint 12">
       <r>    5.5655    1.0000 </r>
       <r>    5.6977    1.0000 </r>
       <r>    5.8791    1.0000 </r>
       <r>    7.5016    1.0000 </r>
       <r>    7.5226    1.0000 </r>
       <r>    7.7783    1.0000 </r>
       <r>    8.1057    1.0000 </r>
       <r>    9.5423    1.0000 </r>
       <r>    9.6130    1.0000 </r>
       <r>    9.6571    1.0000 </r>
       <r>   11.4177    0.0000 </r>
       <r>   14.3879    0.0000 </r>
       <r>   19.8324    0.0000 </r>
       <r>   20.5856    0.0000 </r>
       <r>   23.4761    0.0000 </r>
       <r>   23.6786    0.0000 </r>
      </set>
      <set comment="kpoint 13">
       <r>    3.9884    1.0000 </r>
       <r>    6.2102    1.0000 </r>
       <r>    6.5849    1.0000 </r>
       <r>    6.6795    1.0000 </r>
       <r>    7.6022    1.0000 </r>
       <r>    7.7515    1.0000 </r>
       <r>    8.1870    1.0000 </r>
       <r>    8.4562    1.0000 </r>
       <r>    8.9454    1.0000 </r>
       <r>    9.3289    1.0000 </r>
       <r>    9.5833    1.0000 </r>
       <r>   15.6490    0.0000 </r>
       <r>   17.4924    0.0000 </r>
       <r>   23.0473    0.0000 </r>
       <r>   23.5091    0.0000 </r>
       <r>   30.4479    0.0000 </r>
      </set>
      <set comment="kpoint 14">
       <r>    5.0817    1.0000 </r>
       <r>    6.1920    1.0000 </r>
       <r>    6.2175    1.0000 </r>
       <r>    6.6590    1.0000 </r>
       <r>    7.4484    1.0000 </r>
       <r>    7.8974    1.0000 </r>
       <r>    7.9970    1.0000 </r>
       <r>    8.7620    1.0000 </r>
       <r>    9.3851    1.0000 </r>
       <r>    9.5812    1.0000 </r>
       <r>   10.1362    0.9999 </r>
       <r>   17.5123    0.0000 </r>
       <r>   17.8703    0.0000 </r>
       <r>   20.2181    0.0000 </r>
       <r>   22.0974    0.0000 </r>
       <r>   27.7952    0.0000 </r>
      </set>
      <set comment="kpoint 15">
       <r>    5.7572    1.0000 </r>
       <r>    5.9895    1.0000 </r>
       <r>    5.9926    1.0000 </r>
       <r>    6.9810    1.0000 </r>
       <r>    7.4063    1.0000 </r>
       <r>    7.7913    1.0000 </r>
       <r>    8.0994    1.0000 </r>
       <r>    9.1654    1.0000 </r>
       <r>    9.5784    1.0000 </r>
       <r>    9.6035    1.0000 </r>
       <r>   11.3296    0.0000 </r>
       <r>   16.0607    0.0000 </r>
       <r>   19.5350    0.0000 </r>
       <r>   20.1631    0.0000 </r>
       <r>   21.3367    0.0000 </r>
       <r>   25.1155    0.0000 </r>
      </set>
      <set comment="kpoint 16">
       <r>    5.8952    1.0000 </r>
       <r>    5.9130    1.0000 </r>
       <r>    5.9209    1.0000 </r>
       <r>    7.2051    1.0000 </r>
       <r>    7.4231    1.0000 </r>
       <r>    7.6844    1.0000 </r>
       <r>    8.1854    1.0000 </r>
       <r>    9.4375    1.0000 </r>
       <r>    9.5771    1.0000 </r>
       <r>    9.5828    1.0000 </r>
       <r>   12.6188    0.0000 </r>
       <r>   14.1885    0.0000 </r>
       <r>   20.6605    0.0000 </r>
       <r>   20.9746    0.0000 </r>
       <r>   21.3760    0.0000 </r>
       <r>   23.4541    0.0000 </r>
      </set>
      <set comment="kpoint 17">
       <r>    5.8944    1.0000 </r>
       <r>    6.0529    1.0000 </r>
       <r>    6.3913    1.0000 </r>
       <r>    6.4447    1.0000 </r>
       <r>    7.3429    1.0000 </r>
       <r>    7.8064    1.0000 </r>
       <r>    8.1040    1.0000 </r>
       <r>    8.9406    1.0000 </r>
       <r>    9.5380    1.0000 </r>
       <r>    9.6100    1.0000 </r>
       <r>   11.3334    0.0000 </r>
       <r>   17.8519    0.0000 </r>
       <r>   18.5771    0.0000 </r>
       <r>   19.4174    0.0000 </r>
       <r>   20.7709    0.0000 </r>
       <r>   26.9678    0.0000 </r>
      </set>
      <set comment="kpoint 18">
       <r>    5.9746    1.0000 </r>
       <r>    6.1676    1.0000 </r>
       <r>    6.2583    1.0000 </r>
       <r>    6.7642    1.0000 </r>
       <r>    7.3628    1.0000 </r>
       <r>    7.6091    1.0000 </r>
       <r>    8.2706    1.0000 </r>
       <r>    9.2129    1.0000 </r>
       <r>    9.5125    1.0000 </r>
       <r>    9.5562    1.0000 </r>
       <r>   13.0119    0.0000 </r>
       <r>   15.5942    0.0000 </r>
       <r>   17.9351    0.0000 </r>
       <r>   21.4545    0.0000 </r>
       <r>   21.8318    0.0000 </r>
       <r>   24.4909    0.0000 </r>
      </set>
      <set comment="kpoint 19">
       <r>    5.9797    1.0000 </r>
       <r>    6.3594    1.0000 </r>
       <r>    6.3594    1.0000 </r>
       <r>    6.6429    1.0000 </r>
       <r>    7.4399    1.0000 </r>
       <r>    7.4399    1.0000 </r>
       <r>    8.3671    1.0000 </r>
       <r>    9.3578    1.0000 </r>
       <r>    9.3578    1.0000 </r>
       <r>    9.4861    1.0000 </r>
       <r>   14.7671    0.0000 </r>
       <r>   15.5895    0.0000 </r>
       <r>   15.5895    0.0000 </r>
       <r>   22.6983    0.0000 </r>
       <r>   23.4472    0.0000 </r>
       <r>   23.4472    0.0000 </r>
      </set>
      <set comment="kpoint 20">
       <r>    1.5338    1.0000 </r>
       <r>    5.1221    1.0000 </r>
       <r>    7.6442    1.0000 </r>
       <r>    7.6482    1.0000 </r>
       <r>    7.6482    1.0000 </r>
       <r>    7.9634    1.0000 </r>
       <r>    7.9634    1.0000 </r>
       <r>    8.4518    1.0000 </r>
       <r>    8.4518    1.0000 </r>
       <r>    9.4580    1.0000 </r>
       <r>    9.4580    1.0000 </r>
       <r>    9.6359    1.0000 </r>
       <r>   17.6469    0.0000 </r>
       <r>   32.2203    0.0000 </r>
       <r>   34.5861    0.0000 </r>
       <r>   34.9882    0.0000 </r>
      </set>
      <set comment="kpoint 21">
       <r>    1.7747    1.0000 </r>
       <r>    5.2749    1.0000 </r>
       <r>    7.4561    1.0000 </r>
       <r>    7.7491    1.0000 </r>
       <r>    7.7686    1.0000 </r>
       <r>    7.8565    1.0000 </r>
       <r>    8.0580    1.0000 </r>
       <r>    8.3364    1.0000 </r>
       <r>    8.4004    1.0000 </r>
       <r>    8.6247    1.0000 </r>
       <r>    9.4841    1.0000 </r>
       <r>   10.7843    0.0000 </r>
       <r>   17.7391    0.0000 </r>
       <r>   30.4988    0.0000 </r>
       <r>   32.7397    0.0000 </r>
       <r>   32.8758    0.0000 </r>
      </set>
      <set comment="kpoint 22">
       <r>    2.4692    1.0000 </r>
       <r>    5.6565    1.0000 </r>
       <r>    7.2014    1.0000 </r>
       <r>    7.3430    1.0000 </r>
       <r>    7.7373    1.0000 </r>
       <r>    7.9648    1.0000 </r>
       <r>    8.1006    1.0000 </r>
       <r>    8.2753    1.0000 </r>
       <r>    8.3967    1.0000 </r>
       <r>    8.4827    1.0000 </r>
       <r>    9.5392    1.0000 </r>
       <r>   12.1480    0.0000 </r>
       <r>   18.0479    0.0000 </r>
       <r>   26.7287    0.0000 </r>
       <r>   30.5088    0.0000 </r>
       <r>   31.5430    0.0000 </r>
      </set>
      <set comment="kpoint 23">
       <r>    3.5080    1.0000 </r>
       <r>    5.9672    1.0000 </r>
       <r>    6.6969    1.0000 </r>
       <r>    7.0527    1.0000 </r>
       <r>    7.6076    1.0000 </r>
       <r>    7.9162    1.0000 </r>
       <r>    8.1375    1.0000 </r>
       <r>    8.6213    1.0000 </r>
       <r>    8.6778    1.0000 </r>
       <r>    8.7554    1.0000 </r>
       <r>    9.5913    1.0000 </r>
       <r>   13.5712    0.0000 </r>
       <r>   18.6306    0.0000 </r>
       <r>   23.0350    0.0000 </r>
       <r>   28.4558    0.0000 </r>
       <r>   29.0567    0.0000 </r>
      </set>
      <set comment="kpoint 24">
       <r>    4.5960    1.0000 </r>
       <r>    5.8908    1.0000 </r>
       <r>    6.2765    1.0000 </r>
       <r>    7.0389    1.0000 </r>
       <r>    7.7586    1.0000 </r>
       <r>    7.7633    1.0000 </r>
       <r>    8.1843    1.0000 </r>
       <r>    9.0962    1.0000 </r>
       <r>    9.1700    1.0000 </r>
       <r>    9.2562    1.0000 </r>
       <r>    9.6311    1.0000 </r>
       <r>   14.9202    0.0000 </r>
       <r>   18.9209    0.0000 </r>
       <r>   20.4575    0.0000 </r>
       <r>   26.0712    0.0000 </r>
       <r>   26.8284    0.0000 </r>
      </set>
      <set comment="kpoint 25">
       <r>    5.2118    1.0000 </r>
       <r>    5.6689    1.0000 </r>
       <r>    6.1477    1.0000 </r>
       <r>    7.0548    1.0000 </r>
       <r>    7.6411    1.0000 </r>
       <r>    8.0272    1.0000 </r>
       <r>    8.4080    1.0000 </r>
       <r>    9.4403    1.0000 </r>
       <r>    9.5122    1.0000 </r>
       <r>    9.6761    1.0000 </r>
       <r>   10.3332    0.0300 </r>
       <r>   14.9344    0.0000 </r>
       <r>   18.0886    0.0000 </r>
       <r>   20.8413    0.0000 </r>
       <r>   23.9060    0.0000 </r>
       <r>   25.7602    0.0000 </r>
      </set>
      <set comment="kpoint 26">
       <r>    5.3417    1.0000 </r>
       <r>    5.5583    1.0000 </r>
       <r>    6.1432    1.0000 </r>
       <r>    7.0780    1.0000 </r>
       <r>    7.5987    1.0000 </r>
       <r>    8.1100    1.0000 </r>
       <r>    8.5798    1.0000 </r>
       <r>    9.5337    1.0000 </r>
       <r>    9.6462    1.0000 </r>
       <r>    9.7275    1.0000 </r>
       <r>   11.4866    0.0000 </r>
       <r>   13.5234    0.0000 </r>
       <r>   19.4452    0.0000 </r>
       <r>   19.8040    0.0000 </r>
       <r>   24.2564    0.0000 </r>
       <r>   25.2264    0.0000 </r>
      </set>
      <set comment="kpoint 27">
       <r>    2.2434    1.0000 </r>
       <r>    5.5484    1.0000 </r>
       <r>    7.2560    1.0000 </r>
       <r>    7.5252    1.0000 </r>
       <r>    7.8105    1.0000 </r>
       <r>    7.9102    1.0000 </r>
       <r>    8.0426    1.0000 </r>
       <r>    8.2046    1.0000 </r>
       <r>    8.4026    1.0000 </r>
       <r>    8.5004    1.0000 </r>
       <r>    9.5171    1.0000 </r>
       <r>   11.7764    0.0000 </r>
       <r>   17.9415    0.0000 </r>
       <r>   28.4522    0.0000 </r>
       <r>   29.2084    0.0000 </r>
       <r>   33.8096    0.0000 </r>
      </set>
      <set comment="kpoint 28">
       <r>    3.1200    1.0000 </r>
       <r>    5.9447    1.0000 </r>
       <r>    6.9182    1.0000 </r>
       <r>    7.0048    1.0000 </r>
       <r>    7.6748    1.0000 </r>
       <r>    7.8737    1.0000 </r>
       <r>    8.1444    1.0000 </r>
       <r>    8.3715    1.0000 </r>
       <r>    8.5959    1.0000 </r>
       <r>    8.7263    1.0000 </r>
       <r>    9.5601    1.0000 </r>
       <r>   13.0780    0.0000 </r>
       <r>   18.4078    0.0000 </r>
       <r>   24.9259    0.0000 </r>
       <r>   27.1547    0.0000 </r>
       <r>   30.9445    0.0000 </r>
      </set>
      <set comment="kpoint 29">
       <r>    4.2263    1.0000 </r>
       <r>    6.0760    1.0000 </r>
       <r>    6.4152    1.0000 </r>
       <r>    6.9330    1.0000 </r>
       <r>    7.5808    1.0000 </r>
       <r>    7.8529    1.0000 </r>
       <r>    8.0833    1.0000 </r>
       <r>    8.6987    1.0000 </r>
       <r>    9.0110    1.0000 </r>
       <r>    9.2283    1.0000 </r>
       <r>    9.6251    1.0000 </r>
       <r>   14.4664    0.0000 </r>
       <r>   19.1217    0.0000 </r>
       <r>   21.5028    0.0000 </r>
       <r>   25.6231    0.0000 </r>
       <r>   27.7688    0.0000 </r>
      </set>
      <set comment="kpoint 30">
       <r>    5.1218    1.0000 </r>
       <r>    5.8752    1.0000 </r>
       <r>    6.1783    1.0000 </r>
       <r>    6.9690    1.0000 </r>
       <r>    7.6143    1.0000 </r>
       <r>    7.9422    1.0000 </r>
       <r>    8.1321    1.0000 </r>
       <r>    9.1593    1.0000 </r>
       <r>    9.4182    1.0000 </r>
       <r>    9.5349    1.0000 </r>
       <r>   10.1193    1.0000 </r>
       <r>   15.5216    0.0000 </r>
       <r>   18.3149    0.0000 </r>
       <r>   20.7418    0.0000 </r>
       <r>   24.3231    0.0000 </r>
       <r>   25.1063    0.0000 </r>
      </set>
      <set comment="kpoint 31">
       <r>    5.4132    1.0000 </r>
       <r>    5.6906    1.0000 </r>
       <r>    6.1806    1.0000 </r>
       <r>    7.0261    1.0000 </r>
       <r>    7.5385    1.0000 </r>
       <r>    8.1285    1.0000 </r>
       <r>    8.3137    1.0000 </r>
       <r>    9.4907    1.0000 </r>
       <r>    9.5950    1.0000 </r>
       <r>    9.6318    1.0000 </r>
       <r>   11.3820    0.0000 </r>
       <r>   14.2546    0.0000 </r>
       <r>   18.8619    0.0000 </r>
       <r>   20.6708    0.0000 </r>
       <r>   23.5944    0.0000 </r>
       <r>   24.2247    0.0000 </r>
      </set>
      <set comment="kpoint 32">
       <r>    4.0949    1.0000 </r>
       <r>    6.2647    1.0000 </r>
       <r>    6.5094    1.0000 </r>
       <r>    6.7088    1.0000 </r>
       <r>    7.5917    1.0000 </r>
       <r>    7.7588    1.0000 </r>
       <r>    8.1062    1.0000 </r>
       <r>    8.4993    1.0000 </r>
       <r>    9.0201    1.0000 </r>
       <r>    9.2272    1.0000 </r>
       <r>    9.6208    1.0000 </r>
       <r>   14.3070    0.0000 </r>
       <r>   19.0999    0.0000 </r>
       <r>   23.1921    0.0000 </r>
       <r>   23.6772    0.0000 </r>
       <r>   29.3858    0.0000 </r>
      </set>
      <set comment="kpoint 33">
       <r>    5.1247    1.0000 </r>
       <r>    6.1713    1.0000 </r>
       <r>    6.2611    1.0000 </r>
       <r>    6.7031    1.0000 </r>
       <r>    7.4907    1.0000 </r>
       <r>    7.9080    1.0000 </r>
       <r>    7.9422    1.0000 </r>
       <r>    8.7772    1.0000 </r>
       <r>    9.4393    1.0000 </r>
       <r>    9.4462    1.0000 </r>
       <r>   10.1949    0.9789 </r>
       <r>   15.6610    0.0000 </r>
       <r>   19.5612    0.0000 </r>
       <r>   20.7088    0.0000 </r>
       <r>   22.2749    0.0000 </r>
       <r>   26.6325    0.0000 </r>
      </set>
      <set comment="kpoint 34">
       <r>    5.6356    1.0000 </r>
       <r>    6.0302    1.0000 </r>
       <r>    6.1860    1.0000 </r>
       <r>    6.8370    1.0000 </r>
       <r>    7.4625    1.0000 </r>
       <r>    7.8724    1.0000 </r>
       <r>    8.1343    1.0000 </r>
       <r>    9.1586    1.0000 </r>
       <r>    9.4583    1.0000 </r>
       <r>    9.6425    1.0000 </r>
       <r>   11.3792    0.0000 </r>
       <r>   15.7812    0.0000 </r>
       <r>   18.5087    0.0000 </r>
       <r>   21.2295    0.0000 </r>
       <r>   21.6210    0.0000 </r>
       <r>   24.4064    0.0000 </r>
      </set>
      <set comment="kpoint 35">
       <r>    5.6675    1.0000 </r>
       <r>    5.9406    1.0000 </r>
[...]
       </set>
       <set comment="band 12">
        <r>  0.0541  0.0022  0.0151  0.0734  0.0221  0.0036  0.0289  0.0797  0.2326 </r>
        <r>  0.0223  0.0009  0.0367  0.0302  0.0091  0.0088  0.0119  0.1935  0.0959 </r>
       </set>
       <set comment="band 13">
        <r>  0.0482  0.0702  0.0289  0.0364  0.0975  0.0328  0.0123  0.0441  0.0032 </r>
        <r>  0.0661  0.0962  0.0211  0.0499  0.1336  0.0239  0.0168  0.0322  0.0044 </r>
       </set>
       <set comment="band 14">
        <r>  0.0661  0.0962  0.0211  0.0499  0.1336  0.0239  0.0168  0.0322  0.0044 </r>
        <r>  0.0482  0.0702  0.0289  0.0364  0.0975  0.0328  0.0123  0.0441  0.0032 </r>
       </set>
       <set comment="band 15">
        <r>  0.1437  0.1139  0.0004  0.1744  0.1079  0.0019  0.0616  0.0020  0.0020 </r>
        <r>  0.0035  0.0028  0.0178  0.0043  0.0026  0.0790  0.0015  0.0797  0.0000 </r>
       </set>
       <set comment="band 16">
        <r>  0.0035  0.0028  0.0178  0.0043  0.0026  0.0790  0.0015  0.0797  0.0000 </r>
        <r>  0.1437  0.1139  0.0004  0.1744  0.1079  0.0019  0.0616  0.0020  0.0020 </r>
       </set>
      </set>
      <set comment="kpoint 91">
       <set comment="band 1">
        <r>  0.0245  0.0019  0.0136  0.0094  0.0279  0.0353  0.0073  0.2990  0.0153 </r>
        <r>  0.0916  0.0071  0.0036  0.0351  0.1043  0.0094  0.0274  0.0799  0.0572 </r>
       </set>
       <set comment="band 2">
        <r>  0.0916  0.0071  0.0036  0.0351  0.1043  0.0094  0.0274  0.0799  0.0572 </r>
        <r>  0.0245  0.0019  0.0136  0.0094  0.0279  0.0353  0.0073  0.2990  0.0153 </r>
       </set>
       <set comment="band 3">
        <r>  0.0001  0.0006  0.0192  0.0004  0.0096  0.0208  0.0038  0.1171  0.0017 </r>
        <r>  0.0068  0.0284  0.0004  0.0201  0.4375  0.0005  0.1738  0.0026  0.0796 </r>
       </set>
       <set comment="band 4">
        <r>  0.0068  0.0284  0.0004  0.0201  0.4375  0.0005  0.1738  0.0026  0.0796 </r>
        <r>  0.0001  0.0006  0.0192  0.0004  0.0096  0.0208  0.0038  0.1171  0.0017 </r>
       </set>
       <set comment="band 5">
        <r>  0.0042  0.0068  0.0223  0.0258  0.0210  0.2434  0.0471  0.0077  0.0259 </r>
        <r>  0.0125  0.0204  0.0075  0.0771  0.0630  0.0814  0.1408  0.0026  0.0774 </r>
       </set>
       <set comment="band 6">
        <r>  0.0125  0.0204  0.0075  0.0771  0.0630  0.0814  0.1408  0.0026  0.0774 </r>
        <r>  0.0042  0.0068  0.0223  0.0258  0.0210  0.2434  0.0471  0.0077  0.0259 </r>
       </set>
       <set comment="band 7">
        <r>  0.0054  0.0062  0.0004  0.0134  0.1266  0.0476  0.0507  0.0091  0.1871 </r>
        <r>  0.0007  0.0008  0.0032  0.0016  0.0155  0.3895  0.0062  0.0746  0.0229 </r>
       </set>
       <set comment="band 8">
        <r>  0.0007  0.0008  0.0032  0.0016  0.0155  0.3895  0.0062  0.0746  0.0229 </r>
        <r>  0.0054  0.0062  0.0004  0.0134  0.1266  0.0476  0.0507  0.0091  0.1871 </r>
       </set>
       <set comment="band 9">
        <r>  0.0000  0.0000  0.0034  0.0000  0.0001  0.0831  0.0019  0.2015  0.0007 </r>
        <r>  0.0002  0.0001  0.0000  0.0029  0.0205  0.0003  0.4848  0.0008  0.1877 </r>
       </set>
       <set comment="band 10">
        <r>  0.0002  0.0001  0.0000  0.0029  0.0205  0.0003  0.4848  0.0008  0.1877 </r>
        <r>  0.0000  0.0000  0.0034  0.0000  0.0001  0.0831  0.0019  0.2015  0.0007 </r>
       </set>
       <set comment="band 11">
        <r>  0.0536  0.0174  0.0080  0.1722  0.0307  0.0012  0.0117  0.0143  0.3088 </r>
        <r>  0.0065  0.0021  0.0663  0.0208  0.0037  0.0096  0.0014  0.1184  0.0373 </r>
       </set>
       <set comment="band 12">
        <r>  0.0065  0.0021  0.0663  0.0208  0.0037  0.0096  0.0014  0.1184  0.0373 </r>
        <r>  0.0536  0.0174  0.0080  0.1722  0.0307  0.0012  0.0117  0.0143  0.3088 </r>
       </set>
       <set comment="band 13">
        <r>  0.0381  0.0203  0.0347  0.0071  0.0342  0.0534  0.0035  0.0910  0.0022 </r>
        <r>  0.1929  0.1029  0.0069  0.0362  0.1728  0.0106  0.0178  0.0180  0.0113 </r>
       </set>
       <set comment="band 14">
        <r>  0.1929  0.1029  0.0069  0.0362  0.1728  0.0106  0.0178  0.0180  0.0113 </r>
        <r>  0.0381  0.0203  0.0347  0.0071  0.0342  0.0534  0.0035  0.0910  0.0022 </r>
       </set>
       <set comment="band 15">
        <r>  0.0050  0.0057  0.0199  0.0037  0.0034  0.0978  0.0014  0.0591  0.0001 </r>
        <r>  0.1514  0.1734  0.0007  0.1138  0.1025  0.0032  0.0422  0.0019  0.0031 </r>
       </set>
       <set comment="band 16">
        <r>  0.1514  0.1734  0.0007  0.1138  0.1025  0.0032  0.0422  0.0019  0.0031 </r>
        <r>  0.0050  0.0057  0.0199  0.0037  0.0034  0.0978  0.0014  0.0591  0.0001 </r>
       </set>
      </set>
      <set comment="kpoint 92">
       <set comment="band 1">
        <r>  0.0187  0.0045  0.0031  0.0036  0.0405  0.0852  0.0082  0.2556  0.0141 </r>
        <r>  0.0711  0.0172  0.0008  0.0137  0.1539  0.0224  0.0312  0.0672  0.0537 </r>
       </set>
       <set comment="band 2">
        <r>  0.0711  0.0172  0.0008  0.0137  0.1539  0.0224  0.0312  0.0672  0.0537 </r>
        <r>  0.0187  0.0045  0.0031  0.0036  0.0405  0.0852  0.0082  0.2556  0.0141 </r>
       </set>
       <set comment="band 3">
        <r>  0.0000  0.0015  0.0114  0.0013  0.0220  0.0648  0.0150  0.1120  0.0080 </r>
        <r>  0.0001  0.0211  0.0008  0.0188  0.3129  0.0046  0.2128  0.0079  0.1140 </r>
       </set>
       <set comment="band 4">
        <r>  0.0001  0.0211  0.0008  0.0188  0.3129  0.0046  0.2128  0.0079  0.1140 </r>
        <r>  0.0000  0.0015  0.0114  0.0013  0.0220  0.0648  0.0150  0.1120  0.0080 </r>
       </set>
       <set comment="band 5">
        <r>  0.0080  0.0169  0.0193  0.0498  0.0266  0.1639  0.0365  0.0588  0.0607 </r>
        <r>  0.0085  0.0178  0.0184  0.0523  0.0279  0.1559  0.0383  0.0559  0.0638 </r>
       </set>
       <set comment="band 6">
        <r>  0.0085  0.0178  0.0184  0.0523  0.0279  0.1559  0.0383  0.0559  0.0638 </r>
        <r>  0.0080  0.0169  0.0193  0.0498  0.0266  0.1639  0.0365  0.0588  0.0607 </r>
       </set>
       <set comment="band 7">
        <r>  0.0002  0.0080  0.0034  0.0209  0.0814  0.1072  0.0193  0.0452  0.2093 </r>
        <r>  0.0001  0.0050  0.0054  0.0129  0.0502  0.1739  0.0119  0.0733  0.1290 </r>
       </set>
       <set comment="band 8">
        <r>  0.0001  0.0050  0.0054  0.0129  0.0502  0.1739  0.0119  0.0733  0.1290 </r>
        <r>  0.0002  0.0080  0.0034  0.0209  0.0814  0.1072  0.0193  0.0452  0.2093 </r>
       </set>
       <set comment="band 9">
        <r>  0.0001  0.0002  0.0013  0.0001  0.0128  0.0859  0.1198  0.1315  0.0151 </r>
        <r>  0.0002  0.0008  0.0003  0.0003  0.0486  0.0226  0.4557  0.0346  0.0573 </r>
       </set>
       <set comment="band 10">
        <r>  0.0002  0.0008  0.0003  0.0003  0.0486  0.0226  0.4557  0.0346  0.0573 </r>
        <r>  0.0001  0.0002  0.0013  0.0001  0.0128  0.0859  0.1198  0.1315  0.0151 </r>
       </set>
       <set comment="band 11">
        <r>  0.0044  0.0383  0.0494  0.1115  0.0494  0.0183  0.0069  0.0207  0.1162 </r>
        <r>  0.0048  0.0419  0.0452  0.1218  0.0539  0.0168  0.0075  0.0190  0.1270 </r>
       </set>
       <set comment="band 12">
        <r>  0.0048  0.0419  0.0452  0.1218  0.0539  0.0168  0.0075  0.0190  0.1270 </r>
        <r>  0.0044  0.0383  0.0494  0.1115  0.0494  0.0183  0.0069  0.0207  0.1162 </r>
       </set>
       <set comment="band 13">
        <r>  0.1283  0.0181  0.0174  0.0116  0.0674  0.0326  0.0061  0.0964  0.0236 </r>
        <r>  0.1919  0.0270  0.0116  0.0173  0.1008  0.0218  0.0092  0.0645  0.0353 </r>
       </set>
       <set comment="band 14">
        <r>  0.1919  0.0270  0.0116  0.0173  0.1008  0.0218  0.0092  0.0645  0.0353 </r>
        <r>  0.1283  0.0181  0.0174  0.0116  0.0674  0.0326  0.0061  0.0964  0.0236 </r>
       </set>
       <set comment="band 15">
        <r>  0.1585  0.2215  0.0002  0.0739  0.0753  0.0014  0.0385  0.0006  0.0251 </r>
        <r>  0.0020  0.0027  0.0203  0.0009  0.0009  0.1159  0.0005  0.0456  0.0003 </r>
       </set>
       <set comment="band 16">
        <r>  0.0020  0.0027  0.0203  0.0009  0.0009  0.1159  0.0005  0.0456  0.0003 </r>
        <r>  0.1585  0.2215  0.0002  0.0739  0.0753  0.0014  0.0385  0.0006  0.0251 </r>
       </set>
      </set>
      <set comment="kpoint 93">
       <set comment="band 1">
        <r>  0.0875  0.0081  0.0056  0.0500  0.0338  0.0001  0.0393  0.1099  0.0500 </r>
        <r>  0.0270  0.0025  0.0181  0.0154  0.0104  0.0003  0.0121  0.3563  0.0154 </r>
       </set>
       <set comment="band 2">
        <r>  0.0270  0.0025  0.0181  0.0154  0.0104  0.0003  0.0121  0.3563  0.0154 </r>
        <r>  0.0875  0.0081  0.0056  0.0500  0.0338  0.0001  0.0393  0.1099  0.0500 </r>
       </set>
       <set comment="band 3">
        <r>  0.0148  0.0365  0.0129  0.0081  0.4015  0.0282  0.0042  0.0000  0.0244 </r>
        <r>  0.0094  0.0231  0.0204  0.0052  0.2544  0.0445  0.0027  0.0000  0.0155 </r>
       </set>
       <set comment="band 4">
        <r>  0.0094  0.0231  0.0204  0.0052  0.2544  0.0445  0.0027  0.0000  0.0155 </r>
        <r>  0.0148  0.0365  0.0129  0.0081  0.4015  0.0282  0.0042  0.0000  0.0244 </r>
       </set>
       <set comment="band 5">
        <r>  0.0004  0.0000  0.0073  0.0252  0.0005  0.1882  0.0892  0.0200  0.0434 </r>
        <r>  0.0011  0.0000  0.0025  0.0731  0.0015  0.0650  0.2584  0.0069  0.1258 </r>
       </set>
       <set comment="band 6">
        <r>  0.0011  0.0000  0.0025  0.0731  0.0015  0.0650  0.2584  0.0069  0.1258 </r>
        <r>  0.0004  0.0000  0.0073  0.0252  0.0005  0.1882  0.0892  0.0200  0.0434 </r>
       </set>
       <set comment="band 7">
        <r>  0.0049  0.0000  0.0000  0.0007  0.0650  0.2373  0.0213  0.0433  0.1048 </r>
        <r>  0.0045  0.0000  0.0000  0.0006  0.0599  0.2578  0.0196  0.0471  0.0965 </r>
       </set>
       <set comment="band 8">
        <r>  0.0045  0.0000  0.0000  0.0006  0.0599  0.2578  0.0196  0.0471  0.0965 </r>
        <r>  0.0049  0.0000  0.0000  0.0007  0.0650  0.2373  0.0213  0.0433  0.1048 </r>
       </set>
       <set comment="band 9">
        <r>  0.0000  0.0001  0.0000  0.0031  0.0091  0.0007  0.5038  0.0017  0.1625 </r>
        <r>  0.0000  0.0000  0.0032  0.0000  0.0001  0.0901  0.0041  0.2092  0.0013 </r>
       </set>
       <set comment="band 10">
        <r>  0.0000  0.0000  0.0032  0.0000  0.0001  0.0901  0.0041  0.2092  0.0013 </r>
        <r>  0.0000  0.0001  0.0000  0.0031  0.0091  0.0007  0.5038  0.0017  0.1625 </r>
       </set>
       <set comment="band 11">
        <r>  0.0362  0.0016  0.0408  0.0841  0.0090  0.0038  0.0006  0.0801  0.1705 </r>
        <r>  0.0432  0.0019  0.0341  0.1005  0.0107  0.0032  0.0007  0.0671  0.2037 </r>
       </set>
       <set comment="band 12">
        <r>  0.0432  0.0019  0.0341  0.1005  0.0107  0.0032  0.0007  0.0671  0.2037 </r>
        <r>  0.0362  0.0016  0.0408  0.0841  0.0090  0.0038  0.0006  0.0801  0.1705 </r>
       </set>
       <set comment="band 13">
        <r>  0.0004  0.2954  0.0032  0.0071  0.3061  0.0020  0.0020  0.0034  0.0013 </r>
        <r>  0.0000  0.0153  0.0627  0.0004  0.0158  0.0395  0.0001  0.0654  0.0001 </r>
       </set>
       <set comment="band 14">
        <r>  0.0000  0.0153  0.0627  0.0004  0.0158  0.0395  0.0001  0.0654  0.0001 </r>
        <r>  0.0004  0.2954  0.0032  0.0071  0.3061  0.0020  0.0020  0.0034  0.0013 </r>
       </set>
       <set comment="band 15">
        <r>  0.1072  0.0003  0.0032  0.0479  0.0003  0.0888  0.0178  0.0625  0.0000 </r>
        <r>  0.2665  0.0008  0.0013  0.1189  0.0007  0.0357  0.0442  0.0252  0.0001 </r>
       </set>
       <set comment="band 16">
        <r>  0.2665  0.0008  0.0013  0.1189  0.0007  0.0357  0.0442  0.0252  0.0001 </r>
        <r>  0.1072  0.0003  0.0032  0.0479  0.0003  0.0888  0.0178  0.0625  0.0000 </r>
       </set>
      </set>
      <set comment="kpoint 94">
       <set comment="band 1">
        <r>  0.0612  0.0241  0.0002  0.0351  0.1075  0.0020  0.0695  0.0215  0.0601 </r>
        <r>  0.0031  0.0012  0.0035  0.0018  0.0054  0.0392  0.0035  0.4248  0.0030 </r>
       </set>
       <set comment="band 2">
        <r>  0.0031  0.0012  0.0035  0.0018  0.0054  0.0392  0.0035  0.4248  0.0030 </r>
        <r>  0.0612  0.0241  0.0002  0.0351  0.1075  0.0020  0.0695  0.0215  0.0601 </r>
       </set>
       <set comment="band 3">
        <r>  0.0114  0.0348  0.0023  0.0016  0.2293  0.0722  0.1233  0.0217  0.0126 </r>
        <r>  0.0047  0.0144  0.0054  0.0007  0.0949  0.1744  0.0511  0.0525  0.0052 </r>
       </set>
       <set comment="band 4">
        <r>  0.0047  0.0144  0.0054  0.0007  0.0949  0.1744  0.0511  0.0525  0.0052 </r>
        <r>  0.0114  0.0348  0.0023  0.0016  0.2293  0.0722  0.1233  0.0217  0.0126 </r>
       </set>
       <set comment="band 5">
        <r>  0.0051  0.0163  0.0120  0.0816  0.1315  0.0512  0.0403  0.0018  0.1960 </r>
        <r>  0.0022  0.0069  0.0285  0.0344  0.0555  0.1213  0.0170  0.0042  0.0827 </r>
       </set>
       <set comment="band 6">
        <r>  0.0022  0.0069  0.0285  0.0344  0.0555  0.1213  0.0170  0.0042  0.0827 </r>
        <r>  0.0051  0.0163  0.0120  0.0816  0.1315  0.0512  0.0403  0.0018  0.1960 </r>
       </set>
       <set comment="band 7">
        <r>  0.0000  0.0000  0.0014  0.0001  0.0010  0.3211  0.0001  0.1308  0.0019 </r>
        <r>  0.0032  0.0025  0.0000  0.0111  0.1645  0.0020  0.0213  0.0008  0.3010 </r>
       </set>
       <set comment="band 8">
        <r>  0.0032  0.0025  0.0000  0.0111  0.1645  0.0020  0.0213  0.0008  0.3010 </r>
        <r>  0.0000  0.0000  0.0014  0.0001  0.0010  0.3211  0.0001  0.1308  0.0019 </r>
       </set>
       <set comment="band 9">
        <r>  0.0013  0.0002  0.0000  0.0017  0.0101  0.0005  0.6312  0.0009  0.0491 </r>
        <r>  0.0000  0.0000  0.0011  0.0000  0.0001  0.1051  0.0033  0.1820  0.0003 </r>
       </set>
       <set comment="band 10">
        <r>  0.0000  0.0000  0.0011  0.0000  0.0001  0.1051  0.0033  0.1820  0.0003 </r>
        <r>  0.0013  0.0002  0.0000  0.0017  0.0101  0.0005  0.6312  0.0009  0.0491 </r>
       </set>
       <set comment="band 11">
        <r>  0.0027  0.0022  0.0988  0.0204  0.0032  0.0094  0.0001  0.0603  0.0243 </r>
        <r>  0.0321  0.0260  0.0083  0.2411  0.0377  0.0008  0.0015  0.0051  0.2874 </r>
       </set>
       <set comment="band 12">
        <r>  0.0321  0.0260  0.0083  0.2411  0.0377  0.0008  0.0015  0.0051  0.2874 </r>
        <r>  0.0027  0.0022  0.0988  0.0204  0.0032  0.0094  0.0001  0.0603  0.0243 </r>
       </set>
       <set comment="band 13">
        <r>  0.1206  0.1970  0.0042  0.0150  0.2192  0.0058  0.0065  0.0114  0.0142 </r>
        <r>  0.0140  0.0228  0.0358  0.0017  0.0254  0.0502  0.0008  0.0985  0.0016 </r>
       </set>
       <set comment="band 14">
        <r>  0.0140  0.0228  0.0358  0.0017  0.0254  0.0502  0.0008  0.0985  0.0016 </r>
        <r>  0.1206  0.1970  0.0042  0.0150  0.2192  0.0058  0.0065  0.0114  0.0142 </r>
       </set>
       <set comment="band 15">
        <r>  0.2792  0.0701  0.0027  0.0556  0.0345  0.0271  0.0342  0.0151  0.0049 </r>
        <r>  0.0715  0.0179  0.0104  0.0142  0.0088  0.1059  0.0087  0.0592  0.0013 </r>
       </set>
       <set comment="band 16">
        <r>  0.0715  0.0179  0.0104  0.0142  0.0088  0.1059  0.0087  0.0592  0.0013 </r>
        <r>  0.2792  0.0701  0.0027  0.0556  0.0345  0.0271  0.0342  0.0151  0.0049 </r>
       </set>
      </set>
      <set comment="kpoint 95">
       <set comment="band 1">
        <r>  0.0000  0.0506  0.0000  0.0506  0.1176  0.0440  0.0000  0.0440  0.1176 </r>
        <r>  0.0000  0.0134  0.0000  0.0134  0.0312  0.1659  0.0000  0.1659  0.0312 </r>
       </set>
       <set comment="band 2">
        <r>  0.0000  0.0134  0.0000  0.0134  0.0312  0.1659  0.0000  0.1659  0.0312 </r>
        <r>  0.0000  0.0506  0.0000  0.0506  0.1176  0.0440  0.0000  0.0440  0.1176 </r>
       </set>
       <set comment="band 3">
        <r>  0.0682  0.0000  0.0000  0.0000  0.0000  0.0045  0.2623  0.0045  0.0000 </r>
        <r>  0.0010  0.0000  0.0000  0.0000  0.0000  0.2898  0.0040  0.2898  0.0000 </r>
       </set>
       <set comment="band 4">
        <r>  0.0010  0.0000  0.0000  0.0000  0.0000  0.2898  0.0040  0.2898  0.0000 </r>
        <r>  0.0682  0.0000  0.0000  0.0000  0.0000  0.0045  0.2623  0.0045  0.0000 </r>
       </set>
       <set comment="band 5">
        <r>  0.0000  0.0504  0.0129  0.0504  0.2605  0.0000  0.0000  0.0000  0.2605 </r>
        <r>  0.0000  0.0186  0.0348  0.0186  0.0963  0.0000  0.0000  0.0000  0.0963 </r>
       </set>
       <set comment="band 6">
        <r>  0.0000  0.0186  0.0348  0.0186  0.0963  0.0000  0.0000  0.0000  0.0963 </r>
        <r>  0.0000  0.0504  0.0129  0.0504  0.2605  0.0000  0.0000  0.0000  0.2605 </r>
       </set>
       <set comment="band 7">
        <r>  0.0000  0.0025  0.0000  0.0025  0.1681  0.0769  0.0000  0.0769  0.1681 </r>
        <r>  0.0000  0.0013  0.0000  0.0013  0.0904  0.1430  0.0000  0.1430  0.0904 </r>
       </set>
       <set comment="band 8">
        <r>  0.0000  0.0013  0.0000  0.0013  0.0904  0.1430  0.0000  0.1430  0.0904 </r>
        <r>  0.0000  0.0025  0.0000  0.0025  0.1681  0.0769  0.0000  0.0769  0.1681 </r>
       </set>
       <set comment="band 9">
        <r>  0.0009  0.0000  0.0000  0.0000  0.0000  0.1090  0.1637  0.1090  0.0000 </r>
        <r>  0.0029  0.0000  0.0000  0.0000  0.0000  0.0335  0.5331  0.0335  0.0000 </r>
       </set>
       <set comment="band 10">
        <r>  0.0029  0.0000  0.0000  0.0000  0.0000  0.0335  0.5331  0.0335  0.0000 </r>
        <r>  0.0009  0.0000  0.0000  0.0000  0.0000  0.1090  0.1637  0.1090  0.0000 </r>
       </set>
       <set comment="band 11">
        <r>  0.0000  0.0123  0.1555  0.0123  0.0136  0.0000  0.0000  0.0000  0.0136 </r>
        <r>  0.0000  0.1519  0.0125  0.1519  0.1683  0.0000  0.0000  0.0000  0.1683 </r>
       </set>
       <set comment="band 12">
        <r>  0.0000  0.1519  0.0125  0.1519  0.1683  0.0000  0.0000  0.0000  0.1683 </r>
        <r>  0.0000  0.0123  0.1555  0.0123  0.0136  0.0000  0.0000  0.0000  0.0136 </r>
       </set>
       <set comment="band 13">
        <r>  0.0000  0.1708  0.0000  0.1708  0.1316  0.0040  0.0000  0.0040  0.1316 </r>
        <r>  0.0000  0.0079  0.0000  0.0079  0.0061  0.0876  0.0000  0.0876  0.0061 </r>
       </set>
       <set comment="band 14">
        <r>  0.0000  0.0079  0.0000  0.0079  0.0061  0.0876  0.0000  0.0876  0.0061 </r>
        <r>  0.0000  0.1708  0.0000  0.1708  0.1316  0.0040  0.0000  0.0040  0.1316 </r>
       </set>
       <set comment="band 15">
        <r>  0.5220  0.0000  0.0000  0.0000  0.0000  0.0056  0.0442  0.0056  0.0000 </r>
        <r>  0.0233  0.0000  0.0000  0.0000  0.0000  0.1247  0.0020  0.1247  0.0000 </r>
       </set>
       <set comment="band 16">
        <r>  0.0233  0.0000  0.0000  0.0000  0.0000  0.1247  0.0020  0.1247  0.0000 </r>
        <r>  0.5220  0.0000  0.0000  0.0000  0.0000  0.0056  0.0442  0.0056  0.0000 </r>
       </set>
      </set>
     </set>
    </set>
   </array>
  </projected>
 </calculation>
 <structure name="finalpos" >
  <crystal>
   <varray name="basis" >
    <v>       1.24613780      -2.15837399      -0.00000000 </v>
    <v>       1.24613780       2.15837399       0.00000000 </v>
    <v>       0.00000000       0.00000000       4.02015843 </v>
   </varray>
   <i name="volume">     21.62548890 </i>
   <varray name="rec_basis" >
    <v>       0.40123973      -0.23165587      -0.00000000 </v>
    <v>       0.40123973       0.23165587      -0.00000000 </v>
    <v>      -0.00000000      -0.00000000       0.24874642 </v>
   </varray>
  </crystal>
  <varray name="positions" >
   <v>       0.33333333       0.66666667       0.25000000 </v>
   <v>       0.66666667       0.33333333       0.75000000 </v>
  </varray>
 </structure>
</modeling>
