<?xml version="1.0" encoding="ISO-8859-1"?>
<modeling>
 <generator>
  <i name="program" type="string">vasp </i>
  <i name="version" type="string">6.3.2  </i>
  <i name="subversion" type="string">27Jun22 (build Aug 12 2022 00:53:59) complex                          parallel </i>
  <i name="platform" type="string">tv2STD </i>
  <i name="date" type="string">2024 11 30 </i>
  <i name="time" type="string">15:44:56 </i>
 </generator>
 <incar>
  <i type="string" name="SYSTEM">Co-hcc</i>
  <i type="int" name="ISTART">     0</i>
  <i type="string" name="PREC">Accurate      normal | accurate</i>
  <i type="string" name="ALGO">Normal     Normal, Fast, Very_Fast</i>
  <i type="logical" name="ADDGRID"> F  </i>
  <i type="int" name="ISPIN">     2</i>
  <i type="int" name="ICHARG">     2</i>
  <i type="int" name="INIWAV">     1</i>
  <i type="int" name="NELM">   100</i>
  <i type="int" name="IBRION">     2</i>
  <i name="EDIFF">      0.00000100</i>
  <i name="EDIFFG">     -0.02000000</i>
  <i type="int" name="NSW">   100</i>
  <i type="int" name="ISIF">     3</i>
  <i type="int" name="ISYM">     1</i>
  <i name="ENCUT">    400.00000000</i>
  <v name="MAGMOM">      3.00000000      3.00000000</v>
  <i type="logical" name="LREAL"> F  </i>
  <i type="int" name="ISMEAR">     0</i>
  <i name="SIGMA">      0.05000000</i>
  <i type="int" name="NWRITE">     2</i>
  <i type="logical" name="LWAVE"> T  </i>
  <i type="logical" name="LCHARG"> T  </i>
  <i type="int" name="LORBIT">    11</i>
 </incar>
 <primitive_cell>
  <structure name="primitive_cell" >
   <crystal>
    <varray name="basis" >
     <v>       2.47000000       0.00000000       0.00000000 </v>
     <v>      -1.23500000       2.13908275       0.00000000 </v>
     <v>       0.00000000       0.00000000       8.09000000 </v>
    </varray>
    <i name="volume">     42.74379318 </i>
    <varray name="rec_basis" >
     <v>       0.40485830       0.23374505       0.00000000 </v>
     <v>       0.00000000       0.46749010       0.00000000 </v>
     <v>       0.00000000       0.00000000       0.12360939 </v>
    </varray>
   </crystal>
   <varray name="positions" >
    <v>       0.00000000       0.00000000       0.00000000 </v>
    <v>       0.33333333       0.66666667       0.50000000 </v>
   </varray>
  </structure>
  <varray name="primitive_index" >
   <v type="int" >        1 </v>
   <v type="int" >        2 </v>
  </varray>
 </primitive_cell>
 <kpoints>
  <generation param="Gamma">
   <v type="int" name="divisions">      10       10        8 </v>
   <v name="usershift">      0.00000000       0.00000000       0.00000000 </v>
   <v name="genvec1">      0.10000000       0.00000000       0.00000000 </v>
   <v name="genvec2">      0.00000000       0.10000000       0.00000000 </v>
   <v name="genvec3">      0.00000000       0.00000000       0.12500000 </v>
   <v name="shift">      0.00000000       0.00000000       0.00000000 </v>
  </generation>
  <varray name="kpointlist" >
   <v>       0.00000000       0.00000000       0.00000000 </v>
   <v>       0.10000000      -0.00000000       0.00000000 </v>
   <v>       0.20000000      -0.00000000       0.00000000 </v>
   <v>       0.30000000      -0.00000000       0.00000000 </v>
   <v>       0.40000000      -0.00000000       0.00000000 </v>
   <v>       0.50000000      -0.00000000       0.00000000 </v>
   <v>       0.10000000       0.10000000       0.00000000 </v>
   <v>       0.20000000       0.10000000       0.00000000 </v>
   <v>       0.30000000       0.10000000       0.00000000 </v>
   <v>       0.40000000       0.10000000       0.00000000 </v>
   <v>       0.20000000       0.20000000       0.00000000 </v>
   <v>       0.30000000       0.20000000       0.00000000 </v>
   <v>       0.40000000       0.20000000       0.00000000 </v>
   <v>       0.30000000       0.30000000       0.00000000 </v>
   <v>       0.00000000       0.00000000       0.12500000 </v>
   <v>       0.10000000      -0.00000000       0.12500000 </v>
   <v>       0.20000000      -0.00000000       0.12500000 </v>
   <v>       0.30000000      -0.00000000       0.12500000 </v>
   <v>       0.40000000      -0.00000000       0.12500000 </v>
   <v>       0.50000000      -0.00000000       0.12500000 </v>
   <v>       0.10000000       0.10000000       0.12500000 </v>
   <v>       0.20000000       0.10000000       0.12500000 </v>
   <v>       0.30000000       0.10000000       0.12500000 </v>
   <v>       0.40000000       0.10000000       0.12500000 </v>
   <v>       0.20000000       0.20000000       0.12500000 </v>
   <v>       0.30000000       0.20000000       0.12500000 </v>
   <v>       0.40000000       0.20000000       0.12500000 </v>
   <v>       0.30000000       0.30000000       0.12500000 </v>
   <v>       0.00000000       0.00000000       0.25000000 </v>
   <v>       0.10000000      -0.00000000       0.25000000 </v>
   <v>       0.20000000      -0.00000000       0.25000000 </v>
   <v>       0.30000000      -0.00000000       0.25000000 </v>
   <v>       0.40000000      -0.00000000       0.25000000 </v>
   <v>       0.50000000      -0.00000000       0.25000000 </v>
   <v>       0.10000000       0.10000000       0.25000000 </v>
   <v>       0.20000000       0.10000000       0.25000000 </v>
   <v>       0.30000000       0.10000000       0.25000000 </v>
   <v>       0.40000000       0.10000000       0.25000000 </v>
   <v>       0.20000000       0.20000000       0.25000000 </v>
   <v>       0.30000000       0.20000000       0.25000000 </v>
   <v>       0.40000000       0.20000000       0.25000000 </v>
   <v>       0.30000000       0.30000000       0.25000000 </v>
   <v>       0.00000000       0.00000000       0.37500000 </v>
   <v>       0.10000000      -0.00000000       0.37500000 </v>
   <v>       0.20000000      -0.00000000       0.37500000 </v>
   <v>       0.30000000      -0.00000000       0.37500000 </v>
   <v>       0.40000000      -0.00000000       0.37500000 </v>
   <v>       0.50000000      -0.00000000       0.37500000 </v>
   <v>       0.10000000       0.10000000       0.37500000 </v>
   <v>       0.20000000       0.10000000       0.37500000 </v>
   <v>       0.30000000       0.10000000       0.37500000 </v>
   <v>       0.40000000       0.10000000       0.37500000 </v>
   <v>       0.20000000       0.20000000       0.37500000 </v>
   <v>       0.30000000       0.20000000       0.37500000 </v>
   <v>       0.40000000       0.20000000       0.37500000 </v>
   <v>       0.30000000       0.30000000       0.37500000 </v>
   <v>       0.00000000       0.00000000       0.50000000 </v>
   <v>       0.10000000      -0.00000000       0.50000000 </v>
   <v>       0.20000000      -0.00000000       0.50000000 </v>
   <v>       0.30000000      -0.00000000       0.50000000 </v>
   <v>       0.40000000      -0.00000000       0.50000000 </v>
   <v>       0.50000000      -0.00000000       0.50000000 </v>
   <v>       0.10000000       0.10000000       0.50000000 </v>
   <v>       0.20000000       0.10000000       0.50000000 </v>
   <v>       0.30000000       0.10000000       0.50000000 </v>
   <v>       0.40000000       0.10000000       0.50000000 </v>
   <v>       0.20000000       0.20000000       0.50000000 </v>
   <v>       0.30000000       0.20000000       0.50000000 </v>
   <v>       0.40000000       0.20000000       0.50000000 </v>
   <v>       0.30000000       0.30000000       0.50000000 </v>
  </varray>
  <varray name="weights" >
   <v>       0.00125000 </v>
   <v>       0.00750000 </v>
   <v>       0.00750000 </v>
   <v>       0.00750000 </v>
   <v>       0.00750000 </v>
   <v>       0.00375000 </v>
   <v>       0.00750000 </v>
   <v>       0.01500000 </v>
   <v>       0.01500000 </v>
   <v>       0.01500000 </v>
   <v>       0.00750000 </v>
   <v>       0.01500000 </v>
   <v>       0.00750000 </v>
   <v>       0.00750000 </v>
   <v>       0.00250000 </v>
   <v>       0.01500000 </v>
   <v>       0.01500000 </v>
   <v>       0.01500000 </v>
   <v>       0.01500000 </v>
   <v>       0.00750000 </v>
   <v>       0.01500000 </v>
   <v>       0.03000000 </v>
   <v>       0.03000000 </v>
   <v>       0.03000000 </v>
   <v>       0.01500000 </v>
   <v>       0.03000000 </v>
   <v>       0.01500000 </v>
   <v>       0.01500000 </v>
   <v>       0.00250000 </v>
   <v>       0.01500000 </v>
   <v>       0.01500000 </v>
   <v>       0.01500000 </v>
   <v>       0.01500000 </v>
   <v>       0.00750000 </v>
   <v>       0.01500000 </v>
   <v>       0.03000000 </v>
   <v>       0.03000000 </v>
   <v>       0.03000000 </v>
   <v>       0.01500000 </v>
   <v>       0.03000000 </v>
   <v>       0.01500000 </v>
   <v>       0.01500000 </v>
   <v>       0.00250000 </v>
   <v>       0.01500000 </v>
   <v>       0.01500000 </v>
   <v>       0.01500000 </v>
   <v>       0.01500000 </v>
   <v>       0.00750000 </v>
   <v>       0.01500000 </v>
   <v>       0.03000000 </v>
   <v>       0.03000000 </v>
   <v>       0.03000000 </v>
   <v>       0.01500000 </v>
   <v>       0.03000000 </v>
   <v>       0.01500000 </v>
   <v>       0.01500000 </v>
   <v>       0.00125000 </v>
   <v>       0.00750000 </v>
   <v>       0.00750000 </v>
   <v>       0.00750000 </v>
   <v>       0.00750000 </v>
   <v>       0.00375000 </v>
   <v>       0.00750000 </v>
   <v>       0.01500000 </v>
   <v>       0.01500000 </v>
   <v>       0.01500000 </v>
   <v>       0.00750000 </v>
   <v>       0.01500000 </v>
   <v>       0.00750000 </v>
   <v>       0.00750000 </v>
  </varray>
 </kpoints>
 <parameters>
  <separator name="general" >
   <i type="string" name="SYSTEM">Co-hcc</i>
   <i type="logical" name="LCOMPAT"> F  </i>
  </separator>
  <separator name="electronic" >
   <i type="string" name="PREC">accura</i>
   <i name="ENMAX">    400.00000000</i>
   <i name="ENAUG">    477.81800000</i>
   <i name="EDIFF">      0.00000100</i>
   <i type="int" name="IALGO">    38</i>
   <i type="int" name="IWAVPR">    11</i>
   <i type="int" name="NBANDS">    16</i>
   <i type="int" name="NBANDSLOW">    -1</i>
   <i type="int" name="NBANDSHIGH">    -1</i>
   <i name="NELECT">     18.00000000</i>
   <i type="int" name="TURBO">     0</i>
   <i type="int" name="IRESTART">     0</i>
   <i type="int" name="NREBOOT">     0</i>
   <i type="int" name="NMIN">     0</i>
   <i name="EREF">      0.00000000</i>
   <separator name="electronic smearing" >
    <i type="int" name="ISMEAR">     0</i>
    <i name="SIGMA">      0.05000000</i>
    <i name="KSPACING">      0.50000000</i>
    <i type="logical" name="KGAMMA"> T  </i>
    <i type="logical" name="KBLOWUP"> T  </i>
   </separator>
   <separator name="electronic projectors" >
    <i type="logical" name="LREAL"> F  </i>
    <v name="ROPT">      0.00000000</v>
    <i type="int" name="LMAXPAW">  -100</i>
    <i type="int" name="LMAXMIX">     2</i>
    <i type="logical" name="NLSPLINE"> F  </i>
   </separator>
   <separator name="electronic startup" >
    <i type="int" name="ISTART">     0</i>
    <i type="int" name="ICHARG">     2</i>
    <i type="int" name="INIWAV">     1</i>
   </separator>
   <separator name="electronic spin" >
    <i type="int" name="ISPIN">     2</i>
    <i type="logical" name="LNONCOLLINEAR"> F  </i>
    <v name="MAGMOM">      3.00000000      3.00000000</v>
    <i name="NUPDOWN">     -1.00000000</i>
    <i type="logical" name="LSORBIT"> F  </i>
    <v name="SAXIS">      0.00000000      0.00000000      1.00000000</v>
    <i type="logical" name="LSPIRAL"> F  </i>
    <v name="QSPIRAL">      0.00000000      0.00000000      0.00000000</v>
    <i type="logical" name="LZEROZ"> F  </i>
   </separator>
   <separator name="electronic exchange-correlation" >
    <i type="logical" name="LASPH"> F  </i>
    <i type="logical" name="LMETAGGA"> F  </i>
   </separator>
   <separator name="electronic convergence" >
    <i type="int" name="NELM">   100</i>
    <i type="int" name="NELMDL">    -5</i>
    <i type="int" name="NELMIN">     2</i>
    <i name="ENINI">    400.00000000</i>
    <separator name="electronic convergence detail" >
     <i type="logical" name="LDIAG"> T  </i>
     <i type="logical" name="LSUBROT"> F  </i>
     <i name="WEIMIN">      0.00100000</i>
     <i name="EBREAK">      0.00000002</i>
     <i name="DEPER">      0.30000000</i>
     <i type="int" name="NRMM">     4</i>
     <i name="TIME">      0.40000000</i>
    </separator>
   </separator>
   <separator name="electronic mixer" >
    <i name="AMIX">      0.40000000</i>
    <i name="BMIX">      1.00000000</i>
    <i name="AMIN">      0.10000000</i>
    <i name="AMIX_MAG">      1.60000000</i>
    <i name="BMIX_MAG">      1.00000000</i>
    <separator name="electronic mixer details" >
     <i type="int" name="IMIX">     4</i>
     <i type="logical" name="MIXFIRST"> F  </i>
     <i type="int" name="MAXMIX">   -45</i>
     <i name="WC">    100.00000000</i>
     <i type="int" name="INIMIX">     1</i>
     <i type="int" name="MIXPRE">     1</i>
     <i type="int" name="MREMOVE">     5</i>
    </separator>
   </separator>
   <separator name="electronic dipolcorrection" >
    <i type="logical" name="LDIPOL"> F  </i>
    <i type="logical" name="LMONO"> F  </i>
    <i type="int" name="IDIPOL">     0</i>
    <i name="EPSILON">      1.00000000</i>
    <v name="DIPOL">   -100.00000000   -100.00000000   -100.00000000</v>
    <i name="EFIELD">      0.00000000</i>
   </separator>
  </separator>
  <separator name="grids" >
   <i type="int" name="NGX">    16</i>
   <i type="int" name="NGY">    16</i>
   <i type="int" name="NGZ">    54</i>
   <i type="int" name="NGXF">    32</i>
   <i type="int" name="NGYF">    32</i>
   <i type="int" name="NGZF">   108</i>
   <i type="logical" name="ADDGRID"> F  </i>
  </separator>
  <separator name="ionic" >
   <i type="int" name="NSW">   100</i>
   <i type="int" name="IBRION">     2</i>
   <i type="int" name="MDALGO">     0</i>
   <i type="int" name="ISIF">     3</i>
   <i name="PSTRESS">      0.00000000</i>
   <i name="EDIFFG">     -0.02000000</i>
   <i type="int" name="NFREE">     1</i>
   <i name="POTIM">      0.50000000</i>
   <i name="SMASS">     -3.00000000</i>
   <i name="SCALEE">      1.00000000</i>
  </separator>
  <separator name="ionic md" >
   <i name="TEBEG">      0.00010000</i>
   <i name="TEEND">      0.00010000</i>
   <i type="int" name="NBLOCK">     1</i>
   <i type="int" name="KBLOCK">   100</i>
   <i type="int" name="NPACO">   256</i>
   <i name="APACO">     10.00000000</i>
  </separator>
  <separator name="symmetry" >
   <i type="int" name="ISYM">     1</i>
   <i name="SYMPREC">      0.00001000</i>
  </separator>
  <separator name="dos" >
   <i type="int" name="LORBIT">    11</i>
   <v name="RWIGS">     -1.00000000</v>
   <i type="int" name="NEDOS">   301</i>
   <i name="EMIN">     10.00000000</i>
   <i name="EMAX">    -10.00000000</i>
   <i name="EFERMI">      0.00000000</i>
  </separator>
  <separator name="writing" >
   <i type="int" name="NWRITE">     2</i>
   <i type="logical" name="LWAVE"> T  </i>
   <i type="logical" name="LDOWNSAMPLE"> F  </i>
   <i type="logical" name="LCHARG"> T  </i>
   <i type="logical" name="LPARD"> F  </i>
   <i type="logical" name="LVTOT"> F  </i>
   <i type="logical" name="LVHAR"> F  </i>
   <i type="logical" name="LELF"> F  </i>
   <i type="logical" name="LOPTICS"> F  </i>
   <v name="STM">      0.00000000      0.00000000      0.00000000      0.00000000      0.00000000      0.00000000      0.00000000</v>
  </separator>
  <separator name="performance" >
   <i type="int" name="NPAR">     4</i>
   <i type="int" name="NSIM">     4</i>
   <i type="int" name="NBLK">    -1</i>
   <i type="logical" name="LPLANE"> T  </i>
   <i type="logical" name="LSCALAPACK"> T  </i>
   <i type="logical" name="LSCAAWARE"> F  </i>
   <i type="logical" name="LSCALU"> F  </i>
   <i type="logical" name="LASYNC"> F  </i>
   <i type="logical" name="LORBITALREAL"> F  </i>
  </separator>
  <separator name="miscellaneous" >
   <i type="int" name="IDIOT">     3</i>
   <i type="int" name="PHON_NSTRUCT">    -1</i>
   <i type="logical" name="LMUSIC"> F  </i>
   <v name="POMASS">     58.93300000</v>
   <v name="DARWINR">      0.00000000</v>
   <v name="DARWINV">      1.00000000</v>
   <i type="logical" name="LCORR"> T  </i>
  </separator>
  <i type="logical" name="GGA_COMPAT"> T  </i>
  <i type="logical" name="LBERRY"> F  </i>
  <i type="int" name="ICORELEVEL">     0</i>
  <i type="logical" name="LDAU"> F  </i>
  <i type="int" name="I_CONSTRAINED_M">     0</i>
  <separator name="electronic exchange-correlation" >
   <i type="string" name="GGA">--</i>
   <i type="int" name="VOSKOWN">     0</i>
   <i type="logical" name="LHFCALC"> F  </i>
   <i type="string" name="PRECFOCK"></i>
   <i type="logical" name="LSYMGRAD"> F  </i>
   <i type="logical" name="LHFONE"> F  </i>
   <i type="logical" name="LRHFCALC"> F  </i>
   <i type="logical" name="LTHOMAS"> F  </i>
   <i type="logical" name="LMODELHF"> F  </i>
   <i type="logical" name="LFOCKACE"> F  </i>
   <i name="ENCUT4O">     -1.00000000</i>
   <i type="int" name="EXXOEP">     0</i>
   <i type="int" name="FOURORBIT">     0</i>
   <i name="AEXX">      0.00000000</i>
   <i name="HFALPHA">      0.00000000</i>
   <i name="MCALPHA">      0.00000000</i>
   <i name="ALDAX">      1.00000000</i>
   <i name="AGGAX">      1.00000000</i>
   <i name="ALDAC">      1.00000000</i>
   <i name="AGGAC">      1.00000000</i>
   <i type="int" name="NKREDX">     1</i>
   <i type="int" name="NKREDY">     1</i>
   <i type="int" name="NKREDZ">     1</i>
   <i type="logical" name="SHIFTRED"> F  </i>
   <i type="logical" name="ODDONLY"> F  </i>
   <i type="logical" name="EVENONLY"> F  </i>
   <i type="int" name="LMAXFOCK">     0</i>
   <i type="int" name="NMAXFOCKAE">     0</i>
   <i type="logical" name="LFOCKAEDFT"> F  </i>
   <i name="HFSCREEN">      0.00000000</i>
   <i name="HFSCREENC">      0.00000000</i>
   <i type="int" name="NBANDSGWLOW">     0</i>
  </separator>
  <separator name="vdW DFT" >
   <i type="logical" name="LUSE_VDW"> F  </i>
   <i name="Zab_VDW">     -0.84910000</i>
   <i name="PARAM1">      0.12340000</i>
   <i name="PARAM2">      1.00000000</i>
   <i name="PARAM3">      0.00000000</i>
  </separator>
  <separator name="model GW" >
   <i type="int" name="MODEL_GW">     0</i>
   <i name="MODEL_EPS0">     12.82313795</i>
   <i name="MODEL_ALPHA">      1.00000000</i>
  </separator>
  <separator name="linear response parameters" >
   <i type="logical" name="LEPSILON"> F  </i>
   <i type="logical" name="LRPA"> F  </i>
   <i type="logical" name="LNABLA"> F  </i>
   <i type="logical" name="LVEL"> F  </i>
   <i name="CSHIFT">      0.10000000</i>
   <i name="OMEGAMAX">     -1.00000000</i>
   <i name="DEG_THRESHOLD">      0.00200000</i>
   <i name="RTIME">     -0.10000000</i>
   <i name="WPLASMAI">      0.00000000</i>
   <v name="DFIELD">      0.00000000      0.00000000      0.00000000</v>
   <v name="WPLASMA">      0.00000000      0.00000000      0.00000000      0.00000000      0.00000000      0.00000000      0.00000000      0.00000000      0.00000000</v>
  </separator>
  <separator name="orbital magnetization" >
   <i type="logical" name="NUCIND"> F  </i>
   <v name="MAGPOS">      0.00000000      0.00000000      0.00000000</v>
   <i type="logical" name="LNICSALL"> T  </i>
   <i type="logical" name="ORBITALMAG"> F  </i>
   <i type="logical" name="LMAGBLOCH"> F  </i>
   <i type="logical" name="LCHIMAG"> F  </i>
   <i type="logical" name="LGAUGE"> T  </i>
   <i type="int" name="MAGATOM">     0</i>
   <v name="MAGDIPOL">      0.00000000      0.00000000      0.00000000</v>
   <v name="AVECCONST">      0.00000000      0.00000000      0.00000000</v>
  </separator>
  <separator name="response functions" >
   <i type="logical" name="LFINITE_TEMPERATURE"> F  </i>
   <i type="logical" name="LADDER"> F  </i>
   <i type="logical" name="LRPAFORCE"> F  </i>
   <i type="logical" name="LFXC"> F  </i>
   <i type="logical" name="LHARTREE"> T  </i>
   <i type="int" name="IBSE">     0</i>
   <v type="int" name="KPOINT">    -1     0     0     0</v>
   <i type="logical" name="LTCTC"> F  </i>
   <i type="logical" name="LTCTE"> F  </i>
   <i type="logical" name="LTETE"> F  </i>
   <i type="logical" name="LTRIPLET"> F  </i>
   <i type="logical" name="LFXCEPS"> F  </i>
   <i type="logical" name="LFXHEG"> F  </i>
   <i type="int" name="NATURALO">     2</i>
   <i type="logical" name="LHOLEGF"> F  </i>
   <i type="logical" name="L2ORDER"> F  </i>
   <i type="logical" name="LDMP1"> F  </i>
   <i type="logical" name="LMP2LT"> F  </i>
   <i type="logical" name="LSMP2LT"> F  </i>
   <i type="logical" name="LGWLF"> F  </i>
   <i name="ENCUTGW">     -2.00000000</i>
   <i name="ENCUTGWSOFT">     -2.00000000</i>
   <i name="ENCUTLF">     -1.00000000</i>
   <i type="logical" name="LESF_SPLINES"> F  </i>
   <i type="int" name="LMAXMP2">    -1</i>
   <i name="SCISSOR">      0.00000000</i>
   <i type="int" name="NOMEGA">     0</i>
   <i type="int" name="NOMEGAR">     0</i>
   <i type="int" name="NBANDSGW">    -1</i>
   <i type="int" name="NBANDSO">    -1</i>
   <i type="int" name="NBANDSV">    -1</i>
   <i type="int" name="NELMGW">     1</i>
   <i type="int" name="NELMHF">     1</i>
   <i type="int" name="DIM">     3</i>
   <i type="int" name="IESPILON">     4</i>
   <i type="int" name="ANTIRES">     0</i>
   <i name="OMEGAMAX">    -30.00000000</i>
   <i name="OMEGAMIN">    -30.00000000</i>
   <i name="OMEGATL">   -200.00000000</i>
   <i type="int" name="OMEGAGRID">     0</i>
   <i name="CSHIFT">     -0.10000000</i>
   <i type="logical" name="LSELFENERGY"> F  </i>
   <i type="logical" name="LSPECTRAL"> F  </i>
   <i type="logical" name="LSPECTRALGW"> F  </i>
   <i type="logical" name="LSINGLES"> F  </i>
   <i type="logical" name="LFERMIGW"> F  </i>
   <i type="logical" name="ODDONLYGW"> F  </i>
   <i type="logical" name="EVENONLYGW"> F  </i>
   <i type="int" name="NKREDLFX">     1</i>
   <i type="int" name="NKREDLFY">     1</i>
   <i type="int" name="NKREDLFZ">     1</i>
   <i type="int" name="MAXMEM">  2800</i>
   <i type="int" name="TELESCOPE">     0</i>
   <i type="int" name="NTAUPAR">    -1</i>
   <i type="int" name="NOMEGAPAR">    -1</i>
   <i name="DAMP_NEWTON">      0.80000001</i>
   <i name="LAMBDA">      1.00000000</i>
  </separator>
  <separator name="External order field" >
   <i name="OFIELD_KAPPA">      0.00000000</i>
   <v name="OFIELD_K">      0.00000000      0.00000000      0.00000000</v>
   <i name="OFIELD_Q6_NEAR">      0.00000000</i>
   <i name="OFIELD_Q6_FAR">      0.00000000</i>
   <i name="OFIELD_A">      0.00000000</i>
  </separator>
  <separator name="optional k-points parameters" >
   <i type="int" name="KPOINTS_OPT_MODE">     1</i>
   <i type="logical" name="LKPOINTS_OPT"> F  </i>
  </separator>
 </parameters>
 <atominfo>
  <atoms>       2 </atoms>
  <types>       1 </types>
  <array name="atoms" >
   <dimension dim="1">ion</dimension>
   <field type="string">element</field>
   <field type="int">atomtype</field>
   <set>
    <rc><c>Co</c><c>   1</c></rc>
    <rc><c>Co</c><c>   1</c></rc>
   </set>
  </array>
  <array name="atomtypes" >
   <dimension dim="1">type</dimension>
   <field type="int">atomspertype</field>
   <field type="string">element</field>
   <field>mass</field>
   <field>valence</field>
   <field type="string">pseudopotential</field>
   <set>
    <rc><c>   2</c><c>Co</c><c>     58.93300000</c><c>      9.00000000</c><c>  PAW_PBE Co 02Aug2007                  </c></rc>
   </set>
  </array>
 </atominfo>
 <structure name="initialpos" >
  <crystal>
   <varray name="basis" >
    <v>       2.47000000       0.00000000       0.00000000 </v>
    <v>      -1.23500000       2.13908275       0.00000000 </v>
    <v>       0.00000000       0.00000000       8.09000000 </v>
   </varray>
   <i name="volume">     42.74379318 </i>
   <varray name="rec_basis" >
    <v>       0.40485830       0.23374505       0.00000000 </v>
    <v>       0.00000000       0.46749010       0.00000000 </v>
    <v>       0.00000000       0.00000000       0.12360939 </v>
   </varray>
  </crystal>
  <varray name="positions" >
   <v>       0.00000000       0.00000000       0.00000000 </v>
   <v>       0.33333333       0.66666667       0.50000000 </v>
  </varray>
 </structure>
 <calculation>
  <scstep>
   <time name="dav">    0.45    0.46</time>
   <time name="total">    0.47    0.47</time>
   <energy>
    <i name="alphaZ">     39.63868225 </i>
    <i name="ewald">  -1054.56880693 </i>
    <i name="hartreedc">   -595.60964206 </i>
    <i name="XCdc">     33.36921587 </i>
    <i name="pawpsdc">   1439.98163886 </i>
    <i name="pawaedc">  -1545.88690193 </i>
    <i name="eentropy">     -0.00393596 </i>
    <i name="bandstr">    133.46258114 </i>
    <i name="atom">   1626.71546820 </i>
    <i name="e_fr_energy">     77.09829945 </i>
    <i name="e_wo_entrp">     77.10223541 </i>
    <i name="e_0_energy">     77.10026743 </i>
   </energy>
  </scstep>
  <scstep>
   <time name="dav">    0.44    0.44</time>
   <time name="total">    0.44    0.45</time>
   <energy>
    <i name="e_fr_energy">    -10.58968871 </i>
    <i name="e_wo_entrp">    -10.58559324 </i>
    <i name="e_0_energy">    -10.58764097 </i>
   </energy>
  </scstep>
  <scstep>
   <time name="dav">    0.53    0.53</time>
   <time name="total">    0.53    0.53</time>
   <energy>
    <i name="e_fr_energy">    -12.70063023 </i>
    <i name="e_wo_entrp">    -12.69683607 </i>
    <i name="e_0_energy">    -12.69873315 </i>
   </energy>
  </scstep>
  <scstep>
   <time name="dav">    0.57    0.57</time>
   <time name="total">    0.57    0.57</time>
   <energy>
    <i name="e_fr_energy">    -12.73473981 </i>
    <i name="e_wo_entrp">    -12.73093576 </i>
    <i name="e_0_energy">    -12.73283778 </i>
   </energy>
  </scstep>
  <scstep>
   <time name="dav">    0.51    0.51</time>
   <time name="total">    0.55    0.55</time>
   <energy>
    <i name="e_fr_energy">    -12.73498434 </i>
    <i name="e_wo_entrp">    -12.73117992 </i>
    <i name="e_0_energy">    -12.73308213 </i>
   </energy>
  </scstep>
  <scstep>
   <time name="dav">    0.49    0.49</time>
   <time name="total">    0.54    0.54</time>
   <energy>
    <i name="e_fr_energy">    -12.54481855 </i>
    <i name="e_wo_entrp">    -12.53510948 </i>
    <i name="e_0_energy">    -12.53996402 </i>
   </energy>
  </scstep>
  <scstep>
   <time name="dav">    0.50    0.50</time>
   <time name="total">    0.55    0.55</time>
   <energy>
    <i name="e_fr_energy">    -11.12709699 </i>
    <i name="e_wo_entrp">    -11.12411234 </i>
    <i name="e_0_energy">    -11.12560467 </i>
   </energy>
  </scstep>
  <scstep>
   <time name="dav">    0.52    0.52</time>
   <time name="total">    0.57    0.57</time>
   <energy>
    <i name="e_fr_energy">    -11.18681707 </i>
    <i name="e_wo_entrp">    -11.18251309 </i>
    <i name="e_0_energy">    -11.18466508 </i>
   </energy>
  </scstep>
  <scstep>
   <time name="dav">    0.51    0.51</time>
   <time name="total">    0.56    0.56</time>
   <energy>
    <i name="e_fr_energy">    -11.22438646 </i>
    <i name="e_wo_entrp">    -11.22027238 </i>
    <i name="e_0_energy">    -11.22232942 </i>
   </energy>
  </scstep>
  <scstep>
   <time name="dav">    0.51    0.52</time>
   <time name="total">    0.56    0.56</time>
   <energy>
    <i name="e_fr_energy">    -11.23040415 </i>
    <i name="e_wo_entrp">    -11.22614902 </i>
    <i name="e_0_energy">    -11.22827659 </i>
   </energy>
  </scstep>
  <scstep>
   <time name="dav">    0.53    0.53</time>
   <time name="total">    0.57    0.58</time>
   <energy>
    <i name="e_fr_energy">    -11.23188214 </i>
    <i name="e_wo_entrp">    -11.22769046 </i>
    <i name="e_0_energy">    -11.22978630 </i>
   </energy>
  </scstep>
  <scstep>
   <time name="dav">    0.49    0.49</time>
   <time name="total">    0.53    0.54</time>
   <energy>
    <i name="e_fr_energy">    -11.23358702 </i>
    <i name="e_wo_entrp">    -11.22960403 </i>
    <i name="e_0_energy">    -11.23159553 </i>
   </energy>
  </scstep>
  <scstep>
   <time name="dav">    0.51    0.52</time>
   <time name="total">    0.56    0.56</time>
   <energy>
    <i name="e_fr_energy">    -11.23367923 </i>
    <i name="e_wo_entrp">    -11.22967864 </i>
    <i name="e_0_energy">    -11.23167894 </i>
   </energy>
  </scstep>
  <scstep>
   <time name="dav">    0.47    0.47</time>
   <time name="total">    0.51    0.51</time>
   <energy>
    <i name="e_fr_energy">    -11.23375062 </i>
    <i name="e_wo_entrp">    -11.22976645 </i>
    <i name="e_0_energy">    -11.23175853 </i>
   </energy>
  </scstep>
  <scstep>
   <time name="dav">    0.48    0.48</time>
   <time name="total">    0.52    0.53</time>
   <energy>
    <i name="e_fr_energy">    -11.23375944 </i>
    <i name="e_wo_entrp">    -11.22974096 </i>
    <i name="e_0_energy">    -11.23175020 </i>
   </energy>
  </scstep>
  <scstep>
   <time name="dav">    0.43    0.43</time>
   <time name="total">    0.44    0.45</time>
   <energy>
    <i name="alphaZ">     39.63868225 </i>
    <i name="ewald">  -1054.56880693 </i>
    <i name="hartreedc">   -569.41012835 </i>
    <i name="XCdc">     31.25553233 </i>
    <i name="pawpsdc">   1613.87213838 </i>
    <i name="pawaedc">  -1719.38741692 </i>
    <i name="eentropy">     -0.00402039 </i>
    <i name="bandstr">     20.65479172 </i>
    <i name="atom">   1626.71546820 </i>
    <i name="e_fr_energy">    -11.23375971 </i>
    <i name="e_wo_entrp">    -11.22973932 </i>
    <i name="e_0_energy">    -11.23174952 </i>
   </energy>
  </scstep>
  <structure>
   <crystal>
    <varray name="basis" >
     <v>       2.47000000       0.00000000       0.00000000 </v>
     <v>      -1.23500000       2.13908275       0.00000000 </v>
     <v>       0.00000000       0.00000000       8.09000000 </v>
    </varray>
    <i name="volume">     42.74379318 </i>
    <varray name="rec_basis" >
     <v>       0.40485830       0.23374505       0.00000000 </v>
     <v>       0.00000000       0.46749010       0.00000000 </v>
     <v>       0.00000000       0.00000000       0.12360939 </v>
    </varray>
   </crystal>
   <varray name="positions" >
    <v>       0.00000000       0.00000000       0.00000000 </v>
    <v>       0.33333333       0.66666667       0.50000000 </v>
   </varray>
  </structure>
  <varray name="forces" >
   <v>      -0.00000000      -0.00000000       0.00000000 </v>
   <v>       0.00000000       0.00000000       0.00000000 </v>
  </varray>
  <varray name="stress" >
   <v>    -142.93196133       0.00000000      -0.00000000 </v>
   <v>      -0.00000000    -142.93196133      -0.00000000 </v>
   <v>       0.00000000       0.00000000     -49.26658552 </v>
  </varray>
  <energy>
   <i name="e_fr_energy">    -11.23375971 </i>
   <i name="e_wo_entrp">    -11.22973932 </i>
   <i name="e_0_energy">    -11.23174952 </i>
  </energy>
  <time name="totalsc">    8.82    8.90</time>
 </calculation>
 <calculation>
  <scstep>
   <time name="dav">    0.48    0.48</time>
   <time name="total">    0.53    0.53</time>
   <energy>
    <i name="alphaZ">     49.65011210 </i>
    <i name="ewald">  -1093.01981141 </i>
    <i name="hartreedc">   -642.06853721 </i>
    <i name="XCdc">     36.76903666 </i>
    <i name="pawpsdc">   1613.82075163 </i>
    <i name="pawaedc">  -1719.32984348 </i>
    <i name="eentropy">     -0.00335759 </i>
    <i name="bandstr">    102.27541081 </i>
    <i name="atom">   1626.71546820 </i>
    <i name="e_fr_energy">    -25.19077029 </i>
    <i name="e_wo_entrp">    -25.18741270 </i>
    <i name="e_0_energy">    -25.18909150 </i>
   </energy>
  </scstep>
  <scstep>
   <time name="dav">    0.49    0.49</time>
   <time name="total">    0.54    0.54</time>
   <energy>
    <i name="e_fr_energy">    -17.47483047 </i>
    <i name="e_wo_entrp">    -17.46643513 </i>
    <i name="e_0_energy">    -17.47063280 </i>
   </energy>
  </scstep>
  <scstep>
   <time name="dav">    0.50    0.50</time>
   <time name="total">    0.54    0.55</time>
   <energy>
    <i name="e_fr_energy">    -11.62894293 </i>
    <i name="e_wo_entrp">    -11.62517986 </i>
    <i name="e_0_energy">    -11.62706140 </i>
   </energy>
  </scstep>
  <scstep>
   <time name="dav">    0.51    0.51</time>
   <time name="total">    0.56    0.56</time>
   <energy>
    <i name="e_fr_energy">    -11.50765231 </i>
    <i name="e_wo_entrp">    -11.50588215 </i>
    <i name="e_0_energy">    -11.50676723 </i>
   </energy>
  </scstep>
  <scstep>
   <time name="dav">    0.56    0.56</time>
   <time name="total">    0.61    0.61</time>
   <energy>
    <i name="e_fr_energy">    -11.37901556 </i>
    <i name="e_wo_entrp">    -11.37747227 </i>
    <i name="e_0_energy">    -11.37824392 </i>
   </energy>
  </scstep>
  <scstep>
   <time name="dav">    0.49    0.49</time>
   <time name="total">    0.53    0.53</time>
   <energy>
    <i name="e_fr_energy">    -11.29701206 </i>
    <i name="e_wo_entrp">    -11.29534875 </i>
    <i name="e_0_energy">    -11.29618040 </i>
   </energy>
  </scstep>
  <scstep>
   <time name="dav">    0.48    0.48</time>
   <time name="total">    0.52    0.53</time>
   <energy>
    <i name="e_fr_energy">    -11.29761848 </i>
    <i name="e_wo_entrp">    -11.29576557 </i>
    <i name="e_0_energy">    -11.29669203 </i>
   </energy>
  </scstep>
  <scstep>
   <time name="dav">    0.58    0.58</time>
   <time name="total">    0.63    0.63</time>
   <energy>
    <i name="e_fr_energy">    -11.29778468 </i>
    <i name="e_wo_entrp">    -11.29594420 </i>
    <i name="e_0_energy">    -11.29686444 </i>
   </energy>
  </scstep>
  <scstep>
   <time name="dav">    0.53    0.53</time>
   <time name="total">    0.57    0.57</time>
   <energy>
    <i name="e_fr_energy">    -11.29792382 </i>
    <i name="e_wo_entrp">    -11.29620577 </i>
    <i name="e_0_energy">    -11.29706479 </i>
   </energy>
  </scstep>
  <scstep>
   <time name="dav">    0.51    0.52</time>
   <time name="total">    0.56    0.56</time>
   <energy>
    <i name="e_fr_energy">    -11.29792585 </i>
    <i name="e_wo_entrp">    -11.29621802 </i>
    <i name="e_0_energy">    -11.29707194 </i>
   </energy>
  </scstep>
  <scstep>
   <time name="dav">    0.39    0.39</time>
   <time name="total">    0.43    0.43</time>
   <energy>
    <i name="e_fr_energy">    -11.29792459 </i>
    <i name="e_wo_entrp">    -11.29621247 </i>
    <i name="e_0_energy">    -11.29706853 </i>
   </energy>
  </scstep>
  <scstep>
   <time name="dav">    0.36    0.37</time>
   <time name="total">    0.38    0.38</time>
   <energy>
    <i name="alphaZ">     49.65011210 </i>
    <i name="ewald">  -1093.01981141 </i>
    <i name="hartreedc">   -564.53608219 </i>
    <i name="XCdc">     32.21374689 </i>
    <i name="pawpsdc">   1813.77812450 </i>
    <i name="pawaedc">  -1920.93860305 </i>
    <i name="eentropy">     -0.00172074 </i>
    <i name="bandstr">     44.84084177 </i>
    <i name="atom">   1626.71546820 </i>
    <i name="e_fr_energy">    -11.29792394 </i>
    <i name="e_wo_entrp">    -11.29620320 </i>
    <i name="e_0_energy">    -11.29706357 </i>
   </energy>
  </scstep>
  <structure>
   <crystal>
    <varray name="basis" >
     <v>       2.24280960       0.00000000      -0.00000000 </v>
     <v>      -1.12140480       1.94233009      -0.00000000 </v>
     <v>       0.00000000       0.00000000       7.83351341 </v>
    </varray>
    <i name="volume">     34.12495087 </i>
    <varray name="rec_basis" >
     <v>       0.44586932       0.25742277      -0.00000000 </v>
     <v>      -0.00000000       0.51484555      -0.00000000 </v>
     <v>       0.00000000       0.00000000       0.12765664 </v>
    </varray>
   </crystal>
   <varray name="positions" >
    <v>      -0.00000000      -0.00000000       0.00000000 </v>
    <v>       0.33333333       0.66666667       0.50000000 </v>
   </varray>
  </structure>
  <varray name="forces" >
   <v>       0.00000000       0.00000000      -0.00000000 </v>
   <v>      -0.00000000      -0.00000000       0.00000000 </v>
  </varray>
  <varray name="stress" >
   <v>     216.45476900       0.00000000      -0.00000000 </v>
   <v>       0.00000000     216.45476900      -0.00000000 </v>
   <v>       0.00000000      -0.00000000     -45.81265009 </v>
  </varray>
  <energy>
   <i name="e_fr_energy">    -11.29792394 </i>
   <i name="e_wo_entrp">    -11.29620320 </i>
   <i name="e_0_energy">    -11.29706357 </i>
  </energy>
  <time name="totalsc">    6.58    6.62</time>
 </calculation>
 <calculation>
  <scstep>
   <time name="dav">    0.47    0.47</time>
   <time name="total">    0.51    0.51</time>
   <energy>
    <i name="alphaZ">     44.97466903 </i>
    <i name="ewald">  -1077.18824826 </i>
    <i name="hartreedc">   -533.72860706 </i>
    <i name="XCdc">     29.98278685 </i>
    <i name="pawpsdc">   1813.83022803 </i>
    <i name="pawaedc">  -1920.98971369 </i>
    <i name="eentropy">     -0.00980224 </i>
    <i name="bandstr">      2.44936599 </i>
    <i name="atom">   1626.71546820 </i>
    <i name="e_fr_energy">    -13.96385314 </i>
    <i name="e_wo_entrp">    -13.95405090 </i>
    <i name="e_0_energy">    -13.95895202 </i>
   </energy>
  </scstep>
  <scstep>
   <time name="dav">    0.50    0.50</time>
   <time name="total">    0.54    0.54</time>
   <energy>
    <i name="e_fr_energy">    -12.85283025 </i>
    <i name="e_wo_entrp">    -12.85038635 </i>
    <i name="e_0_energy">    -12.85160830 </i>
   </energy>
  </scstep>
  <scstep>
   <time name="dav">    0.49    0.50</time>
   <time name="total">    0.54    0.54</time>
   <energy>
    <i name="e_fr_energy">    -11.53027950 </i>
    <i name="e_wo_entrp">    -11.52758827 </i>
    <i name="e_0_energy">    -11.52893388 </i>
   </energy>
  </scstep>
  <scstep>
   <time name="dav">    0.50    0.50</time>
   <time name="total">    0.55    0.55</time>
   <energy>
    <i name="e_fr_energy">    -11.51495584 </i>
    <i name="e_wo_entrp">    -11.51322837 </i>
    <i name="e_0_energy">    -11.51409211 </i>
   </energy>
  </scstep>
  <scstep>
   <time name="dav">    0.52    0.52</time>
   <time name="total">    0.57    0.57</time>
   <energy>
    <i name="e_fr_energy">    -11.47045269 </i>
    <i name="e_wo_entrp">    -11.46799898 </i>
    <i name="e_0_energy">    -11.46922584 </i>
   </energy>
  </scstep>
  <scstep>
   <time name="dav">    0.50    0.50</time>
   <time name="total">    0.54    0.54</time>
   <energy>
    <i name="e_fr_energy">    -11.47241070 </i>
    <i name="e_wo_entrp">    -11.47009789 </i>
    <i name="e_0_energy">    -11.47125430 </i>
   </energy>
  </scstep>
  <scstep>
   <time name="dav">    0.51    0.51</time>
   <time name="total">    0.55    0.56</time>
   <energy>
    <i name="e_fr_energy">    -11.47273572 </i>
    <i name="e_wo_entrp">    -11.47040896 </i>
    <i name="e_0_energy">    -11.47157234 </i>
   </energy>
  </scstep>
  <scstep>
   <time name="dav">    0.50    0.51</time>
   <time name="total">    0.55    0.55</time>
   <energy>
    <i name="e_fr_energy">    -11.47279257 </i>
    <i name="e_wo_entrp">    -11.47041394 </i>
    <i name="e_0_energy">    -11.47160325 </i>
   </energy>
  </scstep>
  <scstep>
   <time name="dav">    0.51    0.51</time>
   <time name="total">    0.55    0.56</time>
   <energy>
    <i name="e_fr_energy">    -11.47280799 </i>
    <i name="e_wo_entrp">    -11.47042884 </i>
    <i name="e_0_energy">    -11.47161841 </i>
   </energy>
  </scstep>
  <scstep>
   <time name="dav">    0.49    0.49</time>
   <time name="total">    0.53    0.53</time>
   <energy>
    <i name="e_fr_energy">    -11.47281607 </i>
    <i name="e_wo_entrp">    -11.47046122 </i>
    <i name="e_0_energy">    -11.47163865 </i>
   </energy>
  </scstep>
  <scstep>
   <time name="dav">    0.40    0.40</time>
   <time name="total">    0.45    0.45</time>
   <energy>
    <i name="e_fr_energy">    -11.47281710 </i>
    <i name="e_wo_entrp">    -11.47045358 </i>
    <i name="e_0_energy">    -11.47163534 </i>
   </energy>
  </scstep>
  <scstep>
   <time name="dav">    0.30    0.30</time>
   <time name="total">    0.31    0.31</time>
   <energy>
    <i name="alphaZ">     44.97466903 </i>
    <i name="ewald">  -1077.18824826 </i>
    <i name="hartreedc">   -565.35317948 </i>
    <i name="XCdc">     31.78476310 </i>
    <i name="pawpsdc">   1712.34694592 </i>
    <i name="pawaedc">  -1818.57591592 </i>
    <i name="eentropy">     -0.00236837 </i>
    <i name="bandstr">     33.82504870 </i>
    <i name="atom">   1626.71546820 </i>
    <i name="e_fr_energy">    -11.47281708 </i>
    <i name="e_wo_entrp">    -11.47044871 </i>
    <i name="e_0_energy">    -11.47163290 </i>
   </energy>
  </scstep>
  <structure>
   <crystal>
    <varray name="basis" >
     <v>       2.34014888       0.00000000      -0.00000000 </v>
     <v>      -1.17007444       2.02662838      -0.00000000 </v>
     <v>       0.00000000       0.00000000       7.94340459 </v>
    </varray>
    <i name="volume">     37.67248704 </i>
    <varray name="rec_basis" >
     <v>       0.42732324       0.24671519      -0.00000000 </v>
     <v>      -0.00000000       0.49343037      -0.00000000 </v>
     <v>       0.00000000       0.00000000       0.12589060 </v>
    </varray>
   </crystal>
   <varray name="positions" >
    <v>      -0.00000000      -0.00000000       0.00000000 </v>
    <v>       0.33333333       0.66666667       0.50000000 </v>
   </varray>
  </structure>
  <varray name="forces" >
   <v>       0.00000000      -0.00000000      -0.00000000 </v>
   <v>      -0.00000000       0.00000000       0.00000000 </v>
  </varray>
  <varray name="stress" >
   <v>       8.90526840       0.00000000       0.00000000 </v>
   <v>       0.00000000       8.90526840       0.00000000 </v>
   <v>      -0.00000000       0.00000000     -49.87278512 </v>
  </varray>
  <energy>
   <i name="e_fr_energy">    -11.47281708 </i>
   <i name="e_wo_entrp">    -11.47044871 </i>
   <i name="e_0_energy">    -11.47163290 </i>
  </energy>
  <time name="totalsc">    6.38    6.42</time>
 </calculation>
 <calculation>
  <scstep>
   <time name="dav">    0.50    0.51</time>
   <time name="total">    0.55    0.55</time>
   <energy>
    <i name="alphaZ">     46.19280276 </i>
    <i name="ewald">  -1105.05738398 </i>
    <i name="hartreedc">   -558.47067524 </i>
    <i name="XCdc">     32.41601356 </i>
    <i name="pawpsdc">   1712.34241581 </i>
    <i name="pawaedc">  -1818.57169161 </i>
    <i name="eentropy">     -0.00406486 </i>
    <i name="bandstr">     52.48100992 </i>
    <i name="atom">   1626.71546820 </i>
    <i name="e_fr_energy">    -11.95610545 </i>
    <i name="e_wo_entrp">    -11.95204059 </i>
    <i name="e_0_energy">    -11.95407302 </i>
   </energy>
  </scstep>
  <scstep>
   <time name="dav">    0.50    0.50</time>
   <time name="total">    0.55    0.55</time>
   <energy>
    <i name="e_fr_energy">    -11.75287035 </i>
    <i name="e_wo_entrp">    -11.75010007 </i>
    <i name="e_0_energy">    -11.75148521 </i>
   </energy>
  </scstep>
  <scstep>
   <time name="dav">    0.50    0.50</time>
   <time name="total">    0.54    0.55</time>
   <energy>
    <i name="e_fr_energy">    -11.51542014 </i>
    <i name="e_wo_entrp">    -11.51254638 </i>
    <i name="e_0_energy">    -11.51398326 </i>
   </energy>
  </scstep>
  <scstep>
   <time name="dav">    0.51    0.52</time>
   <time name="total">    0.56    0.56</time>
   <energy>
    <i name="e_fr_energy">    -11.51244360 </i>
    <i name="e_wo_entrp">    -11.51085946 </i>
    <i name="e_0_energy">    -11.51165153 </i>
   </energy>
  </scstep>
  <scstep>
   <time name="dav">    0.54    0.55</time>
   <time name="total">    0.59    0.59</time>
   <energy>
    <i name="e_fr_energy">    -11.50832715 </i>
    <i name="e_wo_entrp">    -11.50709090 </i>
    <i name="e_0_energy">    -11.50770902 </i>
   </energy>
  </scstep>
  <scstep>
   <time name="dav">    0.50    0.51</time>
   <time name="total">    0.55    0.55</time>
   <energy>
    <i name="e_fr_energy">    -11.50794892 </i>
    <i name="e_wo_entrp">    -11.50651217 </i>
    <i name="e_0_energy">    -11.50723055 </i>
   </energy>
  </scstep>
  <scstep>
   <time name="dav">    0.53    0.54</time>
   <time name="total">    0.58    0.58</time>
   <energy>
    <i name="e_fr_energy">    -11.50787434 </i>
    <i name="e_wo_entrp">    -11.50648735 </i>
    <i name="e_0_energy">    -11.50718085 </i>
   </energy>
  </scstep>
  <scstep>
   <time name="dav">    0.51    0.52</time>
   <time name="total">    0.56    0.56</time>
   <energy>
    <i name="e_fr_energy">    -11.50788784 </i>
    <i name="e_wo_entrp">    -11.50648485 </i>
    <i name="e_0_energy">    -11.50718634 </i>
   </energy>
  </scstep>
  <scstep>
   <time name="dav">    0.47    0.47</time>
   <time name="total">    0.51    0.52</time>
   <energy>
    <i name="e_fr_energy">    -11.50789186 </i>
    <i name="e_wo_entrp">    -11.50650514 </i>
    <i name="e_0_energy">    -11.50719850 </i>
   </energy>
  </scstep>
  <scstep>
   <time name="dav">    0.34    0.34</time>
   <time name="total">    0.36    0.36</time>
   <energy>
    <i name="alphaZ">     46.19280276 </i>
    <i name="ewald">  -1105.05738398 </i>
    <i name="hartreedc">   -543.14264818 </i>
    <i name="XCdc">     31.79733875 </i>
    <i name="pawpsdc">   1711.08143963 </i>
    <i name="pawaedc">  -1817.29386897 </i>
    <i name="eentropy">     -0.00138364 </i>
    <i name="bandstr">     38.20034362 </i>
    <i name="atom">   1626.71546820 </i>
    <i name="e_fr_energy">    -11.50789182 </i>
    <i name="e_wo_entrp">    -11.50650818 </i>
    <i name="e_0_energy">    -11.50720000 </i>
   </energy>
  </scstep>
  <structure>
   <crystal>
    <varray name="basis" >
     <v>       2.34125607       0.00000000      -0.00000000 </v>
     <v>      -1.17062803       2.02758723       0.00000000 </v>
     <v>      -0.00000000       0.00000000       7.72661888 </v>
    </varray>
    <i name="volume">     36.67903948 </i>
    <varray name="rec_basis" >
     <v>       0.42712116       0.24659851       0.00000000 </v>
     <v>      -0.00000000       0.49319703      -0.00000000 </v>
     <v>       0.00000000      -0.00000000       0.12942272 </v>
    </varray>
   </crystal>
   <varray name="positions" >
    <v>      -0.00000000      -0.00000000      -0.00000000 </v>
    <v>       0.33333333       0.66666667       0.50000000 </v>
   </varray>
  </structure>
  <varray name="forces" >
   <v>       0.00000000       0.00000000       0.00000000 </v>
   <v>      -0.00000000      -0.00000000      -0.00000000 </v>
  </varray>
  <varray name="stress" >
   <v>      10.02146979       0.00000000      -0.00000000 </v>
   <v>       0.00000000      10.02146979       0.00000000 </v>
   <v>       0.00000000       0.00000000     -58.04520312 </v>
  </varray>
  <energy>
   <i name="e_fr_energy">    -11.50789182 </i>
   <i name="e_wo_entrp">    -11.50650818 </i>
   <i name="e_0_energy">    -11.50720000 </i>
  </energy>
  <time name="totalsc">    5.54    5.57</time>
 </calculation>
 <calculation>
  <scstep>
   <time name="dav">    0.50    0.51</time>
   <time name="total">    0.55    0.55</time>
   <energy>
    <i name="alphaZ">     50.10013820 </i>
    <i name="ewald">  -1184.72659969 </i>
    <i name="hartreedc">   -525.14732784 </i>
    <i name="XCdc">     33.76179923 </i>
    <i name="pawpsdc">   1711.07909609 </i>
    <i name="pawaedc">  -1817.28968641 </i>
    <i name="eentropy">     -0.00549122 </i>
    <i name="bandstr">     90.15435627 </i>
    <i name="atom">   1626.71546820 </i>
    <i name="e_fr_energy">    -15.35824717 </i>
    <i name="e_wo_entrp">    -15.35275595 </i>
    <i name="e_0_energy">    -15.35550156 </i>
   </energy>
  </scstep>
  <scstep>
   <time name="dav">    0.51    0.51</time>
   <time name="total">    0.55    0.56</time>
   <energy>
    <i name="e_fr_energy">    -13.51268254 </i>
    <i name="e_wo_entrp">    -13.50676735 </i>
    <i name="e_0_energy">    -13.50972495 </i>
   </energy>
  </scstep>
  <scstep>
   <time name="dav">    0.49    0.49</time>
   <time name="total">    0.54    0.54</time>
   <energy>
    <i name="e_fr_energy">    -11.72806404 </i>
    <i name="e_wo_entrp">    -11.72318166 </i>
    <i name="e_0_energy">    -11.72562285 </i>
   </energy>
  </scstep>
  <scstep>
   <time name="dav">    0.52    0.52</time>
   <time name="total">    0.56    0.57</time>
   <energy>
    <i name="e_fr_energy">    -11.68613172 </i>
    <i name="e_wo_entrp">    -11.68190143 </i>
    <i name="e_0_energy">    -11.68401657 </i>
   </energy>
  </scstep>
  <scstep>
   <time name="dav">    0.54    0.54</time>
   <time name="total">    0.58    0.59</time>
   <energy>
    <i name="e_fr_energy">    -11.66196658 </i>
    <i name="e_wo_entrp">    -11.65952308 </i>
    <i name="e_0_energy">    -11.66074483 </i>
   </energy>
  </scstep>
  <scstep>
   <time name="dav">    0.55    0.55</time>
   <time name="total">    0.60    0.60</time>
   <energy>
    <i name="e_fr_energy">    -11.65691924 </i>
    <i name="e_wo_entrp">    -11.65446027 </i>
    <i name="e_0_energy">    -11.65568975 </i>
   </energy>
  </scstep>
  <scstep>
   <time name="dav">    0.54    0.54</time>
   <time name="total">    0.59    0.59</time>
   <energy>
    <i name="e_fr_energy">    -11.65616008 </i>
    <i name="e_wo_entrp">    -11.65369147 </i>
    <i name="e_0_energy">    -11.65492578 </i>
   </energy>
  </scstep>
  <scstep>
   <time name="dav">    0.52    0.52</time>
   <time name="total">    0.56    0.57</time>
   <energy>
    <i name="e_fr_energy">    -11.65626811 </i>
    <i name="e_wo_entrp">    -11.65378299 </i>
    <i name="e_0_energy">    -11.65502555 </i>
   </energy>
  </scstep>
  <scstep>
   <time name="dav">    0.52    0.53</time>
   <time name="total">    0.57    0.57</time>
   <energy>
    <i name="e_fr_energy">    -11.65627203 </i>
    <i name="e_wo_entrp">    -11.65379884 </i>
    <i name="e_0_energy">    -11.65503543 </i>
   </energy>
  </scstep>
  <scstep>
   <time name="dav">    0.50    0.50</time>
   <time name="total">    0.54    0.55</time>
   <energy>
    <i name="e_fr_energy">    -11.65626680 </i>
    <i name="e_wo_entrp">    -11.65380083 </i>
    <i name="e_0_energy">    -11.65503381 </i>
   </energy>
  </scstep>
  <scstep>
   <time name="dav">    0.37    0.38</time>
   <time name="total">    0.42    0.42</time>
   <energy>
    <i name="e_fr_energy">    -11.65626549 </i>
    <i name="e_wo_entrp">    -11.65380108 </i>
    <i name="e_0_energy">    -11.65503328 </i>
   </energy>
  </scstep>
  <scstep>
   <time name="dav">    0.34    0.34</time>
   <time name="total">    0.35    0.36</time>
   <energy>
    <i name="alphaZ">     50.10013820 </i>
    <i name="ewald">  -1184.72659969 </i>
    <i name="hartreedc">   -481.52764118 </i>
    <i name="XCdc">     31.84924823 </i>
    <i name="pawpsdc">   1707.61634965 </i>
    <i name="pawaedc">  -1813.75582017 </i>
    <i name="eentropy">     -0.00246470 </i>
    <i name="bandstr">     52.07505624 </i>
    <i name="atom">   1626.71546820 </i>
    <i name="e_fr_energy">    -11.65626522 </i>
    <i name="e_wo_entrp">    -11.65380052 </i>
    <i name="e_0_energy">    -11.65503287 </i>
   </energy>
  </scstep>
  <structure>
   <crystal>
    <varray name="basis" >
     <v>       2.34443225       0.00000000      -0.00000000 </v>
     <v>      -1.17221612       2.03033788       0.00000000 </v>
     <v>      -0.00000000       0.00000000       7.10472610 </v>
    </varray>
    <i name="volume">     33.81842240 </i>
    <varray name="rec_basis" >
     <v>       0.42654250       0.24626443       0.00000000 </v>
     <v>      -0.00000000       0.49252886      -0.00000000 </v>
     <v>       0.00000000      -0.00000000       0.14075138 </v>
    </varray>
   </crystal>
   <varray name="positions" >
    <v>       0.00000000      -0.00000000      -0.00000000 </v>
    <v>       0.33333333       0.66666667       0.50000000 </v>
   </varray>
  </structure>
  <varray name="forces" >
   <v>       0.00000000      -0.00000000      -0.00000000 </v>
   <v>      -0.00000000       0.00000000       0.00000000 </v>
  </varray>
  <varray name="stress" >
   <v>      22.67711053       0.00000000       0.00000000 </v>
   <v>       0.00000000      22.67711053       0.00000000 </v>
   <v>       0.00000000       0.00000000    -112.46308476 </v>
  </varray>
  <energy>
   <i name="e_fr_energy">    -11.65626522 </i>
   <i name="e_wo_entrp">    -11.65380052 </i>
   <i name="e_0_energy">    -11.65503287 </i>
  </energy>
  <time name="totalsc">    6.61    6.65</time>
 </calculation>
 <calculation>
  <scstep>
   <time name="dav">    0.52    0.52</time>
   <time name="total">    0.57    0.57</time>
   <energy>
    <i name="alphaZ">     60.40440965 </i>
    <i name="ewald">  -1343.00160045 </i>
    <i name="hartreedc">   -455.44102886 </i>
    <i name="XCdc">     36.58729176 </i>
    <i name="pawpsdc">   1707.61451573 </i>
    <i name="pawaedc">  -1813.75367118 </i>
    <i name="eentropy">     -0.00501734 </i>
    <i name="bandstr">    153.46031457 </i>
    <i name="atom">   1626.71546820 </i>
    <i name="e_fr_energy">    -27.41931791 </i>
    <i name="e_wo_entrp">    -27.41430057 </i>
    <i name="e_0_energy">    -27.41680924 </i>
   </energy>
  </scstep>
  <scstep>
   <time name="dav">    0.50    0.50</time>
   <time name="total">    0.54    0.55</time>
   <energy>
    <i name="e_fr_energy">    -17.56034817 </i>
    <i name="e_wo_entrp">    -17.55377841 </i>
    <i name="e_0_energy">    -17.55706329 </i>
   </energy>
  </scstep>
  <scstep>
   <time name="dav">    0.49    0.49</time>
   <time name="total">    0.54    0.54</time>
   <energy>
    <i name="e_fr_energy">    -12.81606149 </i>
    <i name="e_wo_entrp">    -12.81107683 </i>
    <i name="e_0_energy">    -12.81356916 </i>
   </energy>
  </scstep>
  <scstep>
   <time name="dav">    0.52    0.52</time>
   <time name="total">    0.57    0.57</time>
   <energy>
    <i name="e_fr_energy">    -12.53716446 </i>
    <i name="e_wo_entrp">    -12.53341572 </i>
    <i name="e_0_energy">    -12.53529009 </i>
   </energy>
  </scstep>
  <scstep>
   <time name="dav">    0.56    0.56</time>
   <time name="total">    0.61    0.61</time>
   <energy>
    <i name="e_fr_energy">    -12.40593232 </i>
    <i name="e_wo_entrp">    -12.40218787 </i>
    <i name="e_0_energy">    -12.40406009 </i>
   </energy>
  </scstep>
  <scstep>
   <time name="dav">    0.56    0.56</time>
   <time name="total">    0.60    0.61</time>
   <energy>
    <i name="e_fr_energy">    -12.38110350 </i>
    <i name="e_wo_entrp">    -12.37744496 </i>
    <i name="e_0_energy">    -12.37927423 </i>
   </energy>
  </scstep>
  <scstep>
   <time name="dav">    0.57    0.57</time>
   <time name="total">    0.61    0.61</time>
   <energy>
    <i name="e_fr_energy">    -12.37975246 </i>
    <i name="e_wo_entrp">    -12.37605478 </i>
    <i name="e_0_energy">    -12.37790362 </i>
   </energy>
  </scstep>
  <scstep>
   <time name="dav">    0.53    0.53</time>
   <time name="total">    0.58    0.58</time>
   <energy>
    <i name="e_fr_energy">    -12.38015444 </i>
    <i name="e_wo_entrp">    -12.37622116 </i>
    <i name="e_0_energy">    -12.37818780 </i>
   </energy>
  </scstep>
  <scstep>
   <time name="dav">    0.55    0.56</time>
   <time name="total">    0.60    0.60</time>
   <energy>
    <i name="e_fr_energy">    -12.38015146 </i>
    <i name="e_wo_entrp">    -12.37622337 </i>
    <i name="e_0_energy">    -12.37818742 </i>
   </energy>
  </scstep>
  <scstep>
   <time name="dav">    0.56    0.56</time>
   <time name="total">    0.60    0.61</time>
   <energy>
    <i name="e_fr_energy">    -12.38013697 </i>
    <i name="e_wo_entrp">    -12.37622796 </i>
    <i name="e_0_energy">    -12.37818247 </i>
   </energy>
  </scstep>
  <scstep>
   <time name="dav">    0.50    0.51</time>
   <time name="total">    0.55    0.55</time>
   <energy>
    <i name="e_fr_energy">    -12.38013161 </i>
    <i name="e_wo_entrp">    -12.37624066 </i>
    <i name="e_0_energy">    -12.37818613 </i>
   </energy>
  </scstep>
  <scstep>
   <time name="dav">    0.39    0.39</time>
   <time name="total">    0.40    0.41</time>
   <energy>
    <i name="alphaZ">     60.40440965 </i>
    <i name="ewald">  -1343.00160045 </i>
    <i name="hartreedc">   -369.09915067 </i>
    <i name="XCdc">     32.14237761 </i>
    <i name="pawpsdc">   1713.97689061 </i>
    <i name="pawaedc">  -1819.97536094 </i>
    <i name="eentropy">     -0.00388936 </i>
    <i name="bandstr">     86.46072387 </i>
    <i name="atom">   1626.71546820 </i>
    <i name="e_fr_energy">    -12.38013148 </i>
    <i name="e_wo_entrp">    -12.37624212 </i>
    <i name="e_0_energy">    -12.37818680 </i>
   </energy>
  </scstep>
  <structure>
   <crystal>
    <varray name="basis" >
     <v>       2.35078461       0.00000000      -0.00000000 </v>
     <v>      -1.17539230       2.03583919       0.00000000 </v>
     <v>      -0.00000000       0.00000000       5.86094053 </v>
    </varray>
    <i name="volume">     28.04940311 </i>
    <varray name="rec_basis" >
     <v>       0.42538989       0.24559897       0.00000000 </v>
     <v>      -0.00000000       0.49119793      -0.00000000 </v>
     <v>       0.00000000      -0.00000000       0.17062108 </v>
    </varray>
   </crystal>
   <varray name="positions" >
    <v>       0.00000000      -0.00000000      -0.00000000 </v>
    <v>       0.33333333       0.66666667       0.50000000 </v>
   </varray>
  </structure>
  <varray name="forces" >
   <v>      -0.00000000       0.00000000       0.00000000 </v>
   <v>       0.00000000      -0.00000000       0.00000000 </v>
  </varray>
  <varray name="stress" >
   <v>      77.08216340       0.00000000       0.00000000 </v>
   <v>       0.00000000      77.08216340      -0.00000000 </v>
   <v>       0.00000000      -0.00000000    -294.79577979 </v>
  </varray>
  <energy>
   <i name="e_fr_energy">    -12.38013148 </i>
   <i name="e_wo_entrp">    -12.37624212 </i>
   <i name="e_0_energy">    -12.37818680 </i>
  </energy>
  <time name="totalsc">    6.97    7.01</time>
 </calculation>
 <calculation>
  <scstep>
   <time name="dav">    0.57    0.57</time>
   <time name="total">    0.61    0.62</time>
   <energy>
    <i name="alphaZ">    103.82225121 </i>
    <i name="ewald">  -1669.59655523 </i>
    <i name="hartreedc">   -364.77030318 </i>
    <i name="XCdc">     47.79251777 </i>
    <i name="pawpsdc">   1713.99318115 </i>
    <i name="pawaedc">  -1819.99076983 </i>
    <i name="eentropy">     -0.00288981 </i>
    <i name="bandstr">    301.41142933 </i>
    <i name="atom">   1626.71546820 </i>
    <i name="e_fr_energy">    -60.62567038 </i>
    <i name="e_wo_entrp">    -60.62278057 </i>
    <i name="e_0_energy">    -60.62422548 </i>
   </energy>
  </scstep>
  <scstep>
   <time name="dav">    0.53    0.53</time>
   <time name="total">    0.58    0.58</time>
   <energy>
    <i name="e_fr_energy">    -19.59662768 </i>
    <i name="e_wo_entrp">    -19.59192143 </i>
    <i name="e_0_energy">    -19.59427455 </i>
   </energy>
  </scstep>
  <scstep>
   <time name="dav">    0.48    0.48</time>
   <time name="total">    0.53    0.53</time>
   <energy>
    <i name="e_fr_energy">    -14.61000089 </i>
    <i name="e_wo_entrp">    -14.60414297 </i>
    <i name="e_0_energy">    -14.60707193 </i>
   </energy>
  </scstep>
  <scstep>
   <time name="dav">    0.55    0.55</time>
   <time name="total">    0.60    0.60</time>
   <energy>
    <i name="e_fr_energy">    -12.70563525 </i>
    <i name="e_wo_entrp">    -12.70125813 </i>
    <i name="e_0_energy">    -12.70344669 </i>
   </energy>
  </scstep>
  <scstep>
   <time name="dav">    0.53    0.53</time>
   <time name="total">    0.58    0.58</time>
   <energy>
    <i name="e_fr_energy">    -12.34488764 </i>
    <i name="e_wo_entrp">    -12.34117767 </i>
    <i name="e_0_energy">    -12.34303266 </i>
   </energy>
  </scstep>
  <scstep>
   <time name="dav">    0.52    0.52</time>
   <time name="total">    0.57    0.57</time>
   <energy>
    <i name="e_fr_energy">    -12.33448560 </i>
    <i name="e_wo_entrp">    -12.33101468 </i>
    <i name="e_0_energy">    -12.33275014 </i>
   </energy>
  </scstep>
  <scstep>
   <time name="dav">    0.56    0.56</time>
   <time name="total">    0.61    0.61</time>
   <energy>
    <i name="e_fr_energy">    -12.33618493 </i>
    <i name="e_wo_entrp">    -12.33266781 </i>
    <i name="e_0_energy">    -12.33442637 </i>
   </energy>
  </scstep>
  <scstep>
   <time name="dav">    0.54    0.54</time>
   <time name="total">    0.58    0.59</time>
   <energy>
    <i name="e_fr_energy">    -12.33669414 </i>
    <i name="e_wo_entrp">    -12.33312784 </i>
    <i name="e_0_energy">    -12.33491099 </i>
   </energy>
  </scstep>
  <scstep>
   <time name="dav">    0.54    0.55</time>
   <time name="total">    0.59    0.59</time>
   <energy>
    <i name="e_fr_energy">    -12.33650515 </i>
    <i name="e_wo_entrp">    -12.33296178 </i>
    <i name="e_0_energy">    -12.33473347 </i>
   </energy>
  </scstep>
  <scstep>
   <time name="dav">    0.50    0.50</time>
   <time name="total">    0.55    0.55</time>
   <energy>
    <i name="e_fr_energy">    -12.33650205 </i>
    <i name="e_wo_entrp">    -12.33296717 </i>
    <i name="e_0_energy">    -12.33473461 </i>
   </energy>
  </scstep>
  <scstep>
   <time name="dav">    0.32    0.32</time>
   <time name="total">    0.34    0.34</time>
   <energy>
    <i name="alphaZ">    103.82225121 </i>
    <i name="ewald">  -1669.59655523 </i>
    <i name="hartreedc">   -210.38683843 </i>
    <i name="XCdc">     34.24373714 </i>
    <i name="pawpsdc">   2253.37761432 </i>
    <i name="pawaedc">  -2363.15118445 </i>
    <i name="eentropy">     -0.00353211 </i>
    <i name="bandstr">    212.64253761 </i>
    <i name="atom">   1626.71546820 </i>
    <i name="e_fr_energy">    -12.33650173 </i>
    <i name="e_wo_entrp">    -12.33296962 </i>
    <i name="e_0_energy">    -12.33473568 </i>
   </energy>
  </scstep>
  <structure>
   <crystal>
    <varray name="basis" >
     <v>       2.36348933       0.00000000      -0.00000000 </v>
     <v>      -1.18174467       2.04684180       0.00000000 </v>
     <v>      -0.00000000       0.00000000       3.37336941 </v>
    </varray>
    <i name="volume">     16.31931129 </i>
    <varray name="rec_basis" >
     <v>       0.42310324       0.24427877       0.00000000 </v>
     <v>      -0.00000000       0.48855754      -0.00000000 </v>
     <v>       0.00000000      -0.00000000       0.29643952 </v>
    </varray>
   </crystal>
   <varray name="positions" >
    <v>       0.00000000      -0.00000000      -0.00000000 </v>
    <v>       0.33333333       0.66666667       0.50000000 </v>
   </varray>
  </structure>
  <varray name="forces" >
   <v>       0.00000000      -0.00000000       0.00000000 </v>
   <v>      -0.00000000       0.00000000      -0.00000000 </v>
  </varray>
  <varray name="stress" >
   <v>     949.09824501       0.00000000       0.00000000 </v>
   <v>      -0.00000000     949.09824501       0.00000000 </v>
   <v>       0.00000000      -0.00000000    1573.74324601 </v>
  </varray>
  <energy>
   <i name="e_fr_energy">    -12.33650173 </i>
   <i name="e_wo_entrp">    -12.33296962 </i>
   <i name="e_0_energy">    -12.33473568 </i>
  </energy>
  <time name="totalsc">    6.33    6.37</time>
 </calculation>
 <calculation>
  <scstep>
   <time name="dav">    0.45    0.45</time>
   <time name="total">    0.50    0.50</time>
   <energy>
    <i name="alphaZ">     67.36579637 </i>
    <i name="ewald">  -1421.64667018 </i>
    <i name="hartreedc">   -174.64342432 </i>
    <i name="XCdc">     25.65482854 </i>
    <i name="pawpsdc">   2253.72400022 </i>
    <i name="pawaedc">  -2363.49378490 </i>
    <i name="eentropy">     -0.00489291 </i>
    <i name="bandstr">    -88.72201518 </i>
    <i name="atom">   1626.71546820 </i>
    <i name="e_fr_energy">    -75.05069415 </i>
    <i name="e_wo_entrp">    -75.04580124 </i>
    <i name="e_0_energy">    -75.04824770 </i>
   </energy>
  </scstep>
  <scstep>
   <time name="dav">    0.50    0.50</time>
   <time name="total">    0.54    0.55</time>
   <energy>
    <i name="e_fr_energy">    -25.64092213 </i>
    <i name="e_wo_entrp">    -25.63701058 </i>
    <i name="e_0_energy">    -25.63896635 </i>
   </energy>
  </scstep>
  <scstep>
   <time name="dav">    0.55    0.56</time>
   <time name="total">    0.60    0.60</time>
   <energy>
    <i name="e_fr_energy">    -17.73529873 </i>
    <i name="e_wo_entrp">    -17.73164210 </i>
    <i name="e_0_energy">    -17.73347042 </i>
   </energy>
  </scstep>
  <scstep>
   <time name="dav">    0.52    0.52</time>
   <time name="total">    0.57    0.57</time>
   <energy>
    <i name="e_fr_energy">    -16.03637283 </i>
    <i name="e_wo_entrp">    -16.03086733 </i>
    <i name="e_0_energy">    -16.03362008 </i>
   </energy>
  </scstep>
  <scstep>
   <time name="dav">    0.47    0.48</time>
   <time name="total">    0.52    0.52</time>
   <energy>
    <i name="e_fr_energy">    -13.00769098 </i>
    <i name="e_wo_entrp">    -13.00444183 </i>
    <i name="e_0_energy">    -13.00606641 </i>
   </energy>
  </scstep>
  <scstep>
   <time name="dav">    0.52    0.52</time>
   <time name="total">    0.57    0.57</time>
   <energy>
    <i name="e_fr_energy">    -13.00624445 </i>
    <i name="e_wo_entrp">    -13.00180853 </i>
    <i name="e_0_energy">    -13.00402649 </i>
   </energy>
  </scstep>
  <scstep>
   <time name="dav">    0.58    0.58</time>
   <time name="total">    0.62    0.63</time>
   <energy>
    <i name="e_fr_energy">    -12.99168927 </i>
    <i name="e_wo_entrp">    -12.98775441 </i>
    <i name="e_0_energy">    -12.98972184 </i>
   </energy>
  </scstep>
  <scstep>
   <time name="dav">    0.53    0.53</time>
   <time name="total">    0.57    0.58</time>
   <energy>
    <i name="e_fr_energy">    -12.99373133 </i>
    <i name="e_wo_entrp">    -12.98955620 </i>
    <i name="e_0_energy">    -12.99164377 </i>
   </energy>
  </scstep>
  <scstep>
   <time name="dav">    0.59    0.59</time>
   <time name="total">    0.64    0.64</time>
   <energy>
    <i name="e_fr_energy">    -12.99348494 </i>
    <i name="e_wo_entrp">    -12.98938958 </i>
    <i name="e_0_energy">    -12.99143726 </i>
   </energy>
  </scstep>
  <scstep>
   <time name="dav">    0.62    0.62</time>
   <time name="total">    0.67    0.67</time>
   <energy>
    <i name="e_fr_energy">    -12.99364642 </i>
    <i name="e_wo_entrp">    -12.98956975 </i>
    <i name="e_0_energy">    -12.99160809 </i>
   </energy>
  </scstep>
  <scstep>
   <time name="dav">    0.52    0.53</time>
   <time name="total">    0.57    0.57</time>
   <energy>
    <i name="e_fr_energy">    -12.99359451 </i>
    <i name="e_wo_entrp">    -12.98954400 </i>
    <i name="e_0_energy">    -12.99156925 </i>
   </energy>
  </scstep>
  <scstep>
   <time name="dav">    0.51    0.51</time>
   <time name="total">    0.56    0.56</time>
   <energy>
    <i name="e_fr_energy">    -12.99358797 </i>
    <i name="e_wo_entrp">    -12.98954669 </i>
    <i name="e_0_energy">    -12.99156733 </i>
   </energy>
  </scstep>
  <scstep>
   <time name="dav">    0.36    0.36</time>
   <time name="total">    0.40    0.41</time>
   <energy>
    <i name="e_fr_energy">    -12.99358684 </i>
    <i name="e_wo_entrp">    -12.98954305 </i>
    <i name="e_0_energy">    -12.99156494 </i>
   </energy>
  </scstep>
  <scstep>
   <time name="dav">    0.30    0.30</time>
   <time name="total">    0.31    0.32</time>
   <energy>
    <i name="alphaZ">     67.36579637 </i>
    <i name="ewald">  -1421.64667018 </i>
    <i name="hartreedc">   -320.39523886 </i>
    <i name="XCdc">     32.41836257 </i>
    <i name="pawpsdc">   1740.76388501 </i>
    <i name="pawaedc">  -1846.75046735 </i>
    <i name="eentropy">     -0.00404744 </i>
    <i name="bandstr">    108.53932460 </i>
    <i name="atom">   1626.71546820 </i>
    <i name="e_fr_energy">    -12.99358707 </i>
    <i name="e_wo_entrp">    -12.98953963 </i>
    <i name="e_0_energy">    -12.99156335 </i>
   </energy>
  </scstep>
  <structure>
   <crystal>
    <varray name="basis" >
     <v>       2.35394998       0.00000000      -0.00000000 </v>
     <v>      -1.17697499       2.03858048       0.00000000 </v>
     <v>      -0.00000000       0.00000000       5.24116373 </v>
    </varray>
    <i name="volume">     25.15085885 </i>
    <varray name="rec_basis" >
     <v>       0.42481786       0.24526871       0.00000000 </v>
     <v>      -0.00000000       0.49053741      -0.00000000 </v>
     <v>       0.00000000      -0.00000000       0.19079732 </v>
    </varray>
   </crystal>
   <varray name="positions" >
    <v>       0.00000000      -0.00000000      -0.00000000 </v>
    <v>       0.33333333       0.66666667       0.50000000 </v>
   </varray>
  </structure>
  <varray name="forces" >
   <v>      -0.00000000       0.00000000       0.00000000 </v>
   <v>       0.00000000      -0.00000000      -0.00000000 </v>
  </varray>
  <varray name="stress" >
   <v>     115.23588973       0.00000000       0.00000000 </v>
   <v>       0.00000000     115.23588973      -0.00000000 </v>
   <v>      -0.00000000       0.00000000    -354.12876880 </v>
  </varray>
  <energy>
   <i name="e_fr_energy">    -12.99358707 </i>
   <i name="e_wo_entrp">    -12.98953963 </i>
   <i name="e_0_energy">    -12.99156335 </i>
  </energy>
  <time name="totalsc">    7.84    7.88</time>
 </calculation>
 <calculation>
  <scstep>
   <time name="dav">    0.49    0.50</time>
   <time name="total">    0.54    0.54</time>
   <energy>
    <i name="alphaZ">     81.64079654 </i>
    <i name="ewald">  -1541.46916616 </i>
    <i name="hartreedc">   -323.11857701 </i>
    <i name="XCdc">     37.33773765 </i>
    <i name="pawpsdc">   1740.82500733 </i>
    <i name="pawaedc">  -1846.81270201 </i>
    <i name="eentropy">     -0.00206662 </i>
    <i name="bandstr">    199.89915648 </i>
    <i name="atom">   1626.71546820 </i>
    <i name="e_fr_energy">    -24.98434560 </i>
    <i name="e_wo_entrp">    -24.98227898 </i>
    <i name="e_0_energy">    -24.98331229 </i>
   </energy>
  </scstep>
  <scstep>
   <time name="dav">    0.52    0.52</time>
   <time name="total">    0.57    0.57</time>
   <energy>
    <i name="e_fr_energy">    -15.60161841 </i>
    <i name="e_wo_entrp">    -15.59848956 </i>
    <i name="e_0_energy">    -15.60005398 </i>
   </energy>
  </scstep>
  <scstep>
   <time name="dav">    0.51    0.51</time>
   <time name="total">    0.56    0.56</time>
   <energy>
    <i name="e_fr_energy">    -14.29910734 </i>
    <i name="e_wo_entrp">    -14.29577407 </i>
    <i name="e_0_energy">    -14.29744070 </i>
   </energy>
  </scstep>
  <scstep>
   <time name="dav">    0.53    0.53</time>
   <time name="total">    0.57    0.58</time>
   <energy>
    <i name="e_fr_energy">    -13.94926799 </i>
    <i name="e_wo_entrp">    -13.94580314 </i>
    <i name="e_0_energy">    -13.94753556 </i>
   </energy>
  </scstep>
  <scstep>
   <time name="dav">    0.59    0.59</time>
   <time name="total">    0.64    0.64</time>
   <energy>
    <i name="e_fr_energy">    -13.83461686 </i>
    <i name="e_wo_entrp">    -13.83178884 </i>
    <i name="e_0_energy">    -13.83320285 </i>
   </energy>
  </scstep>
  <scstep>
   <time name="dav">    0.49    0.49</time>
   <time name="total">    0.54    0.54</time>
   <energy>
    <i name="e_fr_energy">    -13.82856713 </i>
    <i name="e_wo_entrp">    -13.82558342 </i>
    <i name="e_0_energy">    -13.82707527 </i>
   </energy>
  </scstep>
  <scstep>
   <time name="dav">    0.61    0.61</time>
   <time name="total">    0.66    0.66</time>
   <energy>
    <i name="e_fr_energy">    -13.82782318 </i>
    <i name="e_wo_entrp">    -13.82490202 </i>
    <i name="e_0_energy">    -13.82636260 </i>
   </energy>
  </scstep>
  <scstep>
   <time name="dav">    0.53    0.53</time>
   <time name="total">    0.58    0.58</time>
   <energy>
    <i name="e_fr_energy">    -13.82799002 </i>
    <i name="e_wo_entrp">    -13.82511758 </i>
    <i name="e_0_energy">    -13.82655380 </i>
   </energy>
  </scstep>
  <scstep>
   <time name="dav">    0.57    0.57</time>
   <time name="total">    0.61    0.62</time>
   <energy>
    <i name="e_fr_energy">    -13.82796594 </i>
    <i name="e_wo_entrp">    -13.82511168 </i>
    <i name="e_0_energy">    -13.82653881 </i>
   </energy>
  </scstep>
  <scstep>
   <time name="dav">    0.56    0.56</time>
   <time name="total">    0.60    0.61</time>
   <energy>
    <i name="e_fr_energy">    -13.82795289 </i>
    <i name="e_wo_entrp">    -13.82509075 </i>
    <i name="e_0_energy">    -13.82652182 </i>
   </energy>
  </scstep>
  <scstep>
   <time name="dav">    0.33    0.33</time>
   <time name="total">    0.34    0.34</time>
   <energy>
    <i name="alphaZ">     81.64079654 </i>
    <i name="ewald">  -1541.46916616 </i>
    <i name="hartreedc">   -257.84757632 </i>
    <i name="XCdc">     33.14689791 </i>
    <i name="pawpsdc">   1869.70632517 </i>
    <i name="pawaedc">  -1976.33770067 </i>
    <i name="eentropy">     -0.00286528 </i>
    <i name="bandstr">    150.61986838 </i>
    <i name="atom">   1626.71546820 </i>
    <i name="e_fr_energy">    -13.82795223 </i>
    <i name="e_wo_entrp">    -13.82508695 </i>
    <i name="e_0_energy">    -13.82651959 </i>
   </energy>
  </scstep>
  <structure>
   <crystal>
    <varray name="basis" >
     <v>       2.35871966       0.00000000      -0.00000000 </v>
     <v>      -1.17935983       2.04271114       0.00000000 </v>
     <v>      -0.00000000       0.00000000       4.30726657 </v>
    </varray>
    <i name="volume">     20.75319825 </i>
    <varray name="rec_basis" >
     <v>       0.42395882       0.24477274       0.00000000 </v>
     <v>      -0.00000000       0.48954548      -0.00000000 </v>
     <v>       0.00000000      -0.00000000       0.23216580 </v>
    </varray>
   </crystal>
   <varray name="positions" >
    <v>       0.00000000      -0.00000000      -0.00000000 </v>
    <v>       0.33333333       0.66666667       0.50000000 </v>
   </varray>
  </structure>
  <varray name="forces" >
   <v>      -0.00000000       0.00000000      -0.00000000 </v>
   <v>       0.00000000      -0.00000000       0.00000000 </v>
  </varray>
  <varray name="stress" >
   <v>     290.35670220      -0.00000000       0.00000000 </v>
   <v>       0.00000000     290.35670220       0.00000000 </v>
   <v>       0.00000000      -0.00000000    -140.81589358 </v>
  </varray>
  <energy>
   <i name="e_fr_energy">    -13.82795223 </i>
   <i name="e_wo_entrp">    -13.82508695 </i>
   <i name="e_0_energy">    -13.82651959 </i>
  </energy>
  <time name="totalsc">    6.40    6.44</time>
 </calculation>
 <calculation>
  <scstep>
   <time name="dav">    0.49    0.50</time>
   <time name="total">    0.54    0.54</time>
   <energy>
    <i name="alphaZ">     89.70088415 </i>
    <i name="ewald">  -1593.66574734 </i>
    <i name="hartreedc">   -263.74499963 </i>
    <i name="XCdc">     35.46358161 </i>
    <i name="pawpsdc">   1869.72617766 </i>
    <i name="pawaedc">  -1976.35487613 </i>
    <i name="eentropy">     -0.00283452 </i>
    <i name="bandstr">    195.98273797 </i>
    <i name="atom">   1626.71546820 </i>
    <i name="e_fr_energy">    -16.17960803 </i>
    <i name="e_wo_entrp">    -16.17677351 </i>
    <i name="e_0_energy">    -16.17819077 </i>
   </energy>
  </scstep>
  <scstep>
   <time name="dav">    0.51    0.51</time>
   <time name="total">    0.56    0.56</time>
   <energy>
    <i name="e_fr_energy">    -14.15213107 </i>
    <i name="e_wo_entrp">    -14.15002694 </i>
    <i name="e_0_energy">    -14.15107901 </i>
   </energy>
  </scstep>
  <scstep>
   <time name="dav">    0.51    0.51</time>
   <time name="total">    0.56    0.56</time>
   <energy>
    <i name="e_fr_energy">    -13.87300504 </i>
    <i name="e_wo_entrp">    -13.87141188 </i>
    <i name="e_0_energy">    -13.87220846 </i>
   </energy>
  </scstep>
  <scstep>
   <time name="dav">    0.49    0.49</time>
   <time name="total">    0.54    0.54</time>
   <energy>
    <i name="e_fr_energy">    -13.79436119 </i>
    <i name="e_wo_entrp">    -13.79253718 </i>
    <i name="e_0_energy">    -13.79344918 </i>
   </energy>
  </scstep>
  <scstep>
   <time name="dav">    0.61    0.61</time>
   <time name="total">    0.65    0.65</time>
   <energy>
    <i name="e_fr_energy">    -13.76523000 </i>
    <i name="e_wo_entrp">    -13.76345384 </i>
    <i name="e_0_energy">    -13.76434192 </i>
   </energy>
  </scstep>
  <scstep>
   <time name="dav">    0.49    0.49</time>
   <time name="total">    0.54    0.54</time>
   <energy>
    <i name="e_fr_energy">    -13.76475965 </i>
    <i name="e_wo_entrp">    -13.76303105 </i>
    <i name="e_0_energy">    -13.76389535 </i>
   </energy>
  </scstep>
  <scstep>
   <time name="dav">    0.57    0.57</time>
   <time name="total">    0.61    0.62</time>
   <energy>
    <i name="e_fr_energy">    -13.76483373 </i>
    <i name="e_wo_entrp">    -13.76312566 </i>
    <i name="e_0_energy">    -13.76397969 </i>
   </energy>
  </scstep>
  <scstep>
   <time name="dav">    0.50    0.50</time>
   <time name="total">    0.54    0.54</time>
   <energy>
    <i name="e_fr_energy">    -13.76484838 </i>
    <i name="e_wo_entrp">    -13.76314376 </i>
    <i name="e_0_energy">    -13.76399607 </i>
   </energy>
  </scstep>
  <scstep>
   <time name="dav">    0.49    0.49</time>
   <time name="total">    0.54    0.54</time>
   <energy>
    <i name="e_fr_energy">    -13.76483017 </i>
    <i name="e_wo_entrp">    -13.76311996 </i>
    <i name="e_0_energy">    -13.76397507 </i>
   </energy>
  </scstep>
  <scstep>
   <time name="dav">    0.32    0.32</time>
   <time name="total">    0.33    0.34</time>
   <energy>
    <i name="alphaZ">     89.70088415 </i>
    <i name="ewald">  -1593.66574734 </i>
    <i name="hartreedc">   -236.19591942 </i>
    <i name="XCdc">     33.57321224 </i>
    <i name="pawpsdc">   1986.48415615 </i>
    <i name="pawaedc">  -2093.90344269 </i>
    <i name="eentropy">     -0.00171129 </i>
    <i name="bandstr">    173.52827069 </i>
    <i name="atom">   1626.71546820 </i>
    <i name="e_fr_energy">    -13.76482931 </i>
    <i name="e_wo_entrp">    -13.76311803 </i>
    <i name="e_0_energy">    -13.76397367 </i>
   </energy>
  </scstep>
  <structure>
   <crystal>
    <varray name="basis" >
     <v>       2.36073042       0.00000000      -0.00000000 </v>
     <v>      -1.18036521       2.04445252       0.00000000 </v>
     <v>      -0.00000000       0.00000000       3.91356111 </v>
    </varray>
    <i name="volume">     18.88841623 </i>
    <varray name="rec_basis" >
     <v>       0.42359771       0.24456425       0.00000000 </v>
     <v>      -0.00000000       0.48912850      -0.00000000 </v>
     <v>       0.00000000      -0.00000000       0.25552175 </v>
    </varray>
   </crystal>
   <varray name="positions" >
    <v>       0.00000000      -0.00000000      -0.00000000 </v>
    <v>       0.33333333       0.66666667       0.50000000 </v>
   </varray>
  </structure>
  <varray name="forces" >
   <v>      -0.00000000      -0.00000000      -0.00000000 </v>
   <v>       0.00000000       0.00000000       0.00000000 </v>
  </varray>
  <varray name="stress" >
   <v>     432.10803133       0.00000000       0.00000000 </v>
   <v>       0.00000000     432.10803133      -0.00000000 </v>
   <v>       0.00000000      -0.00000000     315.32303842 </v>
  </varray>
  <energy>
   <i name="e_fr_energy">    -13.76482931 </i>
   <i name="e_wo_entrp">    -13.76311803 </i>
   <i name="e_0_energy">    -13.76397367 </i>
  </energy>
  <time name="totalsc">    5.61    5.64</time>
 </calculation>
 <calculation>
  <scstep>
   <time name="dav">    0.48    0.48</time>
   <time name="total">    0.52    0.53</time>
   <energy>
    <i name="alphaZ">     84.33288230 </i>
    <i name="ewald">  -1559.84030391 </i>
    <i name="hartreedc">   -231.54722362 </i>
    <i name="XCdc">     32.15265613 </i>
    <i name="pawpsdc">   1986.51828559 </i>
    <i name="pawaedc">  -2093.93461873 </i>
    <i name="eentropy">     -0.00422983 </i>
    <i name="bandstr">    140.59343072 </i>
    <i name="atom">   1626.71546820 </i>
    <i name="e_fr_energy">    -15.01365314 </i>
    <i name="e_wo_entrp">    -15.00942331 </i>
    <i name="e_0_energy">    -15.01153823 </i>
   </energy>
[...]
       </set>
       <set comment="band 12">
        <r>  0.0651  0.0448  0.0003  0.0478  0.1577  0.0009  0.1189  0.0010  0.1060 </r>
        <r>  0.0004  0.0003  0.0439  0.0003  0.0009  0.1611  0.0007  0.1760  0.0006 </r>
       </set>
       <set comment="band 13">
        <r>  0.1780  0.0191  0.0000  0.1933  0.1206  0.0000  0.0362  0.0000  0.0919 </r>
        <r>  0.0000  0.0000  0.0466  0.0000  0.0000  0.0237  0.0000  0.1219  0.0000 </r>
       </set>
       <set comment="band 14">
        <r>  0.0000  0.0000  0.0466  0.0000  0.0000  0.0237  0.0000  0.1219  0.0000 </r>
        <r>  0.1780  0.0191  0.0000  0.1933  0.1206  0.0000  0.0362  0.0000  0.0919 </r>
       </set>
       <set comment="band 15">
        <r>  0.0555  0.3106  0.0000  0.0242  0.0325  0.0001  0.0754  0.0000  0.1071 </r>
        <r>  0.0000  0.0003  0.0112  0.0000  0.0000  0.1369  0.0001  0.0150  0.0001 </r>
       </set>
       <set comment="band 16">
        <r>  0.0000  0.0003  0.0112  0.0000  0.0000  0.1369  0.0001  0.0150  0.0001 </r>
        <r>  0.0555  0.3106  0.0000  0.0242  0.0325  0.0001  0.0754  0.0000  0.1071 </r>
       </set>
      </set>
      <set comment="kpoint 66">
       <set comment="band 1">
        <r>  0.1191  0.0184  0.0000  0.0094  0.2204  0.0001  0.0228  0.0003  0.0653 </r>
        <r>  0.0001  0.0000  0.0102  0.0000  0.0002  0.1185  0.0000  0.2710  0.0001 </r>
       </set>
       <set comment="band 2">
        <r>  0.0001  0.0000  0.0102  0.0000  0.0002  0.1185  0.0000  0.2710  0.0001 </r>
        <r>  0.1191  0.0184  0.0000  0.0094  0.2204  0.0001  0.0228  0.0003  0.0653 </r>
       </set>
       <set comment="band 3">
        <r>  0.0000  0.0002  0.0131  0.0003  0.0044  0.0698  0.0034  0.1255  0.0019 </r>
        <r>  0.0016  0.0122  0.0002  0.0238  0.3052  0.0010  0.2340  0.0018  0.1297 </r>
       </set>
       <set comment="band 4">
        <r>  0.0016  0.0122  0.0002  0.0238  0.3052  0.0010  0.2340  0.0018  0.1297 </r>
        <r>  0.0000  0.0002  0.0131  0.0003  0.0044  0.0698  0.0034  0.1255  0.0019 </r>
       </set>
       <set comment="band 5">
        <r>  0.0146  0.0345  0.0000  0.0975  0.0103  0.0003  0.1438  0.0002  0.0804 </r>
        <r>  0.0000  0.0000  0.0378  0.0001  0.0000  0.3013  0.0002  0.1677  0.0001 </r>
       </set>
       <set comment="band 6">
        <r>  0.0000  0.0000  0.0378  0.0001  0.0000  0.3013  0.0002  0.1677  0.0001 </r>
        <r>  0.0146  0.0345  0.0000  0.0975  0.0103  0.0003  0.1438  0.0002  0.0804 </r>
       </set>
       <set comment="band 7">
        <r>  0.0031  0.0192  0.0000  0.0514  0.0409  0.0000  0.1151  0.0000  0.2813 </r>
        <r>  0.0000  0.0000  0.0173  0.0000  0.0000  0.2732  0.0000  0.1441  0.0000 </r>
       </set>
       <set comment="band 8">
        <r>  0.0000  0.0000  0.0173  0.0000  0.0000  0.2732  0.0000  0.1441  0.0000 </r>
        <r>  0.0031  0.0192  0.0000  0.0514  0.0409  0.0000  0.1151  0.0000  0.2813 </r>
       </set>
       <set comment="band 9">
        <r>  0.0004  0.0016  0.0000  0.0005  0.1668  0.0000  0.3860  0.0000  0.2085 </r>
        <r>  0.0000  0.0000  0.0025  0.0000  0.0000  0.1084  0.0001  0.1127  0.0000 </r>
       </set>
       <set comment="band 10">
        <r>  0.0000  0.0000  0.0025  0.0000  0.0000  0.1084  0.0001  0.1127  0.0000 </r>
        <r>  0.0004  0.0016  0.0000  0.0005  0.1668  0.0000  0.3860  0.0000  0.2085 </r>
       </set>
       <set comment="band 11">
        <r>  0.0000  0.0001  0.0695  0.0001  0.0001  0.0680  0.0000  0.0681  0.0001 </r>
        <r>  0.0303  0.0815  0.0000  0.1677  0.1581  0.0000  0.0537  0.0000  0.1741 </r>
       </set>
       <set comment="band 12">
        <r>  0.0303  0.0815  0.0000  0.1677  0.1581  0.0000  0.0537  0.0000  0.1741 </r>
        <r>  0.0000  0.0001  0.0695  0.0001  0.0001  0.0680  0.0000  0.0681  0.0001 </r>
       </set>
       <set comment="band 13">
        <r>  0.3204  0.0044  0.0000  0.0736  0.1422  0.0000  0.0222  0.0000  0.0790 </r>
        <r>  0.0000  0.0000  0.0349  0.0000  0.0000  0.0416  0.0000  0.1584  0.0000 </r>
       </set>
       <set comment="band 14">
        <r>  0.0000  0.0000  0.0349  0.0000  0.0000  0.0416  0.0000  0.1584  0.0000 </r>
        <r>  0.3204  0.0044  0.0000  0.0736  0.1422  0.0000  0.0222  0.0000  0.0790 </r>
       </set>
       <set comment="band 15">
        <r>  0.0784  0.2901  0.0000  0.0688  0.0590  0.0000  0.0428  0.0000  0.0505 </r>
        <r>  0.0000  0.0000  0.0111  0.0000  0.0000  0.1209  0.0000  0.0322  0.0000 </r>
       </set>
       <set comment="band 16">
        <r>  0.0000  0.0000  0.0111  0.0000  0.0000  0.1209  0.0000  0.0322  0.0000 </r>
        <r>  0.0784  0.2901  0.0000  0.0688  0.0590  0.0000  0.0428  0.0000  0.0505 </r>
       </set>
      </set>
      <set comment="kpoint 67">
       <set comment="band 1">
        <r>  0.2340  0.0755  0.0002  0.0266  0.0469  0.0007  0.0068  0.0002  0.0222 </r>
        <r>  0.0007  0.0002  0.0718  0.0001  0.0001  0.2279  0.0000  0.0760  0.0001 </r>
       </set>
       <set comment="band 2">
        <r>  0.0007  0.0002  0.0718  0.0001  0.0001  0.2279  0.0000  0.0760  0.0001 </r>
        <r>  0.2340  0.0755  0.0002  0.0266  0.0469  0.0007  0.0068  0.0002  0.0222 </r>
       </set>
       <set comment="band 3">
        <r>  0.0000  0.0000  0.0221  0.0000  0.0002  0.0506  0.0001  0.0190  0.0004 </r>
        <r>  0.0225  0.0314  0.0000  0.0316  0.1869  0.0000  0.0852  0.0000  0.4622 </r>
       </set>
       <set comment="band 4">
        <r>  0.0225  0.0314  0.0000  0.0316  0.1869  0.0000  0.0852  0.0000  0.4622 </r>
        <r>  0.0000  0.0000  0.0221  0.0000  0.0002  0.0506  0.0001  0.0190  0.0004 </r>
       </set>
       <set comment="band 5">
        <r>  0.0012  0.0305  0.0000  0.0147  0.0758  0.0000  0.4780  0.0000  0.1383 </r>
        <r>  0.0000  0.0000  0.0009  0.0000  0.0000  0.0823  0.0000  0.1110  0.0000 </r>
       </set>
       <set comment="band 6">
        <r>  0.0000  0.0000  0.0009  0.0000  0.0000  0.0823  0.0000  0.1110  0.0000 </r>
        <r>  0.0012  0.0305  0.0000  0.0147  0.0758  0.0000  0.4780  0.0000  0.1383 </r>
       </set>
       <set comment="band 7">
        <r>  0.0035  0.0027  0.0000  0.0011  0.1350  0.0001  0.0066  0.0002  0.0944 </r>
        <r>  0.0000  0.0000  0.0010  0.0000  0.0000  0.2026  0.0000  0.5173  0.0000 </r>
       </set>
       <set comment="band 8">
        <r>  0.0000  0.0000  0.0010  0.0000  0.0000  0.2026  0.0000  0.5173  0.0000 </r>
        <r>  0.0035  0.0027  0.0000  0.0011  0.1350  0.0001  0.0066  0.0002  0.0944 </r>
       </set>
       <set comment="band 9">
        <r>  0.0000  0.0000  0.0000  0.0000  0.2841  0.0000  0.3191  0.0000  0.0985 </r>
        <r>  0.0000  0.0000  0.0019  0.0000  0.0000  0.1498  0.0000  0.1379  0.0000 </r>
       </set>
       <set comment="band 10">
        <r>  0.0000  0.0000  0.0019  0.0000  0.0000  0.1498  0.0000  0.1379  0.0000 </r>
        <r>  0.0000  0.0000  0.0000  0.0000  0.2841  0.0000  0.3191  0.0000  0.0985 </r>
       </set>
       <set comment="band 11">
        <r>  0.0036  0.0032  0.0460  0.0011  0.0114  0.2292  0.0024  0.0825  0.0048 </r>
        <r>  0.0716  0.0635  0.0023  0.0221  0.2251  0.0116  0.0471  0.0042  0.0949 </r>
       </set>
       <set comment="band 12">
        <r>  0.0716  0.0635  0.0023  0.0221  0.2251  0.0116  0.0471  0.0042  0.0949 </r>
        <r>  0.0036  0.0032  0.0460  0.0011  0.0114  0.2292  0.0024  0.0825  0.0048 </r>
       </set>
       <set comment="band 13">
        <r>  0.0017  0.0795  0.0000  0.2024  0.0834  0.0000  0.0108  0.0000  0.2503 </r>
        <r>  0.0000  0.0000  0.0660  0.0001  0.0000  0.0481  0.0000  0.0484  0.0001 </r>
       </set>
       <set comment="band 14">
        <r>  0.0000  0.0000  0.0660  0.0001  0.0000  0.0481  0.0000  0.0484  0.0001 </r>
        <r>  0.0017  0.0795  0.0000  0.2024  0.0834  0.0000  0.0108  0.0000  0.2503 </r>
       </set>
       <set comment="band 15">
        <r>  0.2319  0.2025  0.0000  0.0753  0.0104  0.0000  0.0904  0.0000  0.0125 </r>
        <r>  0.0000  0.0000  0.0038  0.0000  0.0000  0.1015  0.0000  0.0885  0.0000 </r>
       </set>
       <set comment="band 16">
        <r>  0.0000  0.0000  0.0038  0.0000  0.0000  0.1015  0.0000  0.0885  0.0000 </r>
        <r>  0.2319  0.2025  0.0000  0.0753  0.0104  0.0000  0.0904  0.0000  0.0125 </r>
       </set>
      </set>
      <set comment="kpoint 68">
       <set comment="band 1">
        <r>  0.1143  0.0496  0.0001  0.0166  0.1259  0.0006  0.0433  0.0005  0.0272 </r>
        <r>  0.0003  0.0001  0.0209  0.0000  0.0003  0.2401  0.0001  0.2037  0.0001 </r>
       </set>
       <set comment="band 2">
        <r>  0.0003  0.0001  0.0209  0.0000  0.0003  0.2401  0.0001  0.2037  0.0001 </r>
        <r>  0.1143  0.0496  0.0001  0.0166  0.1259  0.0006  0.0433  0.0005  0.0272 </r>
       </set>
       <set comment="band 3">
        <r>  0.0011  0.0019  0.0235  0.0028  0.0224  0.0837  0.0080  0.0120  0.0244 </r>
        <r>  0.0129  0.0229  0.0020  0.0330  0.2685  0.0070  0.0955  0.0010  0.2926 </r>
       </set>
       <set comment="band 4">
        <r>  0.0129  0.0229  0.0020  0.0330  0.2685  0.0070  0.0955  0.0010  0.2926 </r>
        <r>  0.0011  0.0019  0.0235  0.0028  0.0224  0.0837  0.0080  0.0120  0.0244 </r>
       </set>
       <set comment="band 5">
        <r>  0.0109  0.0457  0.0000  0.0692  0.0429  0.0001  0.2564  0.0001  0.1519 </r>
        <r>  0.0000  0.0000  0.0198  0.0000  0.0000  0.0812  0.0002  0.2167  0.0001 </r>
       </set>
       <set comment="band 6">
        <r>  0.0000  0.0000  0.0198  0.0000  0.0000  0.0812  0.0002  0.2167  0.0001 </r>
        <r>  0.0109  0.0457  0.0000  0.0692  0.0429  0.0001  0.2564  0.0001  0.1519 </r>
       </set>
       <set comment="band 7">
        <r>  0.0081  0.0028  0.0000  0.0060  0.1153  0.0000  0.0463  0.0000  0.2204 </r>
        <r>  0.0000  0.0000  0.0011  0.0000  0.0000  0.2549  0.0000  0.3076  0.0000 </r>
       </set>
       <set comment="band 8">
        <r>  0.0000  0.0000  0.0011  0.0000  0.0000  0.2549  0.0000  0.3076  0.0000 </r>
        <r>  0.0081  0.0028  0.0000  0.0060  0.1153  0.0000  0.0463  0.0000  0.2204 </r>
       </set>
       <set comment="band 9">
        <r>  0.0001  0.0025  0.0000  0.0007  0.1282  0.0000  0.5013  0.0000  0.0541 </r>
        <r>  0.0000  0.0000  0.0034  0.0000  0.0000  0.1718  0.0000  0.1265  0.0000 </r>
       </set>
       <set comment="band 10">
        <r>  0.0000  0.0000  0.0034  0.0000  0.0000  0.1718  0.0000  0.1265  0.0000 </r>
        <r>  0.0001  0.0025  0.0000  0.0007  0.1282  0.0000  0.5013  0.0000  0.0541 </r>
       </set>
       <set comment="band 11">
        <r>  0.0005  0.0008  0.0734  0.0006  0.0019  0.1040  0.0000  0.0437  0.0010 </r>
        <r>  0.0713  0.1117  0.0005  0.0832  0.2502  0.0008  0.0049  0.0003  0.1389 </r>
       </set>
       <set comment="band 12">
        <r>  0.0713  0.1117  0.0005  0.0832  0.2502  0.0008  0.0049  0.0003  0.1389 </r>
        <r>  0.0005  0.0008  0.0734  0.0006  0.0019  0.1040  0.0000  0.0437  0.0010 </r>
       </set>
       <set comment="band 13">
        <r>  0.1637  0.0056  0.0000  0.2145  0.0904  0.0000  0.0185  0.0000  0.1447 </r>
        <r>  0.0000  0.0000  0.0472  0.0000  0.0000  0.0191  0.0000  0.1336  0.0000 </r>
       </set>
       <set comment="band 14">
        <r>  0.0000  0.0000  0.0472  0.0000  0.0000  0.0191  0.0000  0.1336  0.0000 </r>
        <r>  0.1637  0.0056  0.0000  0.2145  0.0904  0.0000  0.0185  0.0000  0.1447 </r>
       </set>
       <set comment="band 15">
        <r>  0.2143  0.2380  0.0000  0.0184  0.0306  0.0000  0.0463  0.0000  0.0603 </r>
        <r>  0.0000  0.0000  0.0201  0.0000  0.0000  0.1332  0.0000  0.0386  0.0000 </r>
       </set>
       <set comment="band 16">
        <r>  0.0000  0.0000  0.0201  0.0000  0.0000  0.1332  0.0000  0.0386  0.0000 </r>
        <r>  0.2143  0.2380  0.0000  0.0184  0.0306  0.0000  0.0463  0.0000  0.0603 </r>
       </set>
      </set>
      <set comment="kpoint 69">
       <set comment="band 1">
        <r>  0.0770  0.0273  0.0000  0.0205  0.1729  0.0001  0.0508  0.0003  0.0631 </r>
        <r>  0.0001  0.0000  0.0030  0.0000  0.0002  0.1125  0.0001  0.3374  0.0001 </r>
       </set>
       <set comment="band 2">
        <r>  0.0001  0.0000  0.0030  0.0000  0.0002  0.1125  0.0001  0.3374  0.0001 </r>
        <r>  0.0770  0.0273  0.0000  0.0205  0.1729  0.0001  0.0508  0.0003  0.0631 </r>
       </set>
       <set comment="band 3">
        <r>  0.0012  0.0286  0.0001  0.0154  0.3195  0.0010  0.2229  0.0010  0.1149 </r>
        <r>  0.0000  0.0003  0.0096  0.0002  0.0032  0.1012  0.0022  0.1050  0.0011 </r>
       </set>
       <set comment="band 4">
        <r>  0.0000  0.0003  0.0096  0.0002  0.0032  0.1012  0.0022  0.1050  0.0011 </r>
        <r>  0.0012  0.0286  0.0001  0.0154  0.3195  0.0010  0.2229  0.0010  0.1149 </r>
       </set>
       <set comment="band 5">
        <r>  0.0000  0.0001  0.0387  0.0003  0.0002  0.2694  0.0001  0.0997  0.0005 </r>
        <r>  0.0171  0.0351  0.0001  0.1052  0.0884  0.0007  0.0457  0.0003  0.1734 </r>
       </set>
       <set comment="band 6">
        <r>  0.0171  0.0351  0.0001  0.1052  0.0884  0.0007  0.0457  0.0003  0.1734 </r>
        <r>  0.0000  0.0001  0.0387  0.0003  0.0002  0.2694  0.0001  0.0997  0.0005 </r>
       </set>
       <set comment="band 7">
        <r>  0.0007  0.0089  0.0000  0.0241  0.1485  0.0000  0.0176  0.0000  0.3362 </r>
        <r>  0.0000  0.0000  0.0052  0.0000  0.0000  0.2797  0.0000  0.1387  0.0000 </r>
       </set>
       <set comment="band 8">
        <r>  0.0000  0.0000  0.0052  0.0000  0.0000  0.2797  0.0000  0.1387  0.0000 </r>
        <r>  0.0007  0.0089  0.0000  0.0241  0.1485  0.0000  0.0176  0.0000  0.3362 </r>
       </set>
       <set comment="band 9">
        <r>  0.0007  0.0010  0.0000  0.0003  0.0435  0.0000  0.6162  0.0000  0.0394 </r>
        <r>  0.0000  0.0000  0.0012  0.0000  0.0000  0.1180  0.0000  0.1665  0.0000 </r>
       </set>
       <set comment="band 10">
        <r>  0.0000  0.0000  0.0012  0.0000  0.0000  0.1180  0.0000  0.1665  0.0000 </r>
        <r>  0.0007  0.0010  0.0000  0.0003  0.0435  0.0000  0.6162  0.0000  0.0394 </r>
       </set>
       <set comment="band 11">
        <r>  0.0000  0.0000  0.1024  0.0001  0.0000  0.0338  0.0000  0.0319  0.0001 </r>
        <r>  0.0088  0.0827  0.0000  0.2353  0.1033  0.0000  0.0075  0.0000  0.2446 </r>
       </set>
       <set comment="band 12">
        <r>  0.0088  0.0827  0.0000  0.2353  0.1033  0.0000  0.0075  0.0000  0.2446 </r>
        <r>  0.0000  0.0000  0.1024  0.0001  0.0000  0.0338  0.0000  0.0319  0.0001 </r>
       </set>
       <set comment="band 13">
        <r>  0.2818  0.0698  0.0000  0.0386  0.1700  0.0000  0.0132  0.0000  0.0612 </r>
        <r>  0.0000  0.0000  0.0286  0.0000  0.0000  0.0520  0.0000  0.1554  0.0000 </r>
       </set>
       <set comment="band 14">
        <r>  0.0000  0.0000  0.0286  0.0000  0.0000  0.0520  0.0000  0.1554  0.0000 </r>
        <r>  0.2818  0.0698  0.0000  0.0386  0.1700  0.0000  0.0132  0.0000  0.0612 </r>
       </set>
       <set comment="band 15">
        <r>  0.2155  0.1926  0.0000  0.0645  0.0674  0.0000  0.0387  0.0000  0.0225 </r>
        <r>  0.0000  0.0000  0.0209  0.0000  0.0000  0.1218  0.0000  0.0511  0.0000 </r>
       </set>
       <set comment="band 16">
        <r>  0.0000  0.0000  0.0209  0.0000  0.0000  0.1218  0.0000  0.0511  0.0000 </r>
        <r>  0.2155  0.1926  0.0000  0.0645  0.0674  0.0000  0.0387  0.0000  0.0225 </r>
       </set>
      </set>
      <set comment="kpoint 70">
       <set comment="band 1">
        <r>  0.0511  0.0372  0.0000  0.0308  0.0692  0.0008  0.0904  0.0003  0.0806 </r>
        <r>  0.0001  0.0001  0.0021  0.0001  0.0001  0.3788  0.0002  0.1263  0.0002 </r>
       </set>
       <set comment="band 2">
        <r>  0.0001  0.0001  0.0021  0.0001  0.0001  0.3788  0.0002  0.1263  0.0002 </r>
        <r>  0.0511  0.0372  0.0000  0.0308  0.0692  0.0008  0.0904  0.0003  0.0806 </r>
       </set>
       <set comment="band 3">
        <r>  0.0262  0.0184  0.0000  0.0381  0.0643  0.0000  0.1528  0.0001  0.1784 </r>
        <r>  0.0000  0.0000  0.0050  0.0000  0.0000  0.1115  0.0001  0.3049  0.0001 </r>
       </set>
       <set comment="band 4">
        <r>  0.0000  0.0000  0.0050  0.0000  0.0000  0.1115  0.0001  0.3049  0.0001 </r>
        <r>  0.0262  0.0184  0.0000  0.0381  0.0643  0.0000  0.1528  0.0001  0.1784 </r>
       </set>
       <set comment="band 5">
        <r>  0.0000  0.0000  0.0425  0.0000  0.0000  0.0160  0.0000  0.0478  0.0000 </r>
        <r>  0.0009  0.0860  0.0000  0.0497  0.3118  0.0000  0.0443  0.0000  0.2975 </r>
       </set>
       <set comment="band 6">
        <r>  0.0009  0.0860  0.0000  0.0497  0.3118  0.0000  0.0443  0.0000  0.2975 </r>
        <r>  0.0000  0.0000  0.0425  0.0000  0.0000  0.0160  0.0000  0.0478  0.0000 </r>
       </set>
       <set comment="band 7">
        <r>  0.0027  0.0060  0.0000  0.0025  0.2705  0.0000  0.0152  0.0000  0.2097 </r>
        <r>  0.0000  0.0000  0.0003  0.0000  0.0000  0.1887  0.0000  0.2680  0.0000 </r>
       </set>
       <set comment="band 8">
        <r>  0.0000  0.0000  0.0003  0.0000  0.0000  0.1887  0.0000  0.2680  0.0000 </r>
        <r>  0.0027  0.0060  0.0000  0.0025  0.2705  0.0000  0.0152  0.0000  0.2097 </r>
       </set>
       <set comment="band 9">
        <r>  0.0021  0.0010  0.0000  0.0003  0.0245  0.0000  0.6590  0.0000  0.0103 </r>
        <r>  0.0000  0.0000  0.0007  0.0000  0.0000  0.1606  0.0000  0.1280  0.0000 </r>
       </set>
       <set comment="band 10">
        <r>  0.0000  0.0000  0.0007  0.0000  0.0000  0.1606  0.0000  0.1280  0.0000 </r>
        <r>  0.0021  0.0010  0.0000  0.0003  0.0245  0.0000  0.6590  0.0000  0.0103 </r>
       </set>
       <set comment="band 11">
        <r>  0.0000  0.0001  0.1169  0.0000  0.0001  0.0451  0.0000  0.0189  0.0000 </r>
        <r>  0.0346  0.2092  0.0000  0.0831  0.2445  0.0000  0.0005  0.0000  0.1065 </r>
       </set>
       <set comment="band 12">
        <r>  0.0346  0.2092  0.0000  0.0831  0.2445  0.0000  0.0005  0.0000  0.1065 </r>
        <r>  0.0000  0.0001  0.1169  0.0000  0.0001  0.0451  0.0000  0.0189  0.0000 </r>
       </set>
       <set comment="band 13">
        <r>  0.0051  0.0965  0.0000  0.2427  0.0811  0.0000  0.0000  0.0000  0.2178 </r>
        <r>  0.0000  0.0000  0.0444  0.0000  0.0000  0.0790  0.0000  0.0575  0.0000 </r>
       </set>
       <set comment="band 14">
        <r>  0.0000  0.0000  0.0444  0.0000  0.0000  0.0790  0.0000  0.0575  0.0000 </r>
        <r>  0.0051  0.0965  0.0000  0.2427  0.0811  0.0000  0.0000  0.0000  0.2178 </r>
       </set>
       <set comment="band 15">
        <r>  0.4908  0.0383  0.0000  0.0128  0.0020  0.0000  0.0488  0.0000  0.0007 </r>
        <r>  0.0000  0.0000  0.0019  0.0000  0.0000  0.1076  0.0000  0.1354  0.0000 </r>
       </set>
       <set comment="band 16">
        <r>  0.0000  0.0000  0.0019  0.0000  0.0000  0.1076  0.0000  0.1354  0.0000 </r>
        <r>  0.4908  0.0383  0.0000  0.0128  0.0020  0.0000  0.0488  0.0000  0.0007 </r>
       </set>
      </set>
     </set>
    </set>
   </array>
  </projected>
 </calculation>
 <structure name="finalpos" >
  <crystal>
   <varray name="basis" >
    <v>       2.49246475       0.00000000      -0.00000000 </v>
    <v>      -1.24623237       2.15853779       0.00000000 </v>
    <v>      -0.00000000      -0.00000000       4.03270652 </v>
   </varray>
   <i name="volume">     21.69628106 </i>
   <varray name="rec_basis" >
    <v>       0.40120929       0.23163829       0.00000000 </v>
    <v>      -0.00000000       0.46327658       0.00000000 </v>
    <v>       0.00000000      -0.00000000       0.24797242 </v>
   </varray>
  </crystal>
  <varray name="positions" >
   <v>       0.00000000      -0.00000000       0.00000000 </v>
   <v>       0.33333333       0.66666667       0.50000000 </v>
  </varray>
 </structure>
</modeling>
