Co-hcp                                  
           1
     1.236000   -2.140815    0.000000
     1.236000    2.140815    0.000000
     0.000000    0.000000    4.021144
   Co
     2
Direct configuration=     1
   0.33333333  0.66666667  0.25000000
   0.66666667  0.33333333  0.75000000
Co-hcp                                  
           1
     1.254024   -2.172033   -0.000000
     1.254024    2.172033    0.000000
     0.000000    0.000000    4.043600
   Co
     2
Direct configuration=     2
   0.33333333  0.66666667  0.25000000
   0.66666667  0.33333333  0.75000000
Co-hcp                                  
           1
     1.244975   -2.156360   -0.000000
     1.244975    2.156360    0.000000
     0.000000    0.000000    4.032326
   Co
     2
Direct configuration=     3
   0.33333333  0.66666667  0.25000000
   0.66666667  0.33333333  0.75000000
Co-hcp                                  
           1
     1.244579   -2.155675   -0.000000
     1.244579    2.155675    0.000000
     0.000000    0.000000    4.031833
   Co
     2
Direct configuration=     4
   0.33333333  0.66666667  0.25000000
   0.66666667  0.33333333  0.75000000
Co-hcp                                  
           1
     1.244750   -2.155971   -0.000000
     1.244750    2.155971    0.000000
     0.000000    0.000000    4.032046
   Co
     2
Direct configuration=     5
   0.33333333  0.66666667  0.25000000
   0.66666667  0.33333333  0.75000000
Co-hcp                                  
           1
     1.244862   -2.156165   -0.000000
     1.244862    2.156165    0.000000
     0.000000    0.000000    4.032186
   Co
     2
Direct configuration=     6
   0.33333333  0.66666667  0.25000000
   0.66666667  0.33333333  0.75000000
Co-hcp                                  
           1
     1.244919   -2.156262   -0.000000
     1.244919    2.156262    0.000000
     0.000000    0.000000    4.032256
   Co
     2
Direct configuration=     7
   0.33333333  0.66666667  0.25000000
   0.66666667  0.33333333  0.75000000
Co-hcp                                  
           1
     1.246138   -2.158374   -0.000000
     1.246138    2.158374    0.000000
     0.000000    0.000000    4.020158
   Co
     2
Direct configuration=     8
   0.33333333  0.66666667  0.25000000
   0.66666667  0.33333333  0.75000000
