Co-hcc                                  
           1
     2.470000    0.000000    0.000000
    -1.235000    2.139083    0.000000
     0.000000    0.000000    8.090000
   Co
     2
Direct configuration=     1
   0.00000000  0.00000000  0.00000000
   0.33333333  0.66666667  0.50000000
Co-hcc                                  
           1
     2.242810    0.000000   -0.000000
    -1.121405    1.942330   -0.000000
     0.000000    0.000000    7.833513
   Co
     2
Direct configuration=     2
  -0.00000000 -0.00000000  0.00000000
   0.33333333  0.66666667  0.50000000
Co-hcc                                  
           1
     2.340149    0.000000   -0.000000
    -1.170074    2.026628   -0.000000
     0.000000    0.000000    7.943405
   Co
     2
Direct configuration=     3
  -0.00000000 -0.00000000  0.00000000
   0.33333333  0.66666667  0.50000000
Co-hcc                                  
           1
     2.341256    0.000000   -0.000000
    -1.170628    2.027587    0.000000
    -0.000000    0.000000    7.726619
   Co
     2
Direct configuration=     4
  -0.00000000 -0.00000000 -0.00000000
   0.33333333  0.66666667  0.50000000
Co-hcc                                  
           1
     2.344432    0.000000   -0.000000
    -1.172216    2.030338    0.000000
    -0.000000    0.000000    7.104726
   Co
     2
Direct configuration=     5
   0.00000000 -0.00000000 -0.00000000
   0.33333333  0.66666667  0.50000000
Co-hcc                                  
           1
     2.350785    0.000000   -0.000000
    -1.175392    2.035839    0.000000
    -0.000000    0.000000    5.860941
   Co
     2
Direct configuration=     6
   0.00000000 -0.00000000 -0.00000000
   0.33333333  0.66666667  0.50000000
Co-hcc                                  
           1
     2.363489    0.000000   -0.000000
    -1.181745    2.046842    0.000000
    -0.000000    0.000000    3.373369
   Co
     2
Direct configuration=     7
   0.00000000 -0.00000000 -0.00000000
   0.33333333  0.66666667  0.50000000
Co-hcc                                  
           1
     2.353950    0.000000   -0.000000
    -1.176975    2.038580    0.000000
    -0.000000    0.000000    5.241164
   Co
     2
Direct configuration=     8
   0.00000000 -0.00000000 -0.00000000
   0.33333333  0.66666667  0.50000000
Co-hcc                                  
           1
     2.358720    0.000000   -0.000000
    -1.179360    2.042711    0.000000
    -0.000000    0.000000    4.307267
   Co
     2
Direct configuration=     9
   0.00000000 -0.00000000 -0.00000000
   0.33333333  0.66666667  0.50000000
Co-hcc                                  
           1
     2.360730    0.000000   -0.000000
    -1.180365    2.044453    0.000000
    -0.000000    0.000000    3.913561
   Co
     2
Direct configuration=    10
   0.00000000 -0.00000000 -0.00000000
   0.33333333  0.66666667  0.50000000
Co-hcc                                  
           1
     2.359435    0.000000   -0.000000
    -1.179717    2.043330    0.000000
    -0.000000    0.000000    4.167242
   Co
     2
Direct configuration=    11
   0.00000000 -0.00000000 -0.00000000
   0.33333333  0.66666667  0.50000000
Co-hcc                                  
           1
     2.359535    0.000000   -0.000000
    -1.179768    2.043417    0.000000
    -0.000000    0.000000    4.147569
   Co
     2
Direct configuration=    12
   0.00000000 -0.00000000 -0.00000000
   0.33333333  0.66666667  0.50000000
Co-hcc                                  
           1
     2.361360    0.000000   -0.000000
    -1.180680    2.044998    0.000000
    -0.000000    0.000000    4.127939
   Co
     2
Direct configuration=    13
   0.00000000 -0.00000000 -0.00000000
   0.33333333  0.66666667  0.50000000
Co-hcc                                  
           1
     2.366834    0.000000   -0.000000
    -1.183417    2.049738    0.000000
    -0.000000    0.000000    4.069050
   Co
     2
Direct configuration=    14
   0.00000000 -0.00000000 -0.00000000
   0.33333333  0.66666667  0.50000000
Co-hcc                                  
           1
     2.368944    0.000000   -0.000000
    -1.184472    2.051566    0.000000
    -0.000000    0.000000    4.046346
   Co
     2
Direct configuration=    15
   0.00000000 -0.00000000 -0.00000000
   0.33333333  0.66666667  0.50000000
Co-hcc                                  
           1
     2.371945    0.000000   -0.000000
    -1.185972    2.054164    0.000000
    -0.000000    0.000000    4.047204
   Co
     2
Direct configuration=    16
   0.00000000 -0.00000000 -0.00000000
   0.33333333  0.66666667  0.50000000
Co-hcc                                  
           1
     2.380945    0.000000   -0.000000
    -1.190473    2.061959    0.000000
    -0.000000    0.000000    4.049776
   Co
     2
Direct configuration=    17
   0.00000000 -0.00000000 -0.00000000
   0.33333333  0.66666667  0.50000000
Co-hcc                                  
           1
     2.398947    0.000000   -0.000000
    -1.199473    2.077549    0.000000
    -0.000000    0.000000    4.054919
   Co
     2
Direct configuration=    18
   0.00000000 -0.00000000 -0.00000000
   0.33333333  0.66666667  0.50000000
Co-hcc                                  
           1
     2.434949    0.000000   -0.000000
    -1.217475    2.108728    0.000000
    -0.000000    0.000000    4.065207
   Co
     2
Direct configuration=    19
   0.00000000 -0.00000000 -0.00000000
   0.33333333  0.66666667  0.50000000
Co-hcc                                  
           1
     2.506955    0.000000   -0.000000
    -1.253477    2.171086    0.000000
    -0.000000    0.000000    4.085782
   Co
     2
Direct configuration=    20
   0.00000000 -0.00000000 -0.00000000
   0.33333333  0.66666667  0.50000000
Co-hcc                                  
           1
     2.487990    0.000000   -0.000000
    -1.243995    2.154663    0.000000
    -0.000000    0.000000    4.080363
   Co
     2
Direct configuration=    21
   0.00000000 -0.00000000 -0.00000000
   0.33333333  0.66666667  0.50000000
Co-hcc                                  
           1
     2.486315    0.000000   -0.000000
    -1.243158    2.153212    0.000000
    -0.000000    0.000000    4.079885
   Co
     2
Direct configuration=    22
   0.00000000 -0.00000000 -0.00000000
   0.33333333  0.66666667  0.50000000
Co-hcc                                  
           1
     2.485523    0.000000   -0.000000
    -1.242762    2.152526    0.000000
    -0.000000    0.000000    4.079658
   Co
     2
Direct configuration=    23
   0.00000000 -0.00000000 -0.00000000
   0.33333333  0.66666667  0.50000000
Co-hcc                                  
           1
     2.485789    0.000000   -0.000000
    -1.242895    2.152757    0.000000
    -0.000000    0.000000    4.079734
   Co
     2
Direct configuration=    24
   0.00000000 -0.00000000 -0.00000000
   0.33333333  0.66666667  0.50000000
Co-hcc                                  
           1
     2.486052    0.000000   -0.000000
    -1.243026    2.152984    0.000000
    -0.000000    0.000000    4.079809
   Co
     2
Direct configuration=    25
   0.00000000 -0.00000000 -0.00000000
   0.33333333  0.66666667  0.50000000
Co-hcc                                  
           1
     2.486694    0.000000   -0.000000
    -1.243347    2.153540    0.000000
    -0.000000    0.000000    4.075099
   Co
     2
Direct configuration=    26
   0.00000000 -0.00000000 -0.00000000
   0.33333333  0.66666667  0.50000000
Co-hcc                                  
           1
     2.488617    0.000000   -0.000000
    -1.244309    2.155206    0.000000
    -0.000000   -0.000000    4.060968
   Co
     2
Direct configuration=    27
   0.00000000 -0.00000000 -0.00000000
   0.33333333  0.66666667  0.50000000
Co-hcc                                  
           1
     2.492465    0.000000   -0.000000
    -1.246232    2.158538    0.000000
    -0.000000   -0.000000    4.032707
   Co
     2
Direct configuration=    28
   0.00000000 -0.00000000  0.00000000
   0.33333333  0.66666667  0.50000000
