    2    2  100    2
  0.7882491E+01  0.2243048E-09  0.2243048E-09  0.3618143E-09  0.5000000E-15
  1.000000000000000E-004
  CAR 
 Co-hcc                                  
     18     95     24
