 vasp.6.3.2 27Jun22 (build Aug 12 2022 00:53:59) complex                        
  
 executed on               tv2STD date 2024.12.03  01:32:20
 running   24 mpi-ranks, with    1 threads/rank
 distrk:  each k-point on   24 cores,    1 groups
 distr:  one band on NCORE=   1 cores,   24 groups


--------------------------------------------------------------------------------------------------------


 INCAR:
   SYSTEM = Co-hcc
   NWRITE = 2    write-flag
   ISTART = 0    job   : 0-new, 1-cont, 2-samecut
   ICHARG = 2    charge: 0-wave, 1-file, 2-atom, >10-const
   INIWAV = 1    electr: 0-lowe 1-rand  2-diag
   ENCUT = 425.0     energy cutoff in eV
   PREC = Accurate      normal | accurate
   ADDGRID = .FALSE.  (use fine grid)
   NELM = 100     number of ELM steps
   EDIFF = 1E-06    energy stopping-criterion for ELM
   LREAL = .FALSE.      real-space projection (.FALSE., .TRUE., On, Auto)
   ALGO = Normal     Normal, Fast, Very_Fast
   LWAVE = .FALSE.
   LCHARG = .FALSE.
   NSW = 100       max number of geometry steps
   IBRION = 2     ionic relax: 0-MD, 1-quasi-Newton, 2-CG, 3-Damped MD
   EDIFFG = -0.02  force (eV/A) stopping-criterion for geometry steps
   ISIF = 2     (1:force\=y stress\=trace only ions\=y shape\=n volume\=n)
   ISYM = 1     (1-use symmetry, 0-no symmetry)
   ISMEAR = 0     (-1-Fermi, 1-Methfessel/Paxton)
   SIGMA = 0.05   broadening in eV
   LORBIT = 11
   ISPIN = 2
   MAGMOM = 2*3

 POTCAR:    PAW_PBE Co 02Aug2007                  
 POTCAR:    PAW_PBE Co 02Aug2007                  
   SHA256 =  0e690c60710354995174544f52f9f2c30879afabeffe3b3fbd4001cb294e56d4 Co/POTCAR             
   COPYR  = (c) Copyright 02Aug2007 Georg Kresse                                                    
   COPYR  = This file is part of the software VASP. Any use, copying, and all other rights are regul
   COPYR  = If you do not have a valid VASP license, you may not use, copy or distribute this file. 
   VRHFIN =Co: d8 s1                                                                                
   LEXCH  = PE                                                                                      
   EATOM  =   813.3670 eV,   59.7808 Ry                                                             
                                                                                                    
   TITEL  = PAW_PBE Co 02Aug2007                                                                    
   LULTRA =        F    use ultrasoft PP ?                                                          
   IUNSCR =        1    unscreen: 0-lin 1-nonlin 2-no                                               
   RPACOR =    2.000    partial core radius                                                         
   POMASS =   58.933; ZVAL   =    9.000    mass and valenz                                          
   RCORE  =    2.300    outmost cutoff radius                                                       
   RWIGS  =    2.460; RWIGS  =    1.302    wigner-seitz radius (au A)                               
   ENMAX  =  267.968; ENMIN  =  200.976 eV                                                          
   RCLOC  =    1.203    cutoff for local pot                                                        
   LCOR   =        T    correct aug charges                                                         
   LPAW   =        T    paw PP                                                                      
   EAUG   =  477.818                                                                                
   DEXC   =    0.000                                                                                
   RMAX   =    2.360    core radius for proj-oper                                                   
   RAUG   =    1.300    factor for augmentation sphere                                              
   RDEP   =    2.393    radius for radial grids                                                     
   RDEPT  =    1.864    core radius for aug-charge                                                  
                                                                                                    
   Atomic configuration                                                                             
    9 entries                                                                                       
     n  l   j            E        occ.                                                              
     1  0  0.50     -7587.6674   2.0000                                                             
     2  0  0.50      -893.6084   2.0000                                                             
     2  1  1.50      -764.5805   6.0000                                                             
     3  0  0.50       -97.5973   2.0000                                                             
     3  1  1.50       -60.9648   6.0000                                                             
     3  2  2.50        -4.2382   8.0000                                                             
     4  0  0.50        -4.3746   1.0000                                                             
     4  1  1.50        -4.0817   0.0000                                                             
     4  3  2.50        -1.3606   0.0000                                                             
   Description                                                                                      
     l       E           TYP  RCUT    TYP  RCUT                                                     
     2     -4.2382362     23  2.300                                                                 
     2     -5.5988188     23  2.300                                                                 
     0     -4.3745797     23  2.300                                                                 
     0      5.7660125     23  2.300                                                                 
     1     -2.7211652     23  2.300                                                                 
     1     16.9860234     23  2.300                                                                 
  local pseudopotential read in
  partial core-charges read in
  partial kinetic energy density read in
  atomic valenz-charges read in
  non local Contribution for L=           2  read in
    real space projection operators read in
  non local Contribution for L=           2  read in
    real space projection operators read in
  non local Contribution for L=           0  read in
    real space projection operators read in
  non local Contribution for L=           0  read in
    real space projection operators read in
  non local Contribution for L=           1  read in
    real space projection operators read in
  non local Contribution for L=           1  read in
    real space projection operators read in
    PAW grid and wavefunctions read in
 
   number of l-projection  operators is LMAX  =           6
   number of lm-projection operators is LMMAX =          18
 
  PAW_PBE Co 02Aug2007                  :
 energy of atom  1       EATOM= -813.3670
 kinetic energy error for atom=    0.0054 (will be added to EATOM!!)
 
 
 POSCAR: Co
  positions in cartesian coordinates
  No initial velocities read in
 exchange correlation table for  LEXCH =        8
   RHO(1)=    0.500       N(1)  =     2000
   RHO(2)=  100.500       N(2)  =     4000
 


--------------------------------------------------------------------------------------------------------


 ion  position               nearest neighbor table
   1  0.333  0.667  0.250-   2 2.22   2 2.22   2 2.22   2 2.22   2 2.22   2 2.22
   2  0.667  0.333  0.750-   1 2.22   1 2.22   1 2.22   1 2.22   1 2.22   1 2.22
 
  LATTYP: Found a hexagonal cell.
 ALAT       =     2.2430480489
 C/A-ratio  =     1.6130472937
  
  Lattice vectors:
  
 A1 = (   1.1215240244,  -1.9425365923,   0.0000000000)
 A2 = (   1.1215240244,   1.9425365923,   0.0000000000)
 A3 = (   0.0000000000,   0.0000000000,   3.6181425850)


Analysis of symmetry for initial positions (statically):
=====================================================================
 Subroutine PRICEL returns:
 Original cell was already a primitive cell.
 

 Routine SETGRP: Setting up the symmetry group for a 
 hexagonal supercell.


 Subroutine GETGRP returns: Found 24 space group operations
 (whereof 12 operations were pure point group operations)
 out of a pool of 24 trial point group operations.


The static configuration has the point symmetry D_3d.
 The point group associated with its full space group is D_6h.


Analysis of symmetry for dynamics (positions and initial velocities):
=====================================================================
 Subroutine PRICEL returns:
 Original cell was already a primitive cell.
 

 Routine SETGRP: Setting up the symmetry group for a 
 hexagonal supercell.


 Subroutine GETGRP returns: Found 24 space group operations
 (whereof 12 operations were pure point group operations)
 out of a pool of 24 trial point group operations.


The dynamic configuration has the point symmetry D_3d.
 The point group associated with its full space group is D_6h.


Analysis of structural, dynamic, and magnetic symmetry:
=====================================================================
 Subroutine PRICEL returns:
 Original cell was already a primitive cell.
 

 Routine SETGRP: Setting up the symmetry group for a 
 hexagonal supercell.


 Subroutine GETGRP returns: Found 24 space group operations
 (whereof 12 operations were pure point group operations)
 out of a pool of 24 trial point group operations.


The overall configuration has the point symmetry D_3d.
 The point group associated with its full space group is D_6h.


 Subroutine INISYM returns: Found 24 space group operations
 (whereof 12 operations are pure point group operations),
 and found     1 'primitive' translations


----------------------------------------------------------------------------------------

                                     Primitive cell                                     

  volume of cell :      15.7650

  direct lattice vectors                    reciprocal lattice vectors
     1.121524024 -1.942536592  0.000000000     0.445821925 -0.257395409  0.000000000
     1.121524024  1.942536592  0.000000000     0.445821925  0.257395409  0.000000000
     0.000000000  0.000000000  3.618142585     0.000000000  0.000000000  0.276384906

  length of vectors
     2.243048049  2.243048049  3.618142585     0.514790817  0.514790817  0.276384906

  position of ions in fractional coordinates (direct lattice)
     0.333333333  0.666666667  0.250000000
     0.666666667  0.333333333  0.750000000

  ion indices of the primitive-cell ions
   primitive index   ion index
                 1           1
                 2           2

----------------------------------------------------------------------------------------

 
 
 KPOINTS: Automatic mesh                          

Automatic generation of k-mesh.
 Grid dimensions read from file:
 generate k-points for:   12   12    8

 Generating k-lattice:

  Cartesian coordinates                     Fractional coordinates (reciprocal lattice)
     0.037151827 -0.021449617  0.000000000     0.083333333  0.000000000  0.000000000
     0.037151827  0.021449617  0.000000000     0.000000000  0.083333333  0.000000000
     0.000000000  0.000000000  0.034548113     0.000000000  0.000000000  0.125000000

  Length of vectors
     0.042899235  0.042899235  0.034548113

  Shift w.r.t. Gamma in fractional coordinates (k-lattice)
     0.000000000  0.000000000  0.000000000

 
 Subroutine IBZKPT returns following result:
 ===========================================
 
 Found     95 irreducible k-points:
 
 Following reciprocal coordinates:
            Coordinates               Weight
  0.000000  0.000000  0.000000      1.000000
  0.083333  0.000000  0.000000      6.000000
  0.166667  0.000000  0.000000      6.000000
  0.250000  0.000000  0.000000      6.000000
  0.333333  0.000000  0.000000      6.000000
  0.416667  0.000000  0.000000      6.000000
  0.500000  0.000000  0.000000      3.000000
  0.083333  0.083333  0.000000      6.000000
  0.166667  0.083333  0.000000     12.000000
  0.250000  0.083333  0.000000     12.000000
  0.333333  0.083333  0.000000     12.000000
  0.416667  0.083333  0.000000     12.000000
  0.166667  0.166667  0.000000      6.000000
  0.250000  0.166667  0.000000     12.000000
  0.333333  0.166667  0.000000     12.000000
  0.416667  0.166667  0.000000      6.000000
  0.250000  0.250000  0.000000      6.000000
  0.333333  0.250000  0.000000     12.000000
  0.333333  0.333333  0.000000      2.000000
  0.000000  0.000000  0.125000      2.000000
  0.083333  0.000000  0.125000     12.000000
  0.166667  0.000000  0.125000     12.000000
  0.250000  0.000000  0.125000     12.000000
  0.333333  0.000000  0.125000     12.000000
  0.416667  0.000000  0.125000     12.000000
  0.500000  0.000000  0.125000      6.000000
  0.083333  0.083333  0.125000     12.000000
  0.166667  0.083333  0.125000     24.000000
  0.250000  0.083333  0.125000     24.000000
  0.333333  0.083333  0.125000     24.000000
  0.416667  0.083333  0.125000     24.000000
  0.166667  0.166667  0.125000     12.000000
  0.250000  0.166667  0.125000     24.000000
  0.333333  0.166667  0.125000     24.000000
  0.416667  0.166667  0.125000     12.000000
  0.250000  0.250000  0.125000     12.000000
  0.333333  0.250000  0.125000     24.000000
  0.333333  0.333333  0.125000      4.000000
  0.000000  0.000000  0.250000      2.000000
  0.083333  0.000000  0.250000     12.000000
  0.166667  0.000000  0.250000     12.000000
  0.250000  0.000000  0.250000     12.000000
  0.333333  0.000000  0.250000     12.000000
  0.416667  0.000000  0.250000     12.000000
  0.500000  0.000000  0.250000      6.000000
  0.083333  0.083333  0.250000     12.000000
  0.166667  0.083333  0.250000     24.000000
  0.250000  0.083333  0.250000     24.000000
  0.333333  0.083333  0.250000     24.000000
  0.416667  0.083333  0.250000     24.000000
  0.166667  0.166667  0.250000     12.000000
  0.250000  0.166667  0.250000     24.000000
  0.333333  0.166667  0.250000     24.000000
  0.416667  0.166667  0.250000     12.000000
  0.250000  0.250000  0.250000     12.000000
  0.333333  0.250000  0.250000     24.000000
  0.333333  0.333333  0.250000      4.000000
  0.000000  0.000000  0.375000      2.000000
  0.083333  0.000000  0.375000     12.000000
  0.166667  0.000000  0.375000     12.000000
  0.250000  0.000000  0.375000     12.000000
  0.333333  0.000000  0.375000     12.000000
  0.416667  0.000000  0.375000     12.000000
  0.500000  0.000000  0.375000      6.000000
  0.083333  0.083333  0.375000     12.000000
  0.166667  0.083333  0.375000     24.000000
  0.250000  0.083333  0.375000     24.000000
  0.333333  0.083333  0.375000     24.000000
  0.416667  0.083333  0.375000     24.000000
  0.166667  0.166667  0.375000     12.000000
  0.250000  0.166667  0.375000     24.000000
  0.333333  0.166667  0.375000     24.000000
  0.416667  0.166667  0.375000     12.000000
  0.250000  0.250000  0.375000     12.000000
  0.333333  0.250000  0.375000     24.000000
  0.333333  0.333333  0.375000      4.000000
  0.000000  0.000000  0.500000      1.000000
  0.083333  0.000000  0.500000      6.000000
  0.166667  0.000000  0.500000      6.000000
  0.250000  0.000000  0.500000      6.000000
  0.333333  0.000000  0.500000      6.000000
  0.416667  0.000000  0.500000      6.000000
  0.500000  0.000000  0.500000      3.000000
  0.083333  0.083333  0.500000      6.000000
  0.166667  0.083333  0.500000     12.000000
  0.250000  0.083333  0.500000     12.000000
  0.333333  0.083333  0.500000     12.000000
  0.416667  0.083333  0.500000     12.000000
  0.166667  0.166667  0.500000      6.000000
  0.250000  0.166667  0.500000     12.000000
  0.333333  0.166667  0.500000     12.000000
  0.416667  0.166667  0.500000      6.000000
  0.250000  0.250000  0.500000      6.000000
  0.333333  0.250000  0.500000     12.000000
  0.333333  0.333333  0.500000      2.000000
 
 Following cartesian coordinates:
            Coordinates               Weight
  0.000000  0.000000  0.000000      1.000000
  0.037152 -0.021450  0.000000      6.000000
  0.074304 -0.042899  0.000000      6.000000
  0.111455 -0.064349  0.000000      6.000000
  0.148607 -0.085798  0.000000      6.000000
  0.185759 -0.107248  0.000000      6.000000
  0.222911 -0.128698  0.000000      3.000000
  0.074304  0.000000  0.000000      6.000000
  0.111455 -0.021450  0.000000     12.000000
  0.148607 -0.042899  0.000000     12.000000
  0.185759 -0.064349  0.000000     12.000000
  0.222911 -0.085798  0.000000     12.000000
  0.148607  0.000000  0.000000      6.000000
  0.185759 -0.021450  0.000000     12.000000
  0.222911 -0.042899  0.000000     12.000000
  0.260063 -0.064349  0.000000      6.000000
  0.222911  0.000000  0.000000      6.000000
  0.260063 -0.021450  0.000000     12.000000
  0.297215  0.000000  0.000000      2.000000
  0.000000  0.000000  0.034548      2.000000
  0.037152 -0.021450  0.034548     12.000000
  0.074304 -0.042899  0.034548     12.000000
  0.111455 -0.064349  0.034548     12.000000
  0.148607 -0.085798  0.034548     12.000000
  0.185759 -0.107248  0.034548     12.000000
  0.222911 -0.128698  0.034548      6.000000
  0.074304  0.000000  0.034548     12.000000
  0.111455 -0.021450  0.034548     24.000000
  0.148607 -0.042899  0.034548     24.000000
  0.185759 -0.064349  0.034548     24.000000
  0.222911 -0.085798  0.034548     24.000000
  0.148607  0.000000  0.034548     12.000000
  0.185759 -0.021450  0.034548     24.000000
  0.222911 -0.042899  0.034548     24.000000
  0.260063 -0.064349  0.034548     12.000000
  0.222911  0.000000  0.034548     12.000000
  0.260063 -0.021450  0.034548     24.000000
  0.297215  0.000000  0.034548      4.000000
  0.000000  0.000000  0.069096      2.000000
  0.037152 -0.021450  0.069096     12.000000
  0.074304 -0.042899  0.069096     12.000000
  0.111455 -0.064349  0.069096     12.000000
  0.148607 -0.085798  0.069096     12.000000
  0.185759 -0.107248  0.069096     12.000000
  0.222911 -0.128698  0.069096      6.000000
  0.074304  0.000000  0.069096     12.000000
  0.111455 -0.021450  0.069096     24.000000
  0.148607 -0.042899  0.069096     24.000000
  0.185759 -0.064349  0.069096     24.000000
  0.222911 -0.085798  0.069096     24.000000
  0.148607  0.000000  0.069096     12.000000
  0.185759 -0.021450  0.069096     24.000000
  0.222911 -0.042899  0.069096     24.000000
  0.260063 -0.064349  0.069096     12.000000
  0.222911  0.000000  0.069096     12.000000
  0.260063 -0.021450  0.069096     24.000000
  0.297215  0.000000  0.069096      4.000000
  0.000000  0.000000  0.103644      2.000000
  0.037152 -0.021450  0.103644     12.000000
  0.074304 -0.042899  0.103644     12.000000
  0.111455 -0.064349  0.103644     12.000000
  0.148607 -0.085798  0.103644     12.000000
  0.185759 -0.107248  0.103644     12.000000
  0.222911 -0.128698  0.103644      6.000000
  0.074304  0.000000  0.103644     12.000000
  0.111455 -0.021450  0.103644     24.000000
  0.148607 -0.042899  0.103644     24.000000
  0.185759 -0.064349  0.103644     24.000000
  0.222911 -0.085798  0.103644     24.000000
  0.148607  0.000000  0.103644     12.000000
  0.185759 -0.021450  0.103644     24.000000
  0.222911 -0.042899  0.103644     24.000000
  0.260063 -0.064349  0.103644     12.000000
  0.222911  0.000000  0.103644     12.000000
  0.260063 -0.021450  0.103644     24.000000
  0.297215  0.000000  0.103644      4.000000
  0.000000  0.000000  0.138192      1.000000
  0.037152 -0.021450  0.138192      6.000000
  0.074304 -0.042899  0.138192      6.000000
  0.111455 -0.064349  0.138192      6.000000
  0.148607 -0.085798  0.138192      6.000000
  0.185759 -0.107248  0.138192      6.000000
  0.222911 -0.128698  0.138192      3.000000
  0.074304  0.000000  0.138192      6.000000
  0.111455 -0.021450  0.138192     12.000000
  0.148607 -0.042899  0.138192     12.000000
  0.185759 -0.064349  0.138192     12.000000
  0.222911 -0.085798  0.138192     12.000000
  0.148607  0.000000  0.138192      6.000000
  0.185759 -0.021450  0.138192     12.000000
  0.222911 -0.042899  0.138192     12.000000
  0.260063 -0.064349  0.138192      6.000000
  0.222911  0.000000  0.138192      6.000000
  0.260063 -0.021450  0.138192     12.000000
  0.297215  0.000000  0.138192      2.000000
 


--------------------------------------------------------------------------------------------------------




 Dimension of arrays:
   k-points           NKPTS =     95   k-points in BZ     NKDIM =     95   number of bands    NBANDS=     24
   number of dos      NEDOS =    301   number of ions     NIONS =      2
   non local maximal  LDIM  =      6   non local SUM 2l+1 LMDIM =     18
   total plane-waves  NPLWV =   6144
   max r-space proj   IRMAX =      1   max aug-charges    IRDMAX=  15568
   dimension x,y,z NGX =    16 NGY =   16 NGZ =   24
   dimension x,y,z NGXF=    32 NGYF=   32 NGZF=   48
   support grid    NGXF=    32 NGYF=   32 NGZF=   48
   ions per type =               2
   NGX,Y,Z   is equivalent  to a cutoff of  11.86, 11.86, 11.03 a.u.
   NGXF,Y,Z  is equivalent  to a cutoff of  23.72, 23.72, 22.05 a.u.

 SYSTEM =  Co-hcc                                  
 POSCAR =  Co                                      

 Startparameter for this run:
   NWRITE =      2    write-flag & timer
   PREC   = accura    normal or accurate (medium, high low for compatibility)
   ISTART =      0    job   : 0-new  1-cont  2-samecut
   ICHARG =      2    charge: 1-file 2-atom 10-const
   ISPIN  =      2    spin polarized calculation?
   LNONCOLLINEAR =      F non collinear calculations
   LSORBIT =      F    spin-orbit coupling
   INIWAV =      1    electr: 0-lowe 1-rand  2-diag
   LASPH  =      F    aspherical Exc in radial PAW
 Electronic Relaxation 1
   ENCUT  =  425.0 eV  31.24 Ry    5.59 a.u.   3.77  3.77  6.08*2*pi/ulx,y,z
   ENINI  =  425.0     initial cutoff
   ENAUG  =  477.8 eV  augmentation charge cutoff
   NELM   =    100;   NELMIN=  2; NELMDL= -5     # of ELM steps 
   EDIFF  = 0.1E-05   stopping-criterion for ELM
   LREAL  =      F    real-space projection
   NLSPLINE    = F    spline interpolate recip. space projectors
   LCOMPAT=      F    compatible to vasp.4.4
   GGA_COMPAT  = T    GGA compatible to vasp.4.4-vasp.4.6
   LMAXPAW     = -100 max onsite density
   LMAXMIX     =    2 max onsite mixed and CHGCAR
   VOSKOWN=      0    Vosko Wilk Nusair interpolation
   ROPT   =    0.00000
 Ionic relaxation
   EDIFFG = -.2E-01   stopping-criterion for IOM
   NSW    =    100    number of steps for IOM
   NBLOCK =      1;   KBLOCK =    100    inner block; outer block 
   IBRION =      2    ionic relax: 0-MD 1-quasi-New 2-CG
   NFREE  =      1    steps in history (QN), initial steepest desc. (CG)
   ISIF   =      2    stress and relaxation
   IWAVPR =     11    prediction:  0-non 1-charg 2-wave 3-comb
   ISYM   =      1    0-nonsym 1-usesym 2-fastsym
   LCORR  =      T    Harris-Foulkes like correction to forces

   POTIM  = 0.5000    time-step for ionic-motion
   TEIN   =    0.0    initial temperature
   TEBEG  =    0.0;   TEEND  =   0.0 temperature during run
   SMASS  =  -3.00    Nose mass-parameter (am)
   estimated Nose-frequenzy (Omega)   =  0.10E-29 period in steps = 0.13E+47 mass=  -0.115E-27a.u.
   SCALEE = 1.0000    scale energy and forces
   NPACO  =    256;   APACO  = 10.0  distance and # of slots for P.C.
   PSTRESS=    0.0 pullay stress

  Mass of Ions in am
   POMASS =  58.93
  Ionic Valenz
   ZVAL   =   9.00
  Atomic Wigner-Seitz radii
   RWIGS  =  -1.00
  virtual crystal weights 
   VCA    =   1.00
   NELECT =      18.0000    total number of electrons
   NUPDOWN=      -1.0000    fix difference up-down

 DOS related values:
   EMIN   =  10.00;   EMAX   =-10.00  energy-range for DOS
   EFERMI =   0.00
   ISMEAR =     0;   SIGMA  =   0.05  broadening in eV -4-tet -1-fermi 0-gaus

 Electronic relaxation 2 (details)
   IALGO  =     38    algorithm
   LDIAG  =      T    sub-space diagonalisation (order eigenvalues)
   LSUBROT=      F    optimize rotation matrix (better conditioning)
   TURBO    =      0    0=normal 1=particle mesh
   IRESTART =      0    0=no restart 2=restart with 2 vectors
   NREBOOT  =      0    no. of reboots
   NMIN     =      0    reboot dimension
   EREF     =   0.00    reference energy to select bands
   IMIX   =      4    mixing-type and parameters
     AMIX     =   0.40;   BMIX     =  1.00
     AMIX_MAG =   1.60;   BMIX_MAG =  1.00
     AMIN     =   0.10
     WC   =   100.;   INIMIX=   1;  MIXPRE=   1;  MAXMIX= -45

 Intra band minimization:
   WEIMIN = 0.0010     energy-eigenvalue tresh-hold
   EBREAK =  0.10E-07  absolut break condition
   DEPER  =   0.30     relativ break condition  

   TIME   =   0.40     timestep for ELM

  volume/ion in A,a.u.               =       7.88        53.19
  Fermi-wavevector in a.u.,A,eV,Ry     =   1.711070  3.233454 39.834613  2.927761
  Thomas-Fermi vector in A             =   2.789252
 
 Write flags
   LWAVE        =      F    write WAVECAR
   LDOWNSAMPLE  =      F    k-point downsampling of WAVECAR
   LCHARG       =      F    write CHGCAR
   LVTOT        =      F    write LOCPOT, total local potential
   LVHAR        =      F    write LOCPOT, Hartree potential only
   LELF         =      F    write electronic localiz. function (ELF)
   LORBIT       =     11    0 simple, 1 ext, 2 COOP (PROOUT), +10 PAW based schemes


 Dipole corrections
   LMONO  =      F    monopole corrections only (constant potential shift)
   LDIPOL =      F    correct potential (dipole corrections)
   IDIPOL =      0    1-x, 2-y, 3-z, 4-all directions 
   EPSILON=  1.0000000 bulk dielectric constant

 Exchange correlation treatment:
   GGA     =    --    GGA type
   LEXCH   =     8    internal setting for exchange type
   LIBXC   =     F    Libxc                    
   VOSKOWN =     0    Vosko Wilk Nusair interpolation
   LHFCALC =     F    Hartree Fock is set to
   LHFONE  =     F    Hartree Fock one center treatment
   AEXX    =    0.0000 exact exchange contribution

 Linear response parameters
   LEPSILON=     F    determine dielectric tensor
   LRPA    =     F    only Hartree local field effects (RPA)
   LNABLA  =     F    use nabla operator in PAW spheres
   LVEL    =     F    velocity operator in full k-point grid
   CSHIFT  =0.1000    complex shift for real part using Kramers Kronig
   OMEGAMAX=  -1.0    maximum frequency
   DEG_THRESHOLD= 0.2000000E-02 threshold for treating states as degnerate
   RTIME   =   -0.100 relaxation time in fs
  (WPLASMAI=    0.000 imaginary part of plasma frequency in eV, 0.658/RTIME)
   DFIELD  = 0.0000000 0.0000000 0.0000000 field for delta impulse in time
 
  Optional k-point grid parameters
   LKPOINTS_OPT  =     F    use optional k-point grid
   KPOINTS_OPT_MODE=     1    mode for optional k-point grid
 
 Orbital magnetization related:
   ORBITALMAG=     F  switch on orbital magnetization
   LCHIMAG   =     F  perturbation theory with respect to B field
   DQ        =  0.001000  dq finite difference perturbation B field
   LLRAUG    =     F  two centre corrections for induced B field



--------------------------------------------------------------------------------------------------------


 conjugate gradient relaxation of ions
 charge density and potential will be updated during run
 spin polarized calculation
 Variant of blocked Davidson
 Davidson routine will perform the subspace rotation
 perform sub-space diagonalisation
    after iterative eigenvector-optimisation
 modified Broyden-mixing scheme, WC =      100.0
 initial mixing is a Kerker type mixing with AMIX =  0.4000 and BMIX =      1.0000
 Hartree-type preconditioning will be used
 using additional bands           15
 reciprocal scheme for non local part
 use partial core corrections
 calculate Harris-corrections to forces 
   (improved forces if not selfconsistent)
 use gradient corrections 
 use of overlap-Matrix (Vanderbilt PP)
 Gauss-broadening in eV      SIGMA  =   0.05


--------------------------------------------------------------------------------------------------------


  energy-cutoff  :      425.00
  volume of cell :       15.76
      direct lattice vectors                 reciprocal lattice vectors
     1.121524024 -1.942536592  0.000000000     0.445821925 -0.257395409  0.000000000
     1.121524024  1.942536592  0.000000000     0.445821925  0.257395409  0.000000000
     0.000000000  0.000000000  3.618142585     0.000000000  0.000000000  0.276384906

  length of vectors
     2.243048049  2.243048049  3.618142585     0.514790817  0.514790817  0.276384906


 
 k-points in units of 2pi/SCALE and weight: Automatic mesh                          
   0.00000000  0.00000000  0.00000000       0.001
   0.03715183 -0.02144962  0.00000000       0.005
   0.07430365 -0.04289923  0.00000000       0.005
   0.11145548 -0.06434885  0.00000000       0.005
   0.14860731 -0.08579847  0.00000000       0.005
   0.18575914 -0.10724809  0.00000000       0.005
   0.22291096 -0.12869770  0.00000000       0.003
   0.07430365  0.00000000  0.00000000       0.005
   0.11145548 -0.02144962  0.00000000       0.010
   0.14860731 -0.04289923  0.00000000       0.010
   0.18575914 -0.06434885  0.00000000       0.010
   0.22291096 -0.08579847  0.00000000       0.010
   0.14860731  0.00000000  0.00000000       0.005
   0.18575914 -0.02144962  0.00000000       0.010
   0.22291096 -0.04289923  0.00000000       0.010
   0.26006279 -0.06434885  0.00000000       0.005
   0.22291096  0.00000000  0.00000000       0.005
   0.26006279 -0.02144962  0.00000000       0.010
   0.29721462  0.00000000  0.00000000       0.002
   0.00000000  0.00000000  0.03454811       0.002
   0.03715183 -0.02144962  0.03454811       0.010
   0.07430365 -0.04289923  0.03454811       0.010
   0.11145548 -0.06434885  0.03454811       0.010
   0.14860731 -0.08579847  0.03454811       0.010
   0.18575914 -0.10724809  0.03454811       0.010
   0.22291096 -0.12869770  0.03454811       0.005
   0.07430365  0.00000000  0.03454811       0.010
   0.11145548 -0.02144962  0.03454811       0.021
   0.14860731 -0.04289923  0.03454811       0.021
   0.18575914 -0.06434885  0.03454811       0.021
   0.22291096 -0.08579847  0.03454811       0.021
   0.14860731  0.00000000  0.03454811       0.010
   0.18575914 -0.02144962  0.03454811       0.021
   0.22291096 -0.04289923  0.03454811       0.021
   0.26006279 -0.06434885  0.03454811       0.010
   0.22291096  0.00000000  0.03454811       0.010
   0.26006279 -0.02144962  0.03454811       0.021
   0.29721462  0.00000000  0.03454811       0.003
   0.00000000  0.00000000  0.06909623       0.002
   0.03715183 -0.02144962  0.06909623       0.010
   0.07430365 -0.04289923  0.06909623       0.010
   0.11145548 -0.06434885  0.06909623       0.010
   0.14860731 -0.08579847  0.06909623       0.010
   0.18575914 -0.10724809  0.06909623       0.010
   0.22291096 -0.12869770  0.06909623       0.005
   0.07430365  0.00000000  0.06909623       0.010
   0.11145548 -0.02144962  0.06909623       0.021
   0.14860731 -0.04289923  0.06909623       0.021
   0.18575914 -0.06434885  0.06909623       0.021
   0.22291096 -0.08579847  0.06909623       0.021
   0.14860731  0.00000000  0.06909623       0.010
   0.18575914 -0.02144962  0.06909623       0.021
   0.22291096 -0.04289923  0.06909623       0.021
   0.26006279 -0.06434885  0.06909623       0.010
   0.22291096  0.00000000  0.06909623       0.010
   0.26006279 -0.02144962  0.06909623       0.021
   0.29721462  0.00000000  0.06909623       0.003
   0.00000000  0.00000000  0.10364434       0.002
   0.03715183 -0.02144962  0.10364434       0.010
   0.07430365 -0.04289923  0.10364434       0.010
   0.11145548 -0.06434885  0.10364434       0.010
   0.14860731 -0.08579847  0.10364434       0.010
   0.18575914 -0.10724809  0.10364434       0.010
   0.22291096 -0.12869770  0.10364434       0.005
   0.07430365  0.00000000  0.10364434       0.010
   0.11145548 -0.02144962  0.10364434       0.021
   0.14860731 -0.04289923  0.10364434       0.021
   0.18575914 -0.06434885  0.10364434       0.021
   0.22291096 -0.08579847  0.10364434       0.021
   0.14860731  0.00000000  0.10364434       0.010
   0.18575914 -0.02144962  0.10364434       0.021
   0.22291096 -0.04289923  0.10364434       0.021
   0.26006279 -0.06434885  0.10364434       0.010
   0.22291096  0.00000000  0.10364434       0.010
   0.26006279 -0.02144962  0.10364434       0.021
   0.29721462  0.00000000  0.10364434       0.003
   0.00000000  0.00000000  0.13819245       0.001
   0.03715183 -0.02144962  0.13819245       0.005
   0.07430365 -0.04289923  0.13819245       0.005
   0.11145548 -0.06434885  0.13819245       0.005
   0.14860731 -0.08579847  0.13819245       0.005
   0.18575914 -0.10724809  0.13819245       0.005
   0.22291096 -0.12869770  0.13819245       0.003
   0.07430365  0.00000000  0.13819245       0.005
   0.11145548 -0.02144962  0.13819245       0.010
   0.14860731 -0.04289923  0.13819245       0.010
   0.18575914 -0.06434885  0.13819245       0.010
   0.22291096 -0.08579847  0.13819245       0.010
   0.14860731  0.00000000  0.13819245       0.005
   0.18575914 -0.02144962  0.13819245       0.010
   0.22291096 -0.04289923  0.13819245       0.010
   0.26006279 -0.06434885  0.13819245       0.005
   0.22291096  0.00000000  0.13819245       0.005
   0.26006279 -0.02144962  0.13819245       0.010
   0.29721462  0.00000000  0.13819245       0.002
 
 k-points in reciprocal lattice and weights: Automatic mesh                          
   0.00000000  0.00000000  0.00000000       0.001
   0.08333333  0.00000000  0.00000000       0.005
   0.16666667  0.00000000  0.00000000       0.005
   0.25000000  0.00000000  0.00000000       0.005
   0.33333333  0.00000000  0.00000000       0.005
   0.41666667  0.00000000  0.00000000       0.005
   0.50000000  0.00000000  0.00000000       0.003
   0.08333333  0.08333333  0.00000000       0.005
   0.16666667  0.08333333  0.00000000       0.010
   0.25000000  0.08333333  0.00000000       0.010
   0.33333333  0.08333333  0.00000000       0.010
   0.41666667  0.08333333  0.00000000       0.010
   0.16666667  0.16666667  0.00000000       0.005
   0.25000000  0.16666667  0.00000000       0.010
   0.33333333  0.16666667  0.00000000       0.010
   0.41666667  0.16666667  0.00000000       0.005
   0.25000000  0.25000000  0.00000000       0.005
   0.33333333  0.25000000  0.00000000       0.010
   0.33333333  0.33333333  0.00000000       0.002
   0.00000000  0.00000000  0.12500000       0.002
   0.08333333  0.00000000  0.12500000       0.010
   0.16666667  0.00000000  0.12500000       0.010
   0.25000000  0.00000000  0.12500000       0.010
   0.33333333  0.00000000  0.12500000       0.010
   0.41666667  0.00000000  0.12500000       0.010
   0.50000000  0.00000000  0.12500000       0.005
   0.08333333  0.08333333  0.12500000       0.010
   0.16666667  0.08333333  0.12500000       0.021
   0.25000000  0.08333333  0.12500000       0.021
   0.33333333  0.08333333  0.12500000       0.021
   0.41666667  0.08333333  0.12500000       0.021
   0.16666667  0.16666667  0.12500000       0.010
   0.25000000  0.16666667  0.12500000       0.021
   0.33333333  0.16666667  0.12500000       0.021
   0.41666667  0.16666667  0.12500000       0.010
   0.25000000  0.25000000  0.12500000       0.010
   0.33333333  0.25000000  0.12500000       0.021
   0.33333333  0.33333333  0.12500000       0.003
   0.00000000  0.00000000  0.25000000       0.002
   0.08333333  0.00000000  0.25000000       0.010
   0.16666667  0.00000000  0.25000000       0.010
   0.25000000  0.00000000  0.25000000       0.010
   0.33333333  0.00000000  0.25000000       0.010
   0.41666667  0.00000000  0.25000000       0.010
   0.50000000  0.00000000  0.25000000       0.005
   0.08333333  0.08333333  0.25000000       0.010
   0.16666667  0.08333333  0.25000000       0.021
   0.25000000  0.08333333  0.25000000       0.021
   0.33333333  0.08333333  0.25000000       0.021
   0.41666667  0.08333333  0.25000000       0.021
   0.16666667  0.16666667  0.25000000       0.010
   0.25000000  0.16666667  0.25000000       0.021
   0.33333333  0.16666667  0.25000000       0.021
   0.41666667  0.16666667  0.25000000       0.010
   0.25000000  0.25000000  0.25000000       0.010
   0.33333333  0.25000000  0.25000000       0.021
   0.33333333  0.33333333  0.25000000       0.003
   0.00000000  0.00000000  0.37500000       0.002
   0.08333333  0.00000000  0.37500000       0.010
   0.16666667  0.00000000  0.37500000       0.010
   0.25000000  0.00000000  0.37500000       0.010
   0.33333333  0.00000000  0.37500000       0.010
   0.41666667  0.00000000  0.37500000       0.010
   0.50000000  0.00000000  0.37500000       0.005
   0.08333333  0.08333333  0.37500000       0.010
   0.16666667  0.08333333  0.37500000       0.021
   0.25000000  0.08333333  0.37500000       0.021
   0.33333333  0.08333333  0.37500000       0.021
   0.41666667  0.08333333  0.37500000       0.021
   0.16666667  0.16666667  0.37500000       0.010
   0.25000000  0.16666667  0.37500000       0.021
   0.33333333  0.16666667  0.37500000       0.021
   0.41666667  0.16666667  0.37500000       0.010
   0.25000000  0.25000000  0.37500000       0.010
   0.33333333  0.25000000  0.37500000       0.021
   0.33333333  0.33333333  0.37500000       0.003
   0.00000000  0.00000000  0.50000000       0.001
   0.08333333  0.00000000  0.50000000       0.005
   0.16666667  0.00000000  0.50000000       0.005
   0.25000000  0.00000000  0.50000000       0.005
   0.33333333  0.00000000  0.50000000       0.005
   0.41666667  0.00000000  0.50000000       0.005
   0.50000000  0.00000000  0.50000000       0.003
   0.08333333  0.08333333  0.50000000       0.005
   0.16666667  0.08333333  0.50000000       0.010
   0.25000000  0.08333333  0.50000000       0.010
   0.33333333  0.08333333  0.50000000       0.010
   0.41666667  0.08333333  0.50000000       0.010
   0.16666667  0.16666667  0.50000000       0.005
   0.25000000  0.16666667  0.50000000       0.010
   0.33333333  0.16666667  0.50000000       0.010
   0.41666667  0.16666667  0.50000000       0.005
   0.25000000  0.25000000  0.50000000       0.005
   0.33333333  0.25000000  0.50000000       0.010
   0.33333333  0.33333333  0.50000000       0.002
 
 position of ions in fractional coordinates (direct lattice) 
   0.33333333  0.66666667  0.25000000
   0.66666667  0.33333333  0.75000000
 
 position of ions in cartesian coordinates  (Angst):
   1.12152402  0.64751220  0.90453565
   1.12152402 -0.64751220  2.71360694
 


--------------------------------------------------------------------------------------------------------


 k-point   1 :   0.0000 0.0000 0.0000  plane waves:     313
 k-point   2 :   0.0833 0.0000 0.0000  plane waves:     313
 k-point   3 :   0.1667 0.0000 0.0000  plane waves:     307
 k-point   4 :   0.2500 0.0000 0.0000  plane waves:     307
 k-point   5 :   0.3333 0.0000 0.0000  plane waves:     314
 k-point   6 :   0.4167 0.0000 0.0000  plane waves:     320
 k-point   7 :   0.5000 0.0000 0.0000  plane waves:     318
 k-point   8 :   0.0833 0.0833 0.0000  plane waves:     307
 k-point   9 :   0.1667 0.0833 0.0000  plane waves:     314
 k-point  10 :   0.2500 0.0833 0.0000  plane waves:     312
 k-point  11 :   0.3333 0.0833 0.0000  plane waves:     314
 k-point  12 :   0.4167 0.0833 0.0000  plane waves:     316
 k-point  13 :   0.1667 0.1667 0.0000  plane waves:     306
 k-point  14 :   0.2500 0.1667 0.0000  plane waves:     310
 k-point  15 :   0.3333 0.1667 0.0000  plane waves:     316
 k-point  16 :   0.4167 0.1667 0.0000  plane waves:     314
 k-point  17 :   0.2500 0.2500 0.0000  plane waves:     316
 k-point  18 :   0.3333 0.2500 0.0000  plane waves:     312
 k-point  19 :   0.3333 0.3333 0.0000  plane waves:     318
 k-point  20 :   0.0000 0.0000 0.1250  plane waves:     312
 k-point  21 :   0.0833 0.0000 0.1250  plane waves:     310
 k-point  22 :   0.1667 0.0000 0.1250  plane waves:     311
 k-point  23 :   0.2500 0.0000 0.1250  plane waves:     307
 k-point  24 :   0.3333 0.0000 0.1250  plane waves:     310
 k-point  25 :   0.4167 0.0000 0.1250  plane waves:     315
 k-point  26 :   0.5000 0.0000 0.1250  plane waves:     314
 k-point  27 :   0.0833 0.0833 0.1250  plane waves:     311
 k-point  28 :   0.1667 0.0833 0.1250  plane waves:     311
 k-point  29 :   0.2500 0.0833 0.1250  plane waves:     312
 k-point  30 :   0.3333 0.0833 0.1250  plane waves:     314
 k-point  31 :   0.4167 0.0833 0.1250  plane waves:     318
 k-point  32 :   0.1667 0.1667 0.1250  plane waves:     313
 k-point  33 :   0.2500 0.1667 0.1250  plane waves:     312
 k-point  34 :   0.3333 0.1667 0.1250  plane waves:     314
 k-point  35 :   0.4167 0.1667 0.1250  plane waves:     316
 k-point  36 :   0.2500 0.2500 0.1250  plane waves:     313
 k-point  37 :   0.3333 0.2500 0.1250  plane waves:     313
 k-point  38 :   0.3333 0.3333 0.1250  plane waves:     321
 k-point  39 :   0.0000 0.0000 0.2500  plane waves:     318
 k-point  40 :   0.0833 0.0000 0.2500  plane waves:     313
 k-point  41 :   0.1667 0.0000 0.2500  plane waves:     311
 k-point  42 :   0.2500 0.0000 0.2500  plane waves:     312
 k-point  43 :   0.3333 0.0000 0.2500  plane waves:     315
 k-point  44 :   0.4167 0.0000 0.2500  plane waves:     313
 k-point  45 :   0.5000 0.0000 0.2500  plane waves:     312
 k-point  46 :   0.0833 0.0833 0.2500  plane waves:     317
 k-point  47 :   0.1667 0.0833 0.2500  plane waves:     311
 k-point  48 :   0.2500 0.0833 0.2500  plane waves:     310
 k-point  49 :   0.3333 0.0833 0.2500  plane waves:     314
 k-point  50 :   0.4167 0.0833 0.2500  plane waves:     316
 k-point  51 :   0.1667 0.1667 0.2500  plane waves:     316
 k-point  52 :   0.2500 0.1667 0.2500  plane waves:     311
 k-point  53 :   0.3333 0.1667 0.2500  plane waves:     317
 k-point  54 :   0.4167 0.1667 0.2500  plane waves:     317
 k-point  55 :   0.2500 0.2500 0.2500  plane waves:     313
 k-point  56 :   0.3333 0.2500 0.2500  plane waves:     317
 k-point  57 :   0.3333 0.3333 0.2500  plane waves:     318
 k-point  58 :   0.0000 0.0000 0.3750  plane waves:     318
 k-point  59 :   0.0833 0.0000 0.3750  plane waves:     318
 k-point  60 :   0.1667 0.0000 0.3750  plane waves:     318
 k-point  61 :   0.2500 0.0000 0.3750  plane waves:     317
 k-point  62 :   0.3333 0.0000 0.3750  plane waves:     314
 k-point  63 :   0.4167 0.0000 0.3750  plane waves:     315
 k-point  64 :   0.5000 0.0000 0.3750  plane waves:     310
 k-point  65 :   0.0833 0.0833 0.3750  plane waves:     318
 k-point  66 :   0.1667 0.0833 0.3750  plane waves:     315
 k-point  67 :   0.2500 0.0833 0.3750  plane waves:     314
 k-point  68 :   0.3333 0.0833 0.3750  plane waves:     310
 k-point  69 :   0.4167 0.0833 0.3750  plane waves:     315
 k-point  70 :   0.1667 0.1667 0.3750  plane waves:     310
 k-point  71 :   0.2500 0.1667 0.3750  plane waves:     308
 k-point  72 :   0.3333 0.1667 0.3750  plane waves:     316
 k-point  73 :   0.4167 0.1667 0.3750  plane waves:     320
 k-point  74 :   0.2500 0.2500 0.3750  plane waves:     308
 k-point  75 :   0.3333 0.2500 0.3750  plane waves:     320
 k-point  76 :   0.3333 0.3333 0.3750  plane waves:     324
 k-point  77 :   0.0000 0.0000 0.5000  plane waves:     324
 k-point  78 :   0.0833 0.0000 0.5000  plane waves:     322
 k-point  79 :   0.1667 0.0000 0.5000  plane waves:     316
 k-point  80 :   0.2500 0.0000 0.5000  plane waves:     318
 k-point  81 :   0.3333 0.0000 0.5000  plane waves:     314
 k-point  82 :   0.4167 0.0000 0.5000  plane waves:     316
 k-point  83 :   0.5000 0.0000 0.5000  plane waves:     316
 k-point  84 :   0.0833 0.0833 0.5000  plane waves:     316
 k-point  85 :   0.1667 0.0833 0.5000  plane waves:     314
 k-point  86 :   0.2500 0.0833 0.5000  plane waves:     310
 k-point  87 :   0.3333 0.0833 0.5000  plane waves:     310
 k-point  88 :   0.4167 0.0833 0.5000  plane waves:     314
 k-point  89 :   0.1667 0.1667 0.5000  plane waves:     310
 k-point  90 :   0.2500 0.1667 0.5000  plane waves:     308
 k-point  91 :   0.3333 0.1667 0.5000  plane waves:     314
 k-point  92 :   0.4167 0.1667 0.5000  plane waves:     318
 k-point  93 :   0.2500 0.2500 0.5000  plane waves:     314
 k-point  94 :   0.3333 0.2500 0.5000  plane waves:     320
 k-point  95 :   0.3333 0.3333 0.5000  plane waves:     318

 maximum and minimum number of plane-waves per node :       324      306

 maximum number of plane-waves:       324
 maximum index in each direction: 
   IXMAX=    3   IYMAX=    3   IZMAX=    6
   IXMIN=   -4   IYMIN=   -4   IZMIN=   -6


 serial   3D FFT for wavefunctions
 parallel 3D FFT for charge:
    minimum data exchange during FFTs selected (reduces bandwidth)


 total amount of memory used by VASP MPI-rank0    36692. kBytes
=======================================================================

   base      :      30000. kBytes
   nonl-proj :       4607. kBytes
   fftplans  :        128. kBytes
   grid      :        728. kBytes
   one-center:         62. kBytes
   wavefun   :       1167. kBytes
 
     INWAV:  cpu time      0.0000: real time      0.0004
 Broyden mixing: mesh for mixing (old mesh)
   NGX =  7   NGY =  7   NGZ = 13
  (NGX  = 32   NGY  = 32   NGZ  = 48)
  gives a total of    637 points

 initial charge density was supplied:
 charge density of overlapping atoms calculated
 number of electron      18.0000000 magnetization       6.0000000
 keeping initial charge density in first step


--------------------------------------------------------------------------------------------------------


 Maximum index for augmentation-charges         1026 (set IRDMAX)


--------------------------------------------------------------------------------------------------------


 First call to EWALD:  gamma=   0.707
 Maximum number of real-space cells 3x 3x 2
 Maximum number of reciprocal cells 3x 3x 4

    FEWALD:  cpu time      0.0015: real time      0.0015


--------------------------------------- Iteration      1(   1)  ---------------------------------------


    POTLOK:  cpu time      0.0057: real time      0.0062
    SETDIJ:  cpu time      0.0054: real time      0.0054
     EDDAV:  cpu time      0.6868: real time      0.6904
       DOS:  cpu time      0.0013: real time      0.0013
    --------------------------------------------
      LOOP:  cpu time      0.6993: real time      0.7034

 eigenvalue-minimisations  :  9120
 total energy-change (2. order) : 0.2910689E+01  (-0.8502012E+03)
 number of electron      18.0000000 magnetization       6.0000000
 augmentation part       18.0000000 magnetization       6.0000000

 Free energy of the ion-electron system (eV)
  ---------------------------------------------------
  alpha Z        PSCENC =       107.47285974
  Ewald energy   TEWEN  =     -1692.63838337
  -Hartree energ DENC   =      -234.37296140
  -exchange      EXHF   =         0.00000000
  -V(xc)+E(xc)   XCENC  =        38.02953322
  PAW double counting   =      1439.98163886    -1545.88690193
  entropy T*S    EENTRO =        -0.00259129
  eigenvalues    EBANDS =       263.60426489
  atomic energy  EATOM  =      1626.72322989
  Solvation  Ediel_sol  =         0.00000000
  ---------------------------------------------------
  free energy    TOTEN  =         2.91068860 eV

  energy without entropy =        2.91327990  energy(sigma->0) =        2.91198425


--------------------------------------------------------------------------------------------------------




--------------------------------------- Iteration      1(   2)  ---------------------------------------


     EDDAV:  cpu time      0.9874: real time      0.9933
       DOS:  cpu time      0.0008: real time      0.0008
    --------------------------------------------
      LOOP:  cpu time      0.9882: real time      0.9941

 eigenvalue-minimisations  : 11232
 total energy-change (2. order) :-0.1565395E+02  (-0.1548928E+02)
 number of electron      18.0000000 magnetization       6.0000000
 augmentation part       18.0000000 magnetization       6.0000000

 Free energy of the ion-electron system (eV)
  ---------------------------------------------------
  alpha Z        PSCENC =       107.47285974
  Ewald energy   TEWEN  =     -1692.63838337
  -Hartree energ DENC   =      -234.37296140
  -exchange      EXHF   =         0.00000000
  -V(xc)+E(xc)   XCENC  =        38.02953322
  PAW double counting   =      1439.98163886    -1545.88690193
  entropy T*S    EENTRO =        -0.00128576
  eigenvalues    EBANDS =       247.94901181
  atomic energy  EATOM  =      1626.72322989
  Solvation  Ediel_sol  =         0.00000000
  ---------------------------------------------------
  free energy    TOTEN  =       -12.74325894 eV

  energy without entropy =      -12.74197318  energy(sigma->0) =      -12.74261606


--------------------------------------------------------------------------------------------------------




--------------------------------------- Iteration      1(   3)  ---------------------------------------


