PROCAR lm decomposed
# of k-points:   95         # of bands:   24         # of ions:    2

 k-point     1 :    0.00000000 0.00000000 0.00000000     weight = 0.00086806

band     1 # energy    4.74154069 # occ.  1.00000000
 
ion      s     py     pz     px    dxy    dyz    dz2    dxz  x2-y2    tot
    1  0.534  0.000  0.000  0.000  0.000  0.000  0.000  0.000  0.000  0.534
    2  0.534  0.000  0.000  0.000  0.000  0.000  0.000  0.000  0.000  0.534
tot    1.068  0.000  0.000  0.000  0.000  0.000  0.000  0.000  0.000  1.068
 
band     2 # energy    8.74208326 # occ.  1.00000000
 
ion      s     py     pz     px    dxy    dyz    dz2    dxz  x2-y2    tot
    1  0.117  0.000  0.000  0.000  0.000  0.000  0.413  0.000  0.000  0.529
    2  0.117  0.000  0.000  0.000  0.000  0.000  0.413  0.000  0.000  0.529
tot    0.233  0.000  0.000  0.000  0.000  0.000  0.825  0.000  0.000  1.059
 
band     3 # energy   12.56840983 # occ.  1.00000000
 
ion      s     py     pz     px    dxy    dyz    dz2    dxz  x2-y2    tot
    1  0.000  0.000  0.000  0.001  0.499  0.000  0.000  0.000  0.000  0.500
    2  0.000  0.000  0.000  0.001  0.499  0.000  0.000  0.000  0.000  0.500
tot    0.000  0.000  0.000  0.002  0.998  0.000  0.000  0.000  0.000  1.000
 
band     4 # energy   12.56841091 # occ.  1.00000000
 
ion      s     py     pz     px    dxy    dyz    dz2    dxz  x2-y2    tot
    1  0.000  0.001  0.000  0.000  0.000  0.000  0.000  0.000  0.499  0.500
    2  0.000  0.001  0.000  0.000  0.000  0.000  0.000  0.000  0.499  0.500
tot    0.000  0.002  0.000  0.000  0.000  0.000  0.000  0.000  0.998  1.000
 
band     5 # energy   12.56993486 # occ.  1.00000000
 
ion      s     py     pz     px    dxy    dyz    dz2    dxz  x2-y2    tot
    1  0.000  0.000  0.000  0.000  0.000  0.000  0.504  0.000  0.000  0.504
    2  0.000  0.000  0.000  0.000  0.000  0.000  0.504  0.000  0.000  0.504
tot    0.000  0.000  0.000  0.000  0.000  0.000  1.009  0.000  0.000  1.009
 
band     6 # energy   13.11446967 # occ.  1.00000000
 
ion      s     py     pz     px    dxy    dyz    dz2    dxz  x2-y2    tot
    1  0.000  0.000  0.000  0.002  0.500  0.000  0.000  0.000  0.000  0.501
    2  0.000  0.000  0.000  0.002  0.500  0.000  0.000  0.000  0.000  0.501
tot    0.000  0.000  0.000  0.003  1.000  0.000  0.000  0.000  0.000  1.003
 
band     7 # energy   13.11447065 # occ.  1.00000000
 
ion      s     py     pz     px    dxy    dyz    dz2    dxz  x2-y2    tot
    1  0.000  0.002  0.000  0.000  0.000  0.000  0.000  0.000  0.500  0.501
    2  0.000  0.002  0.000  0.000  0.000  0.000  0.000  0.000  0.500  0.501
tot    0.000  0.003  0.000  0.000  0.000  0.000  0.000  0.000  1.000  1.003
 
band     8 # energy   13.68378741 # occ.  1.00000000
 
ion      s     py     pz     px    dxy    dyz    dz2    dxz  x2-y2    tot
    1  0.000  0.000  0.000  0.000  0.000  0.499  0.000  0.000  0.000  0.499
    2  0.000  0.000  0.000  0.000  0.000  0.499  0.000  0.000  0.000  0.499
tot    0.000  0.000  0.000  0.000  0.000  0.998  0.000  0.000  0.000  0.998
 
band     9 # energy   13.68378782 # occ.  1.00000000
 
ion      s     py     pz     px    dxy    dyz    dz2    dxz  x2-y2    tot
    1  0.000  0.000  0.000  0.000  0.000  0.000  0.000  0.499  0.000  0.499
    2  0.000  0.000  0.000  0.000  0.000  0.000  0.000  0.499  0.000  0.499
tot    0.000  0.000  0.000  0.000  0.000  0.000  0.000  0.998  0.000  0.998
 
band    10 # energy   15.50280654 # occ.  1.00000000
 
ion      s     py     pz     px    dxy    dyz    dz2    dxz  x2-y2    tot
    1  0.000  0.000  0.000  0.000  0.000  0.492  0.000  0.000  0.000  0.492
    2  0.000  0.000  0.000  0.000  0.000  0.492  0.000  0.000  0.000  0.492
tot    0.000  0.000  0.000  0.000  0.000  0.984  0.000  0.000  0.000  0.984
 
band    11 # energy   15.50280695 # occ.  1.00000000
 
ion      s     py     pz     px    dxy    dyz    dz2    dxz  x2-y2    tot
    1  0.000  0.000  0.000  0.000  0.000  0.000  0.000  0.492  0.000  0.492
    2  0.000  0.000  0.000  0.000  0.000  0.000  0.000  0.492  0.000  0.492
tot    0.000  0.000  0.000  0.000  0.000  0.000  0.000  0.984  0.000  0.984
 
band    12 # energy   15.55197535 # occ.  1.00000000
 
ion      s     py     pz     px    dxy    dyz    dz2    dxz  x2-y2    tot
    1  0.000  0.000  0.516  0.000  0.000  0.000  0.000  0.000  0.000  0.516
    2  0.000  0.000  0.516  0.000  0.000  0.000  0.000  0.000  0.000  0.516
tot    0.000  0.000  1.032  0.000  0.000  0.000  0.000  0.000  0.000  1.032
 
band    13 # energy   25.54898379 # occ.  0.00000000
 
ion      s     py     pz     px    dxy    dyz    dz2    dxz  x2-y2    tot
    1  0.242  0.000  0.000  0.000  0.000  0.000  0.320  0.000  0.000  0.562
    2  0.242  0.000  0.000  0.000  0.000  0.000  0.320  0.000  0.000  0.562
tot    0.484  0.000  0.000  0.000  0.000  0.000  0.640  0.000  0.000  1.124
 
band    14 # energy   40.15973444 # occ.  0.00000000
 
ion      s     py     pz     px    dxy    dyz    dz2    dxz  x2-y2    tot
    1  0.008  0.000  0.000  0.000  0.000  0.000  0.034  0.000  0.000  0.042
    2  0.008  0.000  0.000  0.000  0.000  0.000  0.034  0.000  0.000  0.042
tot    0.015  0.000  0.000  0.000  0.000  0.000  0.068  0.000  0.000  0.084
 
band    15 # energy   44.36775067 # occ.  0.00000000
 
ion      s     py     pz     px    dxy    dyz    dz2    dxz  x2-y2    tot
    1  0.021  0.000  0.000  0.000  0.000  0.000  0.083  0.000  0.000  0.104
    2  0.021  0.000  0.000  0.000  0.000  0.000  0.083  0.000  0.000  0.104
tot    0.042  0.000  0.000  0.000  0.000  0.000  0.166  0.000  0.000  0.208
 
band    16 # energy   44.50941737 # occ.  0.00000000
 
ion      s     py     pz     px    dxy    dyz    dz2    dxz  x2-y2    tot
    1  0.000  0.000  0.015  0.000  0.000  0.000  0.000  0.000  0.000  0.015
    2  0.000  0.000  0.015  0.000  0.000  0.000  0.000  0.000  0.000  0.015
tot    0.000  0.000  0.031  0.000  0.000  0.000  0.000  0.000  0.000  0.031
 
band    17 # energy   46.66894999 # occ.  0.00000000
 
ion      s     py     pz     px    dxy    dyz    dz2    dxz  x2-y2    tot
    1  0.000  0.000  0.000  0.252  0.229  0.000  0.000  0.000  0.000  0.482
    2  0.000  0.000  0.000  0.252  0.229  0.000  0.000  0.000  0.000  0.482
tot    0.000  0.000  0.000  0.504  0.459  0.000  0.000  0.000  0.000  0.963
 
band    18 # energy   46.66895229 # occ.  0.00000000
 
ion      s     py     pz     px    dxy    dyz    dz2    dxz  x2-y2    tot
    1  0.000  0.252  0.000  0.000  0.000  0.000  0.000  0.000  0.229  0.482
    2  0.000  0.252  0.000  0.000  0.000  0.000  0.000  0.000  0.229  0.482
tot    0.000  0.504  0.000  0.000  0.000  0.000  0.000  0.000  0.459  0.963
 
band    19 # energy   47.67099808 # occ.  0.00000000
 
ion      s     py     pz     px    dxy    dyz    dz2    dxz  x2-y2    tot
    1  0.000  0.000  0.000  0.071  0.625  0.000  0.000  0.000  0.000  0.697
    2  0.000  0.000  0.000  0.071  0.625  0.000  0.000  0.000  0.000  0.697
tot    0.000  0.000  0.000  0.143  1.251  0.000  0.000  0.000  0.000  1.394
 
band    20 # energy   47.67100221 # occ.  0.00000000
 
ion      s     py     pz     px    dxy    dyz    dz2    dxz  x2-y2    tot
    1  0.000  0.071  0.000  0.000  0.000  0.000  0.000  0.000  0.625  0.697
    2  0.000  0.071  0.000  0.000  0.000  0.000  0.000  0.000  0.625  0.697
tot    0.000  0.143  0.000  0.000  0.000  0.000  0.000  0.000  1.251  1.394
 
band    21 # energy   51.05693335 # occ.  0.00000000
 
ion      s     py     pz     px    dxy    dyz    dz2    dxz  x2-y2    tot
    1  0.000  0.000  0.000  0.000  0.000  0.000  0.000  0.186  0.000  0.186
    2  0.000  0.000  0.000  0.000  0.000  0.000  0.000  0.186  0.000  0.186
tot    0.000  0.000  0.000  0.000  0.000  0.000  0.000  0.371  0.000  0.371
 
band    22 # energy   51.05693451 # occ.  0.00000000
 
ion      s     py     pz     px    dxy    dyz    dz2    dxz  x2-y2    tot
    1  0.000  0.000  0.000  0.000  0.000  0.186  0.000  0.000  0.000  0.186
    2  0.000  0.000  0.000  0.000  0.000  0.186  0.000  0.000  0.000  0.186
tot    0.000  0.000  0.000  0.000  0.000  0.371  0.000  0.000  0.000  0.371
 
band    23 # energy   52.28574270 # occ.  0.00000000
 
ion      s     py     pz     px    dxy    dyz    dz2    dxz  x2-y2    tot
    1  3.096  0.000  0.000  0.000  0.000  0.000  0.006  0.000  0.000  3.102
    2  3.096  0.000  0.000  0.000  0.000  0.000  0.006  0.000  0.000  3.102
tot    6.192  0.000  0.000  0.000  0.000  0.000  0.011  0.000  0.000  6.203
 
band    24 # energy   52.32947710 # occ.  0.00000000
 
ion      s     py     pz     px    dxy    dyz    dz2    dxz  x2-y2    tot
    1  3.065  0.000  0.000  0.000  0.000  0.000  0.008  0.000  0.000  3.073
    2  3.065  0.000  0.000  0.000  0.000  0.000  0.008  0.000  0.000  3.073
tot    6.130  0.000  0.000  0.000  0.000  0.000  0.015  0.000  0.000  6.145
 

 k-point     2 :    0.08333333 0.00000000 0.00000000     weight = 0.00520833

band     1 # energy    5.05492945 # occ.  1.00000000
 
ion      s     py     pz     px    dxy    dyz    dz2    dxz  x2-y2    tot
    1  0.519  0.004  0.000  0.011  0.000  0.000  0.000  0.000  0.000  0.534
    2  0.519  0.004  0.000  0.011  0.000  0.000  0.000  0.000  0.000  0.534
tot    1.039  0.007  0.000  0.022  0.000  0.000  0.000  0.000  0.000  1.069
 
band     2 # energy    8.94729470 # occ.  1.00000000
 
ion      s     py     pz     px    dxy    dyz    dz2    dxz  x2-y2    tot
    1  0.106  0.002  0.000  0.007  0.003  0.000  0.410  0.000  0.001  0.528
    2  0.106  0.002  0.000  0.007  0.003  0.000  0.410  0.000  0.001  0.528
tot    0.211  0.005  0.000  0.014  0.005  0.000  0.820  0.000  0.002  1.057
 
band     3 # energy   12.17730391 # occ.  1.00000000
 
ion      s     py     pz     px    dxy    dyz    dz2    dxz  x2-y2    tot
    1  0.000  0.001  0.000  0.002  0.252  0.000  0.163  0.000  0.084  0.502
    2  0.000  0.001  0.000  0.002  0.252  0.000  0.163  0.000  0.084  0.502
tot    0.000  0.001  0.000  0.004  0.504  0.000  0.326  0.000  0.168  1.004
 
band     4 # energy   12.75239084 # occ.  1.00000000
 
ion      s     py     pz     px    dxy    dyz    dz2    dxz  x2-y2    tot
    1  0.000  0.002  0.000  0.001  0.124  0.000  0.000  0.000  0.372  0.499
    2  0.000  0.002  0.000  0.001  0.124  0.000  0.000  0.000  0.372  0.499
tot    0.000  0.003  0.000  0.001  0.248  0.000  0.000  0.000  0.745  0.997
 
band     5 # energy   12.88751117 # occ.  1.00000000
 
ion      s     py     pz     px    dxy    dyz    dz2    dxz  x2-y2    tot
    1  0.000  0.000  0.000  0.001  0.147  0.000  0.304  0.000  0.049  0.501
    2  0.000  0.000  0.000  0.001  0.147  0.000  0.304  0.000  0.049  0.501
tot    0.000  0.000  0.000  0.001  0.294  0.000  0.608  0.000  0.098  1.003
 
band     6 # energy   13.03331784 # occ.  1.00000000
 
ion      s     py     pz     px    dxy    dyz    dz2    dxz  x2-y2    tot
    1  0.002  0.000  0.000  0.001  0.344  0.000  0.038  0.000  0.115  0.501
    2  0.002  0.000  0.000  0.001  0.344  0.000  0.038  0.000  0.115  0.501
tot    0.004  0.001  0.000  0.002  0.688  0.000  0.076  0.000  0.229  1.001
 
band     7 # energy   13.27758907 # occ.  1.00000000
 
ion      s     py     pz     px    dxy    dyz    dz2    dxz  x2-y2    tot
    1  0.000  0.002  0.000  0.001  0.124  0.000  0.000  0.000  0.373  0.500
    2  0.000  0.002  0.000  0.001  0.124  0.000  0.000  0.000  0.373  0.500
tot    0.000  0.004  0.000  0.001  0.249  0.000  0.000  0.000  0.747  1.001
 
band     8 # energy   13.38720054 # occ.  1.00000000
 
ion      s     py     pz     px    dxy    dyz    dz2    dxz  x2-y2    tot
    1  0.000  0.000  0.044  0.000  0.000  0.113  0.000  0.340  0.000  0.498
    2  0.000  0.000  0.044  0.000  0.000  0.113  0.000  0.340  0.000  0.498
tot    0.000  0.000  0.089  0.000  0.000  0.227  0.000  0.680  0.000  0.996
 
band     9 # energy   13.56066907 # occ.  1.00000000
 
ion      s     py     pz     px    dxy    dyz    dz2    dxz  x2-y2    tot
    1  0.000  0.000  0.000  0.000  0.000  0.374  0.000  0.125  0.000  0.499
    2  0.000  0.000  0.000  0.000  0.000  0.374  0.000  0.125  0.000  0.499
tot    0.000  0.000  0.000  0.000  0.000  0.748  0.000  0.249  0.000  0.997
 
band    10 # energy   14.03281231 # occ.  1.00000000
 
ion      s     py     pz     px    dxy    dyz    dz2    dxz  x2-y2    tot
    1  0.000  0.000  0.178  0.000  0.000  0.081  0.000  0.243  0.000  0.502
    2  0.000  0.000  0.178  0.000  0.000  0.081  0.000  0.243  0.000  0.502
tot    0.000  0.000  0.357  0.000  0.000  0.162  0.000  0.485  0.000  1.004
 
band    11 # energy   15.55881147 # occ.  1.00000000
 
ion      s     py     pz     px    dxy    dyz    dz2    dxz  x2-y2    tot
    1  0.000  0.000  0.000  0.000  0.000  0.370  0.000  0.123  0.000  0.493
    2  0.000  0.000  0.000  0.000  0.000  0.370  0.000  0.123  0.000  0.493
tot    0.000  0.000  0.000  0.000  0.000  0.740  0.000  0.247  0.000  0.986
 
band    12 # energy   17.47273775 # occ.  0.00000000
 
ion      s     py     pz     px    dxy    dyz    dz2    dxz  x2-y2    tot
    1  0.000  0.000  0.286  0.000  0.000  0.056  0.000  0.168  0.000  0.510
    2  0.000  0.000  0.286  0.000  0.000  0.056  0.000  0.168  0.000  0.510
tot    0.000  0.000  0.572  0.000  0.000  0.112  0.000  0.336  0.000  1.020
 
band    13 # energy   25.56056639 # occ.  0.00000000
 
ion      s     py     pz     px    dxy    dyz    dz2    dxz  x2-y2    tot
    1  0.236  0.003  0.000  0.008  0.000  0.000  0.313  0.000  0.000  0.560
    2  0.236  0.003  0.000  0.008  0.000  0.000  0.313  0.000  0.000  0.560
tot    0.473  0.005  0.000  0.015  0.001  0.000  0.626  0.000  0.000  1.120
 
band    14 # energy   39.29087972 # occ.  0.00000000
 
ion      s     py     pz     px    dxy    dyz    dz2    dxz  x2-y2    tot
    1  0.011  0.007  0.000  0.022  0.120  0.000  0.032  0.000  0.040  0.233
    2  0.011  0.007  0.000  0.022  0.120  0.000  0.032  0.000  0.040  0.233
tot    0.021  0.015  0.000  0.044  0.240  0.000  0.065  0.000  0.080  0.465
 
band    15 # energy   42.60450383 # occ.  0.00000000
 
ion      s     py     pz     px    dxy    dyz    dz2    dxz  x2-y2    tot
    1  0.027  0.023  0.000  0.069  0.121  0.000  0.061  0.000  0.040  0.341
    2  0.027  0.023  0.000  0.069  0.121  0.000  0.061  0.000  0.040  0.341
tot    0.054  0.046  0.000  0.137  0.243  0.000  0.121  0.000  0.081  0.682
 
band    16 # energy   43.87304734 # occ.  0.00000000
 
ion      s     py     pz     px    dxy    dyz    dz2    dxz  x2-y2    tot
    1  0.000  0.166  0.000  0.055  0.076  0.000  0.000  0.000  0.229  0.527
    2  0.000  0.166  0.000  0.055  0.076  0.000  0.000  0.000  0.229  0.527
tot    0.000  0.332  0.000  0.111  0.153  0.000  0.000  0.000  0.458  1.053
 
band    17 # energy   44.60141974 # occ.  0.00000000
 
ion      s     py     pz     px    dxy    dyz    dz2    dxz  x2-y2    tot
    1  0.000  0.000  0.007  0.000  0.000  0.013  0.000  0.039  0.000  0.059
    2  0.000  0.000  0.007  0.000  0.000  0.013  0.000  0.039  0.000  0.059
tot    0.000  0.000  0.014  0.000  0.000  0.026  0.000  0.078  0.000  0.117
 
band    18 # energy   46.18356316 # occ.  0.00000000
 
ion      s     py     pz     px    dxy    dyz    dz2    dxz  x2-y2    tot
    1  0.000  0.027  0.000  0.081  0.077  0.000  0.023  0.000  0.026  0.233
    2  0.000  0.027  0.000  0.081  0.077  0.000  0.023  0.000  0.026  0.233
tot    0.001  0.054  0.000  0.162  0.153  0.000  0.045  0.000  0.051  0.466
 
band    19 # energy   47.41822631 # occ.  0.00000000
 
ion      s     py     pz     px    dxy    dyz    dz2    dxz  x2-y2    tot
    1  0.000  0.000  0.028  0.000  0.000  0.036  0.000  0.109  0.000  0.174
    2  0.000  0.000  0.028  0.000  0.000  0.036  0.000  0.109  0.000  0.174
tot    0.000  0.000  0.056  0.000  0.000  0.073  0.000  0.219  0.000  0.348
 
band    20 # energy   50.57185052 # occ.  0.00000000
 
ion      s     py     pz     px    dxy    dyz    dz2    dxz  x2-y2    tot
    1  0.000  0.066  0.000  0.022  0.145  0.000  0.000  0.000  0.435  0.668
    2  0.000  0.066  0.000  0.022  0.145  0.000  0.000  0.000  0.435  0.668
tot    0.000  0.131  0.000  0.044  0.290  0.000  0.000  0.000  0.870  1.335
 
band    21 # energy   50.85196559 # occ.  0.00000000
 
ion      s     py     pz     px    dxy    dyz    dz2    dxz  x2-y2    tot
    1  0.000  0.000  0.000  0.000  0.000  0.222  0.000  0.074  0.000  0.295
    2  0.000  0.000  0.000  0.000  0.000  0.222  0.000  0.074  0.000  0.295
tot    0.000  0.000  0.000  0.000  0.000  0.443  0.000  0.148  0.000  0.591
 
band    22 # energy   51.21732108 # occ.  0.00000000
 
ion      s     py     pz     px    dxy    dyz    dz2    dxz  x2-y2    tot
    1  0.156  0.026  0.000  0.077  0.288  0.000  0.003  0.000  0.096  0.645
    2  0.156  0.026  0.000  0.077  0.288  0.000  0.003  0.000  0.096  0.645
tot    0.311  0.052  0.000  0.155  0.576  0.000  0.006  0.000  0.192  1.290
 
band    23 # energy   52.28069555 # occ.  0.00000000
 
ion      s     py     pz     px    dxy    dyz    dz2    dxz  x2-y2    tot
    1  3.080  0.000  0.000  0.000  0.006  0.000  0.002  0.000  0.002  3.090
    2  3.080  0.000  0.000  0.000  0.006  0.000  0.002  0.000  0.002  3.090
tot    6.160  0.000  0.000  0.000  0.012  0.000  0.003  0.000  0.004  6.180
 
band    24 # energy   52.36684269 # occ.  0.00000000
 
ion      s     py     pz     px    dxy    dyz    dz2    dxz  x2-y2    tot
    1  2.900  0.001  0.000  0.002  0.031  0.000  0.007  0.000  0.010  2.952
    2  2.900  0.001  0.000  0.002  0.031  0.000  0.007  0.000  0.010  2.952
tot    5.800  0.001  0.000  0.004  0.063  0.000  0.015  0.000  0.021  5.903
 

 k-point     3 :    0.16666667 0.00000000 0.00000000     weight = 0.00520833

band     1 # energy    5.94571475 # occ.  1.00000000
 
ion      s     py     pz     px    dxy    dyz    dz2    dxz  x2-y2    tot
    1  0.475  0.014  0.000  0.041  0.003  0.000  0.001  0.000  0.001  0.535
    2  0.475  0.014  0.000  0.041  0.003  0.000  0.001  0.000  0.001  0.535
tot    0.950  0.027  0.000  0.081  0.007  0.000  0.003  0.000  0.002  1.071
 
band     2 # energy    9.44434684 # occ.  1.00000000
 
ion      s     py     pz     px    dxy    dyz    dz2    dxz  x2-y2    tot
    1  0.075  0.007  0.000  0.022  0.024  0.000  0.389  0.000  0.008  0.526
    2  0.075  0.007  0.000  0.022  0.024  0.000  0.389  0.000  0.008  0.526
tot    0.150  0.014  0.000  0.043  0.048  0.000  0.778  0.000  0.016  1.051
 
band     3 # energy   11.70508891 # occ.  1.00000000
 
ion      s     py     pz     px    dxy    dyz    dz2    dxz  x2-y2    tot
    1  0.001  0.003  0.000  0.009  0.278  0.000  0.118  0.000  0.093  0.501
    2  0.001  0.003  0.000  0.009  0.278  0.000  0.118  0.000  0.093  0.501
tot    0.001  0.006  0.000  0.018  0.556  0.000  0.236  0.000  0.185  1.002
 
band     4 # energy   12.17321041 # occ.  1.00000000
 
ion      s     py     pz     px    dxy    dyz    dz2    dxz  x2-y2    tot
    1  0.000  0.000  0.122  0.000  0.000  0.094  0.000  0.282  0.000  0.498
    2  0.000  0.000  0.122  0.000  0.000  0.094  0.000  0.282  0.000  0.498
tot    0.000  0.000  0.244  0.000  0.000  0.188  0.000  0.564  0.000  0.996
 
band     5 # energy   12.74591098 # occ.  1.00000000
 
ion      s     py     pz     px    dxy    dyz    dz2    dxz  x2-y2    tot
    1  0.008  0.001  0.000  0.003  0.321  0.000  0.061  0.000  0.107  0.501
    2  0.008  0.001  0.000  0.003  0.321  0.000  0.061  0.000  0.107  0.501
tot    0.015  0.002  0.000  0.006  0.642  0.000  0.122  0.000  0.214  1.001
 
band     6 # energy   13.26105119 # occ.  1.00000000
 
ion      s     py     pz     px    dxy    dyz    dz2    dxz  x2-y2    tot
    1  0.000  0.000  0.000  0.000  0.000  0.374  0.000  0.125  0.000  0.498
    2  0.000  0.000  0.000  0.000  0.000  0.374  0.000  0.125  0.000  0.498
tot    0.000  0.000  0.000  0.000  0.000  0.748  0.000  0.249  0.000  0.997
 
band     7 # energy   13.27406034 # occ.  1.00000000
 
ion      s     py     pz     px    dxy    dyz    dz2    dxz  x2-y2    tot
    1  0.000  0.003  0.000  0.001  0.123  0.000  0.000  0.000  0.368  0.495
    2  0.000  0.003  0.000  0.001  0.123  0.000  0.000  0.000  0.368  0.495
tot    0.000  0.006  0.000  0.002  0.245  0.000  0.000  0.000  0.736  0.990
 
band     8 # energy   13.38700550 # occ.  1.00000000
 
ion      s     py     pz     px    dxy    dyz    dz2    dxz  x2-y2    tot
    1  0.003  0.001  0.000  0.002  0.113  0.000  0.342  0.000  0.038  0.498
    2  0.003  0.001  0.000  0.002  0.113  0.000  0.342  0.000  0.038  0.498
tot    0.005  0.002  0.000  0.005  0.225  0.000  0.685  0.000  0.075  0.997
 
band     9 # energy   13.56561135 # occ.  1.00000000
 
ion      s     py     pz     px    dxy    dyz    dz2    dxz  x2-y2    tot
    1  0.000  0.000  0.065  0.000  0.000  0.109  0.000  0.327  0.000  0.501
    2  0.000  0.000  0.065  0.000  0.000  0.109  0.000  0.327  0.000  0.501
tot    0.000  0.000  0.130  0.000  0.000  0.218  0.000  0.654  0.000  1.002
 
band    10 # energy   13.73681207 # occ.  1.00000000
 
ion      s     py     pz     px    dxy    dyz    dz2    dxz  x2-y2    tot
    1  0.000  0.003  0.000  0.001  0.123  0.000  0.000  0.000  0.370  0.498
    2  0.000  0.003  0.000  0.001  0.123  0.000  0.000  0.000  0.370  0.498
tot    0.000  0.006  0.000  0.002  0.247  0.000  0.000  0.000  0.740  0.996
 
band    11 # energy   15.67672150 # occ.  0.99708355
 
ion      s     py     pz     px    dxy    dyz    dz2    dxz  x2-y2    tot
    1  0.000  0.000  0.000  0.000  0.000  0.371  0.000  0.124  0.000  0.495
    2  0.000  0.000  0.000  0.000  0.000  0.371  0.000  0.124  0.000  0.495
tot    0.000  0.000  0.000  0.000  0.000  0.742  0.000  0.247  0.000  0.990
 
band    12 # energy   19.63953843 # occ.  0.00000000
 
ion      s     py     pz     px    dxy    dyz    dz2    dxz  x2-y2    tot
    1  0.000  0.000  0.301  0.000  0.000  0.054  0.000  0.163  0.000  0.519
    2  0.000  0.000  0.301  0.000  0.000  0.054  0.000  0.163  0.000  0.519
tot    0.000  0.000  0.602  0.000  0.000  0.109  0.000  0.326  0.000  1.038
 
band    13 # energy   25.61318531 # occ.  0.00000000
 
ion      s     py     pz     px    dxy    dyz    dz2    dxz  x2-y2    tot
    1  0.217  0.011  0.000  0.033  0.001  0.000  0.292  0.000  0.000  0.554
    2  0.217  0.011  0.000  0.033  0.001  0.000  0.292  0.000  0.000  0.554
tot    0.434  0.022  0.000  0.067  0.002  0.000  0.583  0.000  0.001  1.108
 
band    14 # energy   36.05933260 # occ.  0.00000000
 
ion      s     py     pz     px    dxy    dyz    dz2    dxz  x2-y2    tot
    1  0.038  0.031  0.000  0.094  0.207  0.000  0.031  0.000  0.069  0.470
    2  0.038  0.031  0.000  0.094  0.207  0.000  0.031  0.000  0.069  0.470
tot    0.077  0.063  0.000  0.188  0.413  0.000  0.061  0.000  0.138  0.939
 
band    15 # energy   40.88569939 # occ.  0.00000000
 
ion      s     py     pz     px    dxy    dyz    dz2    dxz  x2-y2    tot
    1  0.000  0.194  0.000  0.065  0.058  0.000  0.000  0.000  0.173  0.490
    2  0.000  0.194  0.000  0.065  0.058  0.000  0.000  0.000  0.173  0.490
tot    0.000  0.388  0.000  0.129  0.116  0.000  0.000  0.000  0.347  0.980
 
band    16 # energy   41.27840971 # occ.  0.00000000
 
ion      s     py     pz     px    dxy    dyz    dz2    dxz  x2-y2    tot
    1  0.025  0.009  0.000  0.027  0.194  0.000  0.064  0.000  0.065  0.384
    2  0.025  0.009  0.000  0.027  0.194  0.000  0.064  0.000  0.065  0.384
tot    0.050  0.018  0.000  0.055  0.388  0.000  0.128  0.000  0.129  0.769
 
band    17 # energy   43.19515016 # occ.  0.00000000
 
ion      s     py     pz     px    dxy    dyz    dz2    dxz  x2-y2    tot
    1  0.000  0.000  0.035  0.000  0.000  0.070  0.000  0.209  0.000  0.314
    2  0.000  0.000  0.035  0.000  0.000  0.070  0.000  0.209  0.000  0.314
tot    0.000  0.000  0.071  0.000  0.000  0.139  0.000  0.417  0.000  0.627
 
band    18 # energy   44.79426534 # occ.  0.00000000
 
ion      s     py     pz     px    dxy    dyz    dz2    dxz  x2-y2    tot
    1  0.000  0.000  0.008  0.000  0.000  0.019  0.000  0.057  0.000  0.083
    2  0.000  0.000  0.008  0.000  0.000  0.019  0.000  0.057  0.000  0.083
tot    0.000  0.000  0.015  0.000  0.000  0.038  0.000  0.114  0.000  0.167
 
band    19 # energy   47.33963126 # occ.  0.00000000
 
ion      s     py     pz     px    dxy    dyz    dz2    dxz  x2-y2    tot
    1  0.019  0.025  0.000  0.075  0.045  0.000  0.016  0.000  0.015  0.195
    2  0.019  0.025  0.000  0.075  0.045  0.000  0.016  0.000  0.015  0.195
tot    0.039  0.050  0.000  0.150  0.091  0.000  0.031  0.000  0.030  0.390
 
band    20 # energy   50.46239119 # occ.  0.00000000
 
ion      s     py     pz     px    dxy    dyz    dz2    dxz  x2-y2    tot
    1  0.000  0.000  0.000  0.000  0.000  0.367  0.000  0.122  0.000  0.490
    2  0.000  0.000  0.000  0.000  0.000  0.367  0.000  0.122  0.000  0.490
tot    0.000  0.000  0.000  0.000  0.000  0.735  0.000  0.245  0.000  0.980
 
band    21 # energy   51.30938549 # occ.  0.00000000
 
ion      s     py     pz     px    dxy    dyz    dz2    dxz  x2-y2    tot
    1  1.145  0.032  0.000  0.096  0.007  0.000  0.181  0.000  0.002  1.462
    2  1.145  0.032  0.000  0.096  0.007  0.000  0.181  0.000  0.002  1.462
tot    2.289  0.064  0.000  0.191  0.014  0.000  0.361  0.000  0.005  2.924
 
band    22 # energy   52.34333035 # occ.  0.00000000
 
ion      s     py     pz     px    dxy    dyz    dz2    dxz  x2-y2    tot
    1  3.069  0.000  0.000  0.000  0.006  0.000  0.004  0.000  0.002  3.081
    2  3.069  0.000  0.000  0.000  0.006  0.000  0.004  0.000  0.002  3.081
tot    6.138  0.000  0.000  0.000  0.012  0.000  0.007  0.000  0.004  6.161
 
band    23 # energy   52.55186658 # occ.  0.00000000
 
ion      s     py     pz     px    dxy    dyz    dz2    dxz  x2-y2    tot
    1  0.000  0.000  0.210  0.000  0.000  0.030  0.000  0.091  0.000  0.332
    2  0.000  0.000  0.210  0.000  0.000  0.030  0.000  0.091  0.000  0.332
tot    0.000  0.000  0.421  0.000  0.000  0.061  0.000  0.182  0.000  0.664
 
band    24 # energy   52.82216362 # occ.  0.00000000
 
ion      s     py     pz     px    dxy    dyz    dz2    dxz  x2-y2    tot
    1  1.769  0.011  0.000  0.032  0.002  0.000  0.273  0.000  0.001  2.087
    2  1.769  0.011  0.000  0.032  0.002  0.000  0.273  0.000  0.001  2.087
tot    3.538  0.021  0.000  0.063  0.003  0.000  0.547  0.000  0.001  4.173
 

 k-point     4 :    0.25000000 0.00000000 0.00000000     weight = 0.00520833

band     1 # energy    7.23250889 # occ.  1.00000000
 
ion      s     py     pz     px    dxy    dyz    dz2    dxz  x2-y2    tot
    1  0.397  0.025  0.000  0.075  0.023  0.000  0.007  0.000  0.008  0.536
    2  0.397  0.025  0.000  0.075  0.023  0.000  0.007  0.000  0.008  0.536
tot    0.794  0.050  0.000  0.150  0.047  0.000  0.015  0.000  0.016  1.071
 
band     2 # energy    9.79216150 # occ.  1.00000000
 
ion      s     py     pz     px    dxy    dyz    dz2    dxz  x2-y2    tot
    1  0.039  0.007  0.000  0.020  0.124  0.000  0.290  0.000  0.041  0.521
    2  0.039  0.007  0.000  0.020  0.124  0.000  0.290  0.000  0.041  0.521
tot    0.078  0.013  0.000  0.040  0.248  0.000  0.580  0.000  0.083  1.041
 
band     3 # energy   11.02310818 # occ.  1.00000000
 
ion      s     py     pz     px    dxy    dyz    dz2    dxz  x2-y2    tot
    1  0.000  0.000  0.096  0.000  0.000  0.101  0.000  0.302  0.000  0.499
    2  0.000  0.000  0.096  0.000  0.000  0.101  0.000  0.302  0.000  0.499
tot    0.000  0.000  0.191  0.000  0.000  0.202  0.000  0.605  0.000  0.998
 
band     4 # energy   11.43313620 # occ.  1.00000000
 
ion      s     py     pz     px    dxy    dyz    dz2    dxz  x2-y2    tot
    1  0.002  0.014  0.000  0.041  0.233  0.000  0.136  0.000  0.078  0.503
    2  0.002  0.014  0.000  0.041  0.233  0.000  0.136  0.000  0.078  0.503
tot    0.003  0.027  0.000  0.081  0.466  0.000  0.272  0.000  0.155  1.005
 
band     5 # energy   12.60367982 # occ.  1.00000000
 
ion      s     py     pz     px    dxy    dyz    dz2    dxz  x2-y2    tot
    1  0.017  0.003  0.000  0.009  0.252  0.000  0.138  0.000  0.084  0.502
    2  0.017  0.003  0.000  0.009  0.252  0.000  0.138  0.000  0.084  0.502
tot    0.035  0.006  0.000  0.017  0.503  0.000  0.275  0.000  0.168  1.004
 
band     6 # energy   12.90615580 # occ.  1.00000000
 
ion      s     py     pz     px    dxy    dyz    dz2    dxz  x2-y2    tot
    1  0.000  0.000  0.000  0.000  0.000  0.374  0.000  0.125  0.000  0.499
    2  0.000  0.000  0.000  0.000  0.000  0.374  0.000  0.125  0.000  0.499
tot    0.000  0.000  0.000  0.000  0.000  0.749  0.000  0.250  0.000  0.998
 
band     7 # energy   13.25364866 # occ.  1.00000000
 
ion      s     py     pz     px    dxy    dyz    dz2    dxz  x2-y2    tot
    1  0.000  0.000  0.055  0.000  0.000  0.112  0.000  0.335  0.000  0.502
    2  0.000  0.000  0.055  0.000  0.000  0.112  0.000  0.335  0.000  0.502
tot    0.000  0.000  0.110  0.000  0.000  0.223  0.000  0.670  0.000  1.003
 
band     8 # energy   14.03718757 # occ.  1.00000000
 
ion      s     py     pz     px    dxy    dyz    dz2    dxz  x2-y2    tot
    1  0.000  0.004  0.000  0.001  0.122  0.000  0.000  0.000  0.365  0.492
    2  0.000  0.004  0.000  0.001  0.122  0.000  0.000  0.000  0.365  0.492
tot    0.000  0.008  0.000  0.003  0.243  0.000  0.000  0.000  0.730  0.984
 
band     9 # energy   14.08690925 # occ.  1.00000000
 
ion      s     py     pz     px    dxy    dyz    dz2    dxz  x2-y2    tot
    1  0.009  0.003  0.000  0.010  0.099  0.000  0.341  0.000  0.033  0.497
    2  0.009  0.003  0.000  0.010  0.099  0.000  0.341  0.000  0.033  0.497
tot    0.018  0.007  0.000  0.021  0.199  0.000  0.683  0.000  0.066  0.994
 
band    10 # energy   14.40116623 # occ.  1.00000000
 
ion      s     py     pz     px    dxy    dyz    dz2    dxz  x2-y2    tot
    1  0.000  0.005  0.000  0.002  0.122  0.000  0.000  0.000  0.367  0.496
    2  0.000  0.005  0.000  0.002  0.122  0.000  0.000  0.000  0.367  0.496
tot    0.000  0.009  0.000  0.003  0.245  0.000  0.000  0.000  0.735  0.992
 
band    11 # energy   15.78657961 # occ.  0.36308446
 
ion      s     py     pz     px    dxy    dyz    dz2    dxz  x2-y2    tot