   2   2   1   0
  0.1513039E+02  0.2722037E-09  0.2722037E-09  0.4715866E-09  0.5000000E-15
  1.000000000000000E-004
  CAR 
 Pt-hcc                                  
     37.17483677    -44.77117299  301     11.96216607      1.00000000
    -44.771  0.0000E+00  0.0000E+00
    -44.498  0.0000E+00  0.0000E+00
    -44.225  0.0000E+00  0.0000E+00
    -43.952  0.0000E+00  0.0000E+00
    -43.679  0.0000E+00  0.0000E+00
    -43.405  0.0000E+00  0.0000E+00
    -43.132  0.0000E+00  0.0000E+00
    -42.859  0.0000E+00  0.0000E+00
    -42.586  0.0000E+00  0.0000E+00
    -42.313  0.0000E+00  0.0000E+00
    -42.040  0.0000E+00  0.0000E+00
    -41.766  0.0000E+00  0.0000E+00
    -41.493  0.0000E+00  0.0000E+00
    -41.220  0.8696E-09  0.2375E-09
    -40.947  0.5747E-01  0.1570E-01
    -40.674  0.1836E+00  0.6586E-01
    -40.401  0.1977E+00  0.1199E+00
    -40.128  0.4551E-03  0.1200E+00
    -39.854  0.0000E+00  0.1200E+00
    -39.581  0.0000E+00  0.1200E+00
    -39.308  0.0000E+00  0.1200E+00
    -39.035  0.0000E+00  0.1200E+00
    -38.762  0.0000E+00  0.1200E+00
    -38.489  0.0000E+00  0.1200E+00
    -38.215  0.0000E+00  0.1200E+00
    -37.942  0.0000E+00  0.1200E+00
    -37.669  0.0000E+00  0.1200E+00
    -37.396  0.0000E+00  0.1200E+00
    -37.123  0.0000E+00  0.1200E+00
    -36.850  0.0000E+00  0.1200E+00
    -36.577  0.0000E+00  0.1200E+00
    -36.303  0.0000E+00  0.1200E+00
    -36.030  0.0000E+00  0.1200E+00
    -35.757  0.0000E+00  0.1200E+00
    -35.484  0.0000E+00  0.1200E+00
    -35.211  0.0000E+00  0.1200E+00
    -34.938  0.0000E+00  0.1200E+00
    -34.664  0.0000E+00  0.1200E+00
    -34.391  0.0000E+00  0.1200E+00
    -34.118  0.0000E+00  0.1200E+00
    -33.845  0.0000E+00  0.1200E+00
    -33.572  0.0000E+00  0.1200E+00
    -33.299  0.0000E+00  0.1200E+00
    -33.026  0.0000E+00  0.1200E+00
    -32.752  0.0000E+00  0.1200E+00
    -32.479  0.0000E+00  0.1200E+00
    -32.206  0.0000E+00  0.1200E+00
    -31.933  0.0000E+00  0.1200E+00
    -31.660  0.0000E+00  0.1200E+00
    -31.387  0.0000E+00  0.1200E+00
    -31.114  0.0000E+00  0.1200E+00
    -30.840  0.0000E+00  0.1200E+00
    -30.567  0.0000E+00  0.1200E+00
    -30.294  0.0000E+00  0.1200E+00
    -30.021  0.0000E+00  0.1200E+00
    -29.748  0.0000E+00  0.1200E+00
    -29.475  0.0000E+00  0.1200E+00
    -29.201  0.0000E+00  0.1200E+00
    -28.928  0.0000E+00  0.1200E+00
    -28.655  0.0000E+00  0.1200E+00
    -28.382  0.0000E+00  0.1200E+00
    -28.109  0.0000E+00  0.1200E+00
    -27.836  0.0000E+00  0.1200E+00
    -27.563  0.0000E+00  0.1200E+00
    -27.289  0.0000E+00  0.1200E+00
    -27.016  0.0000E+00  0.1200E+00
    -26.743  0.0000E+00  0.1200E+00
    -26.470  0.0000E+00  0.1200E+00
    -26.197  0.0000E+00  0.1200E+00
    -25.924  0.0000E+00  0.1200E+00
    -25.650  0.0000E+00  0.1200E+00
    -25.377  0.0000E+00  0.1200E+00
    -25.104  0.0000E+00  0.1200E+00
    -24.831  0.0000E+00  0.1200E+00
    -24.558  0.0000E+00  0.1200E+00
    -24.285  0.0000E+00  0.1200E+00
    -24.012  0.0000E+00  0.1200E+00
    -23.738  0.0000E+00  0.1200E+00
    -23.465  0.0000E+00  0.1200E+00
    -23.192  0.0000E+00  0.1200E+00
    -22.919  0.0000E+00  0.1200E+00
    -22.646  0.0000E+00  0.1200E+00
    -22.373  0.0000E+00  0.1200E+00
    -22.099  0.0000E+00  0.1200E+00
    -21.826  0.0000E+00  0.1200E+00
    -21.553  0.0000E+00  0.1200E+00
    -21.280  0.0000E+00  0.1200E+00
    -21.007  0.0000E+00  0.1200E+00
    -20.734  0.0000E+00  0.1200E+00
    -20.461  0.0000E+00  0.1200E+00
    -20.187  0.0000E+00  0.1200E+00
    -19.914  0.0000E+00  0.1200E+00
    -19.641  0.0000E+00  0.1200E+00
    -19.368  0.0000E+00  0.1200E+00
    -19.095  0.0000E+00  0.1200E+00
    -18.822  0.0000E+00  0.1200E+00
    -18.548  0.0000E+00  0.1200E+00
    -18.275  0.0000E+00  0.1200E+00
    -18.002  0.0000E+00  0.1200E+00
    -17.729  0.0000E+00  0.1200E+00
    -17.456  0.0000E+00  0.1200E+00
    -17.183  0.0000E+00  0.1200E+00
    -16.910  0.0000E+00  0.1200E+00
    -16.636  0.0000E+00  0.1200E+00
    -16.363  0.0000E+00  0.1200E+00
    -16.090  0.0000E+00  0.1200E+00
    -15.817  0.0000E+00  0.1200E+00
    -15.544  0.0000E+00  0.1200E+00
    -15.271  0.0000E+00  0.1200E+00
    -14.997  0.0000E+00  0.1200E+00
    -14.724  0.0000E+00  0.1200E+00
    -14.451  0.0000E+00  0.1200E+00
    -14.178  0.0000E+00  0.1200E+00
    -13.905  0.0000E+00  0.1200E+00
    -13.632  0.0000E+00  0.1200E+00
    -13.359  0.0000E+00  0.1200E+00
    -13.085  0.0000E+00  0.1200E+00
    -12.812  0.0000E+00  0.1200E+00
    -12.539  0.0000E+00  0.1200E+00
    -12.266  0.0000E+00  0.1200E+00
    -11.993  0.0000E+00  0.1200E+00
    -11.720  0.0000E+00  0.1200E+00
    -11.446  0.0000E+00  0.1200E+00
    -11.173  0.0000E+00  0.1200E+00
    -10.900  0.0000E+00  0.1200E+00
    -10.627  0.0000E+00  0.1200E+00
    -10.354  0.0000E+00  0.1200E+00
    -10.081  0.0000E+00  0.1200E+00
     -9.808  0.0000E+00  0.1200E+00
     -9.534  0.0000E+00  0.1200E+00
     -9.261  0.0000E+00  0.1200E+00
     -8.988  0.0000E+00  0.1200E+00
     -8.715  0.0000E+00  0.1200E+00
     -8.442  0.0000E+00  0.1200E+00
     -8.169  0.0000E+00  0.1200E+00
     -7.895  0.0000E+00  0.1200E+00
     -7.622  0.0000E+00  0.1200E+00
     -7.349  0.0000E+00  0.1200E+00
     -7.076  0.0000E+00  0.1200E+00
     -6.803  0.0000E+00  0.1200E+00
     -6.530  0.0000E+00  0.1200E+00
     -6.257  0.0000E+00  0.1200E+00
     -5.983  0.0000E+00  0.1200E+00
     -5.710  0.0000E+00  0.1200E+00
     -5.437  0.0000E+00  0.1200E+00
     -5.164  0.0000E+00  0.1200E+00
     -4.891  0.0000E+00  0.1200E+00
     -4.618  0.0000E+00  0.1200E+00
     -4.344  0.0000E+00  0.1200E+00
     -4.071  0.0000E+00  0.1200E+00
     -3.798  0.0000E+00  0.1200E+00
     -3.525  0.0000E+00  0.1200E+00
     -3.252  0.0000E+00  0.1200E+00
     -2.979  0.0000E+00  0.1200E+00
     -2.706  0.0000E+00  0.1200E+00
     -2.432  0.0000E+00  0.1200E+00
     -2.159  0.0000E+00  0.1200E+00
     -1.886  0.0000E+00  0.1200E+00
     -1.613  0.0000E+00  0.1200E+00
     -1.340  0.0000E+00  0.1200E+00
     -1.067  0.0000E+00  0.1200E+00
     -0.793  0.0000E+00  0.1200E+00
     -0.520  0.0000E+00  0.1200E+00
     -0.247  0.0000E+00  0.1200E+00
      0.026  0.0000E+00  0.1200E+00
      0.299  0.0000E+00  0.1200E+00
      0.572  0.0000E+00  0.1200E+00
      0.845  0.0000E+00  0.1200E+00
      1.119  0.0000E+00  0.1200E+00
      1.392  0.0000E+00  0.1200E+00
      1.665  0.4207E-07  0.1200E+00
      1.938  0.2150E-03  0.1201E+00
      2.211  0.5809E-03  0.1202E+00
      2.484  0.1309E-02  0.1206E+00
      2.758  0.1068E-02  0.1209E+00
      3.031  0.1691E-02  0.1213E+00
      3.304  0.2151E-02  0.1219E+00
      3.577  0.1964E-02  0.1225E+00
      3.850  0.1195E-02  0.1228E+00
      4.123  0.3630E-02  0.1238E+00
      4.396  0.3810E-02  0.1248E+00
      4.670  0.6848E-02  0.1267E+00
      4.943  0.1010E-01  0.1294E+00
      5.216  0.1829E-01  0.1344E+00
      5.489  0.2434E-01  0.1411E+00
      5.762  0.2000E-01  0.1465E+00
      6.035  0.2013E-01  0.1520E+00
      6.309  0.2264E-01  0.1582E+00
      6.582  0.3188E-01  0.1669E+00
      6.855  0.2893E-01  0.1748E+00
      7.128  0.2490E-01  0.1816E+00
      7.401  0.3150E-01  0.1903E+00
      7.674  0.2354E-01  0.1967E+00
      7.947  0.2615E-01  0.2038E+00
      8.221  0.3331E-01  0.2129E+00
      8.494  0.3294E-01  0.2219E+00
      8.767  0.3342E-01  0.2311E+00
      9.040  0.3015E-01  0.2393E+00
      9.313  0.3973E-01  0.2501E+00
      9.586  0.3320E-01  0.2592E+00
      9.860  0.1439E-01  0.2631E+00
     10.133  0.2249E-01  0.2693E+00
     10.406  0.2225E-01  0.2754E+00
     10.679  0.2703E-01  0.2827E+00
     10.952  0.2314E-01  0.2891E+00
     11.225  0.2359E-01  0.2955E+00
     11.498  0.2246E-01  0.3016E+00
     11.772  0.3693E-01  0.3117E+00
     12.045  0.4119E-01  0.3230E+00
     12.318  0.2336E-01  0.3294E+00
     12.591  0.1644E-01  0.3339E+00
     12.864  0.6983E-02  0.3358E+00
     13.137  0.3515E-02  0.3367E+00
     13.410  0.1720E-02  0.3372E+00
     13.684  0.1127E-02  0.3375E+00
     13.957  0.8379E-02  0.3398E+00
     14.230  0.1001E-01  0.3425E+00
     14.503  0.7643E-02  0.3446E+00
     14.776  0.2801E-02  0.3454E+00
     15.049  0.2193E-02  0.3460E+00
     15.323  0.7284E-02  0.3480E+00
     15.596  0.2603E-02  0.3487E+00
     15.869  0.6315E-02  0.3504E+00
     16.142  0.3654E-02  0.3514E+00
     16.415  0.4534E-02  0.3526E+00
     16.688  0.7146E-02  0.3546E+00
     16.961  0.7591E-02  0.3567E+00
     17.235  0.4985E-02  0.3580E+00
     17.508  0.3523E-02  0.3590E+00
     17.781  0.2185E-02  0.3596E+00
     18.054  0.1456E-02  0.3600E+00
     18.327  0.3405E-02  0.3609E+00
     18.600  0.4766E-02  0.3622E+00
     18.874  0.1209E-01  0.3655E+00
     19.147  0.9151E-02  0.3680E+00
     19.420  0.8403E-02  0.3703E+00
     19.693  0.5729E-02  0.3719E+00
     19.966  0.8640E-02  0.3742E+00
     20.239  0.7202E-02  0.3762E+00
     20.512  0.4019E-02  0.3773E+00
     20.786  0.7653E-02  0.3794E+00
     21.059  0.7587E-02  0.3815E+00
     21.332  0.8220E-02  0.3837E+00
     21.605  0.9865E-02  0.3864E+00
     21.878  0.3901E-02  0.3875E+00
     22.151  0.3384E-02  0.3884E+00
     22.425  0.7500E-02  0.3904E+00
     22.698  0.1005E-01  0.3932E+00
     22.971  0.6023E-02  0.3948E+00
     23.244  0.5993E-02  0.3965E+00
     23.517  0.3226E-02  0.3974E+00
     23.790  0.9534E-02  0.4000E+00
     24.063  0.3350E-02  0.4009E+00
     24.337  0.5080E-02  0.4023E+00
     24.610  0.1119E-01  0.4053E+00
     24.883  0.1114E-01  0.4084E+00
     25.156  0.9442E-02  0.4109E+00
     25.429  0.8926E-02  0.4134E+00
     25.702  0.5839E-02  0.4150E+00
     25.976  0.5536E-02  0.4165E+00
     26.249  0.1225E-01  0.4198E+00
     26.522  0.2141E-01  0.4257E+00
     26.795  0.1763E-01  0.4305E+00
     27.068  0.1694E-01  0.4351E+00
     27.341  0.1214E-01  0.4384E+00
     27.614  0.1250E-01  0.4419E+00
     27.888  0.8168E-02  0.4441E+00
     28.161  0.1433E-01  0.4480E+00
     28.434  0.2328E-01  0.4544E+00
     28.707  0.1648E-01  0.4589E+00
     28.980  0.6735E-02  0.4607E+00
     29.253  0.1467E-01  0.4647E+00
     29.527  0.8788E-02  0.4671E+00
     29.800  0.9548E-02  0.4697E+00
     30.073  0.5535E-02  0.4712E+00
     30.346  0.9665E-02  0.4739E+00
     30.619  0.1780E-02  0.4744E+00
     30.892  0.6212E-02  0.4760E+00
     31.165  0.3505E-02  0.4770E+00
     31.439  0.2911E-02  0.4778E+00
     31.712  0.1854E-02  0.4783E+00
     31.985  0.4717E-02  0.4796E+00
     32.258  0.7491E-03  0.4798E+00
     32.531  0.7759E-04  0.4798E+00
     32.804  0.4458E-03  0.4799E+00
     33.078  0.2892E-04  0.4800E+00
     33.351  0.4542E-06  0.4800E+00
     33.624  0.1826E-03  0.4800E+00
     33.897  0.0000E+00  0.4800E+00
     34.170  0.0000E+00  0.4800E+00
     34.443  0.0000E+00  0.4800E+00
     34.716  0.0000E+00  0.4800E+00
     34.990  0.0000E+00  0.4800E+00
     35.263  0.0000E+00  0.4800E+00
     35.536  0.0000E+00  0.4800E+00
     35.809  0.0000E+00  0.4800E+00
     36.082  0.0000E+00  0.4800E+00
     36.355  0.0000E+00  0.4800E+00
     36.629  0.0000E+00  0.4800E+00
     36.902  0.0000E+00  0.4800E+00
     37.175  0.0000E+00  0.4800E+00
     37.17483677    -44.77117299  301     11.96216607      1.00000000
    -44.771  0.0000E+00  0.0000E+00  0.0000E+00  0.0000E+00  0.0000E+00  0.0000E+00  0.0000E+00  0.0000E+00  0.0000E+00
    -44.498  0.0000E+00  0.0000E+00  0.0000E+00  0.0000E+00  0.0000E+00  0.0000E+00  0.0000E+00  0.0000E+00  0.0000E+00
    -44.225  0.0000E+00  0.0000E+00  0.0000E+00  0.0000E+00  0.0000E+00  0.0000E+00  0.0000E+00  0.0000E+00  0.0000E+00
    -43.952  0.0000E+00  0.0000E+00  0.0000E+00  0.0000E+00  0.0000E+00  0.0000E+00  0.0000E+00  0.0000E+00  0.0000E+00
    -43.679  0.0000E+00  0.0000E+00  0.0000E+00  0.0000E+00  0.0000E+00  0.0000E+00  0.0000E+00  0.0000E+00  0.0000E+00
    -43.405  0.0000E+00  0.0000E+00  0.0000E+00  0.0000E+00  0.0000E+00  0.0000E+00  0.0000E+00  0.0000E+00  0.0000E+00
    -43.132  0.0000E+00  0.0000E+00  0.0000E+00  0.0000E+00  0.0000E+00  0.0000E+00  0.0000E+00  0.0000E+00  0.0000E+00
    -42.859  0.0000E+00  0.0000E+00  0.0000E+00  0.0000E+00  0.0000E+00  0.0000E+00  0.0000E+00  0.0000E+00  0.0000E+00
    -42.586  0.0000E+00  0.0000E+00  0.0000E+00  0.0000E+00  0.0000E+00  0.0000E+00  0.0000E+00  0.0000E+00  0.0000E+00
    -42.313  0.0000E+00  0.0000E+00  0.0000E+00  0.0000E+00  0.0000E+00  0.0000E+00  0.0000E+00  0.0000E+00  0.0000E+00
    -42.040  0.0000E+00  0.0000E+00  0.0000E+00  0.0000E+00  0.0000E+00  0.0000E+00  0.0000E+00  0.0000E+00  0.0000E+00
    -41.766  0.0000E+00  0.0000E+00  0.0000E+00  0.0000E+00  0.0000E+00  0.0000E+00  0.0000E+00  0.0000E+00  0.0000E+00
    -41.493  0.0000E+00  0.0000E+00  0.0000E+00  0.0000E+00  0.0000E+00  0.0000E+00  0.0000E+00  0.0000E+00  0.0000E+00
    -41.220  0.2813E-12  0.2084E-07  0.1010E-08  0.2084E-07  0.3860E-13  0.1812E-13  0.3126E-12  0.1812E-13  0.3860E-13
    -40.947  0.7139E-04  0.1375E+01  0.7662E-01  0.1375E+01  0.3510E-04  0.3278E-05  0.4102E-04  0.3278E-05  0.3510E-04
    -40.674  0.3024E-03  0.3865E+01  0.1354E+01  0.3865E+01  0.1750E-03  0.3116E-04  0.1287E-03  0.3116E-04  0.1750E-03
    -40.401  0.5528E-04  0.2010E+01  0.5799E+01  0.2010E+01  0.5001E-04  0.5833E-04  0.6970E-04  0.5833E-04  0.5001E-04
    -40.128  0.5810E-07  0.6866E-04  0.2250E-01  0.6866E-04  0.2867E-08  0.5656E-07  0.6436E-07  0.5656E-07  0.2867E-08
    -39.854  0.0000E+00  0.0000E+00  0.0000E+00  0.0000E+00  0.0000E+00  0.0000E+00  0.0000E+00  0.0000E+00  0.0000E+00
    -39.581  0.0000E+00  0.0000E+00  0.0000E+00  0.0000E+00  0.0000E+00  0.0000E+00  0.0000E+00  0.0000E+00  0.0000E+00
    -39.308  0.0000E+00  0.0000E+00  0.0000E+00  0.0000E+00  0.0000E+00  0.0000E+00  0.0000E+00  0.0000E+00  0.0000E+00
    -39.035  0.0000E+00  0.0000E+00  0.0000E+00  0.0000E+00  0.0000E+00  0.0000E+00  0.0000E+00  0.0000E+00  0.0000E+00
    -38.762  0.0000E+00  0.0000E+00  0.0000E+00  0.0000E+00  0.0000E+00  0.0000E+00  0.0000E+00  0.0000E+00  0.0000E+00
    -38.489  0.0000E+00  0.0000E+00  0.0000E+00  0.0000E+00  0.0000E+00  0.0000E+00  0.0000E+00  0.0000E+00  0.0000E+00
    -38.215  0.0000E+00  0.0000E+00  0.0000E+00  0.0000E+00  0.0000E+00  0.0000E+00  0.0000E+00  0.0000E+00  0.0000E+00
    -37.942  0.0000E+00  0.0000E+00  0.0000E+00  0.0000E+00  0.0000E+00  0.0000E+00  0.0000E+00  0.0000E+00  0.0000E+00
    -37.669  0.0000E+00  0.0000E+00  0.0000E+00  0.0000E+00  0.0000E+00  0.0000E+00  0.0000E+00  0.0000E+00  0.0000E+00
    -37.396  0.0000E+00  0.0000E+00  0.0000E+00  0.0000E+00  0.0000E+00  0.0000E+00  0.0000E+00  0.0000E+00  0.0000E+00
    -37.123  0.0000E+00  0.0000E+00  0.0000E+00  0.0000E+00  0.0000E+00  0.0000E+00  0.0000E+00  0.0000E+00  0.0000E+00
    -36.850  0.0000E+00  0.0000E+00  0.0000E+00  0.0000E+00  0.0000E+00  0.0000E+00  0.0000E+00  0.0000E+00  0.0000E+00
    -36.577  0.0000E+00  0.0000E+00  0.0000E+00  0.0000E+00  0.0000E+00  0.0000E+00  0.0000E+00  0.0000E+00  0.0000E+00
    -36.303  0.0000E+00  0.0000E+00  0.0000E+00  0.0000E+00  0.0000E+00  0.0000E+00  0.0000E+00  0.0000E+00  0.0000E+00
    -36.030  0.0000E+00  0.0000E+00  0.0000E+00  0.0000E+00  0.0000E+00  0.0000E+00  0.0000E+00  0.0000E+00  0.0000E+00
    -35.757  0.0000E+00  0.0000E+00  0.0000E+00  0.0000E+00  0.0000E+00  0.0000E+00  0.0000E+00  0.0000E+00  0.0000E+00
    -35.484  0.0000E+00  0.0000E+00  0.0000E+00  0.0000E+00  0.0000E+00  0.0000E+00  0.0000E+00  0.0000E+00  0.0000E+00
    -35.211  0.0000E+00  0.0000E+00  0.0000E+00  0.0000E+00  0.0000E+00  0.0000E+00  0.0000E+00  0.0000E+00  0.0000E+00
    -34.938  0.0000E+00  0.0000E+00  0.0000E+00  0.0000E+00  0.0000E+00  0.0000E+00  0.0000E+00  0.0000E+00  0.0000E+00
    -34.664  0.0000E+00  0.0000E+00  0.0000E+00  0.0000E+00  0.0000E+00  0.0000E+00  0.0000E+00  0.0000E+00  0.0000E+00
    -34.391  0.0000E+00  0.0000E+00  0.0000E+00  0.0000E+00  0.0000E+00  0.0000E+00  0.0000E+00  0.0000E+00  0.0000E+00
    -34.118  0.0000E+00  0.0000E+00  0.0000E+00  0.0000E+00  0.0000E+00  0.0000E+00  0.0000E+00  0.0000E+00  0.0000E+00
    -33.845  0.0000E+00  0.0000E+00  0.0000E+00  0.0000E+00  0.0000E+00  0.0000E+00  0.0000E+00  0.0000E+00  0.0000E+00
    -33.572  0.0000E+00  0.0000E+00  0.0000E+00  0.0000E+00  0.0000E+00  0.0000E+00  0.0000E+00  0.0000E+00  0.0000E+00
    -33.299  0.0000E+00  0.0000E+00  0.0000E+00  0.0000E+00  0.0000E+00  0.0000E+00  0.0000E+00  0.0000E+00  0.0000E+00
    -33.026  0.0000E+00  0.0000E+00  0.0000E+00  0.0000E+00  0.0000E+00  0.0000E+00  0.0000E+00  0.0000E+00  0.0000E+00
    -32.752  0.0000E+00  0.0000E+00  0.0000E+00  0.0000E+00  0.0000E+00  0.0000E+00  0.0000E+00  0.0000E+00  0.0000E+00
    -32.479  0.0000E+00  0.0000E+00  0.0000E+00  0.0000E+00  0.0000E+00  0.0000E+00  0.0000E+00  0.0000E+00  0.0000E+00
    -32.206  0.0000E+00  0.0000E+00  0.0000E+00  0.0000E+00  0.0000E+00  0.0000E+00  0.0000E+00  0.0000E+00  0.0000E+00
    -31.933  0.0000E+00  0.0000E+00  0.0000E+00  0.0000E+00  0.0000E+00  0.0000E+00  0.0000E+00  0.0000E+00  0.0000E+00
    -31.660  0.0000E+00  0.0000E+00  0.0000E+00  0.0000E+00  0.0000E+00  0.0000E+00  0.0000E+00  0.0000E+00  0.0000E+00
    -31.387  0.0000E+00  0.0000E+00  0.0000E+00  0.0000E+00  0.0000E+00  0.0000E+00  0.0000E+00  0.0000E+00  0.0000E+00
    -31.114  0.0000E+00  0.0000E+00  0.0000E+00  0.0000E+00  0.0000E+00  0.0000E+00  0.0000E+00  0.0000E+00  0.0000E+00
    -30.840  0.0000E+00  0.0000E+00  0.0000E+00  0.0000E+00  0.0000E+00  0.0000E+00  0.0000E+00  0.0000E+00  0.0000E+00
    -30.567  0.0000E+00  0.0000E+00  0.0000E+00  0.0000E+00  0.0000E+00  0.0000E+00  0.0000E+00  0.0000E+00  0.0000E+00
    -30.294  0.0000E+00  0.0000E+00  0.0000E+00  0.0000E+00  0.0000E+00  0.0000E+00  0.0000E+00  0.0000E+00  0.0000E+00
    -30.021  0.0000E+00  0.0000E+00  0.0000E+00  0.0000E+00  0.0000E+00  0.0000E+00  0.0000E+00  0.0000E+00  0.0000E+00
    -29.748  0.0000E+00  0.0000E+00  0.0000E+00  0.0000E+00  0.0000E+00  0.0000E+00  0.0000E+00  0.0000E+00  0.0000E+00
    -29.475  0.0000E+00  0.0000E+00  0.0000E+00  0.0000E+00  0.0000E+00  0.0000E+00  0.0000E+00  0.0000E+00  0.0000E+00
    -29.201  0.0000E+00  0.0000E+00  0.0000E+00  0.0000E+00  0.0000E+00  0.0000E+00  0.0000E+00  0.0000E+00  0.0000E+00
    -28.928  0.0000E+00  0.0000E+00  0.0000E+00  0.0000E+00  0.0000E+00  0.0000E+00  0.0000E+00  0.0000E+00  0.0000E+00
    -28.655  0.0000E+00  0.0000E+00  0.0000E+00  0.0000E+00  0.0000E+00  0.0000E+00  0.0000E+00  0.0000E+00  0.0000E+00
    -28.382  0.0000E+00  0.0000E+00  0.0000E+00  0.0000E+00  0.0000E+00  0.0000E+00  0.0000E+00  0.0000E+00  0.0000E+00
    -28.109  0.0000E+00  0.0000E+00  0.0000E+00  0.0000E+00  0.0000E+00  0.0000E+00  0.0000E+00  0.0000E+00  0.0000E+00
    -27.836  0.0000E+00  0.0000E+00  0.0000E+00  0.0000E+00  0.0000E+00  0.0000E+00  0.0000E+00  0.0000E+00  0.0000E+00
    -27.563  0.0000E+00  0.0000E+00  0.0000E+00  0.0000E+00  0.0000E+00  0.0000E+00  0.0000E+00  0.0000E+00  0.0000E+00
    -27.289  0.0000E+00  0.0000E+00  0.0000E+00  0.0000E+00  0.0000E+00  0.0000E+00  0.0000E+00  0.0000E+00  0.0000E+00
    -27.016  0.0000E+00  0.0000E+00  0.0000E+00  0.0000E+00  0.0000E+00  0.0000E+00  0.0000E+00  0.0000E+00  0.0000E+00
    -26.743  0.0000E+00  0.0000E+00  0.0000E+00  0.0000E+00  0.0000E+00  0.0000E+00  0.0000E+00  0.0000E+00  0.0000E+00
    -26.470  0.0000E+00  0.0000E+00  0.0000E+00  0.0000E+00  0.0000E+00  0.0000E+00  0.0000E+00  0.0000E+00  0.0000E+00
    -26.197  0.0000E+00  0.0000E+00  0.0000E+00  0.0000E+00  0.0000E+00  0.0000E+00  0.0000E+00  0.0000E+00  0.0000E+00
    -25.924  0.0000E+00  0.0000E+00  0.0000E+00  0.0000E+00  0.0000E+00  0.0000E+00  0.0000E+00  0.0000E+00  0.0000E+00
    -25.650  0.0000E+00  0.0000E+00  0.0000E+00  0.0000E+00  0.0000E+00  0.0000E+00  0.0000E+00  0.0000E+00  0.0000E+00
    -25.377  0.0000E+00  0.0000E+00  0.0000E+00  0.0000E+00  0.0000E+00  0.0000E+00  0.0000E+00  0.0000E+00  0.0000E+00
    -25.104  0.0000E+00  0.0000E+00  0.0000E+00  0.0000E+00  0.0000E+00  0.0000E+00  0.0000E+00  0.0000E+00  0.0000E+00
    -24.831  0.0000E+00  0.0000E+00  0.0000E+00  0.0000E+00  0.0000E+00  0.0000E+00  0.0000E+00  0.0000E+00  0.0000E+00
    -24.558  0.0000E+00  0.0000E+00  0.0000E+00  0.0000E+00  0.0000E+00  0.0000E+00  0.0000E+00  0.0000E+00  0.0000E+00
    -24.285  0.0000E+00  0.0000E+00  0.0000E+00  0.0000E+00  0.0000E+00  0.0000E+00  0.0000E+00  0.0000E+00  0.0000E+00
    -24.012  0.0000E+00  0.0000E+00  0.0000E+00  0.0000E+00  0.0000E+00  0.0000E+00  0.0000E+00  0.0000E+00  0.0000E+00
    -23.738  0.0000E+00  0.0000E+00  0.0000E+00  0.0000E+00  0.0000E+00  0.0000E+00  0.0000E+00  0.0000E+00  0.0000E+00
    -23.465  0.0000E+00  0.0000E+00  0.0000E+00  0.0000E+00  0.0000E+00  0.0000E+00  0.0000E+00  0.0000E+00  0.0000E+00
    -23.192  0.0000E+00  0.0000E+00  0.0000E+00  0.0000E+00  0.0000E+00  0.0000E+00  0.0000E+00  0.0000E+00  0.0000E+00
    -22.919  0.0000E+00  0.0000E+00  0.0000E+00  0.0000E+00  0.0000E+00  0.0000E+00  0.0000E+00  0.0000E+00  0.0000E+00
    -22.646  0.0000E+00  0.0000E+00  0.0000E+00  0.0000E+00  0.0000E+00  0.0000E+00  0.0000E+00  0.0000E+00  0.0000E+00
    -22.373  0.0000E+00  0.0000E+00  0.0000E+00  0.0000E+00  0.0000E+00  0.0000E+00  0.0000E+00  0.0000E+00  0.0000E+00
    -22.099  0.0000E+00  0.0000E+00  0.0000E+00  0.0000E+00  0.0000E+00  0.0000E+00  0.0000E+00  0.0000E+00  0.0000E+00
    -21.826  0.0000E+00  0.0000E+00  0.0000E+00  0.0000E+00  0.0000E+00  0.0000E+00  0.0000E+00  0.0000E+00  0.0000E+00
    -21.553  0.0000E+00  0.0000E+00  0.0000E+00  0.0000E+00  0.0000E+00  0.0000E+00  0.0000E+00  0.0000E+00  0.0000E+00
    -21.280  0.0000E+00  0.0000E+00  0.0000E+00  0.0000E+00  0.0000E+00  0.0000E+00  0.0000E+00  0.0000E+00  0.0000E+00
    -21.007  0.0000E+00  0.0000E+00  0.0000E+00  0.0000E+00  0.0000E+00  0.0000E+00  0.0000E+00  0.0000E+00  0.0000E+00
    -20.734  0.0000E+00  0.0000E+00  0.0000E+00  0.0000E+00  0.0000E+00  0.0000E+00  0.0000E+00  0.0000E+00  0.0000E+00
    -20.461  0.0000E+00  0.0000E+00  0.0000E+00  0.0000E+00  0.0000E+00  0.0000E+00  0.0000E+00  0.0000E+00  0.0000E+00
    -20.187  0.0000E+00  0.0000E+00  0.0000E+00  0.0000E+00  0.0000E+00  0.0000E+00  0.0000E+00  0.0000E+00  0.0000E+00
    -19.914  0.0000E+00  0.0000E+00  0.0000E+00  0.0000E+00  0.0000E+00  0.0000E+00  0.0000E+00  0.0000E+00  0.0000E+00
    -19.641  0.0000E+00  0.0000E+00  0.0000E+00  0.0000E+00  0.0000E+00  0.0000E+00  0.0000E+00  0.0000E+00  0.0000E+00
    -19.368  0.0000E+00  0.0000E+00  0.0000E+00  0.0000E+00  0.0000E+00  0.0000E+00  0.0000E+00  0.0000E+00  0.0000E+00
    -19.095  0.0000E+00  0.0000E+00  0.0000E+00  0.0000E+00  0.0000E+00  0.0000E+00  0.0000E+00  0.0000E+00  0.0000E+00
    -18.822  0.0000E+00  0.0000E+00  0.0000E+00  0.0000E+00  0.0000E+00  0.0000E+00  0.0000E+00  0.0000E+00  0.0000E+00
    -18.548  0.0000E+00  0.0000E+00  0.0000E+00  0.0000E+00  0.0000E+00  0.0000E+00  0.0000E+00  0.0000E+00  0.0000E+00
    -18.275  0.0000E+00  0.0000E+00  0.0000E+00  0.0000E+00  0.0000E+00  0.0000E+00  0.0000E+00  0.0000E+00  0.0000E+00
    -18.002  0.0000E+00  0.0000E+00  0.0000E+00  0.0000E+00  0.0000E+00  0.0000E+00  0.0000E+00  0.0000E+00  0.0000E+00
    -17.729  0.0000E+00  0.0000E+00  0.0000E+00  0.0000E+00  0.0000E+00  0.0000E+00  0.0000E+00  0.0000E+00  0.0000E+00
    -17.456  0.0000E+00  0.0000E+00  0.0000E+00  0.0000E+00  0.0000E+00  0.0000E+00  0.0000E+00  0.0000E+00  0.0000E+00
    -17.183  0.0000E+00  0.0000E+00  0.0000E+00  0.0000E+00  0.0000E+00  0.0000E+00  0.0000E+00  0.0000E+00  0.0000E+00
    -16.910  0.0000E+00  0.0000E+00  0.0000E+00  0.0000E+00  0.0000E+00  0.0000E+00  0.0000E+00  0.0000E+00  0.0000E+00
    -16.636  0.0000E+00  0.0000E+00  0.0000E+00  0.0000E+00  0.0000E+00  0.0000E+00  0.0000E+00  0.0000E+00  0.0000E+00
    -16.363  0.0000E+00  0.0000E+00  0.0000E+00  0.0000E+00  0.0000E+00  0.0000E+00  0.0000E+00  0.0000E+00  0.0000E+00
    -16.090  0.0000E+00  0.0000E+00  0.0000E+00  0.0000E+00  0.0000E+00  0.0000E+00  0.0000E+00  0.0000E+00  0.0000E+00
    -15.817  0.0000E+00  0.0000E+00  0.0000E+00  0.0000E+00  0.0000E+00  0.0000E+00  0.0000E+00  0.0000E+00  0.0000E+00
    -15.544  0.0000E+00  0.0000E+00  0.0000E+00  0.0000E+00  0.0000E+00  0.0000E+00  0.0000E+00  0.0000E+00  0.0000E+00
    -15.271  0.0000E+00  0.0000E+00  0.0000E+00  0.0000E+00  0.0000E+00  0.0000E+00  0.0000E+00  0.0000E+00  0.0000E+00
    -14.997  0.0000E+00  0.0000E+00  0.0000E+00  0.0000E+00  0.0000E+00  0.0000E+00  0.0000E+00  0.0000E+00  0.0000E+00
    -14.724  0.0000E+00  0.0000E+00  0.0000E+00  0.0000E+00  0.0000E+00  0.0000E+00  0.0000E+00  0.0000E+00  0.0000E+00
    -14.451  0.0000E+00  0.0000E+00  0.0000E+00  0.0000E+00  0.0000E+00  0.0000E+00  0.0000E+00  0.0000E+00  0.0000E+00
    -14.178  0.0000E+00  0.0000E+00  0.0000E+00  0.0000E+00  0.0000E+00  0.0000E+00  0.0000E+00  0.0000E+00  0.0000E+00
    -13.905  0.0000E+00  0.0000E+00  0.0000E+00  0.0000E+00  0.0000E+00  0.0000E+00  0.0000E+00  0.0000E+00  0.0000E+00
    -13.632  0.0000E+00  0.0000E+00  0.0000E+00  0.0000E+00  0.0000E+00  0.0000E+00  0.0000E+00  0.0000E+00  0.0000E+00
    -13.359  0.0000E+00  0.0000E+00  0.0000E+00  0.0000E+00  0.0000E+00  0.0000E+00  0.0000E+00  0.0000E+00  0.0000E+00
    -13.085  0.0000E+00  0.0000E+00  0.0000E+00  0.0000E+00  0.0000E+00  0.0000E+00  0.0000E+00  0.0000E+00  0.0000E+00
    -12.812  0.0000E+00  0.0000E+00  0.0000E+00  0.0000E+00  0.0000E+00  0.0000E+00  0.0000E+00  0.0000E+00  0.0000E+00
    -12.539  0.0000E+00  0.0000E+00  0.0000E+00  0.0000E+00  0.0000E+00  0.0000E+00  0.0000E+00  0.0000E+00  0.0000E+00
    -12.266  0.0000E+00  0.0000E+00  0.0000E+00  0.0000E+00  0.0000E+00  0.0000E+00  0.0000E+00  0.0000E+00  0.0000E+00
    -11.993  0.0000E+00  0.0000E+00  0.0000E+00  0.0000E+00  0.0000E+00  0.0000E+00  0.0000E+00  0.0000E+00  0.0000E+00
    -11.720  0.0000E+00  0.0000E+00  0.0000E+00  0.0000E+00  0.0000E+00  0.0000E+00  0.0000E+00  0.0000E+00  0.0000E+00
    -11.446  0.0000E+00  0.0000E+00  0.0000E+00  0.0000E+00  0.0000E+00  0.0000E+00  0.0000E+00  0.0000E+00  0.0000E+00
    -11.173  0.0000E+00  0.0000E+00  0.0000E+00  0.0000E+00  0.0000E+00  0.0000E+00  0.0000E+00  0.0000E+00  0.0000E+00
    -10.900  0.0000E+00  0.0000E+00  0.0000E+00  0.0000E+00  0.0000E+00  0.0000E+00  0.0000E+00  0.0000E+00  0.0000E+00
    -10.627  0.0000E+00  0.0000E+00  0.0000E+00  0.0000E+00  0.0000E+00  0.0000E+00  0.0000E+00  0.0000E+00  0.0000E+00
    -10.354  0.0000E+00  0.0000E+00  0.0000E+00  0.0000E+00  0.0000E+00  0.0000E+00  0.0000E+00  0.0000E+00  0.0000E+00
    -10.081  0.0000E+00  0.0000E+00  0.0000E+00  0.0000E+00  0.0000E+00  0.0000E+00  0.0000E+00  0.0000E+00  0.0000E+00
     -9.808  0.0000E+00  0.0000E+00  0.0000E+00  0.0000E+00  0.0000E+00  0.0000E+00  0.0000E+00  0.0000E+00  0.0000E+00
     -9.534  0.0000E+00  0.0000E+00  0.0000E+00  0.0000E+00  0.0000E+00  0.0000E+00  0.0000E+00  0.0000E+00  0.0000E+00
     -9.261  0.0000E+00  0.0000E+00  0.0000E+00  0.0000E+00  0.0000E+00  0.0000E+00  0.0000E+00  0.0000E+00  0.0000E+00
     -8.988  0.0000E+00  0.0000E+00  0.0000E+00  0.0000E+00  0.0000E+00  0.0000E+00  0.0000E+00  0.0000E+00  0.0000E+00
     -8.715  0.0000E+00  0.0000E+00  0.0000E+00  0.0000E+00  0.0000E+00  0.0000E+00  0.0000E+00  0.0000E+00  0.0000E+00
     -8.442  0.0000E+00  0.0000E+00  0.0000E+00  0.0000E+00  0.0000E+00  0.0000E+00  0.0000E+00  0.0000E+00  0.0000E+00
     -8.169  0.0000E+00  0.0000E+00  0.0000E+00  0.0000E+00  0.0000E+00  0.0000E+00  0.0000E+00  0.0000E+00  0.0000E+00
     -7.895  0.0000E+00  0.0000E+00  0.0000E+00  0.0000E+00  0.0000E+00  0.0000E+00  0.0000E+00  0.0000E+00  0.0000E+00
     -7.622  0.0000E+00  0.0000E+00  0.0000E+00  0.0000E+00  0.0000E+00  0.0000E+00  0.0000E+00  0.0000E+00  0.0000E+00
     -7.349  0.0000E+00  0.0000E+00  0.0000E+00  0.0000E+00  0.0000E+00  0.0000E+00  0.0000E+00  0.0000E+00  0.0000E+00
     -7.076  0.0000E+00  0.0000E+00  0.0000E+00  0.0000E+00  0.0000E+00  0.0000E+00  0.0000E+00  0.0000E+00  0.0000E+00
     -6.803  0.0000E+00  0.0000E+00  0.0000E+00  0.0000E+00  0.0000E+00  0.0000E+00  0.0000E+00  0.0000E+00  0.0000E+00
     -6.530  0.0000E+00  0.0000E+00  0.0000E+00  0.0000E+00  0.0000E+00  0.0000E+00  0.0000E+00  0.0000E+00  0.0000E+00
     -6.257  0.0000E+00  0.0000E+00  0.0000E+00  0.0000E+00  0.0000E+00  0.0000E+00  0.0000E+00  0.0000E+00  0.0000E+00
     -5.983  0.0000E+00  0.0000E+00  0.0000E+00  0.0000E+00  0.0000E+00  0.0000E+00  0.0000E+00  0.0000E+00  0.0000E+00
     -5.710  0.0000E+00  0.0000E+00  0.0000E+00  0.0000E+00  0.0000E+00  0.0000E+00  0.0000E+00  0.0000E+00  0.0000E+00
     -5.437  0.0000E+00  0.0000E+00  0.0000E+00  0.0000E+00  0.0000E+00  0.0000E+00  0.0000E+00  0.0000E+00  0.0000E+00
     -5.164  0.0000E+00  0.0000E+00  0.0000E+00  0.0000E+00  0.0000E+00  0.0000E+00  0.0000E+00  0.0000E+00  0.0000E+00
     -4.891  0.0000E+00  0.0000E+00  0.0000E+00  0.0000E+00  0.0000E+00  0.0000E+00  0.0000E+00  0.0000E+00  0.0000E+00
     -4.618  0.0000E+00  0.0000E+00  0.0000E+00  0.0000E+00  0.0000E+00  0.0000E+00  0.0000E+00  0.0000E+00  0.0000E+00
     -4.344  0.0000E+00  0.0000E+00  0.0000E+00  0.0000E+00  0.0000E+00  0.0000E+00  0.0000E+00  0.0000E+00  0.0000E+00
     -4.071  0.0000E+00  0.0000E+00  0.0000E+00  0.0000E+00  0.0000E+00  0.0000E+00  0.0000E+00  0.0000E+00  0.0000E+00
     -3.798  0.0000E+00  0.0000E+00  0.0000E+00  0.0000E+00  0.0000E+00  0.0000E+00  0.0000E+00  0.0000E+00  0.0000E+00
     -3.525  0.0000E+00  0.0000E+00  0.0000E+00  0.0000E+00  0.0000E+00  0.0000E+00  0.0000E+00  0.0000E+00  0.0000E+00
     -3.252  0.0000E+00  0.0000E+00  0.0000E+00  0.0000E+00  0.0000E+00  0.0000E+00  0.0000E+00  0.0000E+00  0.0000E+00
     -2.979  0.0000E+00  0.0000E+00  0.0000E+00  0.0000E+00  0.0000E+00  0.0000E+00  0.0000E+00  0.0000E+00  0.0000E+00
     -2.706  0.0000E+00  0.0000E+00  0.0000E+00  0.0000E+00  0.0000E+00  0.0000E+00  0.0000E+00  0.0000E+00  0.0000E+00
     -2.432  0.0000E+00  0.0000E+00  0.0000E+00  0.0000E+00  0.0000E+00  0.0000E+00  0.0000E+00  0.0000E+00  0.0000E+00
     -2.159  0.0000E+00  0.0000E+00  0.0000E+00  0.0000E+00  0.0000E+00  0.0000E+00  0.0000E+00  0.0000E+00  0.0000E+00