    2    2  100    1
  0.1384800E+02  0.2642853E-09  0.2642853E-09  0.4578682E-09  0.5000000E-15
  1.000000000000000E-004
  CAR 
 Pt-hcc                                  
     32     70     24
 
  0.0000000E+00  0.0000000E+00  0.0000000E+00  0.1250000E-02
      1        -39.440963   1.000000
      2        -39.058796   1.000000
      3        -39.058795   1.000000
      4        -38.994039   1.000000
      5        -38.994037   1.000000
      6        -38.894039   1.000000
      7          2.590038   1.000000
      8          5.341842   1.000000
      9          8.944204   1.000000
     10          9.564785   1.000000
     11          9.564785   1.000000
     12         10.028685   1.000000
     13         10.028686   1.000000
     14         11.549921   1.000000
     15         11.549921   1.000000
     16         12.496242   1.000000
     17         13.528800   1.000000
     18         13.528801   1.000000
     19         19.424467   0.000000
     20         28.582912   0.000000
     21         29.388677   0.000000
     22         31.007382   0.000000
     23         36.245979   0.000000
     24         36.245992   0.000000
 
  0.1000000E+00  0.0000000E+00  0.0000000E+00  0.7500000E-02
      1        -39.421813   1.000000
      2        -39.118076   1.000000
      3        -39.076132   1.000000
      4        -39.054562   1.000000
      5        -39.005540   1.000000
      6        -38.898608   1.000000
      7          3.001660   1.000000
      8          5.719458   1.000000
      9          8.859246   1.000000
     10          9.571423   1.000000
     11          9.838343   1.000000
     12          9.898883   1.000000
     13         10.347725   1.000000
     14         10.758511   1.000000
     15         11.332052   1.000000
     16         11.460839   1.000000
     17         13.614752   1.000000
     18         15.385966   0.000000
     19         19.366746   0.000000
     20         29.250790   0.000000
     21         29.993245   0.000000
     22         31.651652   0.000000
     23         34.076326   0.000000
     24         34.341644   0.000000
 
  0.2000000E+00  0.0000000E+00  0.0000000E+00  0.7500000E-02
      1        -39.367270   1.000000
      2        -39.272662   1.000000
      3        -39.210031   1.000000
      4        -39.119563   1.000000
      5        -39.036721   1.000000
      6        -38.913128   1.000000
      7          4.105778   1.000000
      8          6.524238   1.000000
      9          8.582623   1.000000
     10          9.120009   1.000000
     11          9.229984   1.000000
     12         10.335360   1.000000
     13         10.850000   1.000000
     14         10.852359   1.000000
     15         10.855316   1.000000
     16         11.248017   1.000000
     17         13.752108   0.904189
     18         17.838403   0.000000
     19         19.223565   0.000000
     20         28.849015   0.000000
     21         30.631721   0.000000
     22         32.048649   0.000000
     23         32.354757   0.000000
     24         32.440741   0.000000
 
  0.3000000E+00  0.0000000E+00  0.0000000E+00  0.7500000E-02
      1        -39.461328   1.000000
      2        -39.395862   1.000000
      3        -39.291476   1.000000
      4        -39.171978   1.000000
      5        -39.076363   1.000000
      6        -38.939733   1.000000
      7          5.388394   1.000000
      8          6.589715   1.000000
      9          7.847394   1.000000
     10          8.916350   1.000000
     11          9.367316   1.000000
     12         10.230852   1.000000
     13         10.369920   1.000000
     14         11.746884   1.000000
     15         12.232698   1.000000
     16         12.538154   1.000000
     17         13.826303   0.213958
     18         19.226389   0.000000
     19         20.283250   0.000000
     20         25.163993   0.000000
     21         29.080342   0.000000
     22         29.414182   0.000000
     23         32.338903   0.000000
     24         32.694908   0.000000
 
  0.4000000E+00 -0.2775558E-16  0.0000000E+00  0.7500000E-02
      1        -39.612752   1.000000
      2        -39.541795   1.000000
      3        -39.215096   1.000000
      4        -39.213860   1.000000
      5        -39.108717   1.000000
      6        -38.976585   1.000000
      7          5.972664   1.000000
      8          6.225466   1.000000
      9          7.052069   1.000000
     10          9.552085   1.000000
     11          9.781793   1.000000
     12         10.027826   1.000000
     13         10.318210   1.000000
     14         13.599182   1.000000
     15         13.830341   0.182213
     16         13.843128   0.102286
     17         13.999539   0.000000
     18         19.875504   0.000000
     19         21.382608   0.000000
     20         22.363797   0.000000
     21         27.217495   0.000000
     22         27.635475   0.000000
     23         27.840244   0.000000
     24         31.539680   0.000000
 
  0.5000000E+00  0.0000000E+00  0.0000000E+00  0.3750000E-02
      1        -39.669589   1.000000
      2        -39.597120   1.000000
      3        -39.229577   1.000000
      4        -39.177018   1.000000
      5        -39.120823   1.000000
      6        -38.999394   1.000000
      7          5.943414   1.000000
      8          6.156781   1.000000
      9          6.781441   1.000000
     10          9.620842   1.000000
     11          9.905969   1.000000
     12         10.186012   1.000000
     13         10.521923   1.000000
     14         13.842578   0.105088
     15         14.189282   0.000000
     16         14.447022   0.000000
     17         16.354218   0.000000
     18         18.033128   0.000000
     19         21.793421   0.000000
     20         23.309191   0.000000
     21         24.560771   0.000000
     22         26.286185   0.000000
     23         27.336970   0.000000
     24         30.919200   0.000000
 
  0.1000000E+00  0.1000000E+00  0.0000000E+00  0.7500000E-02
      1        -39.384667   1.000000
      2        -39.213995   1.000000
      3        -39.174287   1.000000
      4        -39.096414   1.000000
      5        -39.036033   1.000000
      6        -38.908075   1.000000
      7          3.771019   1.000000
      8          6.373685   1.000000
      9          8.523942   1.000000
     10          9.473661   1.000000
     11          9.604229   1.000000
     12          9.837880   1.000000
     13         10.591103   1.000000
     14         10.609345   1.000000
     15         11.065125   1.000000
     16         11.394367   1.000000
     17         13.645770   0.999992
     18         17.201113   0.000000
     19         19.268585   0.000000
     20         29.810047   0.000000
     21         31.011100   0.000000
     22         31.109022   0.000000
     23         32.195283   0.000000
     24         33.446573   0.000000
 
  0.2000000E+00  0.1000000E+00  0.0000000E+00  0.1500000E-01
      1        -39.373244   1.000000
      2        -39.332154   1.000000
      3        -39.319617   1.000000
      4        -39.158141   1.000000
      5        -39.083333   1.000000
      6        -38.929314   1.000000
      7          5.061807   1.000000
      8          7.025412   1.000000
      9          8.321752   1.000000
     10          8.344895   1.000000
     11          9.152986   1.000000
     12          9.976924   1.000000
     13         10.588374   1.000000
     14         10.943017   1.000000
     15         11.903993   1.000000
     16         12.419905   1.000000
     17         13.651537   0.999983
     18         19.223774   0.000000
     19         19.540531   0.000000
     20         27.098024   0.000000
     21         28.933937   0.000000
     22         30.200747   0.000000
     23         32.461455   0.000000
     24         33.795665   0.000000
 
  0.3000000E+00  0.1000000E+00  0.0000000E+00  0.1500000E-01
      1        -39.537457   1.000000
      2        -39.478322   1.000000
      3        -39.241265   1.000000
      4        -39.220947   1.000000
      5        -39.128547   1.000000
      6        -38.962599   1.000000
      7          6.140454   1.000000
      8          6.694971   1.000000
      9          7.404185   1.000000
     10          8.945164   1.000000
     11          9.618716   1.000000
     12          9.698155   1.000000
     13         10.339477   1.000000
     14         11.940033   1.000000
     15         13.251000   1.000000
     16         13.638460   0.999997
     17         14.164967   0.000000
     18         19.741351   0.000000
     19         21.864414   0.000000
     20         23.091606   0.000000
     21         26.605137   0.000000
     22         28.774813   0.000000
     23         30.381452   0.000000
     24         31.933811   0.000000
 
  0.4000000E+00  0.1000000E+00  0.0000000E+00  0.1500000E-01
      1        -39.638212   1.000000
      2        -39.567363   1.000000
      3        -39.258973   1.000000
      4        -39.177303   1.000000
      5        -39.155907   1.000000
      6        -38.998879   1.000000
      7          6.302009   1.000000
      8          6.477364   1.000000
      9          6.910507   1.000000
     10          9.559054   1.000000
     11          9.846073   1.000000
     12          9.881935   1.000000
     13         10.284109   1.000000
     14         13.476604   1.000000
     15         13.617602   1.000000
     16         13.961394   0.000002
     17         16.132116   0.000000
     18         19.409381   0.000000
     19         21.490434   0.000000
     20         23.590506   0.000000
     21         24.378103   0.000000
     22         26.950792   0.000000
     23         27.916500   0.000000
     24         30.830673   0.000000
 
  0.2000000E+00  0.2000000E+00  0.0000000E+00  0.7500000E-02
      1        -39.466919   1.000000
      2        -39.462634   1.000000
      3        -39.251044   1.000000
      4        -39.229375   1.000000
      5        -39.164203   1.000000
      6        -38.957906   1.000000
      7          6.383172   1.000000
      8          7.649196   1.000000
      9          7.720714   1.000000
     10          7.774868   1.000000
     11          9.378726   1.000000
     12          9.427402   1.000000
     13         10.574895   1.000000
     14         11.026590   1.000000
     15         13.227253   1.000000
     16         13.421337   1.000000
     17         14.261919   0.000000
     18         19.766464   0.000000
     19         21.780629   0.000000
     20         24.528708   0.000000
     21         25.381139   0.000000
     22         29.665144   0.000000
     23         31.910122   0.000000
     24         31.997306   0.000000
 
  0.3000000E+00  0.2000000E+00  0.0000000E+00  0.1500000E-01
      1        -39.564701   1.000000
      2        -39.516271   1.000000
      3        -39.312169   1.000000
      4        -39.232963   1.000000
      5        -39.178204   1.000000
      6        -38.997964   1.000000
      7          7.151250   1.000000
      8          7.169010   1.000000
      9          7.303492   1.000000
     10          8.702399   1.000000
     11          9.207601   1.000000
     12          9.975515   1.000000
     13         10.080857   1.000000
     14         12.004711   1.000000
     15         13.247274   1.000000
     16         13.782511   0.672155
     17         16.241193   0.000000
     18         20.778258   0.000000
     19         21.696164   0.000000
     20         23.184519   0.000000
     21         24.042758   0.000000
     22         28.820884   0.000000
     23         29.092560   0.000000
     24         30.661229   0.000000
 
  0.4000000E+00  0.2000000E+00  0.0000000E+00  0.7500000E-02
      1        -39.600247   1.000000
      2        -39.529116   1.000000
      3        -39.351956   1.000000
      4        -39.258284   1.000000
      5        -39.136831   1.000000
      6        -39.026584   1.000000
      7          6.997898   1.000000
      8          7.110585   1.000000
      9          7.264462   1.000000
     10          9.376011   1.000000
     11          9.377809   1.000000
     12          9.516895   1.000000
     13         10.400684   1.000000
     14         12.951165   1.000000
     15         13.183922   1.000000
     16         13.548255   1.000000
     17         17.887497   0.000000
     18         18.595790   0.000000
     19         21.805095   0.000000
     20         23.757638   0.000000
     21         25.288623   0.000000
     22         26.637678   0.000000
     23         28.710037   0.000000
     24         29.857962   0.000000
 
  0.3000000E+00  0.3000000E+00  0.0000000E+00  0.7500000E-02
      1        -39.542289   1.000000
      2        -39.487929   1.000000
      3        -39.413272   1.000000
      4        -39.344484   1.000000
      5        -39.114052   1.000000
      6        -39.045332   1.000000
      7          7.099711   1.000000
      8          7.749905   1.000000
      9          8.033643   1.000000
     10          8.558417   1.000000
     11          9.153667   1.000000
     12          9.484724   1.000000
     13         10.515414   1.000000
     14         12.451986   1.000000
     15         12.972213   1.000000
     16         13.343328   1.000000
     17         17.976629   0.000000
     18         19.207463   0.000000
     19         20.625880   0.000000
     20         24.811607   0.000000
     21         26.369257   0.000000
     22         27.767361   0.000000
     23         28.794441   0.000000
     24         28.931408   0.000000
 
  0.0000000E+00  0.0000000E+00  0.1250000E+00  0.2500000E-02
      1        -39.420782   1.000000
      2        -39.056560   1.000000
      3        -39.056559   1.000000
      4        -38.996569   1.000000
      5        -38.996568   1.000000
      6        -38.915865   1.000000
      7          2.743393   1.000000
      8          5.333790   1.000000
      9          8.901039   1.000000
     10          9.540536   1.000000
     11          9.540537   1.000000
     12          9.979453   1.000000
     13          9.979454   1.000000
     14         11.673263   1.000000
     15         11.673264   1.000000
     16         11.872259   1.000000
     17         13.497822   1.000000
     18         13.497822   1.000000
     19         20.294337   0.000000
     20         28.122639   0.000000
     21         30.025041   0.000000
     22         30.677842   0.000000
     23         35.166983   0.000000
     24         35.166983   0.000000
 
  0.1000000E+00  0.0000000E+00  0.1250000E+00  0.1500000E-01
      1        -39.402881   1.000000
      2        -39.114683   1.000000
      3        -39.073399   1.000000
      4        -39.059177   1.000000
      5        -39.008371   1.000000
      6        -38.917312   1.000000
      7          3.151455   1.000000
      8          5.718460   1.000000
      9          8.862326   1.000000
     10          9.460954   1.000000
     11          9.702515   1.000000
     12          9.863366   1.000000
     13         10.292593   1.000000
     14         10.697009   1.000000
     15         11.478161   1.000000
     16         11.497319   1.000000
     17         13.569334   1.000000
     18         14.874267   0.000000
     19         20.348945   0.000000
     20         28.803777   0.000000
     21         30.590303   0.000000
     22         31.291600   0.000000
     23         33.389751   0.000000
     24         34.395525   0.000000
 
  0.2000000E+00  0.0000000E+00  0.1250000E+00  0.1500000E-01
      1        -39.361274   1.000000
      2        -39.260098   1.000000
      3        -39.215100   1.000000
      4        -39.116636   1.000000
      5        -39.040159   1.000000
      6        -38.927413   1.000000
      7          4.234447   1.000000
      8          6.547768   1.000000
      9          8.619620   1.000000
     10          8.841531   1.000000
     11          9.213454   1.000000
     12         10.183548   1.000000
     13         10.641197   1.000000
     14         11.075910   1.000000
     15         11.131855   1.000000
     16         11.296400   1.000000
     17         13.676408   0.999716
     18         16.675807   0.000000
     19         20.649153   0.000000
     20         28.917952   0.000000
     21         30.498074   0.000000
     22         31.806616   0.000000
     23         32.200273   0.000000
     24         33.014719   0.000000
 
  0.3000000E+00  0.0000000E+00  0.1250000E+00  0.1500000E-01
      1        -39.467588   1.000000
      2        -39.403348   1.000000
      3        -39.268082   1.000000
      4        -39.168323   1.000000
      5        -39.079943   1.000000
      6        -38.949409   1.000000
      7          5.431969   1.000000
      8          6.629885   1.000000
      9          7.844640   1.000000
     10          8.696495   1.000000
     11          9.397051   1.000000
     12         10.380382   1.000000
     13         10.446243   1.000000
     14         11.809622   1.000000
     15         12.259517   1.000000
     16         12.475832   1.000000
     17         13.736922   0.958658
     18         17.950367   0.000000
     19         21.521752   0.000000
     20         25.482075   0.000000
     21         29.129087   0.000000
     22         29.693762   0.000000
     23         31.531196   0.000000
     24         33.279800   0.000000
 
  0.4000000E+00 -0.2775558E-16  0.1250000E+00  0.1500000E-01
      1        -39.615416   1.000000
      2        -39.548895   1.000000
      3        -39.209688   1.000000
      4        -39.199681   1.000000
      5        -39.112616   1.000000
      6        -38.981083   1.000000
      7          5.887376   1.000000
      8          6.212280   1.000000
      9          7.269566   1.000000
     10          8.758537   1.000000
     11         10.083813   1.000000
     12         10.132007   1.000000
     13         10.955315   1.000000
     14         13.501488   1.000000
     15         13.617882   1.000000
     16         13.895253   0.003044
     17         13.964414   0.000001
     18         18.923767   0.000000
     19         21.401043   0.000000
     20         23.268068   0.000000
     21         27.236951   0.000000
     22         27.549427   0.000000
     23         28.332120   0.000000
     24         31.700105   0.000000
 
  0.5000000E+00  0.0000000E+00  0.1250000E+00  0.7500000E-02
      1        -39.671923   1.000000
      2        -39.604187   1.000000
      3        -39.225484   1.000000
      4        -39.164477   1.000000
      5        -39.124875   1.000000
      6        -39.001180   1.000000
      7          5.930653   1.000000
      8          5.982428   1.000000
      9          7.085664   1.000000
     10          8.825990   1.000000
     11         10.016360   1.000000
     12         10.266137   1.000000
     13         11.469112   1.000000
     14         13.610311   1.000000
     15         14.214620   0.000000
     16         14.438907   0.000000
     17         16.040748   0.000000
     18         17.878251   0.000000
     19         21.699417   0.000000
     20         22.585181   0.000000
     21         25.540803   0.000000
     22         26.637725   0.000000
     23         27.507525   0.000000
     24         31.170626   0.000000
 
  0.1000000E+00  0.1000000E+00  0.1250000E+00  0.1500000E-01
      1        -39.371794   1.000000
      2        -39.207238   1.000000
      3        -39.177367   1.000000
      4        -39.096098   1.000000
      5        -39.038522   1.000000
      6        -38.923278   1.000000
      7          3.909728   1.000000
      8          6.389322   1.000000
      9          8.562720   1.000000
     10          9.104862   1.000000
     11          9.550822   1.000000
     12          9.817457   1.000000
     13         10.522201   1.000000
     14         10.784455   1.000000
     15         11.156739   1.000000
     16         11.491763   1.000000
     17         13.583066   1.000000
     18         16.258962   0.000000
     19         20.533226   0.000000
     20         29.637175   0.000000
     21         31.120194   0.000000
     22         31.162436   0.000000
     23         31.748565   0.000000
     24         33.667781   0.000000
 
  0.2000000E+00  0.1000000E+00  0.1250000E+00  0.3000000E-01
      1        -39.387809   1.000000
      2        -39.339411   1.000000
      3        -39.285454   1.000000
      4        -39.156134   1.000000
      5        -39.086404   1.000000
      6        -38.939729   1.000000
      7          5.156425   1.000000
      8          7.073891   1.000000
      9          8.147030   1.000000
     10          8.404266   1.000000
     11          9.096618   1.000000
     12          9.881033   1.000000
     13         10.751535   1.000000
     14         10.934986   1.000000
     15         12.040960   1.000000
     16         12.352787   1.000000
     17         13.587730   1.000000
     18         17.662346   0.000000
     19         21.228091   0.000000
     20         27.293892   0.000000
     21         29.064055   0.000000
     22         30.277280   0.000000
     23         32.068615   0.000000
     24         34.263949   0.000000
 
  0.3000000E+00  0.1000000E+00  0.1250000E+00  0.3000000E-01
      1        -39.541340   1.000000
      2        -39.485391   1.000000
      3        -39.230394   1.000000
      4        -39.212019   1.000000
      5        -39.132391   1.000000
      6        -38.968333   1.000000
      7          6.090176   1.000000
      8          6.738349   1.000000
      9          7.513959   1.000000
     10          8.579967   1.000000
     11          9.634056   1.000000
     12         10.076192   1.000000
     13         10.361533   1.000000
     14         11.956937   1.000000
     15         13.311079   1.000000
     16         13.387557   1.000000
     17         14.249139   0.000000
     18         18.832309   0.000000
     19         22.144070   0.000000
     20         23.913888   0.000000
     21         26.786647   0.000000
     22         28.767651   0.000000
     23         30.182504   0.000000
     24         32.197855   0.000000
 
  0.4000000E+00  0.1000000E+00  0.1250000E+00  0.3000000E-01
      1        -39.640460   1.000000
      2        -39.574459   1.000000
      3        -39.257449   1.000000
      4        -39.165240   1.000000
      5        -39.158510   1.000000
      6        -38.999939   1.000000
      7          6.197984   1.000000
      8          6.370385   1.000000
      9          7.266748   1.000000
     10          8.759163   1.000000
     11          9.697545   1.000000
     12         10.414137   1.000000
     13         10.867517   1.000000
     14         13.340331   1.000000
     15         13.483632   1.000000
     16         14.016970   0.000000
     17         16.064849   0.000000
     18         19.116748   0.000000
     19         21.228519   0.000000
     20         23.569215   0.000000
     21         24.833321   0.000000
     22         27.204562   0.000000
     23         28.155122   0.000000
     24         30.967904   0.000000
 
  0.2000000E+00  0.2000000E+00  0.1250000E+00  0.1500000E-01
      1        -39.470935   1.000000
      2        -39.469241   1.000000
      3        -39.233172   1.000000
      4        -39.229436   1.000000
      5        -39.165115   1.000000
      6        -38.963607   1.000000
      7          6.404645   1.000000
      8          7.469592   1.000000
      9          7.793207   1.000000
     10          7.918766   1.000000
     11          9.377336   1.000000
     12          9.433012   1.000000
     13         10.429409   1.000000
     14         11.205285   1.000000
     15         13.143837   1.000000
     16         13.369531   1.000000
     17         14.358651   0.000000
     18         18.883442   0.000000
     19         22.391409   0.000000
     20         25.068965   0.000000
     21         25.578041   0.000000
     22         29.652004   0.000000
     23         31.041880   0.000000
     24         32.750419   0.000000
 
  0.3000000E+00  0.2000000E+00  0.1250000E+00  0.3000000E-01
      1        -39.566422   1.000000
      2        -39.522658   1.000000
      3        -39.313394   1.000000
      4        -39.239773   1.000000
      5        -39.161149   1.000000
      6        -38.998402   1.000000
      7          6.881283   1.000000
      8          7.306009   1.000000
      9          7.525250   1.000000
     10          8.423072   1.000000
     11          9.404725   1.000000
     12          9.862792   1.000000
     13         10.238640   1.000000
     14         12.076974   1.000000
     15         12.983803   1.000000
     16         13.918371   0.000341
     17         16.294274   0.000000
     18         20.824156   0.000000
     19         20.960250   0.000000
     20         23.307859   0.000000
     21         24.887036   0.000000
     22         28.308786   0.000000
     23         29.178209   0.000000
     24         30.912641   0.000000
 
  0.4000000E+00  0.2000000E+00  0.1250000E+00  0.1500000E-01
      1        -39.601880   1.000000
      2        -39.536357   1.000000
      3        -39.352998   1.000000
      4        -39.264828   1.000000
      5        -39.124298   1.000000
      6        -39.024070   1.000000
      7          6.766514   1.000000
      8          7.165944   1.000000
      9          7.630485   1.000000
     10          8.684517   1.000000
     11          9.216098   1.000000
     12         10.097664   1.000000
     13         10.596352   1.000000
     14         12.909949   1.000000
     15         12.982764   1.000000
     16         13.646022   0.999992
     17         17.962708   0.000000
     18         18.624982   0.000000
     19         22.004707   0.000000
     20         23.454565   0.000000
     21         24.444885   0.000000
     22         27.673749   0.000000
     23         28.846145   0.000000
     24         29.472786   0.000000
 
  0.3000000E+00  0.3000000E+00  0.1250000E+00  0.1500000E-01
      1        -39.540852   1.000000
      2        -39.495278   1.000000
      3        -39.417178   1.000000
      4        -39.350265   1.000000
      5        -39.102638   1.000000
      6        -39.040174   1.000000
      7          7.151456   1.000000
      8          7.716873   1.000000
      9          8.057861   1.000000
     10          8.396989   1.000000
     11          9.332414   1.000000
     12          9.372840   1.000000
     13         10.524010   1.000000
     14         12.564981   1.000000
     15         12.697829   1.000000
     16         13.465267   1.000000
     17         18.086748   0.000000
     18         19.362124   0.000000
     19         20.941219   0.000000
     20         23.885848   0.000000
     21         26.678554   0.000000
     22         26.693339   0.000000
     23         28.696965   0.000000
     24         29.965803   0.000000
 
  0.0000000E+00  0.0000000E+00  0.2500000E+00  0.2500000E-02
      1        -39.362975   1.000000
      2        -39.049391   1.000000
      3        -39.049390   1.000000
      4        -39.004106   1.000000
      5        -39.004104   1.000000
      6        -38.977469   1.000000
      7          3.181388   1.000000
      8          5.269213   1.000000
      9          8.803287   1.000000
     10          9.502630   1.000000
     11          9.502631   1.000000
     12          9.853420   1.000000
     13          9.853420   1.000000
     14         10.635737   1.000000
     15         11.992969   1.000000
     16         11.992970   1.000000
     17         13.387585   1.000000
     18         13.387586   1.000000
     19         22.278514   0.000000
     20         27.671959   0.000000
     21         29.977054   0.000000
     22         30.676226   0.000000
     23         34.450981   0.000000
     24         34.450981   0.000000
 
  0.1000000E+00  0.0000000E+00  0.2500000E+00  0.1500000E-01
      1        -39.350727   1.000000
      2        -39.105018   1.000000
      3        -39.074298   1.000000
      4        -39.065968   1.000000
      5        -39.016124   1.000000
      6        -38.967210   1.000000
      7          3.580800   1.000000
      8          5.670701   1.000000
      9          8.839371   1.000000
     10          9.271705   1.000000
     11          9.360326   1.000000
     12          9.808052   1.000000
     13         10.159091   1.000000
     14         10.261332   1.000000
     15         11.838272   1.000000
     16         11.839640   1.000000
     17         13.419181   1.000000
     18         14.114902   0.000000
     19         22.402094   0.000000
     20         28.339537   0.000000
     21         30.571491   0.000000
     22         31.192312   0.000000
     23         33.094466   0.000000
     24         34.118529   0.000000
 
  0.2000000E+00  0.0000000E+00  0.2500000E+00  0.1500000E-01
      1        -39.343479   1.000000
      2        -39.238825   1.000000
      3        -39.215520   1.000000
      4        -39.107862   1.000000
      5        -39.049538   1.000000
      6        -38.967171   1.000000
      7          4.605748   1.000000
      8          6.562349   1.000000
      9          8.387656   1.000000
     10          8.758053   1.000000
     11          8.932817   1.000000
     12          9.948920   1.000000
     13         10.541088   1.000000
     14         10.993305   1.000000
     15         11.665281   1.000000
     16         11.682821   1.000000
     17         13.452879   1.000000
     18         15.310323   0.000000
     19         22.756522   0.000000
     20         29.100467   0.000000
     21         30.260108   0.000000
     22         31.218083   0.000000
     23         32.672134   0.000000
     24         33.374682   0.000000
 
  0.3000000E+00  0.0000000E+00  0.2500000E+00  0.1500000E-01
      1        -39.476760   1.000000
      2        -39.421978   1.000000
      3        -39.213778   1.000000
      4        -39.158535   1.000000
      5        -39.090900   1.000000
      6        -38.977245   1.000000
      7          5.574585   1.000000