PROCAR lm decomposed
# of k-points:   70         # of bands:   24         # of ions:    2

 k-point     1 :    0.00000000 0.00000000 0.00000000     weight = 0.00125000

band     1 # energy  -39.44096312 # occ.  2.00000000
 
ion      s     py     pz     px    dxy    dyz    dz2    dxz  x2-y2    tot
    1  0.000  0.000  0.490  0.000  0.000  0.000  0.000  0.000  0.000  0.490
    2  0.000  0.000  0.490  0.000  0.000  0.000  0.000  0.000  0.000  0.490
tot    0.000  0.000  0.979  0.000  0.000  0.000  0.000  0.000  0.000  0.979
 
band     2 # energy  -39.05879603 # occ.  2.00000000
 
ion      s     py     pz     px    dxy    dyz    dz2    dxz  x2-y2    tot
    1  0.000  0.125  0.000  0.374  0.000  0.000  0.000  0.000  0.000  0.498
    2  0.000  0.125  0.000  0.374  0.000  0.000  0.000  0.000  0.000  0.498
tot    0.000  0.249  0.000  0.748  0.000  0.000  0.000  0.000  0.000  0.997
 
band     3 # energy  -39.05879473 # occ.  2.00000000
 
ion      s     py     pz     px    dxy    dyz    dz2    dxz  x2-y2    tot
    1  0.000  0.374  0.000  0.125  0.000  0.000  0.000  0.000  0.000  0.498
    2  0.000  0.374  0.000  0.125  0.000  0.000  0.000  0.000  0.000  0.498
tot    0.000  0.748  0.000  0.249  0.000  0.000  0.000  0.000  0.000  0.997
 
band     4 # energy  -38.99403861 # occ.  2.00000000
 
ion      s     py     pz     px    dxy    dyz    dz2    dxz  x2-y2    tot
    1  0.000  0.125  0.000  0.374  0.000  0.000  0.000  0.000  0.000  0.499
    2  0.000  0.125  0.000  0.374  0.000  0.000  0.000  0.000  0.000  0.499
tot    0.000  0.250  0.000  0.749  0.000  0.000  0.000  0.000  0.000  0.999
 
band     5 # energy  -38.99403731 # occ.  2.00000000
 
ion      s     py     pz     px    dxy    dyz    dz2    dxz  x2-y2    tot
    1  0.000  0.374  0.000  0.125  0.000  0.000  0.000  0.000  0.000  0.499
    2  0.000  0.374  0.000  0.125  0.000  0.000  0.000  0.000  0.000  0.499
tot    0.000  0.749  0.000  0.250  0.000  0.000  0.000  0.000  0.000  0.999
 
band     6 # energy  -38.89403888 # occ.  2.00000000
 
ion      s     py     pz     px    dxy    dyz    dz2    dxz  x2-y2    tot
    1  0.000  0.000  0.498  0.000  0.000  0.000  0.000  0.000  0.000  0.498
    2  0.000  0.000  0.498  0.000  0.000  0.000  0.000  0.000  0.000  0.498
tot    0.000  0.000  0.997  0.000  0.000  0.000  0.000  0.000  0.000  0.997
 
band     7 # energy    2.59003817 # occ.  2.00000000
 
ion      s     py     pz     px    dxy    dyz    dz2    dxz  x2-y2    tot
    1  0.219  0.000  0.000  0.000  0.000  0.000  0.000  0.000  0.000  0.219
    2  0.219  0.000  0.000  0.000  0.000  0.000  0.000  0.000  0.000  0.219
tot    0.437  0.000  0.000  0.000  0.000  0.000  0.001  0.000  0.000  0.438
 
band     8 # energy    5.34184201 # occ.  2.00000000
 
ion      s     py     pz     px    dxy    dyz    dz2    dxz  x2-y2    tot
    1  0.090  0.000  0.000  0.000  0.000  0.000  0.243  0.000  0.000  0.332
    2  0.090  0.000  0.000  0.000  0.000  0.000  0.243  0.000  0.000  0.332
tot    0.179  0.000  0.000  0.000  0.000  0.000  0.485  0.000  0.000  0.665
 
band     9 # energy    8.94420412 # occ.  2.00000000
 
ion      s     py     pz     px    dxy    dyz    dz2    dxz  x2-y2    tot
    1  0.000  0.000  0.000  0.000  0.000  0.000  0.421  0.000  0.000  0.421
    2  0.000  0.000  0.000  0.000  0.000  0.000  0.421  0.000  0.000  0.421
tot    0.000  0.000  0.000  0.000  0.000  0.000  0.842  0.000  0.000  0.842
 
band    10 # energy    9.56478458 # occ.  2.00000000
 
ion      s     py     pz     px    dxy    dyz    dz2    dxz  x2-y2    tot
    1  0.000  0.000  0.000  0.000  0.107  0.000  0.000  0.000  0.321  0.429
    2  0.000  0.000  0.000  0.000  0.107  0.000  0.000  0.000  0.321  0.429
tot    0.000  0.000  0.000  0.000  0.214  0.000  0.000  0.000  0.643  0.858
 
band    11 # energy    9.56478542 # occ.  2.00000000
 
ion      s     py     pz     px    dxy    dyz    dz2    dxz  x2-y2    tot
    1  0.000  0.000  0.000  0.000  0.321  0.000  0.000  0.000  0.107  0.429
    2  0.000  0.000  0.000  0.000  0.321  0.000  0.000  0.000  0.107  0.429
tot    0.000  0.000  0.000  0.000  0.643  0.000  0.000  0.000  0.214  0.858
 
band    12 # energy   10.02868469 # occ.  2.00000000
 
ion      s     py     pz     px    dxy    dyz    dz2    dxz  x2-y2    tot
    1  0.000  0.000  0.000  0.000  0.110  0.000  0.000  0.000  0.329  0.439
    2  0.000  0.000  0.000  0.000  0.110  0.000  0.000  0.000  0.329  0.439
tot    0.000  0.000  0.000  0.000  0.219  0.000  0.000  0.000  0.658  0.878
 
band    13 # energy   10.02868557 # occ.  2.00000000
 
ion      s     py     pz     px    dxy    dyz    dz2    dxz  x2-y2    tot
    1  0.000  0.000  0.000  0.000  0.329  0.000  0.000  0.000  0.110  0.439
    2  0.000  0.000  0.000  0.000  0.329  0.000  0.000  0.000  0.110  0.439
tot    0.000  0.000  0.000  0.000  0.658  0.000  0.000  0.000  0.219  0.878
 
band    14 # energy   11.54992061 # occ.  2.00000000
 
ion      s     py     pz     px    dxy    dyz    dz2    dxz  x2-y2    tot
    1  0.000  0.000  0.000  0.000  0.000  0.112  0.000  0.337  0.000  0.449
    2  0.000  0.000  0.000  0.000  0.000  0.112  0.000  0.337  0.000  0.449
tot    0.000  0.000  0.000  0.000  0.000  0.225  0.000  0.674  0.000  0.898
 
band    15 # energy   11.54992118 # occ.  2.00000000
 
ion      s     py     pz     px    dxy    dyz    dz2    dxz  x2-y2    tot
    1  0.000  0.000  0.000  0.000  0.000  0.337  0.000  0.112  0.000  0.449
    2  0.000  0.000  0.000  0.000  0.000  0.337  0.000  0.112  0.000  0.449
tot    0.000  0.000  0.000  0.000  0.000  0.674  0.000  0.225  0.000  0.898
 
band    16 # energy   12.49624230 # occ.  2.00000000
 
ion      s     py     pz     px    dxy    dyz    dz2    dxz  x2-y2    tot
    1  0.000  0.000  0.101  0.000  0.000  0.000  0.000  0.000  0.000  0.101
    2  0.000  0.000  0.101  0.000  0.000  0.000  0.000  0.000  0.000  0.101
tot    0.000  0.000  0.203  0.000  0.000  0.000  0.000  0.000  0.000  0.203
 
band    17 # energy   13.52880004 # occ.  2.00000000
 
ion      s     py     pz     px    dxy    dyz    dz2    dxz  x2-y2    tot
    1  0.000  0.000  0.000  0.000  0.000  0.117  0.000  0.351  0.000  0.468
    2  0.000  0.000  0.000  0.000  0.000  0.117  0.000  0.351  0.000  0.468
tot    0.000  0.000  0.000  0.000  0.000  0.234  0.000  0.702  0.000  0.937
 
band    18 # energy   13.52880069 # occ.  2.00000000
 
ion      s     py     pz     px    dxy    dyz    dz2    dxz  x2-y2    tot
    1  0.000  0.000  0.000  0.000  0.000  0.351  0.000  0.117  0.000  0.468
    2  0.000  0.000  0.000  0.000  0.000  0.351  0.000  0.117  0.000  0.468
tot    0.000  0.000  0.000  0.000  0.000  0.702  0.000  0.234  0.000  0.937
 
band    19 # energy   19.42446717 # occ.  0.00000000
 
ion      s     py     pz     px    dxy    dyz    dz2    dxz  x2-y2    tot
    1  0.192  0.000  0.000  0.000  0.000  0.000  0.224  0.000  0.000  0.417
    2  0.192  0.000  0.000  0.000  0.000  0.000  0.224  0.000  0.000  0.417
tot    0.385  0.000  0.000  0.000  0.000  0.000  0.449  0.000  0.000  0.834
 
band    20 # energy   28.58291239 # occ.  0.00000000
 
ion      s     py     pz     px    dxy    dyz    dz2    dxz  x2-y2    tot
    1  0.003  0.000  0.000  0.000  0.000  0.000  0.002  0.000  0.000  0.005
    2  0.003  0.000  0.000  0.000  0.000  0.000  0.002  0.000  0.000  0.005
tot    0.006  0.000  0.000  0.000  0.000  0.000  0.004  0.000  0.000  0.011
 
band    21 # energy   29.38867673 # occ.  0.00000000
 
ion      s     py     pz     px    dxy    dyz    dz2    dxz  x2-y2    tot
    1  0.000  0.000  0.018  0.000  0.000  0.000  0.000  0.000  0.000  0.018
    2  0.000  0.000  0.018  0.000  0.000  0.000  0.000  0.000  0.000  0.018
tot    0.000  0.000  0.036  0.000  0.000  0.000  0.000  0.000  0.000  0.036
 
band    22 # energy   31.00738197 # occ.  0.00000000
 
ion      s     py     pz     px    dxy    dyz    dz2    dxz  x2-y2    tot
    1  0.000  0.000  0.000  0.000  0.000  0.000  0.020  0.000  0.000  0.020
    2  0.000  0.000  0.000  0.000  0.000  0.000  0.020  0.000  0.000  0.020
tot    0.000  0.000  0.000  0.000  0.000  0.000  0.039  0.000  0.000  0.039
 
band    23 # energy   36.24597866 # occ.  0.00000000
 
ion      s     py     pz     px    dxy    dyz    dz2    dxz  x2-y2    tot
    1  0.000  0.119  0.000  0.011  0.002  0.000  0.000  0.000  0.022  0.153
    2  0.000  0.119  0.000  0.011  0.002  0.000  0.000  0.000  0.022  0.153
tot    0.000  0.237  0.000  0.022  0.004  0.000  0.000  0.000  0.043  0.307
 
band    24 # energy   36.24599180 # occ.  0.00000000
 
ion      s     py     pz     px    dxy    dyz    dz2    dxz  x2-y2    tot
    1  0.000  0.011  0.000  0.119  0.022  0.000  0.000  0.000  0.002  0.153
    2  0.000  0.011  0.000  0.119  0.022  0.000  0.000  0.000  0.002  0.153
tot    0.000  0.023  0.000  0.237  0.043  0.000  0.000  0.000  0.004  0.307
 

 k-point     2 :    0.10000000 0.00000000 0.00000000     weight = 0.00750000

band     1 # energy  -39.42181299 # occ.  2.00000000
 
ion      s     py     pz     px    dxy    dyz    dz2    dxz  x2-y2    tot
    1  0.000  0.000  0.490  0.000  0.000  0.000  0.000  0.000  0.000  0.490
    2  0.000  0.000  0.490  0.000  0.000  0.000  0.000  0.000  0.000  0.490
tot    0.000  0.000  0.980  0.000  0.000  0.000  0.000  0.000  0.000  0.980
 
band     2 # energy  -39.11807588 # occ.  2.00000000
 
ion      s     py     pz     px    dxy    dyz    dz2    dxz  x2-y2    tot
    1  0.000  0.124  0.000  0.373  0.000  0.000  0.000  0.000  0.000  0.498
    2  0.000  0.124  0.000  0.373  0.000  0.000  0.000  0.000  0.000  0.498
tot    0.000  0.249  0.000  0.746  0.000  0.000  0.000  0.000  0.000  0.995
 
band     3 # energy  -39.07613158 # occ.  2.00000000
 
ion      s     py     pz     px    dxy    dyz    dz2    dxz  x2-y2    tot
    1  0.000  0.374  0.000  0.125  0.000  0.000  0.000  0.000  0.000  0.498
    2  0.000  0.374  0.000  0.125  0.000  0.000  0.000  0.000  0.000  0.498
tot    0.000  0.747  0.000  0.249  0.000  0.000  0.000  0.000  0.000  0.997
 
band     4 # energy  -39.05456238 # occ.  2.00000000
 
ion      s     py     pz     px    dxy    dyz    dz2    dxz  x2-y2    tot
    1  0.000  0.125  0.000  0.374  0.000  0.000  0.000  0.000  0.000  0.498
    2  0.000  0.125  0.000  0.374  0.000  0.000  0.000  0.000  0.000  0.498
tot    0.000  0.249  0.000  0.748  0.000  0.000  0.000  0.000  0.000  0.997
 
band     5 # energy  -39.00554025 # occ.  2.00000000
 
ion      s     py     pz     px    dxy    dyz    dz2    dxz  x2-y2    tot
    1  0.000  0.374  0.000  0.125  0.000  0.000  0.000  0.000  0.000  0.499
    2  0.000  0.374  0.000  0.125  0.000  0.000  0.000  0.000  0.000  0.499
tot    0.000  0.749  0.000  0.250  0.000  0.000  0.000  0.000  0.000  0.998
 
band     6 # energy  -38.89860797 # occ.  2.00000000
 
ion      s     py     pz     px    dxy    dyz    dz2    dxz  x2-y2    tot
    1  0.000  0.000  0.498  0.000  0.000  0.000  0.000  0.000  0.000  0.498
    2  0.000  0.000  0.498  0.000  0.000  0.000  0.000  0.000  0.000  0.498
tot    0.000  0.000  0.997  0.000  0.000  0.000  0.000  0.000  0.000  0.997
 
band     7 # energy    3.00165951 # occ.  2.00000000
 
ion      s     py     pz     px    dxy    dyz    dz2    dxz  x2-y2    tot
    1  0.214  0.001  0.000  0.002  0.000  0.000  0.000  0.000  0.000  0.217
    2  0.214  0.001  0.000  0.002  0.000  0.000  0.000  0.000  0.000  0.217
tot    0.427  0.001  0.000  0.004  0.001  0.000  0.000  0.000  0.000  0.434
 
band     8 # energy    5.71945794 # occ.  2.00000000
 
ion      s     py     pz     px    dxy    dyz    dz2    dxz  x2-y2    tot
    1  0.082  0.001  0.000  0.002  0.002  0.000  0.246  0.000  0.001  0.333
    2  0.082  0.001  0.000  0.002  0.002  0.000  0.246  0.000  0.001  0.333
tot    0.163  0.001  0.000  0.004  0.004  0.000  0.492  0.000  0.001  0.666
 
band     9 # energy    8.85924606 # occ.  2.00000000
 
ion      s     py     pz     px    dxy    dyz    dz2    dxz  x2-y2    tot
    1  0.000  0.000  0.000  0.000  0.118  0.000  0.258  0.000  0.039  0.416
    2  0.000  0.000  0.000  0.000  0.118  0.000  0.258  0.000  0.039  0.416
tot    0.000  0.000  0.000  0.001  0.235  0.000  0.516  0.000  0.078  0.831
 
band    10 # energy    9.57142321 # occ.  2.00000000
 
ion      s     py     pz     px    dxy    dyz    dz2    dxz  x2-y2    tot
    1  0.000  0.000  0.000  0.000  0.212  0.000  0.142  0.000  0.071  0.426
    2  0.000  0.000  0.000  0.000  0.212  0.000  0.142  0.000  0.071  0.426
tot    0.000  0.000  0.000  0.001  0.425  0.000  0.284  0.000  0.142  0.852
 
band    11 # energy    9.83834301 # occ.  2.00000000
 
ion      s     py     pz     px    dxy    dyz    dz2    dxz  x2-y2    tot
    1  0.002  0.000  0.000  0.000  0.304  0.000  0.023  0.000  0.101  0.431
    2  0.002  0.000  0.000  0.000  0.304  0.000  0.023  0.000  0.101  0.431
tot    0.004  0.000  0.000  0.001  0.608  0.000  0.047  0.000  0.203  0.862
 
band    12 # energy    9.89888330 # occ.  2.00000000
 
ion      s     py     pz     px    dxy    dyz    dz2    dxz  x2-y2    tot
    1  0.000  0.000  0.000  0.000  0.107  0.000  0.000  0.000  0.322  0.430
    2  0.000  0.000  0.000  0.000  0.107  0.000  0.000  0.000  0.322  0.430
tot    0.000  0.001  0.000  0.000  0.215  0.000  0.000  0.000  0.644  0.860
 
band    13 # energy   10.34772513 # occ.  2.00000000
 
ion      s     py     pz     px    dxy    dyz    dz2    dxz  x2-y2    tot
    1  0.000  0.001  0.000  0.000  0.110  0.000  0.000  0.000  0.330  0.440
    2  0.000  0.001  0.000  0.000  0.110  0.000  0.000  0.000  0.330  0.440
tot    0.000  0.001  0.000  0.000  0.220  0.000  0.000  0.000  0.659  0.880
 
band    14 # energy   10.75851113 # occ.  2.00000000
 
ion      s     py     pz     px    dxy    dyz    dz2    dxz  x2-y2    tot
    1  0.000  0.000  0.030  0.000  0.000  0.074  0.000  0.221  0.000  0.325
    2  0.000  0.000  0.030  0.000  0.000  0.074  0.000  0.221  0.000  0.325
tot    0.000  0.000  0.060  0.000  0.000  0.148  0.000  0.443  0.000  0.650
 
band    15 # energy   11.33205241 # occ.  2.00000000
 
ion      s     py     pz     px    dxy    dyz    dz2    dxz  x2-y2    tot
    1  0.000  0.000  0.000  0.000  0.000  0.333  0.000  0.111  0.000  0.444
    2  0.000  0.000  0.000  0.000  0.000  0.333  0.000  0.111  0.000  0.444
tot    0.000  0.000  0.000  0.000  0.000  0.666  0.000  0.222  0.000  0.888
 
band    16 # energy   11.46083933 # occ.  2.00000000
 
ion      s     py     pz     px    dxy    dyz    dz2    dxz  x2-y2    tot
    1  0.000  0.000  0.022  0.000  0.000  0.086  0.000  0.259  0.000  0.368
    2  0.000  0.000  0.022  0.000  0.000  0.086  0.000  0.259  0.000  0.368
tot    0.000  0.000  0.044  0.000  0.000  0.173  0.000  0.518  0.000  0.735
 
band    17 # energy   13.61475213 # occ.  1.99999979
 
ion      s     py     pz     px    dxy    dyz    dz2    dxz  x2-y2    tot
    1  0.000  0.000  0.000  0.000  0.000  0.354  0.000  0.118  0.000  0.472
    2  0.000  0.000  0.000  0.000  0.000  0.354  0.000  0.118  0.000  0.472
tot    0.000  0.000  0.000  0.000  0.000  0.707  0.000  0.236  0.000  0.943
 
band    18 # energy   15.38596583 # occ.  0.00000000
 
ion      s     py     pz     px    dxy    dyz    dz2    dxz  x2-y2    tot
    1  0.000  0.000  0.050  0.000  0.000  0.067  0.000  0.202  0.000  0.319
    2  0.000  0.000  0.050  0.000  0.000  0.067  0.000  0.202  0.000  0.319
tot    0.000  0.000  0.101  0.000  0.000  0.134  0.000  0.403  0.000  0.638
 
band    19 # energy   19.36674607 # occ.  0.00000000
 
ion      s     py     pz     px    dxy    dyz    dz2    dxz  x2-y2    tot
    1  0.193  0.000  0.000  0.001  0.002  0.000  0.217  0.000  0.001  0.413
    2  0.193  0.000  0.000  0.001  0.002  0.000  0.217  0.000  0.001  0.413
tot    0.386  0.000  0.000  0.001  0.004  0.000  0.433  0.000  0.001  0.826
 
band    20 # energy   29.25079007 # occ.  0.00000000
 
ion      s     py     pz     px    dxy    dyz    dz2    dxz  x2-y2    tot
    1  0.004  0.000  0.000  0.001  0.016  0.000  0.002  0.000  0.005  0.030
    2  0.004  0.000  0.000  0.001  0.016  0.000  0.002  0.000  0.005  0.030
tot    0.009  0.001  0.000  0.002  0.032  0.000  0.005  0.000  0.011  0.059
 
band    21 # energy   29.99324492 # occ.  0.00000000
 
ion      s     py     pz     px    dxy    dyz    dz2    dxz  x2-y2    tot
    1  0.000  0.000  0.016  0.000  0.000  0.002  0.000  0.006  0.000  0.024
    2  0.000  0.000  0.016  0.000  0.000  0.002  0.000  0.006  0.000  0.024
tot    0.000  0.000  0.031  0.000  0.000  0.004  0.000  0.013  0.000  0.048
 
band    22 # energy   31.65165230 # occ.  0.00000000
 
ion      s     py     pz     px    dxy    dyz    dz2    dxz  x2-y2    tot
    1  0.001  0.001  0.000  0.004  0.014  0.000  0.023  0.000  0.005  0.047
    2  0.001  0.001  0.000  0.004  0.014  0.000  0.023  0.000  0.005  0.047
tot    0.001  0.003  0.000  0.008  0.028  0.000  0.047  0.000  0.009  0.095
 
band    23 # energy   34.07632648 # occ.  0.00000000
 
ion      s     py     pz     px    dxy    dyz    dz2    dxz  x2-y2    tot
    1  0.000  0.000  0.009  0.000  0.000  0.006  0.000  0.018  0.000  0.033
    2  0.000  0.000  0.009  0.000  0.000  0.006  0.000  0.018  0.000  0.033
tot    0.000  0.000  0.017  0.000  0.000  0.012  0.000  0.037  0.000  0.066
 
band    24 # energy   34.34164396 # occ.  0.00000000
 
ion      s     py     pz     px    dxy    dyz    dz2    dxz  x2-y2    tot
    1  0.007  0.028  0.000  0.084  0.018  0.000  0.005  0.000  0.006  0.147
    2  0.007  0.028  0.000  0.084  0.018  0.000  0.005  0.000  0.006  0.147
tot    0.014  0.055  0.000  0.167  0.036  0.000  0.010  0.000  0.012  0.294
 

 k-point     3 :    0.20000000 0.00000000 0.00000000     weight = 0.00750000

band     1 # energy  -39.36726978 # occ.  2.00000000
 
ion      s     py     pz     px    dxy    dyz    dz2    dxz  x2-y2    tot
    1  0.000  0.000  0.491  0.000  0.000  0.000  0.000  0.000  0.000  0.491
    2  0.000  0.000  0.491  0.000  0.000  0.000  0.000  0.000  0.000  0.491
tot    0.000  0.000  0.982  0.000  0.000  0.000  0.000  0.000  0.000  0.982
 
band     2 # energy  -39.27266173 # occ.  2.00000000
 
ion      s     py     pz     px    dxy    dyz    dz2    dxz  x2-y2    tot
    1  0.000  0.124  0.000  0.372  0.000  0.000  0.000  0.000  0.000  0.496
    2  0.000  0.124  0.000  0.372  0.000  0.000  0.000  0.000  0.000  0.496
tot    0.000  0.248  0.000  0.743  0.000  0.000  0.000  0.000  0.000  0.991
 
band     3 # energy  -39.21003071 # occ.  2.00000000
 
ion      s     py     pz     px    dxy    dyz    dz2    dxz  x2-y2    tot
    1  0.000  0.124  0.000  0.372  0.000  0.000  0.000  0.000  0.000  0.496
    2  0.000  0.124  0.000  0.372  0.000  0.000  0.000  0.000  0.000  0.496
tot    0.000  0.248  0.000  0.744  0.000  0.000  0.000  0.000  0.000  0.993
 
band     4 # energy  -39.11956272 # occ.  2.00000000
 
ion      s     py     pz     px    dxy    dyz    dz2    dxz  x2-y2    tot
    1  0.000  0.373  0.000  0.124  0.000  0.000  0.000  0.000  0.000  0.498
    2  0.000  0.373  0.000  0.124  0.000  0.000  0.000  0.000  0.000  0.498
tot    0.000  0.746  0.000  0.249  0.000  0.000  0.000  0.000  0.000  0.995
 
band     5 # energy  -39.03672124 # occ.  2.00000000
 
ion      s     py     pz     px    dxy    dyz    dz2    dxz  x2-y2    tot
    1  0.000  0.374  0.000  0.125  0.000  0.000  0.000  0.000  0.000  0.499
    2  0.000  0.374  0.000  0.125  0.000  0.000  0.000  0.000  0.000  0.499
tot    0.000  0.748  0.000  0.249  0.000  0.000  0.000  0.000  0.000  0.998
 
band     6 # energy  -38.91312752 # occ.  2.00000000
 
ion      s     py     pz     px    dxy    dyz    dz2    dxz  x2-y2    tot
    1  0.000  0.000  0.498  0.000  0.000  0.000  0.000  0.000  0.000  0.498
    2  0.000  0.000  0.498  0.000  0.000  0.000  0.000  0.000  0.000  0.498
tot    0.000  0.000  0.996  0.000  0.000  0.000  0.000  0.000  0.000  0.996
 
band     7 # energy    4.10577787 # occ.  2.00000000
 
ion      s     py     pz     px    dxy    dyz    dz2    dxz  x2-y2    tot
    1  0.196  0.003  0.000  0.008  0.007  0.000  0.001  0.000  0.002  0.217
    2  0.196  0.003  0.000  0.008  0.007  0.000  0.001  0.000  0.002  0.217
tot    0.392  0.005  0.000  0.015  0.015  0.000  0.002  0.000  0.005  0.434
 
band     8 # energy    6.52423753 # occ.  2.00000000
 
ion      s     py     pz     px    dxy    dyz    dz2    dxz  x2-y2    tot
    1  0.054  0.002  0.000  0.005  0.044  0.000  0.225  0.000  0.015  0.344
    2  0.054  0.002  0.000  0.005  0.044  0.000  0.225  0.000  0.015  0.344
tot    0.109  0.003  0.000  0.009  0.089  0.000  0.449  0.000  0.030  0.689
 
band     9 # energy    8.58262348 # occ.  2.00000000
 
ion      s     py     pz     px    dxy    dyz    dz2    dxz  x2-y2    tot
    1  0.004  0.002  0.000  0.005  0.186  0.000  0.130  0.000  0.062  0.389
    2  0.004  0.002  0.000  0.005  0.186  0.000  0.130  0.000  0.062  0.389
tot    0.008  0.003  0.000  0.009  0.373  0.000  0.261  0.000  0.124  0.778
 
band    10 # energy    9.12000902 # occ.  2.00000000
 
ion      s     py     pz     px    dxy    dyz    dz2    dxz  x2-y2    tot
    1  0.000  0.000  0.023  0.000  0.000  0.074  0.000  0.223  0.000  0.320
    2  0.000  0.000  0.023  0.000  0.000  0.074  0.000  0.223  0.000  0.320
tot    0.000  0.000  0.046  0.000  0.000  0.149  0.000  0.446  0.000  0.641
 
band    11 # energy    9.22998408 # occ.  2.00000000
 
ion      s     py     pz     px    dxy    dyz    dz2    dxz  x2-y2    tot
    1  0.007  0.000  0.000  0.001  0.257  0.000  0.061  0.000  0.086  0.412
    2  0.007  0.000  0.000  0.001  0.257  0.000  0.061  0.000  0.086  0.412
tot    0.013  0.001  0.000  0.003  0.514  0.000  0.122  0.000  0.171  0.824
 
band    12 # energy   10.33536019 # occ.  2.00000000
 
ion      s     py     pz     px    dxy    dyz    dz2    dxz  x2-y2    tot
    1  0.005  0.001  0.000  0.002  0.111  0.000  0.271  0.000  0.037  0.426
    2  0.005  0.001  0.000  0.002  0.111  0.000  0.271  0.000  0.037  0.426
tot    0.009  0.001  0.000  0.004  0.221  0.000  0.541  0.000  0.074  0.852
 
band    13 # energy   10.85000043 # occ.  2.00000000
 
ion      s     py     pz     px    dxy    dyz    dz2    dxz  x2-y2    tot
    1  0.000  0.001  0.000  0.000  0.108  0.000  0.000  0.000  0.325  0.435
    2  0.000  0.001  0.000  0.000  0.108  0.000  0.000  0.000  0.325  0.435
tot    0.000  0.003  0.000  0.001  0.216  0.000  0.000  0.000  0.649  0.869
 
band    14 # energy   10.85235931 # occ.  2.00000000
 
ion      s     py     pz     px    dxy    dyz    dz2    dxz  x2-y2    tot
    1  0.000  0.000  0.013  0.000  0.000  0.095  0.000  0.284  0.000  0.391
    2  0.000  0.000  0.013  0.000  0.000  0.095  0.000  0.284  0.000  0.391
tot    0.000  0.000  0.025  0.000  0.000  0.189  0.000  0.567  0.000  0.781
 
band    15 # energy   10.85531621 # occ.  2.00000000
 
ion      s     py     pz     px    dxy    dyz    dz2    dxz  x2-y2    tot
    1  0.000  0.000  0.000  0.000  0.000  0.326  0.000  0.109  0.000  0.435
    2  0.000  0.000  0.000  0.000  0.000  0.326  0.000  0.109  0.000  0.435
tot    0.000  0.000  0.000  0.000  0.000  0.653  0.000  0.218  0.000  0.871
 
band    16 # energy   11.24801703 # occ.  2.00000000
 
ion      s     py     pz     px    dxy    dyz    dz2    dxz  x2-y2    tot
    1  0.000  0.001  0.000  0.000  0.111  0.000  0.000  0.000  0.332  0.445
    2  0.000  0.001  0.000  0.000  0.111  0.000  0.000  0.000  0.332  0.445
tot    0.000  0.003  0.000  0.001  0.221  0.000  0.000  0.000  0.664  0.889
 
band    17 # energy   13.75210796 # occ.  1.80837753
 
ion      s     py     pz     px    dxy    dyz    dz2    dxz  x2-y2    tot
    1  0.000  0.000  0.000  0.000  0.000  0.357  0.000  0.119  0.000  0.476
    2  0.000  0.000  0.000  0.000  0.000  0.357  0.000  0.119  0.000  0.476
tot    0.000  0.000  0.000  0.000  0.000  0.715  0.000  0.238  0.000  0.953
 
band    18 # energy   17.83840282 # occ.  0.00000000
 
ion      s     py     pz     px    dxy    dyz    dz2    dxz  x2-y2    tot
    1  0.000  0.000  0.069  0.000  0.000  0.054  0.000  0.162  0.000  0.284
    2  0.000  0.000  0.069  0.000  0.000  0.054  0.000  0.162  0.000  0.284
tot    0.000  0.000  0.138  0.000  0.000  0.108  0.000  0.323  0.000  0.569
 
band    19 # energy   19.22356476 # occ.  0.00000000
 
ion      s     py     pz     px    dxy    dyz    dz2    dxz  x2-y2    tot
    1  0.195  0.001  0.000  0.004  0.006  0.000  0.188  0.000  0.002  0.396
    2  0.195  0.001  0.000  0.004  0.006  0.000  0.188  0.000  0.002  0.396
tot    0.390  0.002  0.000  0.007  0.012  0.000  0.376  0.000  0.004  0.792
 
band    20 # energy   28.84901549 # occ.  0.00000000
 
ion      s     py     pz     px    dxy    dyz    dz2    dxz  x2-y2    tot
    1  0.023  0.015  0.000  0.046  0.059  0.000  0.025  0.000  0.020  0.189
    2  0.023  0.015  0.000  0.046  0.059  0.000  0.025  0.000  0.020  0.189
tot    0.047  0.031  0.000  0.093  0.119  0.000  0.049  0.000  0.040  0.378
 
band    21 # energy   30.63172088 # occ.  0.00000000
 
ion      s     py     pz     px    dxy    dyz    dz2    dxz  x2-y2    tot
    1  0.000  0.000  0.009  0.000  0.000  0.003  0.000  0.009  0.000  0.021
    2  0.000  0.000  0.009  0.000  0.000  0.003  0.000  0.009  0.000  0.021
tot    0.000  0.000  0.018  0.000  0.000  0.006  0.000  0.018  0.000  0.041
 
band    22 # energy   32.04864895 # occ.  0.00000000
 
ion      s     py     pz     px    dxy    dyz    dz2    dxz  x2-y2    tot
    1  0.000  0.086  0.000  0.029  0.012  0.000  0.000  0.000  0.036  0.163
    2  0.000  0.086  0.000  0.029  0.012  0.000  0.000  0.000  0.036  0.163
tot    0.000  0.172  0.000  0.057  0.024  0.000  0.000  0.000  0.073  0.326
 
band    23 # energy   32.35475718 # occ.  0.00000000
 
ion      s     py     pz     px    dxy    dyz    dz2    dxz  x2-y2    tot
    1  0.004  0.006  0.000  0.019  0.032  0.000  0.022  0.000  0.011  0.093
    2  0.004  0.006  0.000  0.019  0.032  0.000  0.022  0.000  0.011  0.093
tot    0.009  0.012  0.000  0.037  0.063  0.000  0.044  0.000  0.021  0.187
 
band    24 # energy   32.44074094 # occ.  0.00000000
 
ion      s     py     pz     px    dxy    dyz    dz2    dxz  x2-y2    tot
    1  0.000  0.000  0.005  0.000  0.000  0.016  0.000  0.048  0.000  0.069
    2  0.000  0.000  0.005  0.000  0.000  0.016  0.000  0.048  0.000  0.069
tot    0.000  0.000  0.009  0.000  0.000  0.032  0.000  0.096  0.000  0.138
 

 k-point     4 :    0.30000000 0.00000000 0.00000000     weight = 0.00750000

band     1 # energy  -39.46132811 # occ.  2.00000000
 
ion      s     py     pz     px    dxy    dyz    dz2    dxz  x2-y2    tot
    1  0.000  0.123  0.000  0.370  0.000  0.000  0.000  0.000  0.000  0.493
    2  0.000  0.123  0.000  0.370  0.000  0.000  0.000  0.000  0.000  0.493
tot    0.000  0.246  0.000  0.739  0.000  0.000  0.000  0.000  0.000  0.986
 
band     2 # energy  -39.39586207 # occ.  2.00000000
 
ion      s     py     pz     px    dxy    dyz    dz2    dxz  x2-y2    tot
    1  0.000  0.123  0.000  0.370  0.000  0.000  0.000  0.000  0.000  0.494
    2  0.000  0.123  0.000  0.370  0.000  0.000  0.000  0.000  0.000  0.494
tot    0.000  0.247  0.000  0.741  0.000  0.000  0.000  0.000  0.000  0.988
 
band     3 # energy  -39.29147604 # occ.  2.00000000
 
ion      s     py     pz     px    dxy    dyz    dz2    dxz  x2-y2    tot
    1  0.000  0.000  0.492  0.000  0.000  0.000  0.000  0.000  0.000  0.492
    2  0.000  0.000  0.492  0.000  0.000  0.000  0.000  0.000  0.000  0.492
tot    0.000  0.000  0.984  0.000  0.000  0.000  0.000  0.000  0.000  0.984
 
band     4 # energy  -39.17197789 # occ.  2.00000000
 
ion      s     py     pz     px    dxy    dyz    dz2    dxz  x2-y2    tot
    1  0.000  0.373  0.000  0.124  0.000  0.000  0.000  0.000  0.000  0.497
    2  0.000  0.373  0.000  0.124  0.000  0.000  0.000  0.000  0.000  0.497
tot    0.000  0.745  0.000  0.248  0.000  0.000  0.000  0.000  0.000  0.994
 
band     5 # energy  -39.07636254 # occ.  2.00000000
 
ion      s     py     pz     px    dxy    dyz    dz2    dxz  x2-y2    tot
    1  0.000  0.374  0.000  0.125  0.000  0.000  0.000  0.000  0.000  0.498
    2  0.000  0.374  0.000  0.125  0.000  0.000  0.000  0.000  0.000  0.498
tot    0.000  0.748  0.000  0.249  0.000  0.000  0.000  0.000  0.000  0.997
 
band     6 # energy  -38.93973289 # occ.  2.00000000
 
ion      s     py     pz     px    dxy    dyz    dz2    dxz  x2-y2    tot
    1  0.000  0.000  0.498  0.000  0.000  0.000  0.000  0.000  0.000  0.498
    2  0.000  0.000  0.498  0.000  0.000  0.000  0.000  0.000  0.000  0.498
tot    0.000  0.000  0.995  0.000  0.000  0.000  0.000  0.000  0.000  0.995
 
band     7 # energy    5.38839434 # occ.  2.00000000
 
ion      s     py     pz     px    dxy    dyz    dz2    dxz  x2-y2    tot
    1  0.150  0.003  0.000  0.010  0.057  0.000  0.007  0.000  0.019  0.246
    2  0.150  0.003  0.000  0.010  0.057  0.000  0.007  0.000  0.019  0.246
tot    0.299  0.007  0.000  0.020  0.114  0.000  0.014  0.000  0.038  0.492
 
band     8 # energy    6.58971519 # occ.  2.00000000
 
ion      s     py     pz     px    dxy    dyz    dz2    dxz  x2-y2    tot
    1  0.023  0.000  0.000  0.001  0.169  0.000  0.119  0.000  0.056  0.369
    2  0.023  0.000  0.000  0.001  0.169  0.000  0.119  0.000  0.056  0.369
tot    0.046  0.001  0.000  0.002  0.338  0.000  0.238  0.000  0.113  0.738
 
band     9 # energy    7.84739381 # occ.  2.00000000
 
ion      s     py     pz     px    dxy    dyz    dz2    dxz  x2-y2    tot
    1  0.000  0.000  0.014  0.000  0.000  0.080  0.000  0.239  0.000  0.332
    2  0.000  0.000  0.014  0.000  0.000  0.080  0.000  0.239  0.000  0.332
tot    0.000  0.000  0.027  0.000  0.000  0.159  0.000  0.478  0.000  0.664
 
band    10 # energy    8.91634953 # occ.  2.00000000
 
ion      s     py     pz     px    dxy    dyz    dz2    dxz  x2-y2    tot
    1  0.016  0.004  0.000  0.012  0.203  0.000  0.048  0.000  0.068  0.351
    2  0.016  0.004  0.000  0.012  0.203  0.000  0.048  0.000  0.068  0.351
tot    0.031  0.008  0.000  0.024  0.406  0.000  0.096  0.000  0.135  0.701
 
band    11 # energy    9.36731616 # occ.  2.00000000
 
ion      s     py     pz     px    dxy    dyz    dz2    dxz  x2-y2    tot