<?xml version="1.0" encoding="ISO-8859-1"?>
<modeling>
 <generator>
  <i name="program" type="string">vasp </i>
  <i name="version" type="string">6.3.2  </i>
  <i name="subversion" type="string">27Jun22 (build Aug 12 2022 00:53:59) complex                          parallel </i>
  <i name="platform" type="string">tv2STD </i>
  <i name="date" type="string">2024 12 03 </i>
  <i name="time" type="string">02:19:06 </i>
 </generator>
 <incar>
  <i type="string" name="SYSTEM">Pt-hcc</i>
  <i type="int" name="ISTART">     0</i>
  <i type="string" name="PREC">Accurate      normal | accurate</i>
  <i type="string" name="ALGO">Normal     Normal, Fast, Very_Fast</i>
  <i type="logical" name="ADDGRID"> F  </i>
  <i type="int" name="ICHARG">     2</i>
  <i type="int" name="INIWAV">     1</i>
  <i type="int" name="NELM">   100</i>
  <i type="int" name="IBRION">     2</i>
  <i name="EDIFF">      0.00000100</i>
  <i name="EDIFFG">     -0.02000000</i>
  <i type="int" name="NSW">   100</i>
  <i type="int" name="ISIF">     2</i>
  <i type="int" name="ISYM">     1</i>
  <i name="ENCUT">    450.00000000</i>
  <i type="logical" name="LREAL"> F  </i>
  <i type="int" name="ISMEAR">     0</i>
  <i name="SIGMA">      0.05000000</i>
  <i type="int" name="NWRITE">     2</i>
  <i type="logical" name="LWAVE"> T  </i>
  <i type="logical" name="LCHARG"> T  </i>
  <i type="int" name="LORBIT">    11</i>
 </incar>
 <primitive_cell>
  <structure name="primitive_cell" >
   <crystal>
    <varray name="basis" >
     <v>       2.64285324       0.00000000       0.00000000 </v>
     <v>      -1.32142662       2.28877804       0.00000000 </v>
     <v>       0.00000000       0.00000000       4.57868164 </v>
    </varray>
    <i name="volume">     27.69600779 </i>
    <varray name="rec_basis" >
     <v>       0.37837894       0.21845718       0.00000000 </v>
     <v>       0.00000000       0.43691436       0.00000000 </v>
     <v>       0.00000000       0.00000000       0.21840348 </v>
    </varray>
   </crystal>
   <varray name="positions" >
    <v>       0.00000000       0.00000000       0.00000000 </v>
    <v>       0.33333333       0.66666667       0.50000000 </v>
   </varray>
  </structure>
  <varray name="primitive_index" >
   <v type="int" >        1 </v>
   <v type="int" >        2 </v>
  </varray>
 </primitive_cell>
 <kpoints>
  <generation param="Gamma">
   <v type="int" name="divisions">      10       10        8 </v>
   <v name="usershift">      0.00000000       0.00000000       0.00000000 </v>
   <v name="genvec1">      0.10000000      -0.00000000       0.00000000 </v>
   <v name="genvec2">      0.00000000       0.10000000       0.00000000 </v>
   <v name="genvec3">      0.00000000       0.00000000       0.12500000 </v>
   <v name="shift">      0.00000000       0.00000000       0.00000000 </v>
  </generation>
  <varray name="kpointlist" >
   <v>       0.00000000       0.00000000       0.00000000 </v>
   <v>       0.10000000       0.00000000       0.00000000 </v>
   <v>       0.20000000       0.00000000       0.00000000 </v>
   <v>       0.30000000       0.00000000       0.00000000 </v>
   <v>       0.40000000      -0.00000000       0.00000000 </v>
   <v>       0.50000000       0.00000000       0.00000000 </v>
   <v>       0.10000000       0.10000000       0.00000000 </v>
   <v>       0.20000000       0.10000000       0.00000000 </v>
   <v>       0.30000000       0.10000000       0.00000000 </v>
   <v>       0.40000000       0.10000000       0.00000000 </v>
   <v>       0.20000000       0.20000000       0.00000000 </v>
   <v>       0.30000000       0.20000000       0.00000000 </v>
   <v>       0.40000000       0.20000000       0.00000000 </v>
   <v>       0.30000000       0.30000000       0.00000000 </v>
   <v>       0.00000000       0.00000000       0.12500000 </v>
   <v>       0.10000000       0.00000000       0.12500000 </v>
   <v>       0.20000000       0.00000000       0.12500000 </v>
   <v>       0.30000000       0.00000000       0.12500000 </v>
   <v>       0.40000000      -0.00000000       0.12500000 </v>
   <v>       0.50000000       0.00000000       0.12500000 </v>
   <v>       0.10000000       0.10000000       0.12500000 </v>
   <v>       0.20000000       0.10000000       0.12500000 </v>
   <v>       0.30000000       0.10000000       0.12500000 </v>
   <v>       0.40000000       0.10000000       0.12500000 </v>
   <v>       0.20000000       0.20000000       0.12500000 </v>
   <v>       0.30000000       0.20000000       0.12500000 </v>
   <v>       0.40000000       0.20000000       0.12500000 </v>
   <v>       0.30000000       0.30000000       0.12500000 </v>
   <v>       0.00000000       0.00000000       0.25000000 </v>
   <v>       0.10000000       0.00000000       0.25000000 </v>
   <v>       0.20000000       0.00000000       0.25000000 </v>
   <v>       0.30000000       0.00000000       0.25000000 </v>
   <v>       0.40000000      -0.00000000       0.25000000 </v>
   <v>       0.50000000       0.00000000       0.25000000 </v>
   <v>       0.10000000       0.10000000       0.25000000 </v>
   <v>       0.20000000       0.10000000       0.25000000 </v>
   <v>       0.30000000       0.10000000       0.25000000 </v>
   <v>       0.40000000       0.10000000       0.25000000 </v>
   <v>       0.20000000       0.20000000       0.25000000 </v>
   <v>       0.30000000       0.20000000       0.25000000 </v>
   <v>       0.40000000       0.20000000       0.25000000 </v>
   <v>       0.30000000       0.30000000       0.25000000 </v>
   <v>       0.00000000       0.00000000       0.37500000 </v>
   <v>       0.10000000       0.00000000       0.37500000 </v>
   <v>       0.20000000       0.00000000       0.37500000 </v>
   <v>       0.30000000       0.00000000       0.37500000 </v>
   <v>       0.40000000      -0.00000000       0.37500000 </v>
   <v>       0.50000000       0.00000000       0.37500000 </v>
   <v>       0.10000000       0.10000000       0.37500000 </v>
   <v>       0.20000000       0.10000000       0.37500000 </v>
   <v>       0.30000000       0.10000000       0.37500000 </v>
   <v>       0.40000000       0.10000000       0.37500000 </v>
   <v>       0.20000000       0.20000000       0.37500000 </v>
   <v>       0.30000000       0.20000000       0.37500000 </v>
   <v>       0.40000000       0.20000000       0.37500000 </v>
   <v>       0.30000000       0.30000000       0.37500000 </v>
   <v>       0.00000000       0.00000000       0.50000000 </v>
   <v>       0.10000000       0.00000000       0.50000000 </v>
   <v>       0.20000000       0.00000000       0.50000000 </v>
   <v>       0.30000000       0.00000000       0.50000000 </v>
   <v>       0.40000000      -0.00000000       0.50000000 </v>
   <v>       0.50000000       0.00000000       0.50000000 </v>
   <v>       0.10000000       0.10000000       0.50000000 </v>
   <v>       0.20000000       0.10000000       0.50000000 </v>
   <v>       0.30000000       0.10000000       0.50000000 </v>
   <v>       0.40000000       0.10000000       0.50000000 </v>
   <v>       0.20000000       0.20000000       0.50000000 </v>
   <v>       0.30000000       0.20000000       0.50000000 </v>
   <v>       0.40000000       0.20000000       0.50000000 </v>
   <v>       0.30000000       0.30000000       0.50000000 </v>
  </varray>
  <varray name="weights" >
   <v>       0.00125000 </v>
   <v>       0.00750000 </v>
   <v>       0.00750000 </v>
   <v>       0.00750000 </v>
   <v>       0.00750000 </v>
   <v>       0.00375000 </v>
   <v>       0.00750000 </v>
   <v>       0.01500000 </v>
   <v>       0.01500000 </v>
   <v>       0.01500000 </v>
   <v>       0.00750000 </v>
   <v>       0.01500000 </v>
   <v>       0.00750000 </v>
   <v>       0.00750000 </v>
   <v>       0.00250000 </v>
   <v>       0.01500000 </v>
   <v>       0.01500000 </v>
   <v>       0.01500000 </v>
   <v>       0.01500000 </v>
   <v>       0.00750000 </v>
   <v>       0.01500000 </v>
   <v>       0.03000000 </v>
   <v>       0.03000000 </v>
   <v>       0.03000000 </v>
   <v>       0.01500000 </v>
   <v>       0.03000000 </v>
   <v>       0.01500000 </v>
   <v>       0.01500000 </v>
   <v>       0.00250000 </v>
   <v>       0.01500000 </v>
   <v>       0.01500000 </v>
   <v>       0.01500000 </v>
   <v>       0.01500000 </v>
   <v>       0.00750000 </v>
   <v>       0.01500000 </v>
   <v>       0.03000000 </v>
   <v>       0.03000000 </v>
   <v>       0.03000000 </v>
   <v>       0.01500000 </v>
   <v>       0.03000000 </v>
   <v>       0.01500000 </v>
   <v>       0.01500000 </v>
   <v>       0.00250000 </v>
   <v>       0.01500000 </v>
   <v>       0.01500000 </v>
   <v>       0.01500000 </v>
   <v>       0.01500000 </v>
   <v>       0.00750000 </v>
   <v>       0.01500000 </v>
   <v>       0.03000000 </v>
   <v>       0.03000000 </v>
   <v>       0.03000000 </v>
   <v>       0.01500000 </v>
   <v>       0.03000000 </v>
   <v>       0.01500000 </v>
   <v>       0.01500000 </v>
   <v>       0.00125000 </v>
   <v>       0.00750000 </v>
   <v>       0.00750000 </v>
   <v>       0.00750000 </v>
   <v>       0.00750000 </v>
   <v>       0.00375000 </v>
   <v>       0.00750000 </v>
   <v>       0.01500000 </v>
   <v>       0.01500000 </v>
   <v>       0.01500000 </v>
   <v>       0.00750000 </v>
   <v>       0.01500000 </v>
   <v>       0.00750000 </v>
   <v>       0.00750000 </v>
  </varray>
 </kpoints>
 <parameters>
  <separator name="general" >
   <i type="string" name="SYSTEM">Pt-hcc</i>
   <i type="logical" name="LCOMPAT"> F  </i>
  </separator>
  <separator name="electronic" >
   <i type="string" name="PREC">accura</i>
   <i name="ENMAX">    450.00000000</i>
   <i name="ENAUG">    527.01400000</i>
   <i name="EDIFF">      0.00000100</i>
   <i type="int" name="IALGO">    38</i>
   <i type="int" name="IWAVPR">    11</i>
   <i type="int" name="NBANDS">    24</i>
   <i type="int" name="NBANDSLOW">    -1</i>
   <i type="int" name="NBANDSHIGH">    -1</i>
   <i name="NELECT">     32.00000000</i>
   <i type="int" name="TURBO">     0</i>
   <i type="int" name="IRESTART">     0</i>
   <i type="int" name="NREBOOT">     0</i>
   <i type="int" name="NMIN">     0</i>
   <i name="EREF">      0.00000000</i>
   <separator name="electronic smearing" >
    <i type="int" name="ISMEAR">     0</i>
    <i name="SIGMA">      0.05000000</i>
    <i name="KSPACING">      0.50000000</i>
    <i type="logical" name="KGAMMA"> T  </i>
    <i type="logical" name="KBLOWUP"> T  </i>
   </separator>
   <separator name="electronic projectors" >
    <i type="logical" name="LREAL"> F  </i>
    <v name="ROPT">      0.00000000</v>
    <i type="int" name="LMAXPAW">  -100</i>
    <i type="int" name="LMAXMIX">     2</i>
    <i type="logical" name="NLSPLINE"> F  </i>
   </separator>
   <separator name="electronic startup" >
    <i type="int" name="ISTART">     0</i>
    <i type="int" name="ICHARG">     2</i>
    <i type="int" name="INIWAV">     1</i>
   </separator>
   <separator name="electronic spin" >
    <i type="int" name="ISPIN">     1</i>
    <i type="logical" name="LNONCOLLINEAR"> F  </i>
    <v name="MAGMOM">      1.00000000      1.00000000</v>
    <i name="NUPDOWN">     -1.00000000</i>
    <i type="logical" name="LSORBIT"> F  </i>
    <v name="SAXIS">      0.00000000      0.00000000      1.00000000</v>
    <i type="logical" name="LSPIRAL"> F  </i>
    <v name="QSPIRAL">      0.00000000      0.00000000      0.00000000</v>
    <i type="logical" name="LZEROZ"> F  </i>
   </separator>
   <separator name="electronic exchange-correlation" >
    <i type="logical" name="LASPH"> F  </i>
    <i type="logical" name="LMETAGGA"> F  </i>
   </separator>
   <separator name="electronic convergence" >
    <i type="int" name="NELM">   100</i>
    <i type="int" name="NELMDL">    -5</i>
    <i type="int" name="NELMIN">     2</i>
    <i name="ENINI">    450.00000000</i>
    <separator name="electronic convergence detail" >
     <i type="logical" name="LDIAG"> T  </i>
     <i type="logical" name="LSUBROT"> F  </i>
     <i name="WEIMIN">      0.00100000</i>
     <i name="EBREAK">      0.00000001</i>
     <i name="DEPER">      0.30000000</i>
     <i type="int" name="NRMM">     4</i>
     <i name="TIME">      0.40000000</i>
    </separator>
   </separator>
   <separator name="electronic mixer" >
    <i name="AMIX">      0.40000000</i>
    <i name="BMIX">      1.00000000</i>
    <i name="AMIN">      0.10000000</i>
    <i name="AMIX_MAG">      1.60000000</i>
    <i name="BMIX_MAG">      1.00000000</i>
    <separator name="electronic mixer details" >
     <i type="int" name="IMIX">     4</i>
     <i type="logical" name="MIXFIRST"> F  </i>
     <i type="int" name="MAXMIX">   -45</i>
     <i name="WC">    100.00000000</i>
     <i type="int" name="INIMIX">     1</i>
     <i type="int" name="MIXPRE">     1</i>
     <i type="int" name="MREMOVE">     5</i>
    </separator>
   </separator>
   <separator name="electronic dipolcorrection" >
    <i type="logical" name="LDIPOL"> F  </i>
    <i type="logical" name="LMONO"> F  </i>
    <i type="int" name="IDIPOL">     0</i>
    <i name="EPSILON">      1.00000000</i>
    <v name="DIPOL">   -100.00000000   -100.00000000   -100.00000000</v>
    <i name="EFIELD">      0.00000000</i>
   </separator>
  </separator>
  <separator name="grids" >
   <i type="int" name="NGX">    18</i>
   <i type="int" name="NGY">    18</i>
   <i type="int" name="NGZ">    32</i>
   <i type="int" name="NGXF">    36</i>
   <i type="int" name="NGYF">    36</i>
   <i type="int" name="NGZF">    64</i>
   <i type="logical" name="ADDGRID"> F  </i>
  </separator>
  <separator name="ionic" >
   <i type="int" name="NSW">   100</i>
   <i type="int" name="IBRION">     2</i>
   <i type="int" name="MDALGO">     0</i>
   <i type="int" name="ISIF">     2</i>
   <i name="PSTRESS">      0.00000000</i>
   <i name="EDIFFG">     -0.02000000</i>
   <i type="int" name="NFREE">     1</i>
   <i name="POTIM">      0.50000000</i>
   <i name="SMASS">     -3.00000000</i>
   <i name="SCALEE">      1.00000000</i>
  </separator>
  <separator name="ionic md" >
   <i name="TEBEG">      0.00010000</i>
   <i name="TEEND">      0.00010000</i>
   <i type="int" name="NBLOCK">     1</i>
   <i type="int" name="KBLOCK">   100</i>
   <i type="int" name="NPACO">   256</i>
   <i name="APACO">     10.00000000</i>
  </separator>
  <separator name="symmetry" >
   <i type="int" name="ISYM">     1</i>
   <i name="SYMPREC">      0.00001000</i>
  </separator>
  <separator name="dos" >
   <i type="int" name="LORBIT">    11</i>
   <v name="RWIGS">     -1.00000000</v>
   <i type="int" name="NEDOS">   301</i>
   <i name="EMIN">     10.00000000</i>
   <i name="EMAX">    -10.00000000</i>
   <i name="EFERMI">      0.00000000</i>
  </separator>
  <separator name="writing" >
   <i type="int" name="NWRITE">     2</i>
   <i type="logical" name="LWAVE"> T  </i>
   <i type="logical" name="LDOWNSAMPLE"> F  </i>
   <i type="logical" name="LCHARG"> T  </i>
   <i type="logical" name="LPARD"> F  </i>
   <i type="logical" name="LVTOT"> F  </i>
   <i type="logical" name="LVHAR"> F  </i>
   <i type="logical" name="LELF"> F  </i>
   <i type="logical" name="LOPTICS"> F  </i>
   <v name="STM">      0.00000000      0.00000000      0.00000000      0.00000000      0.00000000      0.00000000      0.00000000</v>
  </separator>
  <separator name="performance" >
   <i type="int" name="NPAR">    24</i>
   <i type="int" name="NSIM">     4</i>
   <i type="int" name="NBLK">    -1</i>
   <i type="logical" name="LPLANE"> T  </i>
   <i type="logical" name="LSCALAPACK"> T  </i>
   <i type="logical" name="LSCAAWARE"> F  </i>
   <i type="logical" name="LSCALU"> F  </i>
   <i type="logical" name="LASYNC"> F  </i>
   <i type="logical" name="LORBITALREAL"> F  </i>
  </separator>
  <separator name="miscellaneous" >
   <i type="int" name="IDIOT">     3</i>
   <i type="int" name="PHON_NSTRUCT">    -1</i>
   <i type="logical" name="LMUSIC"> F  </i>
   <v name="POMASS">    195.08000000</v>
   <v name="DARWINR">      0.00000000</v>
   <v name="DARWINV">      1.00000000</v>
   <i type="logical" name="LCORR"> T  </i>
  </separator>
  <i type="logical" name="GGA_COMPAT"> T  </i>
  <i type="logical" name="LBERRY"> F  </i>
  <i type="int" name="ICORELEVEL">     0</i>
  <i type="logical" name="LDAU"> F  </i>
  <i type="int" name="I_CONSTRAINED_M">     0</i>
  <separator name="electronic exchange-correlation" >
   <i type="string" name="GGA">--</i>
   <i type="int" name="VOSKOWN">     0</i>
   <i type="logical" name="LHFCALC"> F  </i>
   <i type="string" name="PRECFOCK"></i>
   <i type="logical" name="LSYMGRAD"> F  </i>
   <i type="logical" name="LHFONE"> F  </i>
   <i type="logical" name="LRHFCALC"> F  </i>
   <i type="logical" name="LTHOMAS"> F  </i>
   <i type="logical" name="LMODELHF"> F  </i>
   <i type="logical" name="LFOCKACE"> F  </i>
   <i name="ENCUT4O">     -1.00000000</i>
   <i type="int" name="EXXOEP">     0</i>
   <i type="int" name="FOURORBIT">     0</i>
   <i name="AEXX">      0.00000000</i>
   <i name="HFALPHA">      0.00000000</i>
   <i name="MCALPHA">      0.00000000</i>
   <i name="ALDAX">      1.00000000</i>
   <i name="AGGAX">      1.00000000</i>
   <i name="ALDAC">      1.00000000</i>
   <i name="AGGAC">      1.00000000</i>
   <i type="int" name="NKREDX">     1</i>
   <i type="int" name="NKREDY">     1</i>
   <i type="int" name="NKREDZ">     1</i>
   <i type="logical" name="SHIFTRED"> F  </i>
   <i type="logical" name="ODDONLY"> F  </i>
   <i type="logical" name="EVENONLY"> F  </i>
   <i type="int" name="LMAXFOCK">     0</i>
   <i type="int" name="NMAXFOCKAE">     0</i>
   <i type="logical" name="LFOCKAEDFT"> F  </i>
   <i name="HFSCREEN">      0.00000000</i>
   <i name="HFSCREENC">      0.00000000</i>
   <i type="int" name="NBANDSGWLOW">     0</i>
  </separator>
  <separator name="vdW DFT" >
   <i type="logical" name="LUSE_VDW"> F  </i>
   <i name="Zab_VDW">     -0.84910000</i>
   <i name="PARAM1">      0.12340000</i>
   <i name="PARAM2">      1.00000000</i>
   <i name="PARAM3">      0.00000000</i>
  </separator>
  <separator name="model GW" >
   <i type="int" name="MODEL_GW">     0</i>
   <i name="MODEL_EPS0">      8.30880234</i>
   <i name="MODEL_ALPHA">      1.00000000</i>
  </separator>
  <separator name="linear response parameters" >
   <i type="logical" name="LEPSILON"> F  </i>
   <i type="logical" name="LRPA"> F  </i>
   <i type="logical" name="LNABLA"> F  </i>
   <i type="logical" name="LVEL"> F  </i>
   <i name="CSHIFT">      0.10000000</i>
   <i name="OMEGAMAX">     -1.00000000</i>
   <i name="DEG_THRESHOLD">      0.00200000</i>
   <i name="RTIME">     -0.10000000</i>
   <i name="WPLASMAI">      0.00000000</i>
   <v name="DFIELD">      0.00000000      0.00000000      0.00000000</v>
   <v name="WPLASMA">      0.00000000      0.00000000      0.00000000      0.00000000      0.00000000      0.00000000      0.00000000      0.00000000      0.00000000</v>
  </separator>
  <separator name="orbital magnetization" >
   <i type="logical" name="NUCIND"> F  </i>
   <v name="MAGPOS">      0.00000000      0.00000000      0.00000000</v>
   <i type="logical" name="LNICSALL"> T  </i>
   <i type="logical" name="ORBITALMAG"> F  </i>
   <i type="logical" name="LMAGBLOCH"> F  </i>
   <i type="logical" name="LCHIMAG"> F  </i>
   <i type="logical" name="LGAUGE"> T  </i>
   <i type="int" name="MAGATOM">     0</i>
   <v name="MAGDIPOL">      0.00000000      0.00000000      0.00000000</v>
   <v name="AVECCONST">      0.00000000      0.00000000      0.00000000</v>
  </separator>
  <separator name="response functions" >
   <i type="logical" name="LFINITE_TEMPERATURE"> F  </i>
   <i type="logical" name="LADDER"> F  </i>
   <i type="logical" name="LRPAFORCE"> F  </i>
   <i type="logical" name="LFXC"> F  </i>
   <i type="logical" name="LHARTREE"> T  </i>
   <i type="int" name="IBSE">     0</i>
   <v type="int" name="KPOINT">    -1     0     0     0</v>
   <i type="logical" name="LTCTC"> F  </i>
   <i type="logical" name="LTCTE"> F  </i>
   <i type="logical" name="LTETE"> F  </i>
   <i type="logical" name="LTRIPLET"> F  </i>
   <i type="logical" name="LFXCEPS"> F  </i>
   <i type="logical" name="LFXHEG"> F  </i>
   <i type="int" name="NATURALO">     2</i>
   <i type="logical" name="LHOLEGF"> F  </i>
   <i type="logical" name="L2ORDER"> F  </i>
   <i type="logical" name="LDMP1"> F  </i>
   <i type="logical" name="LMP2LT"> F  </i>
   <i type="logical" name="LSMP2LT"> F  </i>
   <i type="logical" name="LGWLF"> F  </i>
   <i name="ENCUTGW">     -2.00000000</i>
   <i name="ENCUTGWSOFT">     -2.00000000</i>
   <i name="ENCUTLF">     -1.00000000</i>
   <i type="logical" name="LESF_SPLINES"> F  </i>
   <i type="int" name="LMAXMP2">    -1</i>
   <i name="SCISSOR">      0.00000000</i>
   <i type="int" name="NOMEGA">     0</i>
   <i type="int" name="NOMEGAR">     0</i>
   <i type="int" name="NBANDSGW">    -1</i>
   <i type="int" name="NBANDSO">    -1</i>
   <i type="int" name="NBANDSV">    -1</i>
   <i type="int" name="NELMGW">     1</i>
   <i type="int" name="NELMHF">     1</i>
   <i type="int" name="DIM">     3</i>
   <i type="int" name="IESPILON">     4</i>
   <i type="int" name="ANTIRES">     0</i>
   <i name="OMEGAMAX">    -30.00000000</i>
   <i name="OMEGAMIN">    -30.00000000</i>
   <i name="OMEGATL">   -200.00000000</i>
   <i type="int" name="OMEGAGRID">     0</i>
   <i name="CSHIFT">     -0.10000000</i>
   <i type="logical" name="LSELFENERGY"> F  </i>
   <i type="logical" name="LSPECTRAL"> F  </i>
   <i type="logical" name="LSPECTRALGW"> F  </i>
   <i type="logical" name="LSINGLES"> F  </i>
   <i type="logical" name="LFERMIGW"> F  </i>
   <i type="logical" name="ODDONLYGW"> F  </i>
   <i type="logical" name="EVENONLYGW"> F  </i>
   <i type="int" name="NKREDLFX">     1</i>
   <i type="int" name="NKREDLFY">     1</i>
   <i type="int" name="NKREDLFZ">     1</i>
   <i type="int" name="MAXMEM">  2800</i>
   <i type="int" name="TELESCOPE">     0</i>
   <i type="int" name="NTAUPAR">    -1</i>
   <i type="int" name="NOMEGAPAR">    -1</i>
   <i name="DAMP_NEWTON">      0.80000001</i>
   <i name="LAMBDA">      1.00000000</i>
  </separator>
  <separator name="External order field" >
   <i name="OFIELD_KAPPA">      0.00000000</i>
   <v name="OFIELD_K">      0.00000000      0.00000000      0.00000000</v>
   <i name="OFIELD_Q6_NEAR">      0.00000000</i>
   <i name="OFIELD_Q6_FAR">      0.00000000</i>
   <i name="OFIELD_A">      0.00000000</i>
  </separator>
  <separator name="optional k-points parameters" >
   <i type="int" name="KPOINTS_OPT_MODE">     1</i>
   <i type="logical" name="LKPOINTS_OPT"> F  </i>
  </separator>
 </parameters>
 <atominfo>
  <atoms>       2 </atoms>
  <types>       1 </types>
  <array name="atoms" >
   <dimension dim="1">ion</dimension>
   <field type="string">element</field>
   <field type="int">atomtype</field>
   <set>
    <rc><c>Pt</c><c>   1</c></rc>
    <rc><c>Pt</c><c>   1</c></rc>
   </set>
  </array>
  <array name="atomtypes" >
   <dimension dim="1">type</dimension>
   <field type="int">atomspertype</field>
   <field type="string">element</field>
   <field>mass</field>
   <field>valence</field>
   <field type="string">pseudopotential</field>
   <set>
    <rc><c>   2</c><c>Pt</c><c>    195.08000000</c><c>     16.00000000</c><c>  PAW_PBE Pt_pv 12Dec2005               </c></rc>
   </set>
  </array>
 </atominfo>
 <structure name="initialpos" >
  <crystal>
   <varray name="basis" >
    <v>       2.64285324       0.00000000       0.00000000 </v>
    <v>      -1.32142662       2.28877804       0.00000000 </v>
    <v>       0.00000000       0.00000000       4.57868164 </v>
   </varray>
   <i name="volume">     27.69600779 </i>
   <varray name="rec_basis" >
    <v>       0.37837894       0.21845718       0.00000000 </v>
    <v>       0.00000000       0.43691436       0.00000000 </v>
    <v>       0.00000000       0.00000000       0.21840348 </v>
   </varray>
  </crystal>
  <varray name="positions" >
   <v>       0.00000000       0.00000000       0.00000000 </v>
   <v>       0.33333333       0.66666667       0.50000000 </v>
  </varray>
 </structure>
 <calculation>
  <scstep>
   <time name="dav">    0.28    0.28</time>
   <time name="total">    0.28    0.28</time>
   <energy>
    <i name="alphaZ">    346.52193606 </i>
    <i name="ewald">  -4431.38450057 </i>
    <i name="hartreedc">   -733.08570176 </i>
    <i name="XCdc">    128.73372811 </i>
    <i name="pawpsdc">   4131.50523274 </i>
    <i name="pawaedc">  -4061.67189606 </i>
    <i name="eentropy">     -0.00050375 </i>
    <i name="bandstr">    -98.64073307 </i>
    <i name="atom">   4856.42966544 </i>
    <i name="e_fr_energy">    138.40722713 </i>
    <i name="e_wo_entrp">    138.40773089 </i>
    <i name="e_0_energy">    138.40747901 </i>
   </energy>
  </scstep>
  <scstep>
   <time name="dav">    0.28    0.28</time>
   <time name="total">    0.28    0.28</time>
   <energy>
    <i name="e_fr_energy">    -11.04875240 </i>
    <i name="e_wo_entrp">    -11.04550043 </i>
    <i name="e_0_energy">    -11.04712642 </i>
   </energy>
  </scstep>
  <scstep>
   <time name="dav">    0.44    0.44</time>
   <time name="total">    0.44    0.44</time>
   <energy>
    <i name="e_fr_energy">    -12.20986325 </i>
    <i name="e_wo_entrp">    -12.20666428 </i>
    <i name="e_0_energy">    -12.20826376 </i>
   </energy>
  </scstep>
  <scstep>
   <time name="dav">    0.53    0.53</time>
   <time name="total">    0.53    0.53</time>
   <energy>
    <i name="e_fr_energy">    -12.21354594 </i>
    <i name="e_wo_entrp">    -12.21034675 </i>
    <i name="e_0_energy">    -12.21194634 </i>
   </energy>
  </scstep>
  <scstep>
   <time name="dav">    0.52    0.53</time>
   <time name="total">    0.54    0.54</time>
   <energy>
    <i name="e_fr_energy">    -12.21354811 </i>
    <i name="e_wo_entrp">    -12.21034895 </i>
    <i name="e_0_energy">    -12.21194853 </i>
   </energy>
  </scstep>
  <scstep>
   <time name="dav">    0.29    0.29</time>
   <time name="total">    0.31    0.31</time>
   <energy>
    <i name="e_fr_energy">    -11.61521242 </i>
    <i name="e_wo_entrp">    -11.61159891 </i>
    <i name="e_0_energy">    -11.61340566 </i>
   </energy>
  </scstep>
  <scstep>
   <time name="dav">    0.45    0.45</time>
   <time name="total">    0.47    0.47</time>
   <energy>
    <i name="e_fr_energy">    -11.56883132 </i>
    <i name="e_wo_entrp">    -11.56515464 </i>
    <i name="e_0_energy">    -11.56699298 </i>
   </energy>
  </scstep>
  <scstep>
   <time name="dav">    0.29    0.29</time>
   <time name="total">    0.31    0.31</time>
   <energy>
    <i name="e_fr_energy">    -11.56572599 </i>
    <i name="e_wo_entrp">    -11.56204540 </i>
    <i name="e_0_energy">    -11.56388569 </i>
   </energy>
  </scstep>
  <scstep>
   <time name="dav">    0.44    0.44</time>
   <time name="total">    0.46    0.46</time>
   <energy>
    <i name="e_fr_energy">    -11.56555366 </i>
    <i name="e_wo_entrp">    -11.56189364 </i>
    <i name="e_0_energy">    -11.56372365 </i>
   </energy>
  </scstep>
  <scstep>
   <time name="dav">    0.43    0.44</time>
   <time name="total">    0.45    0.46</time>
   <energy>
    <i name="e_fr_energy">    -11.56556288 </i>
    <i name="e_wo_entrp">    -11.56190754 </i>
    <i name="e_0_energy">    -11.56373521 </i>
   </energy>
  </scstep>
  <scstep>
   <time name="dav">    0.25    0.25</time>
   <time name="total">    0.25    0.25</time>
   <energy>
    <i name="alphaZ">    346.52193606 </i>
    <i name="ewald">  -4431.38450057 </i>
    <i name="hartreedc">   -696.57050627 </i>
    <i name="XCdc">    127.10573267 </i>
    <i name="pawpsdc">   5075.37353691 </i>
    <i name="pawaedc">  -5011.68478018 </i>
    <i name="eentropy">     -0.00365611 </i>
    <i name="bandstr">   -277.35299014 </i>
    <i name="atom">   4856.42966544 </i>
    <i name="e_fr_energy">    -11.56556220 </i>
    <i name="e_wo_entrp">    -11.56190609 </i>
    <i name="e_0_energy">    -11.56373414 </i>
   </energy>
  </scstep>
  <structure>
   <crystal>
    <varray name="basis" >
     <v>       2.64285324       0.00000000       0.00000000 </v>
     <v>      -1.32142662       2.28877804       0.00000000 </v>
     <v>       0.00000000       0.00000000       4.57868164 </v>
    </varray>
    <i name="volume">     27.69600779 </i>
    <varray name="rec_basis" >
     <v>       0.37837894       0.21845718       0.00000000 </v>
     <v>       0.00000000       0.43691436       0.00000000 </v>
     <v>       0.00000000       0.00000000       0.21840348 </v>
    </varray>
   </crystal>
   <varray name="positions" >
    <v>       0.00000000       0.00000000       0.00000000 </v>
    <v>       0.33333333       0.66666667       0.50000000 </v>
   </varray>
  </structure>
  <varray name="forces" >
   <v>       0.00000000       0.00000000       0.00000000 </v>
   <v>       0.00000000      -0.00000000       0.00000000 </v>
  </varray>
  <varray name="stress" >
   <v>     448.81559830      -0.00000000       0.00000000 </v>
   <v>       0.00000000     448.81559830      -0.00000000 </v>
   <v>       0.00000000       0.00000000     390.69089394 </v>
  </varray>
  <energy>
   <i name="e_fr_energy">    -11.56556220 </i>
   <i name="e_wo_entrp">    -11.56190609 </i>
   <i name="e_0_energy">    -11.56373414 </i>
  </energy>
  <time name="totalsc">    4.62    4.68</time>
  <eigenvalues>
   <array>
    <dimension dim="1">band</dimension>
    <dimension dim="2">kpoint</dimension>
    <dimension dim="3">spin</dimension>
    <field>eigene</field>
    <field>occ</field>
    <set>
     <set comment="spin 1">
      <set comment="kpoint 1">
       <r>  -39.4410    1.0000 </r>
       <r>  -39.0588    1.0000 </r>
       <r>  -39.0588    1.0000 </r>
       <r>  -38.9940    1.0000 </r>
       <r>  -38.9940    1.0000 </r>
       <r>  -38.8940    1.0000 </r>
       <r>    2.5900    1.0000 </r>
       <r>    5.3418    1.0000 </r>
       <r>    8.9442    1.0000 </r>
       <r>    9.5648    1.0000 </r>
       <r>    9.5648    1.0000 </r>
       <r>   10.0287    1.0000 </r>
       <r>   10.0287    1.0000 </r>
       <r>   11.5499    1.0000 </r>
       <r>   11.5499    1.0000 </r>
       <r>   12.4962    1.0000 </r>
       <r>   13.5288    1.0000 </r>
       <r>   13.5288    1.0000 </r>
       <r>   19.4245    0.0000 </r>
       <r>   28.5829    0.0000 </r>
       <r>   29.3887    0.0000 </r>
       <r>   31.0074    0.0000 </r>
       <r>   36.2460    0.0000 </r>
       <r>   36.2460    0.0000 </r>
      </set>
      <set comment="kpoint 2">
       <r>  -39.4218    1.0000 </r>
       <r>  -39.1181    1.0000 </r>
       <r>  -39.0761    1.0000 </r>
       <r>  -39.0546    1.0000 </r>
       <r>  -39.0055    1.0000 </r>
       <r>  -38.8986    1.0000 </r>
       <r>    3.0017    1.0000 </r>
       <r>    5.7195    1.0000 </r>
       <r>    8.8592    1.0000 </r>
       <r>    9.5714    1.0000 </r>
       <r>    9.8383    1.0000 </r>
       <r>    9.8989    1.0000 </r>
       <r>   10.3477    1.0000 </r>
       <r>   10.7585    1.0000 </r>
       <r>   11.3321    1.0000 </r>
       <r>   11.4608    1.0000 </r>
       <r>   13.6148    1.0000 </r>
       <r>   15.3860    0.0000 </r>
       <r>   19.3667    0.0000 </r>
       <r>   29.2508    0.0000 </r>
       <r>   29.9932    0.0000 </r>
       <r>   31.6517    0.0000 </r>
       <r>   34.0763    0.0000 </r>
       <r>   34.3416    0.0000 </r>
      </set>
      <set comment="kpoint 3">
       <r>  -39.3673    1.0000 </r>
       <r>  -39.2727    1.0000 </r>
       <r>  -39.2100    1.0000 </r>
       <r>  -39.1196    1.0000 </r>
       <r>  -39.0367    1.0000 </r>
       <r>  -38.9131    1.0000 </r>
       <r>    4.1058    1.0000 </r>
       <r>    6.5242    1.0000 </r>
       <r>    8.5826    1.0000 </r>
       <r>    9.1200    1.0000 </r>
       <r>    9.2300    1.0000 </r>
       <r>   10.3354    1.0000 </r>
       <r>   10.8500    1.0000 </r>
       <r>   10.8524    1.0000 </r>
       <r>   10.8553    1.0000 </r>
       <r>   11.2480    1.0000 </r>
       <r>   13.7521    0.9042 </r>
       <r>   17.8384    0.0000 </r>
       <r>   19.2236    0.0000 </r>
       <r>   28.8490    0.0000 </r>
       <r>   30.6317    0.0000 </r>
       <r>   32.0486    0.0000 </r>
       <r>   32.3548    0.0000 </r>
       <r>   32.4407    0.0000 </r>
      </set>
      <set comment="kpoint 4">
       <r>  -39.4613    1.0000 </r>
       <r>  -39.3959    1.0000 </r>
       <r>  -39.2915    1.0000 </r>
       <r>  -39.1720    1.0000 </r>
       <r>  -39.0764    1.0000 </r>
       <r>  -38.9397    1.0000 </r>
       <r>    5.3884    1.0000 </r>
       <r>    6.5897    1.0000 </r>
       <r>    7.8474    1.0000 </r>
       <r>    8.9163    1.0000 </r>
       <r>    9.3673    1.0000 </r>
       <r>   10.2309    1.0000 </r>
       <r>   10.3699    1.0000 </r>
       <r>   11.7469    1.0000 </r>
       <r>   12.2327    1.0000 </r>
       <r>   12.5382    1.0000 </r>
       <r>   13.8263    0.2140 </r>
       <r>   19.2264    0.0000 </r>
       <r>   20.2833    0.0000 </r>
       <r>   25.1640    0.0000 </r>
       <r>   29.0803    0.0000 </r>
       <r>   29.4142    0.0000 </r>
       <r>   32.3389    0.0000 </r>
       <r>   32.6949    0.0000 </r>
      </set>
      <set comment="kpoint 5">
       <r>  -39.6128    1.0000 </r>
       <r>  -39.5418    1.0000 </r>
       <r>  -39.2151    1.0000 </r>
       <r>  -39.2139    1.0000 </r>
       <r>  -39.1087    1.0000 </r>
       <r>  -38.9766    1.0000 </r>
       <r>    5.9727    1.0000 </r>
       <r>    6.2255    1.0000 </r>
       <r>    7.0521    1.0000 </r>
       <r>    9.5521    1.0000 </r>
       <r>    9.7818    1.0000 </r>
       <r>   10.0278    1.0000 </r>
       <r>   10.3182    1.0000 </r>
       <r>   13.5992    1.0000 </r>
       <r>   13.8303    0.1822 </r>
       <r>   13.8431    0.1023 </r>
       <r>   13.9995    0.0000 </r>
       <r>   19.8755    0.0000 </r>
       <r>   21.3826    0.0000 </r>
       <r>   22.3638    0.0000 </r>
       <r>   27.2175    0.0000 </r>
       <r>   27.6355    0.0000 </r>
       <r>   27.8402    0.0000 </r>
       <r>   31.5397    0.0000 </r>
      </set>
      <set comment="kpoint 6">
       <r>  -39.6696    1.0000 </r>
       <r>  -39.5971    1.0000 </r>
       <r>  -39.2296    1.0000 </r>
       <r>  -39.1770    1.0000 </r>
       <r>  -39.1208    1.0000 </r>
       <r>  -38.9994    1.0000 </r>
       <r>    5.9434    1.0000 </r>
       <r>    6.1568    1.0000 </r>
       <r>    6.7814    1.0000 </r>
       <r>    9.6208    1.0000 </r>
       <r>    9.9060    1.0000 </r>
       <r>   10.1860    1.0000 </r>
       <r>   10.5219    1.0000 </r>
       <r>   13.8426    0.1051 </r>
       <r>   14.1893    0.0000 </r>
       <r>   14.4470    0.0000 </r>
       <r>   16.3542    0.0000 </r>
       <r>   18.0331    0.0000 </r>
       <r>   21.7934    0.0000 </r>
       <r>   23.3092    0.0000 </r>
       <r>   24.5608    0.0000 </r>
       <r>   26.2862    0.0000 </r>
       <r>   27.3370    0.0000 </r>
       <r>   30.9192    0.0000 </r>
      </set>
      <set comment="kpoint 7">
       <r>  -39.3847    1.0000 </r>
       <r>  -39.2140    1.0000 </r>
       <r>  -39.1743    1.0000 </r>
       <r>  -39.0964    1.0000 </r>
       <r>  -39.0360    1.0000 </r>
       <r>  -38.9081    1.0000 </r>
       <r>    3.7710    1.0000 </r>
       <r>    6.3737    1.0000 </r>
       <r>    8.5239    1.0000 </r>
       <r>    9.4737    1.0000 </r>
       <r>    9.6042    1.0000 </r>
       <r>    9.8379    1.0000 </r>
       <r>   10.5911    1.0000 </r>
       <r>   10.6093    1.0000 </r>
       <r>   11.0651    1.0000 </r>
       <r>   11.3944    1.0000 </r>
       <r>   13.6458    1.0000 </r>
       <r>   17.2011    0.0000 </r>
       <r>   19.2686    0.0000 </r>
       <r>   29.8100    0.0000 </r>
       <r>   31.0111    0.0000 </r>
       <r>   31.1090    0.0000 </r>
       <r>   32.1953    0.0000 </r>
       <r>   33.4466    0.0000 </r>
      </set>
      <set comment="kpoint 8">
       <r>  -39.3732    1.0000 </r>
       <r>  -39.3322    1.0000 </r>
       <r>  -39.3196    1.0000 </r>
       <r>  -39.1581    1.0000 </r>
       <r>  -39.0833    1.0000 </r>
       <r>  -38.9293    1.0000 </r>
       <r>    5.0618    1.0000 </r>
       <r>    7.0254    1.0000 </r>
       <r>    8.3218    1.0000 </r>
       <r>    8.3449    1.0000 </r>
       <r>    9.1530    1.0000 </r>
       <r>    9.9769    1.0000 </r>
       <r>   10.5884    1.0000 </r>
       <r>   10.9430    1.0000 </r>
       <r>   11.9040    1.0000 </r>
       <r>   12.4199    1.0000 </r>
       <r>   13.6515    1.0000 </r>
       <r>   19.2238    0.0000 </r>
       <r>   19.5405    0.0000 </r>
       <r>   27.0980    0.0000 </r>
       <r>   28.9339    0.0000 </r>
       <r>   30.2007    0.0000 </r>
       <r>   32.4615    0.0000 </r>
       <r>   33.7957    0.0000 </r>
      </set>
      <set comment="kpoint 9">
       <r>  -39.5375    1.0000 </r>
       <r>  -39.4783    1.0000 </r>
       <r>  -39.2413    1.0000 </r>
       <r>  -39.2209    1.0000 </r>
       <r>  -39.1285    1.0000 </r>
       <r>  -38.9626    1.0000 </r>
       <r>    6.1405    1.0000 </r>
       <r>    6.6950    1.0000 </r>
       <r>    7.4042    1.0000 </r>
       <r>    8.9452    1.0000 </r>
       <r>    9.6187    1.0000 </r>
       <r>    9.6982    1.0000 </r>
       <r>   10.3395    1.0000 </r>
       <r>   11.9400    1.0000 </r>
       <r>   13.2510    1.0000 </r>
       <r>   13.6385    1.0000 </r>
       <r>   14.1650    0.0000 </r>
       <r>   19.7414    0.0000 </r>
       <r>   21.8644    0.0000 </r>
       <r>   23.0916    0.0000 </r>
       <r>   26.6051    0.0000 </r>
       <r>   28.7748    0.0000 </r>
       <r>   30.3815    0.0000 </r>
       <r>   31.9338    0.0000 </r>
      </set>
      <set comment="kpoint 10">
       <r>  -39.6382    1.0000 </r>
       <r>  -39.5674    1.0000 </r>
       <r>  -39.2590    1.0000 </r>
       <r>  -39.1773    1.0000 </r>
       <r>  -39.1559    1.0000 </r>
       <r>  -38.9989    1.0000 </r>
       <r>    6.3020    1.0000 </r>
       <r>    6.4774    1.0000 </r>
       <r>    6.9105    1.0000 </r>
       <r>    9.5591    1.0000 </r>
       <r>    9.8461    1.0000 </r>
       <r>    9.8819    1.0000 </r>
       <r>   10.2841    1.0000 </r>
       <r>   13.4766    1.0000 </r>
       <r>   13.6176    1.0000 </r>
       <r>   13.9614    0.0000 </r>
       <r>   16.1321    0.0000 </r>
       <r>   19.4094    0.0000 </r>
       <r>   21.4904    0.0000 </r>
       <r>   23.5905    0.0000 </r>
       <r>   24.3781    0.0000 </r>
       <r>   26.9508    0.0000 </r>
       <r>   27.9165    0.0000 </r>
       <r>   30.8307    0.0000 </r>
      </set>
      <set comment="kpoint 11">
       <r>  -39.4669    1.0000 </r>
       <r>  -39.4626    1.0000 </r>
       <r>  -39.2510    1.0000 </r>
       <r>  -39.2294    1.0000 </r>
       <r>  -39.1642    1.0000 </r>
       <r>  -38.9579    1.0000 </r>
       <r>    6.3832    1.0000 </r>
       <r>    7.6492    1.0000 </r>
       <r>    7.7207    1.0000 </r>
       <r>    7.7749    1.0000 </r>
       <r>    9.3787    1.0000 </r>
       <r>    9.4274    1.0000 </r>
       <r>   10.5749    1.0000 </r>
       <r>   11.0266    1.0000 </r>
       <r>   13.2273    1.0000 </r>
       <r>   13.4213    1.0000 </r>
       <r>   14.2619    0.0000 </r>
       <r>   19.7665    0.0000 </r>
       <r>   21.7806    0.0000 </r>
       <r>   24.5287    0.0000 </r>
       <r>   25.3811    0.0000 </r>
       <r>   29.6651    0.0000 </r>
       <r>   31.9101    0.0000 </r>
       <r>   31.9973    0.0000 </r>
      </set>
      <set comment="kpoint 12">
       <r>  -39.5647    1.0000 </r>
       <r>  -39.5163    1.0000 </r>
       <r>  -39.3122    1.0000 </r>
       <r>  -39.2330    1.0000 </r>
       <r>  -39.1782    1.0000 </r>
       <r>  -38.9980    1.0000 </r>
       <r>    7.1513    1.0000 </r>
       <r>    7.1690    1.0000 </r>
       <r>    7.3035    1.0000 </r>
       <r>    8.7024    1.0000 </r>
       <r>    9.2076    1.0000 </r>
       <r>    9.9755    1.0000 </r>
       <r>   10.0809    1.0000 </r>
       <r>   12.0047    1.0000 </r>
       <r>   13.2473    1.0000 </r>
       <r>   13.7825    0.6722 </r>
       <r>   16.2412    0.0000 </r>
       <r>   20.7783    0.0000 </r>
       <r>   21.6962    0.0000 </r>
       <r>   23.1845    0.0000 </r>
       <r>   24.0428    0.0000 </r>
       <r>   28.8209    0.0000 </r>
       <r>   29.0926    0.0000 </r>
       <r>   30.6612    0.0000 </r>
      </set>
      <set comment="kpoint 13">
       <r>  -39.6002    1.0000 </r>
       <r>  -39.5291    1.0000 </r>
       <r>  -39.3520    1.0000 </r>
       <r>  -39.2583    1.0000 </r>
       <r>  -39.1368    1.0000 </r>
       <r>  -39.0266    1.0000 </r>
       <r>    6.9979    1.0000 </r>
       <r>    7.1106    1.0000 </r>
       <r>    7.2645    1.0000 </r>
       <r>    9.3760    1.0000 </r>
       <r>    9.3778    1.0000 </r>
       <r>    9.5169    1.0000 </r>
       <r>   10.4007    1.0000 </r>
       <r>   12.9512    1.0000 </r>
       <r>   13.1839    1.0000 </r>
       <r>   13.5483    1.0000 </r>
       <r>   17.8875    0.0000 </r>
       <r>   18.5958    0.0000 </r>
       <r>   21.8051    0.0000 </r>
       <r>   23.7576    0.0000 </r>
       <r>   25.2886    0.0000 </r>
       <r>   26.6377    0.0000 </r>
       <r>   28.7100    0.0000 </r>
       <r>   29.8580    0.0000 </r>
      </set>
      <set comment="kpoint 14">
       <r>  -39.5423    1.0000 </r>
       <r>  -39.4879    1.0000 </r>
       <r>  -39.4133    1.0000 </r>
       <r>  -39.3445    1.0000 </r>
       <r>  -39.1141    1.0000 </r>
       <r>  -39.0453    1.0000 </r>
       <r>    7.0997    1.0000 </r>
       <r>    7.7499    1.0000 </r>
       <r>    8.0336    1.0000 </r>
       <r>    8.5584    1.0000 </r>
       <r>    9.1537    1.0000 </r>
       <r>    9.4847    1.0000 </r>
       <r>   10.5154    1.0000 </r>
       <r>   12.4520    1.0000 </r>
       <r>   12.9722    1.0000 </r>
       <r>   13.3433    1.0000 </r>
       <r>   17.9766    0.0000 </r>
       <r>   19.2075    0.0000 </r>
       <r>   20.6259    0.0000 </r>
       <r>   24.8116    0.0000 </r>
       <r>   26.3693    0.0000 </r>
       <r>   27.7674    0.0000 </r>
       <r>   28.7944    0.0000 </r>
       <r>   28.9314    0.0000 </r>
      </set>
      <set comment="kpoint 15">
       <r>  -39.4208    1.0000 </r>
       <r>  -39.0566    1.0000 </r>
       <r>  -39.0566    1.0000 </r>
       <r>  -38.9966    1.0000 </r>
       <r>  -38.9966    1.0000 </r>
       <r>  -38.9159    1.0000 </r>
       <r>    2.7434    1.0000 </r>
       <r>    5.3338    1.0000 </r>
       <r>    8.9010    1.0000 </r>
       <r>    9.5405    1.0000 </r>
       <r>    9.5405    1.0000 </r>
       <r>    9.9795    1.0000 </r>
       <r>    9.9795    1.0000 </r>
       <r>   11.6733    1.0000 </r>
       <r>   11.6733    1.0000 </r>
       <r>   11.8723    1.0000 </r>
       <r>   13.4978    1.0000 </r>
       <r>   13.4978    1.0000 </r>
       <r>   20.2943    0.0000 </r>
       <r>   28.1226    0.0000 </r>
       <r>   30.0250    0.0000 </r>
       <r>   30.6778    0.0000 </r>
       <r>   35.1670    0.0000 </r>
       <r>   35.1670    0.0000 </r>
      </set>
      <set comment="kpoint 16">
       <r>  -39.4029    1.0000 </r>
       <r>  -39.1147    1.0000 </r>
       <r>  -39.0734    1.0000 </r>
       <r>  -39.0592    1.0000 </r>
       <r>  -39.0084    1.0000 </r>
       <r>  -38.9173    1.0000 </r>
       <r>    3.1515    1.0000 </r>
       <r>    5.7185    1.0000 </r>
       <r>    8.8623    1.0000 </r>
       <r>    9.4610    1.0000 </r>
       <r>    9.7025    1.0000 </r>
       <r>    9.8634    1.0000 </r>
       <r>   10.2926    1.0000 </r>
       <r>   10.6970    1.0000 </r>
       <r>   11.4782    1.0000 </r>
       <r>   11.4973    1.0000 </r>
       <r>   13.5693    1.0000 </r>
       <r>   14.8743    0.0000 </r>
       <r>   20.3489    0.0000 </r>
       <r>   28.8038    0.0000 </r>
       <r>   30.5903    0.0000 </r>
       <r>   31.2916    0.0000 </r>
       <r>   33.3898    0.0000 </r>
       <r>   34.3955    0.0000 </r>
      </set>
      <set comment="kpoint 17">
       <r>  -39.3613    1.0000 </r>
       <r>  -39.2601    1.0000 </r>
       <r>  -39.2151    1.0000 </r>
       <r>  -39.1166    1.0000 </r>
       <r>  -39.0402    1.0000 </r>
       <r>  -38.9274    1.0000 </r>
       <r>    4.2344    1.0000 </r>
       <r>    6.5478    1.0000 </r>
       <r>    8.6196    1.0000 </r>
       <r>    8.8415    1.0000 </r>
       <r>    9.2135    1.0000 </r>
       <r>   10.1835    1.0000 </r>
       <r>   10.6412    1.0000 </r>
       <r>   11.0759    1.0000 </r>
       <r>   11.1319    1.0000 </r>
       <r>   11.2964    1.0000 </r>
       <r>   13.6764    0.9997 </r>
       <r>   16.6758    0.0000 </r>
       <r>   20.6492    0.0000 </r>
       <r>   28.9180    0.0000 </r>
       <r>   30.4981    0.0000 </r>
       <r>   31.8066    0.0000 </r>
       <r>   32.2003    0.0000 </r>
       <r>   33.0147    0.0000 </r>
      </set>
      <set comment="kpoint 18">
       <r>  -39.4676    1.0000 </r>
       <r>  -39.4033    1.0000 </r>
       <r>  -39.2681    1.0000 </r>
       <r>  -39.1683    1.0000 </r>
       <r>  -39.0799    1.0000 </r>
       <r>  -38.9494    1.0000 </r>
       <r>    5.4320    1.0000 </r>
       <r>    6.6299    1.0000 </r>
       <r>    7.8446    1.0000 </r>
       <r>    8.6965    1.0000 </r>
       <r>    9.3971    1.0000 </r>
       <r>   10.3804    1.0000 </r>
       <r>   10.4462    1.0000 </r>
       <r>   11.8096    1.0000 </r>
       <r>   12.2595    1.0000 </r>
       <r>   12.4758    1.0000 </r>
       <r>   13.7369    0.9587 </r>
       <r>   17.9504    0.0000 </r>
       <r>   21.5218    0.0000 </r>
       <r>   25.4821    0.0000 </r>
       <r>   29.1291    0.0000 </r>
       <r>   29.6938    0.0000 </r>
       <r>   31.5312    0.0000 </r>
       <r>   33.2798    0.0000 </r>
      </set>
      <set comment="kpoint 19">
       <r>  -39.6154    1.0000 </r>
       <r>  -39.5489    1.0000 </r>
       <r>  -39.2097    1.0000 </r>
       <r>  -39.1997    1.0000 </r>
       <r>  -39.1126    1.0000 </r>
       <r>  -38.9811    1.0000 </r>
       <r>    5.8874    1.0000 </r>
       <r>    6.2123    1.0000 </r>
       <r>    7.2696    1.0000 </r>
       <r>    8.7585    1.0000 </r>
       <r>   10.0838    1.0000 </r>
       <r>   10.1320    1.0000 </r>
       <r>   10.9553    1.0000 </r>
       <r>   13.5015    1.0000 </r>
       <r>   13.6179    1.0000 </r>
       <r>   13.8953    0.0030 </r>
       <r>   13.9644    0.0000 </r>
       <r>   18.9238    0.0000 </r>
       <r>   21.4010    0.0000 </r>
       <r>   23.2681    0.0000 </r>
       <r>   27.2370    0.0000 </r>
       <r>   27.5494    0.0000 </r>
       <r>   28.3321    0.0000 </r>
       <r>   31.7001    0.0000 </r>
      </set>
      <set comment="kpoint 20">
       <r>  -39.6719    1.0000 </r>
       <r>  -39.6042    1.0000 </r>
       <r>  -39.2255    1.0000 </r>
       <r>  -39.1645    1.0000 </r>
       <r>  -39.1249    1.0000 </r>
       <r>  -39.0012    1.0000 </r>
       <r>    5.9307    1.0000 </r>
       <r>    5.9824    1.0000 </r>
       <r>    7.0857    1.0000 </r>
       <r>    8.8260    1.0000 </r>
       <r>   10.0164    1.0000 </r>
       <r>   10.2661    1.0000 </r>
       <r>   11.4691    1.0000 </r>
       <r>   13.6103    1.0000 </r>
       <r>   14.2146    0.0000 </r>
       <r>   14.4389    0.0000 </r>
       <r>   16.0407    0.0000 </r>
       <r>   17.8783    0.0000 </r>
       <r>   21.6994    0.0000 </r>
       <r>   22.5852    0.0000 </r>
       <r>   25.5408    0.0000 </r>
       <r>   26.6377    0.0000 </r>
       <r>   27.5075    0.0000 </r>
       <r>   31.1706    0.0000 </r>
      </set>
      <set comment="kpoint 21">
       <r>  -39.3718    1.0000 </r>
       <r>  -39.2072    1.0000 </r>
       <r>  -39.1774    1.0000 </r>
       <r>  -39.0961    1.0000 </r>
       <r>  -39.0385    1.0000 </r>
       <r>  -38.9233    1.0000 </r>
       <r>    3.9097    1.0000 </r>
       <r>    6.3893    1.0000 </r>
       <r>    8.5627    1.0000 </r>
       <r>    9.1049    1.0000 </r>
       <r>    9.5508    1.0000 </r>
       <r>    9.8175    1.0000 </r>
       <r>   10.5222    1.0000 </r>
       <r>   10.7845    1.0000 </r>
       <r>   11.1567    1.0000 </r>
       <r>   11.4918    1.0000 </r>
       <r>   13.5831    1.0000 </r>
       <r>   16.2590    0.0000 </r>
       <r>   20.5332    0.0000 </r>
       <r>   29.6372    0.0000 </r>
       <r>   31.1202    0.0000 </r>
       <r>   31.1624    0.0000 </r>
       <r>   31.7486    0.0000 </r>
       <r>   33.6678    0.0000 </r>
      </set>
      <set comment="kpoint 22">
       <r>  -39.3878    1.0000 </r>
       <r>  -39.3394    1.0000 </r>
       <r>  -39.2855    1.0000 </r>
       <r>  -39.1561    1.0000 </r>
       <r>  -39.0864    1.0000 </r>
       <r>  -38.9397    1.0000 </r>
       <r>    5.1564    1.0000 </r>
       <r>    7.0739    1.0000 </r>
       <r>    8.1470    1.0000 </r>
       <r>    8.4043    1.0000 </r>
       <r>    9.0966    1.0000 </r>
       <r>    9.8810    1.0000 </r>
       <r>   10.7515    1.0000 </r>
       <r>   10.9350    1.0000 </r>
       <r>   12.0410    1.0000 </r>
       <r>   12.3528    1.0000 </r>
       <r>   13.5877    1.0000 </r>
       <r>   17.6623    0.0000 </r>
       <r>   21.2281    0.0000 </r>
       <r>   27.2939    0.0000 </r>
       <r>   29.0641    0.0000 </r>
       <r>   30.2773    0.0000 </r>
       <r>   32.0686    0.0000 </r>
       <r>   34.2639    0.0000 </r>
      </set>
      <set comment="kpoint 23">
       <r>  -39.5413    1.0000 </r>
       <r>  -39.4854    1.0000 </r>
       <r>  -39.2304    1.0000 </r>
       <r>  -39.2120    1.0000 </r>
       <r>  -39.1324    1.0000 </r>
       <r>  -38.9683    1.0000 </r>
       <r>    6.0902    1.0000 </r>
       <r>    6.7383    1.0000 </r>
       <r>    7.5140    1.0000 </r>
       <r>    8.5800    1.0000 </r>
       <r>    9.6341    1.0000 </r>
       <r>   10.0762    1.0000 </r>
       <r>   10.3615    1.0000 </r>
       <r>   11.9569    1.0000 </r>
       <r>   13.3111    1.0000 </r>
       <r>   13.3876    1.0000 </r>
       <r>   14.2491    0.0000 </r>
       <r>   18.8323    0.0000 </r>
       <r>   22.1441    0.0000 </r>
       <r>   23.9139    0.0000 </r>
       <r>   26.7866    0.0000 </r>
       <r>   28.7677    0.0000 </r>
       <r>   30.1825    0.0000 </r>
       <r>   32.1979    0.0000 </r>
      </set>
      <set comment="kpoint 24">
       <r>  -39.6405    1.0000 </r>
       <r>  -39.5745    1.0000 </r>
       <r>  -39.2574    1.0000 </r>
       <r>  -39.1652    1.0000 </r>
       <r>  -39.1585    1.0000 </r>
       <r>  -38.9999    1.0000 </r>
       <r>    6.1980    1.0000 </r>
       <r>    6.3704    1.0000 </r>
       <r>    7.2667    1.0000 </r>
       <r>    8.7592    1.0000 </r>
       <r>    9.6975    1.0000 </r>
       <r>   10.4141    1.0000 </r>
       <r>   10.8675    1.0000 </r>
       <r>   13.3403    1.0000 </r>
       <r>   13.4836    1.0000 </r>
       <r>   14.0170    0.0000 </r>
       <r>   16.0648    0.0000 </r>
       <r>   19.1167    0.0000 </r>
       <r>   21.2285    0.0000 </r>
       <r>   23.5692    0.0000 </r>
       <r>   24.8333    0.0000 </r>
       <r>   27.2046    0.0000 </r>
       <r>   28.1551    0.0000 </r>
       <r>   30.9679    0.0000 </r>
      </set>
      <set comment="kpoint 25">
       <r>  -39.4709    1.0000 </r>
       <r>  -39.4692    1.0000 </r>
       <r>  -39.2332    1.0000 </r>
       <r>  -39.2294    1.0000 </r>
       <r>  -39.1651    1.0000 </r>
       <r>  -38.9636    1.0000 </r>
       <r>    6.4046    1.0000 </r>
       <r>    7.4696    1.0000 </r>
       <r>    7.7932    1.0000 </r>
       <r>    7.9188    1.0000 </r>
       <r>    9.3773    1.0000 </r>
       <r>    9.4330    1.0000 </r>
       <r>   10.4294    1.0000 </r>
       <r>   11.2053    1.0000 </r>
       <r>   13.1438    1.0000 </r>
       <r>   13.3695    1.0000 </r>
       <r>   14.3587    0.0000 </r>
       <r>   18.8834    0.0000 </r>
       <r>   22.3914    0.0000 </r>
       <r>   25.0690    0.0000 </r>
       <r>   25.5780    0.0000 </r>
       <r>   29.6520    0.0000 </r>
       <r>   31.0419    0.0000 </r>
       <r>   32.7504    0.0000 </r>
      </set>
      <set comment="kpoint 26">
       <r>  -39.5664    1.0000 </r>
       <r>  -39.5227    1.0000 </r>
       <r>  -39.3134    1.0000 </r>
       <r>  -39.2398    1.0000 </r>
       <r>  -39.1611    1.0000 </r>
       <r>  -38.9984    1.0000 </r>
       <r>    6.8813    1.0000 </r>
       <r>    7.3060    1.0000 </r>
       <r>    7.5253    1.0000 </r>
       <r>    8.4231    1.0000 </r>
       <r>    9.4047    1.0000 </r>
       <r>    9.8628    1.0000 </r>
       <r>   10.2386    1.0000 </r>
       <r>   12.0770    1.0000 </r>
       <r>   12.9838    1.0000 </r>
       <r>   13.9184    0.0003 </r>
       <r>   16.2943    0.0000 </r>
       <r>   20.8242    0.0000 </r>
       <r>   20.9603    0.0000 </r>
       <r>   23.3079    0.0000 </r>
       <r>   24.8870    0.0000 </r>
       <r>   28.3088    0.0000 </r>
       <r>   29.1782    0.0000 </r>
       <r>   30.9126    0.0000 </r>
      </set>
      <set comment="kpoint 27">
       <r>  -39.6019    1.0000 </r>
       <r>  -39.5364    1.0000 </r>
       <r>  -39.3530    1.0000 </r>
       <r>  -39.2648    1.0000 </r>
       <r>  -39.1243    1.0000 </r>
       <r>  -39.0241    1.0000 </r>
       <r>    6.7665    1.0000 </r>
       <r>    7.1659    1.0000 </r>
       <r>    7.6305    1.0000 </r>
       <r>    8.6845    1.0000 </r>
       <r>    9.2161    1.0000 </r>
       <r>   10.0977    1.0000 </r>
       <r>   10.5964    1.0000 </r>
       <r>   12.9099    1.0000 </r>
       <r>   12.9828    1.0000 </r>
       <r>   13.6460    1.0000 </r>
       <r>   17.9627    0.0000 </r>
       <r>   18.6250    0.0000 </r>
       <r>   22.0047    0.0000 </r>
       <r>   23.4546    0.0000 </r>
       <r>   24.4449    0.0000 </r>
       <r>   27.6737    0.0000 </r>
       <r>   28.8461    0.0000 </r>
       <r>   29.4728    0.0000 </r>
      </set>
      <set comment="kpoint 28">
       <r>  -39.5409    1.0000 </r>
       <r>  -39.4953    1.0000 </r>
       <r>  -39.4172    1.0000 </r>
       <r>  -39.3503    1.0000 </r>
       <r>  -39.1026    1.0000 </r>
       <r>  -39.0402    1.0000 </r>
       <r>    7.1515    1.0000 </r>
       <r>    7.7169    1.0000 </r>
       <r>    8.0579    1.0000 </r>
       <r>    8.3970    1.0000 </r>
       <r>    9.3324    1.0000 </r>
       <r>    9.3728    1.0000 </r>
       <r>   10.5240    1.0000 </r>
       <r>   12.5650    1.0000 </r>
       <r>   12.6978    1.0000 </r>
       <r>   13.4653    1.0000 </r>
       <r>   18.0867    0.0000 </r>
       <r>   19.3621    0.0000 </r>
       <r>   20.9412    0.0000 </r>
       <r>   23.8858    0.0000 </r>
       <r>   26.6786    0.0000 </r>
       <r>   26.6933    0.0000 </r>
       <r>   28.6970    0.0000 </r>
       <r>   29.9658    0.0000 </r>
      </set>
      <set comment="kpoint 29">
       <r>  -39.3630    1.0000 </r>
       <r>  -39.0494    1.0000 </r>
       <r>  -39.0494    1.0000 </r>
       <r>  -39.0041    1.0000 </r>
       <r>  -39.0041    1.0000 </r>
       <r>  -38.9775    1.0000 </r>
       <r>    3.1814    1.0000 </r>
       <r>    5.2692    1.0000 </r>
       <r>    8.8033    1.0000 </r>
       <r>    9.5026    1.0000 </r>
       <r>    9.5026    1.0000 </r>
       <r>    9.8534    1.0000 </r>
       <r>    9.8534    1.0000 </r>
       <r>   10.6357    1.0000 </r>
       <r>   11.9930    1.0000 </r>
       <r>   11.9930    1.0000 </r>
       <r>   13.3876    1.0000 </r>
       <r>   13.3876    1.0000 </r>
       <r>   22.2785    0.0000 </r>
       <r>   27.6720    0.0000 </r>
       <r>   29.9771    0.0000 </r>
       <r>   30.6762    0.0000 </r>
       <r>   34.4510    0.0000 </r>
       <r>   34.4510    0.0000 </r>
      </set>
      <set comment="kpoint 30">
       <r>  -39.3507    1.0000 </r>
       <r>  -39.1050    1.0000 </r>
       <r>  -39.0743    1.0000 </r>
       <r>  -39.0660    1.0000 </r>
       <r>  -39.0161    1.0000 </r>
       <r>  -38.9672    1.0000 </r>
       <r>    3.5808    1.0000 </r>
       <r>    5.6707    1.0000 </r>
       <r>    8.8394    1.0000 </r>
       <r>    9.2717    1.0000 </r>
       <r>    9.3603    1.0000 </r>
       <r>    9.8081    1.0000 </r>
       <r>   10.1591    1.0000 </r>
       <r>   10.2613    1.0000 </r>
       <r>   11.8383    1.0000 </r>
       <r>   11.8396    1.0000 </r>
       <r>   13.4192    1.0000 </r>
       <r>   14.1149    0.0000 </r>
       <r>   22.4021    0.0000 </r>
       <r>   28.3395    0.0000 </r>
       <r>   30.5715    0.0000 </r>
       <r>   31.1923    0.0000 </r>
       <r>   33.0945    0.0000 </r>
       <r>   34.1185    0.0000 </r>
      </set>
      <set comment="kpoint 31">
       <r>  -39.3435    1.0000 </r>
       <r>  -39.2388    1.0000 </r>
       <r>  -39.2155    1.0000 </r>
       <r>  -39.1079    1.0000 </r>
       <r>  -39.0495    1.0000 </r>
       <r>  -38.9672    1.0000 </r>
       <r>    4.6057    1.0000 </r>
       <r>    6.5623    1.0000 </r>
       <r>    8.3877    1.0000 </r>
       <r>    8.7581    1.0000 </r>
       <r>    8.9328    1.0000 </r>
       <r>    9.9489    1.0000 </r>
       <r>   10.5411    1.0000 </r>
       <r>   10.9933    1.0000 </r>
       <r>   11.6653    1.0000 </r>
       <r>   11.6828    1.0000 </r>
       <r>   13.4529    1.0000 </r>
       <r>   15.3103    0.0000 </r>
       <r>   22.7565    0.0000 </r>
       <r>   29.1005    0.0000 </r>
       <r>   30.2601    0.0000 </r>
       <r>   31.2181    0.0000 </r>
       <r>   32.6721    0.0000 </r>
       <r>   33.3747    0.0000 </r>
      </set>
      <set comment="kpoint 32">
       <r>  -39.4768    1.0000 </r>
       <r>  -39.4220    1.0000 </r>
       <r>  -39.2138    1.0000 </r>
       <r>  -39.1585    1.0000 </r>
       <r>  -39.0909    1.0000 </r>
       <r>  -38.9772    1.0000 </r>
       <r>    5.5746    1.0000 </r>
       <r>    6.6924    1.0000 </r>
       <r>    7.7379    1.0000 </r>
       <r>    8.3675    1.0000 </r>
       <r>    9.5432    1.0000 </r>
       <r>   10.5181    1.0000 </r>
       <r>   10.6663    1.0000 </r>
       <r>   12.0859    1.0000 </r>
       <r>   12.1680    1.0000 </r>
       <r>   12.4629    1.0000 </r>
       <r>   13.5043    1.0000 </r>
       <r>   16.3418    0.0000 </r>
       <r>   23.0428    0.0000 </r>
       <r>   26.3816    0.0000 </r>
       <r>   28.8127    0.0000 </r>
       <r>   30.4930    0.0000 </r>
       <r>   31.1460    0.0000 </r>
       <r>   32.4758    0.0000 </r>
      </set>
      <set comment="kpoint 33">
       <r>  -39.6202    1.0000 </r>
       <r>  -39.5676    1.0000 </r>
       <r>  -39.1984    1.0000 </r>
       <r>  -39.1607    1.0000 </r>
       <r>  -39.1239    1.0000 </r>
       <r>  -38.9958    1.0000 </r>
       <r>    5.7628    1.0000 </r>
       <r>    6.2589    1.0000 </r>
       <r>    7.5425    1.0000 </r>
       <r>    8.0004    1.0000 </r>
       <r>   10.4065    1.0000 </r>
       <r>   10.4376    1.0000 </r>
       <r>   11.9622    1.0000 </r>
       <r>   12.9451    1.0000 </r>
       <r>   13.6004    1.0000 </r>
       <r>   13.6680    0.9999 </r>
       <r>   13.9687    0.0000 </r>
       <r>   17.3034    0.0000 </r>
       <r>   21.7623    0.0000 </r>
       <r>   24.1646    0.0000 </r>
       <r>   27.0553    0.0000 </r>
       <r>   28.4672    0.0000 </r>
       <r>   29.0708    0.0000 </r>
       <r>   31.9096    0.0000 </r>
      </set>
      <set comment="kpoint 34">
       <r>  -39.6761    1.0000 </r>
       <r>  -39.6229    1.0000 </r>
       <r>  -39.2139    1.0000 </r>
       <r>  -39.1366    1.0000 </r>
       <r>  -39.1329    1.0000 </r>
       <r>  -39.0093    1.0000 </r>
       <r>    5.7098    1.0000 </r>
       <r>    6.0623    1.0000 </r>
       <r>    7.4325    1.0000 </r>
       <r>    7.9452    1.0000 </r>
       <r>   10.3406    1.0000 </r>
       <r>   10.6301    1.0000 </r>
       <r>   12.8222    1.0000 </r>
       <r>   13.0335    1.0000 </r>
       <r>   14.2518    0.0000 </r>
       <r>   14.4152    0.0000 </r>
       <r>   15.1682    0.0000 </r>
       <r>   17.3976    0.0000 </r>
       <r>   21.4986    0.0000 </r>
       <r>   21.8482    0.0000 </r>
       <r>   26.9305    0.0000 </r>
       <r>   27.5942    0.0000 </r>
       <r>   27.9352    0.0000 </r>
       <r>   31.8510    0.0000 </r>
      </set>
      <set comment="kpoint 35">
       <r>  -39.3366    1.0000 </r>
       <r>  -39.1887    1.0000 </r>
       <r>  -39.1862    1.0000 </r>
       <r>  -39.0936    1.0000 </r>
       <r>  -39.0466    1.0000 </r>
       <r>  -38.9652    1.0000 </r>
       <r>    4.3097    1.0000 </r>
       <r>    6.3820    1.0000 </r>
       <r>    8.6223    1.0000 </r>
       <r>    8.6829    1.0000 </r>
       <r>    9.0860    1.0000 </r>
       <r>    9.8175    1.0000 </r>
       <r>   10.3897    1.0000 </r>
       <r>   10.7538    1.0000 </r>
       <r>   11.6735    1.0000 </r>
       <r>   11.7690    1.0000 </r>
       <r>   13.3895    1.0000 </r>
       <r>   15.0354    0.0000 </r>
       <r>   22.6603    0.0000 </r>
       <r>   29.3021    0.0000 </r>
       <r>   31.1360    0.0000 </r>
       <r>   31.2814    0.0000 </r>
       <r>   31.4380    0.0000 </r>
       <r>   33.3368    0.0000 </r>
      </set>
      <set comment="kpoint 36">
       <r>  -39.4009    1.0000 </r>
       <r>  -39.3522    1.0000 </r>
       <r>  -39.2262    1.0000 </r>
       <r>  -39.1506    1.0000 </r>
       <r>  -39.0951    1.0000 </r>
       <r>  -38.9706    1.0000 </r>
       <r>    5.4315    1.0000 </r>
       <r>    7.1615    1.0000 </r>
       <r>    7.8108    1.0000 </r>
       <r>    8.5115    1.0000 </r>
       <r>    8.8943    1.0000 </r>
       <r>    9.7302    1.0000 </r>
       <r>   10.7036    1.0000 </r>
       <r>   11.4059    1.0000 </r>
       <r>   12.2159    1.0000 </r>
       <r>   12.3178    1.0000 </r>
       <r>   13.4099    1.0000 </r>
       <r>   16.1137    0.0000 </r>
       <r>   23.1401    0.0000 </r>
       <r>   27.8665    0.0000 </r>
       <r>   29.2731    0.0000 </r>
       <r>   30.4406    0.0000 </r>
       <r>   31.5691    0.0000 </r>
       <r>   32.7041    0.0000 </r>
      </set>
      <set comment="kpoint 37">
       <r>  -39.5475    1.0000 </r>
       <r>  -39.5022    1.0000 </r>
       <r>  -39.2168    1.0000 </r>
       <r>  -39.1759    1.0000 </r>
       <r>  -39.1400    1.0000 </r>
       <r>  -38.9857    1.0000 </r>
       <r>    6.0475    1.0000 </r>
       <r>    6.8162    1.0000 </r>
       <r>    7.5715    1.0000 </r>
       <r>    8.2328    1.0000 </r>
       <r>    9.6788    1.0000 </r>
       <r>   10.4238    1.0000 </r>
       <r>   10.6241    1.0000 </r>
       <r>   12.0867    1.0000 </r>
       <r>   12.7958    1.0000 </r>
       <r>   13.5891    1.0000 </r>
       <r>   14.2899    0.0000 </r>
       <r>   17.2501    0.0000 </r>
       <r>   22.7674    0.0000 </r>
       <r>   25.3685    0.0000 </r>
       <r>   27.0200    0.0000 </r>
       <r>   28.7525    0.0000 </r>
       <r>   30.2820    0.0000 </r>
       <r>   31.8859    0.0000 </r>
      </set>
      <set comment="kpoint 38">
       <r>  -39.6442    1.0000 </r>
       <r>  -39.5928    1.0000 </r>
       <r>  -39.2501    1.0000 </r>
       <r>  -39.1752    1.0000 </r>
       <r>  -39.1273    1.0000 </r>
       <r>  -39.0061    1.0000 </r>
       <r>    5.9892    1.0000 </r>
       <r>    6.4538    1.0000 </r>
       <r>    7.6594    1.0000 </r>
       <r>    7.9743    1.0000 </r>
       <r>    9.6942    1.0000 </r>
       <r>   10.9523    1.0000 </r>
       <r>   11.6804    1.0000 </r>
       <r>   12.7515    1.0000 </r>
       <r>   13.4174    1.0000 </r>
       <r>   14.1530    0.0000 </r>
       <r>   15.8938    0.0000 </r>
       <r>   18.2559    0.0000 </r>
       <r>   21.1293    0.0000 </r>
       <r>   23.1881    0.0000 </r>
       <r>   25.9469    0.0000 </r>
       <r>   27.8521    0.0000 </r>
       <r>   28.7379    0.0000 </r>
       <r>   30.9481    0.0000 </r>
      </set>
      <set comment="kpoint 39">
       <r>  -39.4856    1.0000 </r>
       <r>  -39.4762    1.0000 </r>
       <r>  -39.2290    1.0000 </r>
       <r>  -39.2037    1.0000 </r>
       <r>  -39.1558    1.0000 </r>
       <r>  -38.9815    1.0000 </r>
       <r>    6.4756    1.0000 </r>
       <r>    7.2628    1.0000 </r>
       <r>    7.8828    1.0000 </r>
       <r>    8.1458    1.0000 </r>
       <r>    9.3005    1.0000 </r>
       <r>    9.3678    1.0000 </r>
       <r>   10.2629    1.0000 </r>
       <r>   11.7295    1.0000 </r>
       <r>   12.5936    1.0000 </r>
       <r>   13.6604    1.0000 </r>
       <r>   14.4617    0.0000 </r>
       <r>   17.3517    0.0000 </r>
       <r>   23.4361    0.0000 </r>
       <r>   26.0750    0.0000 </r>
       <r>   26.3052    0.0000 </r>
       <r>   29.5671    0.0000 </r>
       <r>   30.0300    0.0000 </r>
       <r>   32.3252    0.0000 </r>
      </set>
      <set comment="kpoint 40">
       <r>  -39.5703    1.0000 </r>
       <r>  -39.5382    1.0000 </r>
       <r>  -39.3128    1.0000 </r>
       <r>  -39.2547    1.0000 </r>
       <r>  -39.1224    1.0000 </r>
       <r>  -39.0024    1.0000 </r>
       <r>    6.7077    1.0000 </r>
       <r>    7.4750    1.0000 </r>
       <r>    7.5051    1.0000 </r>
       <r>    8.4245    1.0000 </r>
       <r>    9.2159    1.0000 </r>
       <r>    9.9607    1.0000 </r>
       <r>   10.4922    1.0000 </r>
       <r>   12.2000    1.0000 </r>
       <r>   12.5441    1.0000 </r>
       <r>   14.1745    0.0000 </r>
       <r>   16.4123    0.0000 </r>
       <r>   19.3342    0.0000 </r>
       <r>   21.4877    0.0000 </r>
       <r>   23.8642    0.0000 </r>
       <r>   25.7068    0.0000 </r>
       <r>   27.9389    0.0000 </r>
       <r>   28.9126    0.0000 </r>
       <r>   31.1813    0.0000 </r>
      </set>
      <set comment="kpoint 41">
       <r>  -39.6036    1.0000 </r>
       <r>  -39.5547    1.0000 </r>
       <r>  -39.3512    1.0000 </r>
       <r>  -39.2804    1.0000 </r>
       <r>  -39.0945    1.0000 </r>
       <r>  -39.0195    1.0000 </r>
       <r>    6.5964    1.0000 </r>
       <r>    7.3072    1.0000 </r>
       <r>    7.9823    1.0000 </r>
       <r>    8.1985    1.0000 </r>
       <r>    8.9017    1.0000 </r>
       <r>   10.4767    1.0000 </r>
       <r>   10.9826    1.0000 </r>
       <r>   12.2774    1.0000 </r>
       <r>   13.1026    1.0000 </r>
       <r>   13.8405    0.1159 </r>
       <r>   18.1834    0.0000 </r>
       <r>   18.7098    0.0000 </r>
       <r>   22.0405    0.0000 </r>
       <r>   22.7230    0.0000 </r>
       <r>   24.0500    0.0000 </r>
       <r>   28.3774    0.0000 </r>
       <r>   29.0510    0.0000 </r>
       <r>   29.6102    0.0000 </r>
      </set>
      <set comment="kpoint 42">
       <r>  -39.5382    1.0000 </r>
       <r>  -39.5114    1.0000 </r>
       <r>  -39.4235    1.0000 </r>
       <r>  -39.3657    1.0000 </r>
       <r>  -39.0766    1.0000 </r>
       <r>  -39.0305    1.0000 </r>
       <r>    7.2550    1.0000 </r>
       <r>    7.5907    1.0000 </r>
       <r>    8.1519    1.0000 </r>
       <r>    8.2663    1.0000 </r>
       <r>    9.1673    1.0000 </r>
       <r>    9.5224    1.0000 </r>
       <r>   10.5450    1.0000 </r>
       <r>   12.0300    1.0000 </r>
       <r>   12.9005    1.0000 </r>
       <r>   13.6956    0.9982 </r>
       <r>   18.4064    0.0000 </r>
       <r>   19.8407    0.0000 </r>
       <r>   21.7306    0.0000 </r>
       <r>   22.4587    0.0000 </r>
       <r>   25.2248    0.0000 </r>
       <r>   26.1835    0.0000 </r>
       <r>   29.5969    0.0000 </r>
       <r>   31.2301    0.0000 </r>
      </set>
      <set comment="kpoint 43">
       <r>  -39.2765    1.0000 </r>
       <r>  -39.0676    1.0000 </r>
       <r>  -39.0388    1.0000 </r>
       <r>  -39.0388    1.0000 </r>
       <r>  -39.0140    1.0000 </r>
       <r>  -39.0140    1.0000 </r>
       <r>    3.8270    1.0000 </r>
       <r>    5.0323    1.0000 </r>
       <r>    8.7503    1.0000 </r>
       <r>    9.5058    1.0000 </r>
       <r>    9.5058    1.0000 </r>
       <r>    9.5404    1.0000 </r>
       <r>    9.7020    1.0000 </r>
       <r>    9.7020    1.0000 </r>
       <r>   12.4095    1.0000 </r>
       <r>   12.4095    1.0000 </r>
       <r>   13.1647    1.0000 </r>
       <r>   13.1647    1.0000 </r>
       <r>   24.6132    0.0000 </r>
       <r>   27.3796    0.0000 </r>
       <r>   29.3538    0.0000 </r>
       <r>   30.2658    0.0000 </r>
       <r>   34.3336    0.0000 </r>
       <r>   34.3336    0.0000 </r>
      </set>
      <set comment="kpoint 44">
       <r>  -39.2736    1.0000 </r>
       <r>  -39.1114    1.0000 </r>
       <r>  -39.0887    1.0000 </r>
       <r>  -39.0546    1.0000 </r>
       <r>  -39.0276    1.0000 </r>
       <r>  -39.0275    1.0000 </r>
       <r>    4.2200    1.0000 </r>
       <r>    5.4423    1.0000 </r>
       <r>    8.7171    1.0000 </r>
       <r>    8.9158    1.0000 </r>
       <r>    9.2666    1.0000 </r>
       <r>    9.7760    1.0000 </r>
       <r>    9.8026    1.0000 </r>
       <r>   10.0018    1.0000 </r>
       <r>   12.2970    1.0000 </r>
       <r>   12.3629    1.0000 </r>
       <r>   13.1458    1.0000 </r>
       <r>   13.4970    1.0000 </r>
       <r>   24.7436    0.0000 </r>
       <r>   27.9333    0.0000 </r>
       <r>   29.9748    0.0000 </r>
       <r>   30.7229    0.0000 </r>
       <r>   33.1209    0.0000 </r>
       <r>   34.1711    0.0000 </r>
      </set>
      <set comment="kpoint 45">
       <r>  -39.3180    1.0000 </r>
       <r>  -39.2597    1.0000 </r>
       <r>  -39.1628    1.0000 </r>
       <r>  -39.0945    1.0000 </r>
       <r>  -39.0627    1.0000 </r>
       <r>  -39.0264    1.0000 </r>
       <r>    5.1705    1.0000 </r>
       <r>    6.3635    1.0000 </r>
       <r>    8.1157    1.0000 </r>
       <r>    8.5453    1.0000 </r>
       <r>    8.9783    1.0000 </r>
       <r>    9.6320    1.0000 </r>
       <r>   10.5528    1.0000 </r>
       <r>   10.8207    1.0000 </r>
       <r>   12.1454    1.0000 </r>
       <r>   12.3853    1.0000 </r>
       <r>   13.0960    1.0000 </r>
       <r>   14.1739    0.0000 </r>
       <r>   24.9729    0.0000 </r>
       <r>   28.8254    0.0000 </r>
       <r>   30.0398    0.0000 </r>
       <r>   30.7079    0.0000 </r>
       <r>   32.3447    0.0000 </r>
       <r>   33.3580    0.0000 </r>
      </set>
      <set comment="kpoint 46">
       <r>  -39.4762    1.0000 </r>
       <r>  -39.4443    1.0000 </r>
       <r>  -39.1470    1.0000 </r>
       <r>  -39.1432    1.0000 </r>
       <r>  -39.1065    1.0000 </r>
       <r>  -39.0219    1.0000 </r>
       <r>    5.8345    1.0000 </r>
       <r>    6.5629    1.0000 </r>
       <r>    7.6668    1.0000 </r>
       <r>    8.1179    1.0000 </r>
       <r>    9.8307    1.0000 </r>
       <r>   10.4264    1.0000 </r>
       <r>   11.0049    1.0000 </r>
       <r>   11.8319    1.0000 </r>
       <r>   12.6468    1.0000 </r>
       <r>   12.6921    1.0000 </r>
       <r>   13.2052    1.0000 </r>
       <r>   14.8732    0.0000 </r>
       <r>   24.5247    0.0000 </r>
       <r>   27.2576    0.0000 </r>
       <r>   28.0869    0.0000 </r>
       <r>   30.4626    0.0000 </r>
       <r>   31.7109    0.0000 </r>
       <r>   32.4644    0.0000 </r>
      </set>
      <set comment="kpoint 47">
       <r>  -39.6196    1.0000 </r>
       <r>  -39.5900    1.0000 </r>
       <r>  -39.1816    1.0000 </r>
       <r>  -39.1414    1.0000 </r>
       <r>  -39.1111    1.0000 </r>
       <r>  -39.0228    1.0000 </r>
       <r>    5.7878    1.0000 </r>
       <r>    6.2089    1.0000 </r>
       <r>    7.4877    1.0000 </r>
       <r>    7.6817    1.0000 </r>
       <r>   10.9229    1.0000 </r>
       <r>   11.0771    1.0000 </r>
       <r>   12.2552    1.0000 </r>
       <r>   12.5539    1.0000 </r>
       <r>   13.4988    1.0000 </r>
       <r>   13.7430    0.9411 </r>
       <r>   13.9128    0.0006 </r>
       <r>   15.7492    0.0000 </r>
       <r>   22.3981    0.0000 </r>
       <r>   23.9710    0.0000 </r>
       <r>   27.6955    0.0000 </r>
       <r>   29.3381    0.0000 </r>
       <r>   29.7867    0.0000 </r>
       <r>   32.4472    0.0000 </r>
      </set>
      <set comment="kpoint 48">
       <r>  -39.6750    1.0000 </r>
       <r>  -39.6454    1.0000 </r>
       <r>  -39.1965    1.0000 </r>
       <r>  -39.1547    1.0000 </r>
       <r>  -39.0932    1.0000 </r>
       <r>  -39.0266    1.0000 </r>
       <r>    5.6884    1.0000 </r>
       <r>    6.0470    1.0000 </r>
       <r>    7.4421    1.0000 </r>
       <r>    7.4960    1.0000 </r>
       <r>   10.8575    1.0000 </r>
       <r>   11.4435    1.0000 </r>
       <r>   12.2893    1.0000 </r>
       <r>   13.9026    0.0016 </r>
       <r>   14.2339    0.0000 </r>
       <r>   14.2928    0.0000 </r>
       <r>   14.3798    0.0000 </r>
       <r>   16.5837    0.0000 </r>
       <r>   21.3374    0.0000 </r>
       <r>   21.4504    0.0000 </r>
       <r>   28.0281    0.0000 </r>
       <r>   28.3864    0.0000 </r>
       <r>   28.9340    0.0000 </r>
       <r>   31.7809    0.0000 </r>
      </set>
      <set comment="kpoint 49">
       <r>  -39.2902    1.0000 </r>
       <r>  -39.2111    1.0000 </r>
       <r>  -39.1490    1.0000 </r>
       <r>  -39.0872    1.0000 </r>
       <r>  -39.0581    1.0000 </r>
       <r>  -39.0248    1.0000 </r>
       <r>    4.9164    1.0000 </r>
       <r>    6.1655    1.0000 </r>
       <r>    8.2938    1.0000 </r>
       <r>    8.6477    1.0000 </r>
       <r>    8.8933    1.0000 </r>
       <r>    9.5377    1.0000 </r>
       <r>   10.3828    1.0000 </r>
       <r>   10.6072    1.0000 </r>
       <r>   12.1805    1.0000 </r>
       <r>   12.3729    1.0000 </r>
       <r>   13.0664    1.0000 </r>
       <r>   14.0234    0.0000 </r>
       <r>   24.9578    0.0000 </r>
       <r>   28.7082    0.0000 </r>
       <r>   30.7310    0.0000 </r>
       <r>   31.2011    0.0000 </r>
       <r>   31.6297    0.0000 </r>
       <r>   32.2117    0.0000 </r>
      </set>
      <set comment="kpoint 50">
       <r>  -39.4005    1.0000 </r>
       <r>  -39.3703    1.0000 </r>
       <r>  -39.1631    1.0000 </r>
       <r>  -39.1394    1.0000 </r>
       <r>  -39.1049    1.0000 </r>
       <r>  -39.0185    1.0000 </r>
       <r>    5.8595    1.0000 </r>
       <r>    6.9259    1.0000 </r>
       <r>    7.7726    1.0000 </r>
       <r>    8.4338    1.0000 </r>
       <r>    8.8416    1.0000 </r>
       <r>    9.4491    1.0000 </r>
       <r>   10.8816    1.0000 </r>
       <r>   11.5303    1.0000 </r>
       <r>   12.5541    1.0000 </r>
       <r>   12.6275    1.0000 </r>
       <r>   13.1575    1.0000 </r>
       <r>   14.7377    0.0000 </r>
       <r>   25.0930    0.0000 </r>
       <r>   28.5358    0.0000 </r>
       <r>   28.9121    0.0000 </r>
       <r>   30.6279    0.0000 </r>
       <r>   30.9552    0.0000 </r>
       <r>   31.5530    0.0000 </r>
      </set>
      <set comment="kpoint 51">
       <r>  -39.5483    1.0000 </r>
       <r>  -39.5226    1.0000 </r>
       <r>  -39.2017    1.0000 </r>
       <r>  -39.1663    1.0000 </r>
       <r>  -39.1119    1.0000 </r>
       <r>  -39.0166    1.0000 </r>
       <r>    6.1338    1.0000 </r>
       <r>    6.6898    1.0000 </r>
       <r>    7.5737    1.0000 </r>
       <r>    8.0685    1.0000 </r>
       <r>    9.9425    1.0000 </r>
       <r>   10.4589    1.0000 </r>
       <r>   10.9760    1.0000 </r>
       <r>   11.9216    1.0000 </r>
       <r>   12.8749    1.0000 </r>
       <r>   13.8424    0.1062 </r>
       <r>   14.2391    0.0000 </r>
       <r>   15.6984    0.0000 </r>
       <r>   23.6993    0.0000 </r>
       <r>   25.7959    0.0000 </r>
       <r>   27.5451    0.0000 </r>
       <r>   29.3392    0.0000 </r>
       <r>   30.2643    0.0000 </r>
       <r>   30.8033    0.0000 </r>
      </set>
      <set comment="kpoint 52">
       <r>  -39.6432    1.0000 </r>
       <r>  -39.6150    1.0000 </r>
       <r>  -39.2356    1.0000 </r>
       <r>  -39.1942    1.0000 </r>
       <r>  -39.0858    1.0000 </r>
       <r>  -39.0209    1.0000 </r>
       <r>    5.9810    1.0000 </r>
       <r>    6.4186    1.0000 </r>
       <r>    7.5217    1.0000 </r>
       <r>    7.7694    1.0000 </r>
       <r>   10.1035    1.0000 </r>
       <r>   11.5319    1.0000 </r>
       <r>   11.7303    1.0000 </r>
       <r>   12.4234    1.0000 </r>
       <r>   13.4480    1.0000 </r>
       <r>   14.1427    0.0000 </r>
       <r>   15.8838    0.0000 </r>
       <r>   17.2344    0.0000 </r>
       <r>   21.4101    0.0000 </r>
       <r>   22.5686    0.0000 </r>
       <r>   27.3353    0.0000 </r>
       <r>   28.5801    0.0000 </r>
       <r>   29.2075    0.0000 </r>
       <r>   30.1444    0.0000 </r>
      </set>
      <set comment="kpoint 53">
       <r>  -39.4945    1.0000 </r>
       <r>  -39.4855    1.0000 </r>
       <r>  -39.2244    1.0000 </r>
       <r>  -39.2040    1.0000 </r>
       <r>  -39.1103    1.0000 </r>
       <r>  -39.0128    1.0000 </r>
       <r>    6.6096    1.0000 </r>
       <r>    7.0373    1.0000 </r>
       <r>    8.0747    1.0000 </r>
       <r>    8.3225    1.0000 </r>
       <r>    9.1090    1.0000 </r>
       <r>    9.1271    1.0000 </r>
       <r>   10.4912    1.0000 </r>
       <r>   11.6825    1.0000 </r>
       <r>   12.8606    1.0000 </r>
       <r>   13.9049    0.0013 </r>
       <r>   14.4904    0.0000 </r>
       <r>   15.8115    0.0000 </r>
       <r>   24.7140    0.0000 </r>
       <r>   26.5264    0.0000 </r>
       <r>   27.6013    0.0000 </r>
       <r>   28.8966    0.0000 </r>
       <r>   29.4179    0.0000 </r>
       <r>   30.9103    0.0000 </r>
      </set>
      <set comment="kpoint 54">
       <r>  -39.5720    1.0000 </r>
       <r>  -39.5548    1.0000 </r>
       <r>  -39.3056    1.0000 </r>
       <r>  -39.2731    1.0000 </r>
       <r>  -39.0786    1.0000 </r>
       <r>  -39.0153    1.0000 </r>
       <r>    6.6910    1.0000 </r>
       <r>    7.1381    1.0000 </r>
       <r>    7.7796    1.0000 </r>
       <r>    8.4893    1.0000 </r>
       <r>    9.2336    1.0000 </r>
       <r>    9.9545    1.0000 </r>
       <r>   10.7031    1.0000 </r>
       <r>   11.5360    1.0000 </r>
       <r>   13.1375    1.0000 </r>
       <r>   14.2442    0.0000 </r>
       <r>   16.6082    0.0000 </r>
       <r>   17.9748    0.0000 </r>
       <r>   22.3257    0.0000 </r>
       <r>   24.0675    0.0000 </r>
       <r>   26.0036    0.0000 </r>
       <r>   27.6784    0.0000 </r>
       <r>   29.1066    0.0000 </r>
       <r>   30.8275    0.0000 </r>
      </set>
      <set comment="kpoint 55">
       <r>  -39.6021    1.0000 </r>
       <r>  -39.5760    1.0000 </r>
       <r>  -39.3409    1.0000 </r>
       <r>  -39.3014    1.0000 </r>
       <r>  -39.0610    1.0000 </r>
       <r>  -39.0212    1.0000 </r>
       <r>    6.6107    1.0000 </r>
       <r>    7.2065    1.0000 </r>
       <r>    7.7454    1.0000 </r>
       <r>    8.3911    1.0000 </r>
       <r>    9.0289    1.0000 </r>
       <r>   10.3852    1.0000 </r>
       <r>   11.3174    1.0000 </r>
       <r>   11.7265    1.0000 </r>
       <r>   13.3573    1.0000 </r>
       <r>   13.8967    0.0027 </r>
       <r>   18.5328    0.0000 </r>
       <r>   18.8195    0.0000 </r>
       <r>   21.5121    0.0000 </r>
       <r>   21.8952    0.0000 </r>
       <r>   24.8984    0.0000 </r>
       <r>   27.3393    0.0000 </r>
       <r>   30.0458    0.0000 </r>
       <r>   30.1301    0.0000 </r>
      </set>
      <set comment="kpoint 56">
       <r>  -39.5371    1.0000 </r>
       <r>  -39.5265    1.0000 </r>
       <r>  -39.4210    1.0000 </r>
       <r>  -39.3863    1.0000 </r>
       <r>  -39.0487    1.0000 </r>
       <r>  -39.0246    1.0000 </r>
       <r>    7.3153    1.0000 </r>
       <r>    7.4350    1.0000 </r>
       <r>    8.2836    1.0000 </r>
       <r>    8.3011    1.0000 </r>
       <r>    9.0980    1.0000 </r>
       <r>    9.5131    1.0000 </r>
       <r>   10.6156    1.0000 </r>
[...]
       </set>
       <set comment="band 12">
        <r>  0.0004  0.0003  0.0000  0.0001  0.0019  0.0408  0.0071  0.0395  0.0013 </r>
        <r>  0.0246  0.0176  0.0000  0.0065  0.1111  0.0007  0.4166  0.0007  0.0763 </r>
       </set>
       <set comment="band 13">
        <r>  0.0001  0.0000  0.0003  0.0000  0.0017  0.2024  0.0000  0.4991  0.0013 </r>
        <r>  0.0050  0.0013  0.0000  0.0005  0.0668  0.0052  0.0009  0.0128  0.0499 </r>
       </set>
       <set comment="band 14">
        <r>  0.0050  0.0013  0.0000  0.0005  0.0668  0.0052  0.0009  0.0128  0.0499 </r>
        <r>  0.0001  0.0000  0.0003  0.0000  0.0017  0.2024  0.0000  0.4991  0.0013 </r>
       </set>
       <set comment="band 15">
        <r>  0.0076  0.0003  0.0002  0.0001  0.1451  0.0127  0.3356  0.0089  0.0529 </r>
        <r>  0.0005  0.0000  0.0035  0.0000  0.0095  0.1948  0.0219  0.1368  0.0034 </r>
       </set>
       <set comment="band 16">
        <r>  0.0005  0.0000  0.0035  0.0000  0.0095  0.1948  0.0219  0.1368  0.0034 </r>
        <r>  0.0076  0.0003  0.0002  0.0001  0.1451  0.0127  0.3356  0.0089  0.0529 </r>
       </set>
       <set comment="band 17">
        <r>  0.0818  0.0272  0.0010  0.0093  0.3077  0.0078  0.0033  0.0030  0.1097 </r>
        <r>  0.0060  0.0020  0.0134  0.0007  0.0226  0.1064  0.0002  0.0408  0.0080 </r>
       </set>
       <set comment="band 18">
        <r>  0.0060  0.0020  0.0134  0.0007  0.0226  0.1064  0.0002  0.0408  0.0080 </r>
        <r>  0.0818  0.0272  0.0010  0.0093  0.3077  0.0078  0.0033  0.0030  0.1097 </r>
       </set>
       <set comment="band 19">
        <r>  0.2351  0.0429  0.0052  0.0151  0.0106  0.0030  0.0060  0.0073  0.0038 </r>
        <r>  0.0348  0.0064  0.0353  0.0022  0.0016  0.0200  0.0009  0.0495  0.0006 </r>
       </set>
       <set comment="band 20">
        <r>  0.0348  0.0064  0.0353  0.0022  0.0016  0.0200  0.0009  0.0495  0.0006 </r>
        <r>  0.2351  0.0429  0.0052  0.0151  0.0106  0.0030  0.0060  0.0073  0.0038 </r>
       </set>
       <set comment="band 21">
        <r>  0.0006  0.0385  0.0238  0.0535  0.0249  0.0023  0.0431  0.0047  0.0746 </r>
        <r>  0.0002  0.0127  0.0723  0.0176  0.0082  0.0069  0.0142  0.0143  0.0245 </r>
       </set>
       <set comment="band 22">
        <r>  0.0002  0.0127  0.0723  0.0176  0.0082  0.0069  0.0142  0.0143  0.0245 </r>
        <r>  0.0006  0.0385  0.0238  0.0535  0.0249  0.0023  0.0431  0.0047  0.0746 </r>
       </set>
       <set comment="band 23">
        <r>  0.0009  0.0492  0.0031  0.0349  0.0181  0.0093  0.0480  0.0036  0.0525 </r>
        <r>  0.0001  0.0066  0.0235  0.0047  0.0024  0.0697  0.0064  0.0270  0.0070 </r>
       </set>
       <set comment="band 24">
        <r>  0.0001  0.0066  0.0235  0.0047  0.0024  0.0697  0.0064  0.0270  0.0070 </r>
        <r>  0.0009  0.0492  0.0031  0.0349  0.0181  0.0093  0.0480  0.0036  0.0525 </r>
       </set>
      </set>
      <set comment="kpoint 68">
       <set comment="band 1">
        <r>  0.0001  0.4713  0.0005  0.4414  0.0000  0.0000  0.0000  0.0000  0.0000 </r>
        <r>  0.0000  0.0039  0.0614  0.0036  0.0000  0.0000  0.0000  0.0000  0.0000 </r>
       </set>
       <set comment="band 2">
        <r>  0.0000  0.0039  0.0614  0.0036  0.0000  0.0000  0.0000  0.0000  0.0000 </r>
        <r>  0.0001  0.4713  0.0005  0.4414  0.0000  0.0000  0.0000  0.0000  0.0000 </r>
       </set>
       <set comment="band 3">
        <r>  0.0000  0.4515  0.0003  0.4826  0.0001  0.0000  0.0000  0.0000  0.0001 </r>
        <r>  0.0000  0.0023  0.0513  0.0024  0.0000  0.0000  0.0000  0.0000  0.0000 </r>
       </set>
       <set comment="band 4">
        <r>  0.0000  0.0023  0.0513  0.0024  0.0000  0.0000  0.0000  0.0000  0.0000 </r>
        <r>  0.0000  0.4515  0.0003  0.4826  0.0001  0.0000  0.0000  0.0000  0.0001 </r>
       </set>
       <set comment="band 5">
        <r>  0.0000  0.0000  0.8770  0.0000  0.0000  0.0000  0.0000  0.0000  0.0000 </r>
        <r>  0.0000  0.0583  0.0004  0.0574  0.0000  0.0000  0.0000  0.0000  0.0000 </r>
       </set>
       <set comment="band 6">
        <r>  0.0000  0.0583  0.0004  0.0574  0.0000  0.0000  0.0000  0.0000  0.0000 </r>
        <r>  0.0000  0.0000  0.8770  0.0000  0.0000  0.0000  0.0000  0.0000  0.0000 </r>
       </set>
       <set comment="band 7">
        <r>  0.0515  0.0049  0.0008  0.0019  0.0658  0.0522  0.0462  0.0479  0.0295 </r>
        <r>  0.0180  0.0017  0.0022  0.0007  0.0229  0.1498  0.0161  0.1373  0.0103 </r>
       </set>
       <set comment="band 8">
        <r>  0.0180  0.0017  0.0022  0.0007  0.0229  0.1498  0.0161  0.1373  0.0103 </r>
        <r>  0.0515  0.0049  0.0008  0.0019  0.0658  0.0522  0.0462  0.0479  0.0295 </r>
       </set>
       <set comment="band 9">
        <r>  0.0002  0.0002  0.0034  0.0001  0.0051  0.0665  0.0024  0.0332  0.0039 </r>
        <r>  0.0091  0.0093  0.0001  0.0057  0.2693  0.0013  0.1272  0.0006  0.2089 </r>
       </set>
       <set comment="band 10">
        <r>  0.0091  0.0093  0.0001  0.0057  0.2693  0.0013  0.1272  0.0006  0.2089 </r>
        <r>  0.0002  0.0002  0.0034  0.0001  0.0051  0.0665  0.0024  0.0332  0.0039 </r>
       </set>
       <set comment="band 11">
        <r>  0.0008  0.0006  0.0053  0.0011  0.0026  0.0998  0.0060  0.1536  0.0070 </r>
        <r>  0.0174  0.0135  0.0002  0.0241  0.0571  0.0046  0.1308  0.0071  0.1527 </r>
       </set>
       <set comment="band 12">
        <r>  0.0174  0.0135  0.0002  0.0241  0.0571  0.0046  0.1308  0.0071  0.1527 </r>
        <r>  0.0008  0.0006  0.0053  0.0011  0.0026  0.0998  0.0060  0.1536  0.0070 </r>
       </set>
       <set comment="band 13">
        <r>  0.0120  0.0017  0.0002  0.0044  0.0545  0.0615  0.0283  0.0763  0.1558 </r>
        <r>  0.0051  0.0007  0.0004  0.0019  0.0229  0.1463  0.0119  0.1813  0.0655 </r>
       </set>
       <set comment="band 14">
        <r>  0.0051  0.0007  0.0004  0.0019  0.0229  0.1463  0.0119  0.1813  0.0655 </r>
        <r>  0.0120  0.0017  0.0002  0.0044  0.0545  0.0615  0.0283  0.0763  0.1558 </r>
       </set>
       <set comment="band 15">
        <r>  0.0037  0.0020  0.0006  0.0006  0.0693  0.0345  0.3936  0.0243  0.0296 </r>
        <r>  0.0009  0.0005  0.0026  0.0001  0.0161  0.1483  0.0917  0.1043  0.0069 </r>
       </set>
       <set comment="band 16">
        <r>  0.0009  0.0005  0.0026  0.0001  0.0161  0.1483  0.0917  0.1043  0.0069 </r>
        <r>  0.0037  0.0020  0.0006  0.0006  0.0693  0.0345  0.3936  0.0243  0.0296 </r>
       </set>
       <set comment="band 17">
        <r>  0.0041  0.0017  0.0227  0.0012  0.0123  0.0542  0.0003  0.0194  0.0060 </r>
        <r>  0.0882  0.0377  0.0011  0.0262  0.2662  0.0025  0.0074  0.0009  0.1307 </r>
       </set>
       <set comment="band 18">
        <r>  0.0882  0.0377  0.0011  0.0262  0.2662  0.0025  0.0074  0.0009  0.1307 </r>
        <r>  0.0041  0.0017  0.0227  0.0012  0.0123  0.0542  0.0003  0.0194  0.0060 </r>
       </set>
       <set comment="band 19">
        <r>  0.3010  0.0250  0.0011  0.0386  0.0200  0.0012  0.0235  0.0069  0.0240 </r>
        <r>  0.0234  0.0019  0.0143  0.0030  0.0016  0.0156  0.0018  0.0884  0.0019 </r>
       </set>
       <set comment="band 20">
        <r>  0.0234  0.0019  0.0143  0.0030  0.0016  0.0156  0.0018  0.0884  0.0019 </r>
        <r>  0.3010  0.0250  0.0011  0.0386  0.0200  0.0012  0.0235  0.0069  0.0240 </r>
       </set>
       <set comment="band 21">
        <r>  0.0019  0.0069  0.0500  0.0050  0.0043  0.0459  0.0006  0.0144  0.0095 </r>
        <r>  0.0213  0.0759  0.0046  0.0544  0.0472  0.0042  0.0069  0.0013  0.1042 </r>
       </set>
       <set comment="band 22">
        <r>  0.0213  0.0759  0.0046  0.0544  0.0472  0.0042  0.0069  0.0013  0.1042 </r>
        <r>  0.0019  0.0069  0.0500  0.0050  0.0043  0.0459  0.0006  0.0144  0.0095 </r>
       </set>
       <set comment="band 23">
        <r>  0.0002  0.0013  0.0779  0.0010  0.0004  0.0457  0.0007  0.0308  0.0007 </r>
        <r>  0.0044  0.0361  0.0027  0.0283  0.0126  0.0016  0.0207  0.0011  0.0196 </r>
       </set>
       <set comment="band 24">
        <r>  0.0044  0.0361  0.0027  0.0283  0.0126  0.0016  0.0207  0.0011  0.0196 </r>
        <r>  0.0002  0.0013  0.0779  0.0010  0.0004  0.0457  0.0007  0.0308  0.0007 </r>
       </set>
      </set>
      <set comment="kpoint 69">
       <set comment="band 1">
        <r>  0.0000  0.2323  0.0002  0.6897  0.0000  0.0000  0.0000  0.0000  0.0001 </r>
        <r>  0.0000  0.0007  0.0566  0.0021  0.0000  0.0000  0.0000  0.0000  0.0000 </r>
       </set>
       <set comment="band 2">
        <r>  0.0000  0.0007  0.0566  0.0021  0.0000  0.0000  0.0000  0.0000  0.0000 </r>
        <r>  0.0000  0.2323  0.0002  0.6897  0.0000  0.0000  0.0000  0.0000  0.0001 </r>
       </set>
       <set comment="band 3">
        <r>  0.0000  0.6984  0.0001  0.2414  0.0001  0.0000  0.0000  0.0000  0.0000 </r>
        <r>  0.0000  0.0021  0.0467  0.0007  0.0000  0.0000  0.0000  0.0000  0.0000 </r>
       </set>
       <set comment="band 4">
        <r>  0.0000  0.0021  0.0467  0.0007  0.0000  0.0000  0.0000  0.0000  0.0000 </r>
        <r>  0.0000  0.6984  0.0001  0.2414  0.0001  0.0000  0.0000  0.0000  0.0000 </r>
       </set>
       <set comment="band 5">
        <r>  0.0000  0.0008  0.8752  0.0007  0.0000  0.0000  0.0000  0.0000  0.0000 </r>
        <r>  0.0000  0.0542  0.0124  0.0501  0.0000  0.0000  0.0000  0.0000  0.0000 </r>
       </set>
       <set comment="band 6">
        <r>  0.0000  0.0542  0.0124  0.0501  0.0000  0.0000  0.0000  0.0000  0.0000 </r>
        <r>  0.0000  0.0008  0.8752  0.0007  0.0000  0.0000  0.0000  0.0000  0.0000 </r>
       </set>
       <set comment="band 7">
        <r>  0.0464  0.0045  0.0003  0.0024  0.0941  0.0247  0.0398  0.0716  0.0324 </r>
        <r>  0.0160  0.0015  0.0007  0.0008  0.0324  0.0716  0.0137  0.2078  0.0112 </r>
       </set>
       <set comment="band 8">
        <r>  0.0160  0.0015  0.0007  0.0008  0.0324  0.0716  0.0137  0.2078  0.0112 </r>
        <r>  0.0464  0.0045  0.0003  0.0024  0.0941  0.0247  0.0398  0.0716  0.0324 </r>
       </set>
       <set comment="band 9">
        <r>  0.0000  0.0062  0.0004  0.0023  0.1850  0.0283  0.1103  0.0303  0.0623 </r>
        <r>  0.0000  0.0041  0.0006  0.0015  0.1233  0.0424  0.0735  0.0455  0.0415 </r>
       </set>
       <set comment="band 10">
        <r>  0.0000  0.0041  0.0006  0.0015  0.1233  0.0424  0.0735  0.0455  0.0415 </r>
        <r>  0.0000  0.0062  0.0004  0.0023  0.1850  0.0283  0.1103  0.0303  0.0623 </r>
       </set>
       <set comment="band 11">
        <r>  0.0002  0.0001  0.0062  0.0004  0.0012  0.3271  0.0003  0.1496  0.0017 </r>
        <r>  0.0123  0.0071  0.0001  0.0212  0.0599  0.0064  0.0174  0.0029  0.0864 </r>
       </set>
       <set comment="band 12">
        <r>  0.0123  0.0071  0.0001  0.0212  0.0599  0.0064  0.0174  0.0029  0.0864 </r>
        <r>  0.0002  0.0001  0.0062  0.0004  0.0012  0.3271  0.0003  0.1496  0.0017 </r>
       </set>
       <set comment="band 13">
        <r>  0.0004  0.0075  0.0002  0.0219  0.1291  0.0112  0.0068  0.0056  0.3568 </r>
        <r>  0.0000  0.0006  0.0029  0.0018  0.0104  0.1392  0.0005  0.0695  0.0286 </r>
       </set>
       <set comment="band 14">
        <r>  0.0000  0.0006  0.0029  0.0018  0.0104  0.1392  0.0005  0.0695  0.0286 </r>
        <r>  0.0004  0.0075  0.0002  0.0219  0.1291  0.0112  0.0068  0.0056  0.3568 </r>
       </set>
       <set comment="band 15">
        <r>  0.0000  0.0009  0.0000  0.0003  0.0321  0.0001  0.5994  0.0001  0.0262 </r>
        <r>  0.0000  0.0000  0.0011  0.0000  0.0000  0.1210  0.0004  0.1559  0.0000 </r>
       </set>
       <set comment="band 16">
        <r>  0.0000  0.0000  0.0011  0.0000  0.0000  0.1210  0.0004  0.1559  0.0000 </r>
        <r>  0.0000  0.0009  0.0000  0.0003  0.0321  0.0001  0.5994  0.0001  0.0262 </r>
       </set>
       <set comment="band 17">
        <r>  0.0007  0.0008  0.0411  0.0022  0.0026  0.0229  0.0004  0.0132  0.0061 </r>
        <r>  0.0258  0.0278  0.0011  0.0792  0.0960  0.0006  0.0156  0.0004  0.2208 </r>
       </set>
       <set comment="band 18">
        <r>  0.0258  0.0278  0.0011  0.0792  0.0960  0.0006  0.0156  0.0004  0.2208 </r>
        <r>  0.0007  0.0008  0.0411  0.0022  0.0026  0.0229  0.0004  0.0132  0.0061 </r>
       </set>
       <set comment="band 19">
        <r>  0.2032  0.0027  0.0003  0.0075  0.0344  0.0254  0.0100  0.0544  0.0193 </r>
        <r>  0.2176  0.0029  0.0003  0.0081  0.0368  0.0237  0.0108  0.0508  0.0207 </r>
       </set>
       <set comment="band 20">
        <r>  0.2176  0.0029  0.0003  0.0081  0.0368  0.0237  0.0108  0.0508  0.0207 </r>
        <r>  0.2032  0.0027  0.0003  0.0075  0.0344  0.0254  0.0100  0.0544  0.0193 </r>
       </set>
       <set comment="band 21">
        <r>  0.0212  0.0660  0.0154  0.0257  0.0607  0.0236  0.0005  0.0096  0.0225 </r>
        <r>  0.0145  0.0451  0.0225  0.0175  0.0414  0.0346  0.0003  0.0141  0.0154 </r>
       </set>
       <set comment="band 22">
        <r>  0.0145  0.0451  0.0225  0.0175  0.0414  0.0346  0.0003  0.0141  0.0154 </r>
        <r>  0.0212  0.0660  0.0154  0.0257  0.0607  0.0236  0.0005  0.0096  0.0225 </r>
       </set>
       <set comment="band 23">
        <r>  0.0018  0.0043  0.0683  0.0110  0.0047  0.0217  0.0017  0.0264  0.0047 </r>
        <r>  0.0056  0.0137  0.0216  0.0349  0.0147  0.0069  0.0055  0.0084  0.0147 </r>
       </set>
       <set comment="band 24">
        <r>  0.0056  0.0137  0.0216  0.0349  0.0147  0.0069  0.0055  0.0084  0.0147 </r>
        <r>  0.0018  0.0043  0.0683  0.0110  0.0047  0.0217  0.0017  0.0264  0.0047 </r>
       </set>
      </set>
      <set comment="kpoint 70">
       <set comment="band 1">
        <r>  0.0000  0.6690  0.0003  0.2410  0.0001  0.0000  0.0000  0.0000  0.0000 </r>
        <r>  0.0000  0.0031  0.0686  0.0011  0.0000  0.0000  0.0000  0.0000  0.0000 </r>
       </set>
       <set comment="band 2">
        <r>  0.0000  0.0031  0.0686  0.0011  0.0000  0.0000  0.0000  0.0000  0.0000 </r>
        <r>  0.0000  0.6690  0.0003  0.2410  0.0001  0.0000  0.0000  0.0000  0.0000 </r>
       </set>
       <set comment="band 3">
        <r>  0.0000  0.2551  0.0009  0.6733  0.0001  0.0000  0.0000  0.0000  0.0002 </r>
        <r>  0.0000  0.0071  0.0321  0.0186  0.0000  0.0000  0.0000  0.0000  0.0000 </r>
       </set>
       <set comment="band 4">
        <r>  0.0000  0.0071  0.0321  0.0186  0.0000  0.0000  0.0000  0.0000  0.0000 </r>
        <r>  0.0000  0.2551  0.0009  0.6733  0.0001  0.0000  0.0000  0.0000  0.0002 </r>
       </set>
       <set comment="band 5">
        <r>  0.0000  0.0009  0.8731  0.0010  0.0000  0.0000  0.0000  0.0000  0.0000 </r>
        <r>  0.0000  0.0502  0.0162  0.0521  0.0000  0.0000  0.0000  0.0000  0.0000 </r>
       </set>
       <set comment="band 6">
        <r>  0.0000  0.0502  0.0162  0.0521  0.0000  0.0000  0.0000  0.0000  0.0000 </r>
        <r>  0.0000  0.0009  0.8731  0.0010  0.0000  0.0000  0.0000  0.0000  0.0000 </r>
       </set>
       <set comment="band 7">
        <r>  0.0498  0.0026  0.0000  0.0028  0.0148  0.0062  0.1470  0.0027  0.0207 </r>
        <r>  0.0010  0.0001  0.0004  0.0001  0.0003  0.3163  0.0029  0.1361  0.0004 </r>
       </set>
       <set comment="band 8">
        <r>  0.0010  0.0001  0.0004  0.0001  0.0003  0.3163  0.0029  0.1361  0.0004 </r>
        <r>  0.0498  0.0026  0.0000  0.0028  0.0148  0.0062  0.1470  0.0027  0.0207 </r>
       </set>
       <set comment="band 9">
        <r>  0.0050  0.0090  0.0000  0.0180  0.0829  0.0039  0.0481  0.0104  0.2199 </r>
        <r>  0.0003  0.0005  0.0008  0.0009  0.0044  0.0741  0.0025  0.1973  0.0116 </r>
       </set>
       <set comment="band 10">
        <r>  0.0003  0.0005  0.0008  0.0009  0.0044  0.0741  0.0025  0.1973  0.0116 </r>
        <r>  0.0050  0.0090  0.0000  0.0180  0.0829  0.0039  0.0481  0.0104  0.2199 </r>
       </set>
       <set comment="band 11">
        <r>  0.0000  0.0003  0.0078  0.0002  0.0027  0.0389  0.0003  0.0703  0.0026 </r>
        <r>  0.0024  0.0265  0.0001  0.0145  0.2538  0.0004  0.0265  0.0007  0.2442 </r>
       </set>
       <set comment="band 12">
        <r>  0.0024  0.0265  0.0001  0.0145  0.2538  0.0004  0.0265  0.0007  0.2442 </r>
        <r>  0.0000  0.0003  0.0078  0.0002  0.0027  0.0389  0.0003  0.0703  0.0026 </r>
       </set>
       <set comment="band 13">
        <r>  0.0063  0.0073  0.0000  0.0029  0.2678  0.0011  0.0139  0.0016  0.1679 </r>
        <r>  0.0000  0.0001  0.0003  0.0000  0.0020  0.1499  0.0001  0.2108  0.0013 </r>
       </set>
       <set comment="band 14">
        <r>  0.0000  0.0001  0.0003  0.0000  0.0020  0.1499  0.0001  0.2108  0.0013 </r>
        <r>  0.0063  0.0073  0.0000  0.0029  0.2678  0.0011  0.0139  0.0016  0.1679 </r>
       </set>
       <set comment="band 15">
        <r>  0.0009  0.0008  0.0001  0.0003  0.0181  0.0231  0.5365  0.0190  0.0070 </r>
        <r>  0.0002  0.0001  0.0005  0.0000  0.0034  0.1241  0.0997  0.1022  0.0013 </r>
       </set>
       <set comment="band 16">
        <r>  0.0002  0.0001  0.0005  0.0000  0.0034  0.1241  0.0997  0.1022  0.0013 </r>
        <r>  0.0009  0.0008  0.0001  0.0003  0.0181  0.0231  0.5365  0.0190  0.0070 </r>
       </set>
       <set comment="band 17">
        <r>  0.0094  0.0043  0.0398  0.0018  0.0158  0.0421  0.0005  0.0148  0.0065 </r>
        <r>  0.1136  0.0520  0.0033  0.0211  0.1912  0.0035  0.0060  0.0012  0.0790 </r>
       </set>
       <set comment="band 18">
        <r>  0.1136  0.0520  0.0033  0.0211  0.1912  0.0035  0.0060  0.0012  0.0790 </r>
        <r>  0.0094  0.0043  0.0398  0.0018  0.0158  0.0421  0.0005  0.0148  0.0065 </r>
       </set>
       <set comment="band 19">
        <r>  0.0426  0.0036  0.0147  0.0016  0.0019  0.0505  0.0015  0.0697  0.0015 </r>
        <r>  0.3336  0.0280  0.0019  0.0124  0.0145  0.0064  0.0120  0.0089  0.0119 </r>
       </set>
       <set comment="band 20">
        <r>  0.3336  0.0280  0.0019  0.0124  0.0145  0.0064  0.0120  0.0089  0.0119 </r>
        <r>  0.0426  0.0036  0.0147  0.0016  0.0019  0.0505  0.0015  0.0697  0.0015 </r>
       </set>
       <set comment="band 21">
        <r>  0.0000  0.0036  0.0203  0.0069  0.0053  0.0447  0.0001  0.0487  0.0118 </r>
        <r>  0.0003  0.0494  0.0015  0.0940  0.0712  0.0033  0.0013  0.0036  0.1593 </r>
       </set>
       <set comment="band 22">
        <r>  0.0003  0.0494  0.0015  0.0940  0.0712  0.0033  0.0013  0.0036  0.1593 </r>
        <r>  0.0000  0.0036  0.0203  0.0069  0.0053  0.0447  0.0001  0.0487  0.0118 </r>
       </set>
       <set comment="band 23">
        <r>  0.0004  0.0124  0.0904  0.0055  0.0062  0.0222  0.0006  0.0183  0.0047 </r>
        <r>  0.0013  0.0428  0.0261  0.0189  0.0215  0.0064  0.0022  0.0053  0.0163 </r>
       </set>
       <set comment="band 24">
        <r>  0.0013  0.0428  0.0261  0.0189  0.0215  0.0064  0.0022  0.0053  0.0163 </r>
        <r>  0.0004  0.0124  0.0904  0.0055  0.0062  0.0222  0.0006  0.0183  0.0047 </r>
       </set>
      </set>
     </set>
    </set>
   </array>
  </projected>
 </calculation>
 <structure name="finalpos" >
  <crystal>
   <varray name="basis" >
    <v>       2.64285324       0.00000000       0.00000000 </v>
    <v>      -1.32142662       2.28877804       0.00000000 </v>
    <v>       0.00000000       0.00000000       4.57868164 </v>
   </varray>
   <i name="volume">     27.69600779 </i>
   <varray name="rec_basis" >
    <v>       0.37837894       0.21845718       0.00000000 </v>
    <v>       0.00000000       0.43691436       0.00000000 </v>
    <v>       0.00000000       0.00000000       0.21840348 </v>
   </varray>
  </crystal>
  <varray name="positions" >
   <v>       0.00000000       0.00000000       0.00000000 </v>
   <v>       0.33333333       0.66666667       0.50000000 </v>
  </varray>
 </structure>
</modeling>
