Pt-hcc                                  
           1
     2.722037    0.000000    0.000000
    -1.361019    2.357353    0.000000
     0.000000    0.000000    4.715866
   Pt
     2
Direct configuration=     1
   0.00000000  0.00000000  0.00000000
   0.33333333  0.66666667  0.50000000
