   2   2   0   0
  0.1579990E+02  0.2760000E-09  0.2760000E-09  0.4790000E-09  0.5000000E-15
  1.000000000000000E-004
  CAR 
 Pt-hcc                                  
     35.85529576    -45.37222216  301     11.12414417      1.00000000
    -45.372  0.0000E+00  0.0000E+00
    -45.101  0.0000E+00  0.0000E+00
    -44.831  0.0000E+00  0.0000E+00
    -44.560  0.0000E+00  0.0000E+00
    -44.289  0.0000E+00  0.0000E+00
    -44.018  0.0000E+00  0.0000E+00
    -43.748  0.0000E+00  0.0000E+00
    -43.477  0.0000E+00  0.0000E+00
    -43.206  0.0000E+00  0.0000E+00
    -42.935  0.0000E+00  0.0000E+00
    -42.665  0.0000E+00  0.0000E+00
    -42.394  0.0000E+00  0.0000E+00
    -42.123  0.0000E+00  0.0000E+00
    -41.852  0.1108E-06  0.2999E-07
    -41.582  0.6779E+01  0.1836E+01
    -41.311  0.2424E+02  0.8399E+01
    -41.040  0.1330E+02  0.1200E+02
    -40.769  0.2490E-04  0.1200E+02
    -40.499  0.0000E+00  0.1200E+02
    -40.228  0.0000E+00  0.1200E+02
    -39.957  0.0000E+00  0.1200E+02
    -39.686  0.0000E+00  0.1200E+02
    -39.416  0.0000E+00  0.1200E+02
    -39.145  0.0000E+00  0.1200E+02
    -38.874  0.0000E+00  0.1200E+02
    -38.603  0.0000E+00  0.1200E+02
    -38.333  0.0000E+00  0.1200E+02
    -38.062  0.0000E+00  0.1200E+02
    -37.791  0.0000E+00  0.1200E+02
    -37.520  0.0000E+00  0.1200E+02
    -37.249  0.0000E+00  0.1200E+02
    -36.979  0.0000E+00  0.1200E+02
    -36.708  0.0000E+00  0.1200E+02
    -36.437  0.0000E+00  0.1200E+02
    -36.166  0.0000E+00  0.1200E+02
    -35.896  0.0000E+00  0.1200E+02
    -35.625  0.0000E+00  0.1200E+02
    -35.354  0.0000E+00  0.1200E+02
    -35.083  0.0000E+00  0.1200E+02
    -34.813  0.0000E+00  0.1200E+02
    -34.542  0.0000E+00  0.1200E+02
    -34.271  0.0000E+00  0.1200E+02
    -34.000  0.0000E+00  0.1200E+02
    -33.730  0.0000E+00  0.1200E+02
    -33.459  0.0000E+00  0.1200E+02
    -33.188  0.0000E+00  0.1200E+02
    -32.917  0.0000E+00  0.1200E+02
    -32.647  0.0000E+00  0.1200E+02
    -32.376  0.0000E+00  0.1200E+02
    -32.105  0.0000E+00  0.1200E+02
    -31.834  0.0000E+00  0.1200E+02
    -31.564  0.0000E+00  0.1200E+02
    -31.293  0.0000E+00  0.1200E+02
    -31.022  0.0000E+00  0.1200E+02
    -30.751  0.0000E+00  0.1200E+02
    -30.481  0.0000E+00  0.1200E+02
    -30.210  0.0000E+00  0.1200E+02
    -29.939  0.0000E+00  0.1200E+02
    -29.668  0.0000E+00  0.1200E+02
    -29.397  0.0000E+00  0.1200E+02
    -29.127  0.0000E+00  0.1200E+02
    -28.856  0.0000E+00  0.1200E+02
    -28.585  0.0000E+00  0.1200E+02
    -28.314  0.0000E+00  0.1200E+02
    -28.044  0.0000E+00  0.1200E+02
    -27.773  0.0000E+00  0.1200E+02
    -27.502  0.0000E+00  0.1200E+02
    -27.231  0.0000E+00  0.1200E+02
    -26.961  0.0000E+00  0.1200E+02
    -26.690  0.0000E+00  0.1200E+02
    -26.419  0.0000E+00  0.1200E+02
    -26.148  0.0000E+00  0.1200E+02
    -25.878  0.0000E+00  0.1200E+02
    -25.607  0.0000E+00  0.1200E+02
    -25.336  0.0000E+00  0.1200E+02
    -25.065  0.0000E+00  0.1200E+02
    -24.795  0.0000E+00  0.1200E+02
    -24.524  0.0000E+00  0.1200E+02
    -24.253  0.0000E+00  0.1200E+02
    -23.982  0.0000E+00  0.1200E+02
    -23.712  0.0000E+00  0.1200E+02
    -23.441  0.0000E+00  0.1200E+02
    -23.170  0.0000E+00  0.1200E+02
    -22.899  0.0000E+00  0.1200E+02
    -22.629  0.0000E+00  0.1200E+02
    -22.358  0.0000E+00  0.1200E+02
    -22.087  0.0000E+00  0.1200E+02
    -21.816  0.0000E+00  0.1200E+02
    -21.545  0.0000E+00  0.1200E+02
    -21.275  0.0000E+00  0.1200E+02
    -21.004  0.0000E+00  0.1200E+02
    -20.733  0.0000E+00  0.1200E+02
    -20.462  0.0000E+00  0.1200E+02
    -20.192  0.0000E+00  0.1200E+02
    -19.921  0.0000E+00  0.1200E+02
    -19.650  0.0000E+00  0.1200E+02
    -19.379  0.0000E+00  0.1200E+02
    -19.109  0.0000E+00  0.1200E+02
    -18.838  0.0000E+00  0.1200E+02
    -18.567  0.0000E+00  0.1200E+02
    -18.296  0.0000E+00  0.1200E+02
    -18.026  0.0000E+00  0.1200E+02
    -17.755  0.0000E+00  0.1200E+02
    -17.484  0.0000E+00  0.1200E+02
    -17.213  0.0000E+00  0.1200E+02
    -16.943  0.0000E+00  0.1200E+02
    -16.672  0.0000E+00  0.1200E+02
    -16.401  0.0000E+00  0.1200E+02
    -16.130  0.0000E+00  0.1200E+02
    -15.860  0.0000E+00  0.1200E+02
    -15.589  0.0000E+00  0.1200E+02
    -15.318  0.0000E+00  0.1200E+02
    -15.047  0.0000E+00  0.1200E+02
    -14.777  0.0000E+00  0.1200E+02
    -14.506  0.0000E+00  0.1200E+02
    -14.235  0.0000E+00  0.1200E+02
    -13.964  0.0000E+00  0.1200E+02
    -13.693  0.0000E+00  0.1200E+02
    -13.423  0.0000E+00  0.1200E+02
    -13.152  0.0000E+00  0.1200E+02
    -12.881  0.0000E+00  0.1200E+02
    -12.610  0.0000E+00  0.1200E+02
    -12.340  0.0000E+00  0.1200E+02
    -12.069  0.0000E+00  0.1200E+02
    -11.798  0.0000E+00  0.1200E+02
    -11.527  0.0000E+00  0.1200E+02
    -11.257  0.0000E+00  0.1200E+02
    -10.986  0.0000E+00  0.1200E+02
    -10.715  0.0000E+00  0.1200E+02
    -10.444  0.0000E+00  0.1200E+02
    -10.174  0.0000E+00  0.1200E+02
     -9.903  0.0000E+00  0.1200E+02
     -9.632  0.0000E+00  0.1200E+02
     -9.361  0.0000E+00  0.1200E+02
     -9.091  0.0000E+00  0.1200E+02
     -8.820  0.0000E+00  0.1200E+02
     -8.549  0.0000E+00  0.1200E+02
     -8.278  0.0000E+00  0.1200E+02
     -8.008  0.0000E+00  0.1200E+02
     -7.737  0.0000E+00  0.1200E+02
     -7.466  0.0000E+00  0.1200E+02
     -7.195  0.0000E+00  0.1200E+02
     -6.925  0.0000E+00  0.1200E+02
     -6.654  0.0000E+00  0.1200E+02
     -6.383  0.0000E+00  0.1200E+02
     -6.112  0.0000E+00  0.1200E+02
     -5.841  0.0000E+00  0.1200E+02
     -5.571  0.0000E+00  0.1200E+02
     -5.300  0.0000E+00  0.1200E+02
     -5.029  0.0000E+00  0.1200E+02
     -4.758  0.0000E+00  0.1200E+02
     -4.488  0.0000E+00  0.1200E+02
     -4.217  0.0000E+00  0.1200E+02
     -3.946  0.0000E+00  0.1200E+02
     -3.675  0.0000E+00  0.1200E+02
     -3.405  0.0000E+00  0.1200E+02
     -3.134  0.0000E+00  0.1200E+02
     -2.863  0.0000E+00  0.1200E+02
     -2.592  0.0000E+00  0.1200E+02
     -2.322  0.0000E+00  0.1200E+02
     -2.051  0.0000E+00  0.1200E+02
     -1.780  0.0000E+00  0.1200E+02
     -1.509  0.0000E+00  0.1200E+02
     -1.239  0.0000E+00  0.1200E+02
     -0.968  0.0000E+00  0.1200E+02
     -0.697  0.0000E+00  0.1200E+02
     -0.426  0.0000E+00  0.1200E+02
     -0.156  0.0000E+00  0.1200E+02
      0.115  0.0000E+00  0.1200E+02
      0.386  0.0000E+00  0.1200E+02
      0.657  0.0000E+00  0.1200E+02
      0.927  0.0000E+00  0.1200E+02
      1.198  0.9056E-12  0.1200E+02
      1.469  0.5941E-02  0.1200E+02
      1.740  0.5299E-01  0.1202E+02
      2.010  0.8826E-01  0.1204E+02
      2.281  0.1502E+00  0.1208E+02
      2.552  0.1602E+00  0.1212E+02
      2.823  0.1698E+00  0.1217E+02
      3.094  0.1528E+00  0.1221E+02
      3.364  0.2657E+00  0.1228E+02
      3.635  0.3982E+00  0.1239E+02
      3.906  0.1869E+00  0.1244E+02
      4.177  0.7155E+00  0.1264E+02
      4.447  0.7412E+00  0.1284E+02
      4.718  0.1868E+01  0.1334E+02
      4.989  0.1939E+01  0.1387E+02
      5.260  0.2574E+01  0.1456E+02
      5.530  0.1831E+01  0.1506E+02
      5.801  0.2546E+01  0.1575E+02
      6.072  0.2628E+01  0.1646E+02
      6.343  0.3188E+01  0.1732E+02
      6.613  0.3197E+01  0.1819E+02
      6.884  0.2778E+01  0.1894E+02
      7.155  0.3029E+01  0.1976E+02
      7.426  0.2641E+01  0.2048E+02
      7.696  0.3759E+01  0.2149E+02
      7.967  0.3738E+01  0.2251E+02
      8.238  0.3206E+01  0.2337E+02
      8.509  0.3681E+01  0.2437E+02
      8.779  0.3203E+01  0.2524E+02
      9.050  0.3318E+01  0.2614E+02
      9.321  0.2201E+01  0.2673E+02
      9.592  0.2845E+01  0.2750E+02
      9.862  0.1483E+01  0.2790E+02
     10.133  0.2897E+01  0.2869E+02
     10.404  0.2775E+01  0.2944E+02
     10.675  0.3132E+01  0.3029E+02
     10.946  0.3227E+01  0.3116E+02
     11.216  0.4539E+01  0.3239E+02
     11.487  0.2306E+01  0.3302E+02
     11.758  0.1098E+01  0.3331E+02
     12.029  0.9066E+00  0.3356E+02
     12.299  0.6111E+00  0.3372E+02
     12.570  0.1225E+00  0.3376E+02
     12.841  0.2262E+00  0.3382E+02
     13.112  0.7287E+00  0.3402E+02
     13.382  0.1068E+01  0.3430E+02
     13.653  0.6356E+00  0.3448E+02
     13.924  0.2428E+00  0.3454E+02
     14.195  0.4105E+00  0.3465E+02
     14.465  0.3887E+00  0.3476E+02
     14.736  0.6373E+00  0.3493E+02
     15.007  0.7387E+00  0.3513E+02
     15.278  0.3557E+00  0.3523E+02
     15.548  0.3957E+00  0.3533E+02
     15.819  0.7118E+00  0.3553E+02
     16.090  0.8074E+00  0.3575E+02
     16.361  0.2511E+00  0.3581E+02
     16.631  0.3053E+00  0.3590E+02
     16.902  0.3992E+00  0.3600E+02
     17.173  0.4240E+00  0.3612E+02
     17.444  0.4075E+00  0.3623E+02
     17.714  0.9786E+00  0.3650E+02
     17.985  0.6203E+00  0.3666E+02
     18.256  0.1013E+01  0.3694E+02
     18.527  0.8428E+00  0.3717E+02
     18.798  0.6402E+00  0.3734E+02
     19.068  0.7112E+00  0.3753E+02
     19.339  0.8476E+00  0.3776E+02
     19.610  0.5700E+00  0.3792E+02
     19.881  0.8128E+00  0.3814E+02
     20.151  0.7352E+00  0.3833E+02
     20.422  0.4749E+00  0.3846E+02
     20.693  0.1002E+01  0.3873E+02
     20.964  0.4186E+00  0.3885E+02
     21.234  0.6434E+00  0.3902E+02
     21.505  0.8126E+00  0.3924E+02
     21.776  0.7797E+00  0.3945E+02
     22.047  0.7414E+00  0.3965E+02
     22.317  0.2499E+00  0.3972E+02
     22.588  0.6590E+00  0.3990E+02
     22.859  0.8622E+00  0.4013E+02
     23.130  0.5788E+00  0.4029E+02
     23.400  0.7823E+00  0.4050E+02
     23.671  0.1068E+01  0.4079E+02
     23.942  0.7260E+00  0.4099E+02
     24.213  0.7698E+00  0.4120E+02
     24.483  0.8711E+00  0.4143E+02
     24.754  0.5598E+00  0.4158E+02
     25.025  0.1676E+01  0.4204E+02
     25.296  0.1270E+01  0.4238E+02
     25.566  0.1967E+01  0.4291E+02
     25.837  0.1321E+01  0.4327E+02
     26.108  0.1021E+01  0.4355E+02
     26.379  0.1256E+01  0.4389E+02
     26.650  0.1828E+01  0.4438E+02
     26.920  0.1460E+01  0.4478E+02
     27.191  0.1275E+01  0.4512E+02
     27.462  0.1679E+01  0.4558E+02
     27.733  0.1153E+01  0.4589E+02
     28.003  0.1330E+01  0.4625E+02
     28.274  0.1358E+01  0.4662E+02
     28.545  0.8834E+00  0.4686E+02
     28.816  0.9277E+00  0.4711E+02
     29.086  0.5699E+00  0.4726E+02
     29.357  0.5769E+00  0.4742E+02
     29.628  0.4800E+00  0.4755E+02
     29.899  0.3677E+00  0.4765E+02
     30.169  0.4371E+00  0.4777E+02
     30.440  0.2337E+00  0.4783E+02
     30.711  0.2087E+00  0.4789E+02
     30.982  0.2822E+00  0.4796E+02
     31.252  0.8611E-01  0.4799E+02
     31.523  0.1165E-01  0.4799E+02
     31.794  0.2683E-01  0.4800E+02
     32.065  0.3434E-04  0.4800E+02
     32.335  0.1279E-01  0.4800E+02
     32.606  0.0000E+00  0.4800E+02
     32.877  0.0000E+00  0.4800E+02
     33.148  0.0000E+00  0.4800E+02
     33.418  0.0000E+00  0.4800E+02
     33.689  0.0000E+00  0.4800E+02
     33.960  0.0000E+00  0.4800E+02
     34.231  0.0000E+00  0.4800E+02
     34.502  0.0000E+00  0.4800E+02
     34.772  0.0000E+00  0.4800E+02
     35.043  0.0000E+00  0.4800E+02
     35.314  0.0000E+00  0.4800E+02
     35.585  0.0000E+00  0.4800E+02
     35.855  0.0000E+00  0.4800E+02
