    2    2    1    1
  0.1579990E+02  0.2760000E-09  0.2760000E-09  0.4790000E-09  0.5000000E-15
  1.000000000000000E-004
  CAR 
 Pt-hcc                                  
     32     95     24
 
  0.0000000E+00  0.0000000E+00  0.0000000E+00  0.8680556E-03
      1        -41.489459   1.000000
      2        -41.300705   1.000000
      3        -41.300705   1.000000
      4        -41.260565   1.000000
      5        -41.260565   1.000000
      6        -41.160842   1.000000
      7          1.421246   1.000000
      8          4.069323   1.000000
      9          7.193957   1.000000
     10          7.718391   1.000000
     11          7.718392   1.000000
     12          8.083328   1.000000
     13          8.083328   1.000000
     14          9.338607   1.000000
     15          9.338607   1.000000
     16         10.414718   1.000000
     17         10.915322   1.000000
     18         10.915322   1.000000
     19         15.797382   0.000000
     20         26.233990   0.000000
     21         26.806215   0.000000
     22         28.383966   0.000000
     23         32.163136   0.000000
     24         32.163136   0.000000
 
  0.8333333E-01  0.0000000E+00  0.0000000E+00  0.5208333E-02
      1        -41.480774   1.000000
      2        -41.325389   1.000000
      3        -41.307316   1.000000
      4        -41.286220   1.000000
      5        -41.265510   1.000000
      6        -41.162462   1.000000
      7          1.673603   1.000000
      8          4.300219   1.000000
      9          7.164949   1.000000
     10          7.712813   1.000000
     11          7.911240   1.000000
     12          7.967519   1.000000
     13          8.266530   1.000000
     14          8.969198   1.000000
     15          9.217483   1.000000
     16          9.420615   1.000000
     17         10.961323   0.999998
     18         12.327901   0.000000
     19         15.772296   0.000000
     20         26.566433   0.000000
     21         27.180473   0.000000
     22         28.663716   0.000000
     23         30.842965   0.000000
     24         31.030483   0.000000
 
  0.1666667E+00  0.0000000E+00  0.0000000E+00  0.5208333E-02
      1        -41.457210   1.000000
      2        -41.394582   1.000000
      3        -41.356544   1.000000
      4        -41.327236   1.000000
      5        -41.279892   1.000000
      6        -41.168269   1.000000
      7          2.385317   1.000000
      8          4.882162   1.000000
      9          6.965784   1.000000
     10          7.570150   1.000000
     11          7.823707   1.000000
     12          8.099112   1.000000
     13          8.466198   1.000000
     14          8.791871   1.000000
     15          8.926818   1.000000
     16          8.975139   1.000000
     17         11.046982   0.985462
     18         14.105563   0.000000
     19         15.713530   0.000000
     20         26.161928   0.000000
     21         27.995303   0.000000
     22         28.717042   0.000000
     23         29.055599   0.000000
     24         29.550359   0.000000
 
  0.2500000E+00 -0.1387779E-16  0.0000000E+00  0.5208333E-02
      1        -41.489286   1.000000
      2        -41.450271   1.000000
      3        -41.422703   1.000000
      4        -41.353719   1.000000
      5        -41.299728   1.000000
      6        -41.178550   1.000000
      7          3.386496   1.000000
      8          5.301467   1.000000
      9          6.820556   1.000000
     10          7.035134   1.000000
     11          7.311743   1.000000
     12          8.538227   1.000000
     13          8.588903   1.000000
     14          8.822633   1.000000
     15          9.310583   1.000000
     16          9.583145   1.000000
     17         11.109822   0.657294
     18         15.707970   0.000000
     19         15.954336   0.000000
     20         23.345092   0.000000
     21         27.014127   0.000000
     22         27.219303   0.000000
     23         29.437590   0.000000
     24         29.634406   0.000000
 
  0.3333333E+00  0.0000000E+00  0.0000000E+00  0.5208333E-02
      1        -41.583699   1.000000
      2        -41.543204   1.000000
      3        -41.382808   1.000000
      4        -41.380004   1.000000
      5        -41.320782   1.000000
      6        -41.194781   1.000000
      7          4.283602   1.000000
      8          5.142812   1.000000
      9          6.078190   1.000000
     10          7.281522   1.000000
     11          7.833569   1.000000
     12          8.144247   1.000000
     13          8.292545   1.000000
     14         10.026611   1.000000
     15         10.289229   1.000000
     16         10.491816   1.000000
     17         11.136329   0.365179
     18         15.995836   0.000000
     19         17.754948   0.000000
     20         20.168165   0.000000
     21         25.136968   0.000000
     22         25.899114   0.000000
     23         26.479664   0.000000
     24         28.663818   0.000000
 
  0.4166667E+00 -0.8326673E-16  0.0000000E+00  0.5208333E-02
      1        -41.652662   1.000000
      2        -41.610035   1.000000
      3        -41.398952   1.000000
      4        -41.346847   1.000000
      5        -41.335673   1.000000
      6        -41.212972   1.000000
      7          4.674229   1.000000
      8          4.891472   1.000000
      9          5.623135   1.000000
     10          7.814952   1.000000
     11          7.876036   1.000000
     12          8.094853   1.000000
     13          8.424404   1.000000
     14         11.111258   0.642249
     15         11.140660   0.320198
     16         11.289823   0.000001
     17         11.733000   0.000000
     18         16.684148   0.000000
     19         17.438645   0.000000
     20         19.276402   0.000000
     21         22.865383   0.000000
     22         23.717911   0.000000
     23         24.870076   0.000000
     24         27.649019   0.000000
 
  0.5000000E+00 -0.2775558E-16  0.0000000E+00  0.2604167E-02
      1        -41.677618   1.000000
      2        -41.634845   1.000000
      3        -41.406172   1.000000
      4        -41.341280   1.000000
      5        -41.330606   1.000000
      6        -41.223361   1.000000
      7          4.728236   1.000000
      8          4.803237   1.000000
      9          5.469675   1.000000
     10          7.781467   1.000000
     11          8.025476   1.000000
     12          8.208666   1.000000
     13          8.546115   1.000000
     14         11.139482   0.332211
     15         11.432615   0.000000
     16         11.632522   0.000000
     17         13.399288   0.000000
     18         14.877228   0.000000
     19         18.399799   0.000000
     20         19.962484   0.000000
     21         20.633420   0.000000
     22         23.166832   0.000000
     23         24.399823   0.000000
     24         27.243260   0.000000
 
  0.8333333E-01  0.8333333E-01  0.0000000E+00  0.5208333E-02
      1        -41.464915   1.000000
      2        -41.369204   1.000000
      3        -41.341810   1.000000
      4        -41.313815   1.000000
      5        -41.278151   1.000000
      6        -41.166172   1.000000
      7          2.158345   1.000000
      8          4.721283   1.000000
      9          6.999629   1.000000
     10          7.749853   1.000000
     11          7.828903   1.000000
     12          8.178108   1.000000
     13          8.312384   1.000000
     14          8.664984   1.000000
     15          8.776678   1.000000
     16          9.297982   1.000000
     17         10.992586   0.999901
     18         13.628785   0.000000
     19         15.730906   0.000000
     20         26.811622   0.000000
     21         27.853394   0.000000
     22         28.050033   0.000000
     23         29.914914   0.000000
     24         30.074765   0.000000
 
  0.1666667E+00  0.8333333E-01  0.0000000E+00  0.1041667E-01
      1        -41.446116   1.000000
      2        -41.435899   1.000000
      3        -41.418948   1.000000
      4        -41.342793   1.000000
      5        -41.299760   1.000000
      6        -41.174644   1.000000
      7          3.038854   1.000000
      8          5.340380   1.000000
      9          6.745962   1.000000
     10          7.205637   1.000000
     11          7.441126   1.000000
     12          8.250435   1.000000
     13          8.350258   1.000000
     14          9.028209   1.000000
     15          9.076727   1.000000
     16          9.433485   1.000000
     17         11.017520   0.998718
     18         15.333964   0.000000
     19         15.704781   0.000000
     20         24.912287   0.000000
     21         26.464971   0.000000
     22         28.064862   0.000000
     23         29.090531   0.000000
     24         30.138831   0.000000
 
  0.2500000E+00  0.8333333E-01  0.0000000E+00  0.1041667E-01
      1        -41.537792   1.000000
      2        -41.505169   1.000000
      3        -41.398303   1.000000
      4        -41.375401   1.000000
      5        -41.323523   1.000000
      6        -41.187621   1.000000
      7          4.064673   1.000000
      8          5.461372   1.000000
      9          6.398356   1.000000
     10          6.971339   1.000000
     11          7.429628   1.000000
     12          8.014392   1.000000
     13          8.635344   1.000000
     14          9.022163   1.000000
     15         10.031301   1.000000
     16         10.466892   1.000000
     17         11.029167   0.996388
     18         15.872788   0.000000
     19         17.141754   0.000000
     20         21.736293   0.000000
     21         24.793534   0.000000
     22         26.689469   0.000000
     23         28.521292   0.000000
     24         29.071340   0.000000
 
  0.3333333E+00  0.8333333E-01  0.0000000E+00  0.1041667E-01
      1        -41.617659   1.000000
      2        -41.578906   1.000000
      3        -41.402997   1.000000
      4        -41.359363   1.000000
      5        -41.343963   1.000000
      6        -41.205930   1.000000
      7          4.748435   1.000000
      8          5.183617   1.000000
      9          5.835721   1.000000
     10          7.429986   1.000000
     11          7.813065   1.000000
     12          8.024884   1.000000
     13          8.250063   1.000000
     14         10.110302   1.000000
     15         10.871488   1.000000
     16         11.023922   0.997707
     17         11.682528   0.000000
     18         16.585451   0.000000
     19         18.610418   0.000000
     20         18.855917   0.000000
     21         22.969991   0.000000
     22         25.234437   0.000000
     23         25.545629   0.000000
     24         27.962246   0.000000
 
  0.4166667E+00  0.8333333E-01  0.0000000E+00  0.1041667E-01
      1        -41.663482   1.000000
      2        -41.621101   1.000000
      3        -41.418770   1.000000
      4        -41.355916   1.000000
      5        -41.330498   1.000000
      6        -41.223068   1.000000
      7          4.918022   1.000000
      8          5.005795   1.000000
      9          5.547958   1.000000
     10          7.765063   1.000000
     11          7.976016   1.000000
     12          8.068103   1.000000
     13          8.357090   1.000000
     14         11.015024   0.998987
     15         11.083179   0.876704
     16         11.307401   0.000000
     17         13.167463   0.000000
     18         15.822076   0.000000
     19         18.124678   0.000000
     20         20.096605   0.000000
     21         20.932401   0.000000
     22         23.175827   0.000000
     23         24.730799   0.000000
     24         27.189527   0.000000
 
  0.1666667E+00  0.1666667E+00  0.0000000E+00  0.5208333E-02
      1        -41.506474   1.000000
      2        -41.497192   1.000000
      3        -41.403879   1.000000
      4        -41.373454   1.000000
      5        -41.334461   1.000000
      6        -41.185643   1.000000
      7          4.010763   1.000000
      8          5.933219   1.000000
      9          6.384308   1.000000
     10          6.579834   1.000000
     11          7.403354   1.000000
     12          7.868725   1.000000
     13          8.530932   1.000000
     14          8.836415   1.000000
     15         10.008634   1.000000
     16         10.502628   1.000000
     17         10.916865   1.000000
     18         15.868768   0.000000
     19         16.957952   0.000000
     20         23.036739   0.000000
     21         23.667449   0.000000
     22         27.286958   0.000000
     23         29.145642   0.000000
     24         29.823322   0.000000
 
  0.2500000E+00  0.1666667E+00  0.0000000E+00  0.1041667E-01
      1        -41.575406   1.000000
      2        -41.555921   1.000000
      3        -41.413549   1.000000
      4        -41.368580   1.000000
      5        -41.366052   1.000000
      6        -41.202254   1.000000
      7          4.984979   1.000000
      8          5.821981   1.000000
      9          6.064876   1.000000
     10          6.677382   1.000000
     11          7.598675   1.000000
     12          7.696083   1.000000
     13          8.457520   1.000000
     14          9.140666   1.000000
     15         10.821545   1.000000
     16         10.823782   1.000000
     17         11.795075   0.000000
     18         16.528051   0.000000
     19         18.723413   0.000000
     20         20.051305   0.000000
     21         21.835222   0.000000
     22         26.404094   0.000000
     23         27.016481   0.000000
     24         28.103882   0.000000
 
  0.3333333E+00  0.1666667E+00  0.0000000E+00  0.1041667E-01
      1        -41.627930   1.000000
      2        -41.591960   1.000000
      3        -41.447720   1.000000
      4        -41.392833   1.000000
      5        -41.330817   1.000000
      6        -41.222563   1.000000
      7          5.430698   1.000000
      8          5.537571   1.000000
      9          5.732326   1.000000
     10          7.370345   1.000000
     11          7.552061   1.000000
     12          8.042491   1.000000
     13          8.172325   1.000000
     14         10.022430   1.000000
     15         10.759924   1.000000
     16         11.147855   0.251227
     17         13.184978   0.000000
     18         17.135077   0.000000
     19         17.996419   0.000000
     20         20.359516   0.000000
     21         20.383834   0.000000
     22         24.235458   0.000000
     23         25.548990   0.000000
     24         27.006594   0.000000
 
  0.4166667E+00  0.1666667E+00  0.0000000E+00  0.5208333E-02
      1        -41.647141   1.000000
      2        -41.604516   1.000000
      3        -41.460671   1.000000
      4        -41.401729   1.000000
      5        -41.313105   1.000000
      6        -41.234658   1.000000
      7          5.429705   1.000000
      8          5.498576   1.000000
      9          5.618080   1.000000
     10          7.696094   1.000000
     11          7.732639   1.000000
     12          7.800990   1.000000
     13          8.338842   1.000000
     14         10.669910   1.000000
     15         10.736919   1.000000
     16         11.042679   0.989394
     17         14.482508   0.000000
     18         15.288052   0.000000
     19         19.172842   0.000000
     20         19.644292   0.000000
     21         21.182510   0.000000
     22         22.694658   0.000000
     23         24.997719   0.000000
     24         26.620747   0.000000
 
  0.2500000E+00  0.2500000E+00  0.0000000E+00  0.5208333E-02
      1        -41.598092   1.000000
      2        -41.580863   1.000000
      3        -41.461035   1.000000
      4        -41.420642   1.000000
      5        -41.330785   1.000000
      6        -41.222153   1.000000
      7          5.755897   1.000000
      8          5.846794   1.000000
      9          6.330942   1.000000
     10          6.452898   1.000000
     11          7.401733   1.000000
     12          8.094872   1.000000
     13          8.105752   1.000000
     14          9.489259   1.000000
     15         10.627659   1.000000
     16         11.113627   0.616952
     17         13.222855   0.000000
     18         17.420116   0.000000
     19         18.833189   0.000000
     20         19.352933   0.000000
     21         20.488842   0.000000
     22         25.434638   0.000000
     23         26.202083   0.000000
     24         26.729508   0.000000
 
  0.3333333E+00  0.2500000E+00  0.0000000E+00  0.1041667E-01
      1        -41.611995   1.000000
      2        -41.575387   1.000000
      3        -41.504615   1.000000
      4        -41.456181   1.000000
      5        -41.300239   1.000000
      6        -41.244485   1.000000
      7          5.739987   1.000000
      8          6.016995   1.000000
      9          6.158530   1.000000
     10          7.097390   1.000000
     11          7.441382   1.000000
     12          7.737913   1.000000
     13          8.428844   1.000000
     14         10.074537   1.000000
     15         10.515044   1.000000
     16         10.877754   1.000000
     17         14.592361   0.000000
     18         16.059973   0.000000
     19         17.977990   0.000000
     20         20.488053   0.000000
     21         22.087344   0.000000
     22         23.450680   0.000000
     23         25.260194   0.000000
     24         25.729587   0.000000
 
  0.3333333E+00  0.3333333E+00  0.0000000E+00  0.1736111E-02
      1        -41.585312   1.000000
      2        -41.545347   1.000000
      3        -41.545346   1.000000
      4        -41.502698   1.000000
      5        -41.270696   1.000000
      6        -41.270695   1.000000
      7          5.764288   1.000000
      8          6.409467   1.000000
      9          6.409468   1.000000
     10          6.880539   1.000000
     11          7.503864   1.000000
     12          7.503866   1.000000
     13          8.567926   1.000000
     14         10.383681   1.000000
     15         10.383683   1.000000
     16         10.418727   1.000000
     17         15.532223   0.000000
     18         15.532224   0.000000
     19         16.984823   0.000000
     20         22.885892   0.000000
     21         23.167847   0.000000
     22         23.167848   0.000000
     23         23.830437   0.000000
     24         23.830438   0.000000
 
  0.0000000E+00  0.0000000E+00  0.1250000E+00  0.1736111E-02
      1        -41.476366   1.000000
      2        -41.298377   1.000000
      3        -41.298376   1.000000
      4        -41.261794   1.000000
      5        -41.261794   1.000000
      6        -41.173214   1.000000
      7          1.554969   1.000000
      8          4.050047   1.000000
      9          7.161162   1.000000
     10          7.699635   1.000000
     11          7.699636   1.000000
     12          8.045048   1.000000
     13          8.045049   1.000000
     14          9.436403   1.000000
     15          9.436403   1.000000
     16          9.798230   1.000000
     17         10.888729   1.000000
     18         10.888729   1.000000
     19         16.663852   0.000000
     20         25.770057   0.000000
     21         27.317143   0.000000
     22         28.099774   0.000000
     23         31.613837   0.000000
     24         31.613837   0.000000
 
  0.8333333E-01  0.0000000E+00  0.1250000E+00  0.1041667E-01
      1        -41.469118   1.000000
      2        -41.323411   1.000000
      3        -41.305893   1.000000
      4        -41.288319   1.000000
      5        -41.267111   1.000000
      6        -41.174002   1.000000
      7          1.805611   1.000000
      8          4.285122   1.000000
      9          7.156373   1.000000
     10          7.645296   1.000000
     11          7.886077   1.000000
     12          7.892249   1.000000
     13          8.225252   1.000000
     14          8.907819   1.000000
     15          9.326978   1.000000
     16          9.363590   1.000000
     17         10.926121   1.000000
     18         11.866577   0.000000
     19         16.722489   0.000000
     20         26.135755   0.000000
     21         27.643162   0.000000
     22         28.395270   0.000000
     23         30.297450   0.000000
     24         30.877679   0.000000
 
  0.1666667E+00  0.0000000E+00  0.1250000E+00  0.1041667E-01
      1        -41.450791   1.000000
      2        -41.388935   1.000000
      3        -41.358856   1.000000
      4        -41.325452   1.000000
      5        -41.281652   1.000000
      6        -41.177695   1.000000
      7          2.508977   1.000000
      8          4.882161   1.000000
      9          6.994471   1.000000
     10          7.401310   1.000000
     11          7.620877   1.000000
     12          8.168036   1.000000
     13          8.399915   1.000000
     14          8.729427   1.000000
     15          9.098643   1.000000
     16          9.103684   1.000000
     17         10.994452   0.999878
     18         13.185180   0.000000
     19         16.969228   0.000000
     20         26.175934   0.000000
     21         27.698350   0.000000
     22         28.714130   0.000000
     23         29.161183   0.000000
     24         29.419705   0.000000
 
  0.2500000E+00 -0.1387779E-16  0.1250000E+00  0.1041667E-01
      1        -41.493644   1.000000
      2        -41.454130   1.000000
      3        -41.406770   1.000000
      4        -41.351616   1.000000
      5        -41.301791   1.000000
      6        -41.186080   1.000000
      7          3.480711   1.000000
      8          5.324825   1.000000
      9          6.695485   1.000000
     10          7.081511   1.000000
     11          7.230348   1.000000
     12          8.382857   1.000000
     13          8.611814   1.000000
     14          9.068232   1.000000
     15          9.359602   1.000000
     16          9.556913   1.000000
     17         11.041816   0.990059
     18         14.249846   0.000000
     19         17.597254   0.000000
     20         23.514218   0.000000
     21         27.095348   0.000000
     22         27.221223   0.000000
     23         28.636701   0.000000
     24         30.047574   0.000000
 
  0.3333333E+00  0.0000000E+00  0.1250000E+00  0.1041667E-01
      1        -41.585197   1.000000
      2        -41.547051   1.000000
      3        -41.377714   1.000000
      4        -41.372105   1.000000
      5        -41.322550   1.000000
      6        -41.199411   1.000000
      7          4.297827   1.000000
      8          5.168811   1.000000
      9          6.123075   1.000000
     10          6.991759   1.000000
     11          7.852292   1.000000
     12          8.365767   1.000000
     13          8.446099   1.000000
     14         10.019756   1.000000
     15         10.303620   1.000000
     16         10.419728   1.000000
     17         11.078253   0.902857
     18         15.068873   0.000000
     19         18.504138   0.000000
     20         20.591684   0.000000
     21         25.334682   0.000000
     22         25.391506   0.000000
     23         26.746584   0.000000
     24         28.945482   0.000000
 
  0.4166667E+00 -0.8326673E-16  0.1250000E+00  0.1041667E-01
      1        -41.653642   1.000000
      2        -41.613940   1.000000
      3        -41.396545   1.000000
      4        -41.338779   1.000000
      5        -41.338104   1.000000
      6        -41.215973   1.000000
      7          4.596065   1.000000
      8          4.891612   1.000000
      9          5.799000   1.000000
     10          7.080618   1.000000
     11          8.172797   1.000000
     12          8.180948   1.000000
     13          9.017938   1.000000
     14         10.924001   1.000000
     15         11.127615   0.460896
     16         11.340333   0.000000
     17         11.626539   0.000000
     18         15.873817   0.000000
     19         17.536353   0.000000
     20         19.867958   0.000000
     21         22.778666   0.000000
     22         23.997921   0.000000
     23         25.134798   0.000000
     24         27.882953   0.000000
 
  0.5000000E+00 -0.2775558E-16  0.1250000E+00  0.5208333E-02
      1        -41.678689   1.000000
      2        -41.638633   1.000000
      3        -41.403517   1.000000
      4        -41.343806   1.000000
      5        -41.323043   1.000000
      6        -41.225196   1.000000
      7          4.646250   1.000000
      8          4.757894   1.000000
      9          5.693769   1.000000
     10          7.122258   1.000000
     11          8.114958   1.000000
     12          8.282707   1.000000
     13          9.338229   1.000000
     14         10.963916   0.999997
     15         11.452082   0.000000
     16         11.626334   0.000000
     17         13.162489   0.000000
     18         14.765338   0.000000
     19         18.260120   0.000000
     20         18.996413   0.000000
     21         21.855259   0.000000
     22         23.456575   0.000000
     23         24.532693   0.000000
     24         27.523546   0.000000
 
  0.8333333E-01  0.8333333E-01  0.1250000E+00  0.1041667E-01
      1        -41.455816   1.000000
      2        -41.365592   1.000000
      3        -41.342765   1.000000
      4        -41.313851   1.000000
      5        -41.279910   1.000000
      6        -41.176292   1.000000
      7          2.285565   1.000000
      8          4.716048   1.000000
      9          7.024137   1.000000
     10          7.571329   1.000000
     11          7.665798   1.000000
     12          8.180723   1.000000
     13          8.289265   1.000000
     14          8.586913   1.000000
     15          9.017738   1.000000
     16          9.340396   1.000000
     17         10.946922   1.000000
     18         12.856923   0.000000
     19         16.876961   0.000000
     20         26.595093   0.000000
     21         28.011418   0.000000
     22         28.074287   0.000000
     23         29.070392   0.000000
     24         30.185202   0.000000
 
  0.1666667E+00  0.8333333E-01  0.1250000E+00  0.2083333E-01
      1        -41.457656   1.000000
      2        -41.422737   1.000000
      3        -41.411734   1.000000
      4        -41.341737   1.000000
      5        -41.301469   1.000000
      6        -41.182462   1.000000
      7          3.149648   1.000000
      8          5.358607   1.000000
      9          6.778095   1.000000
     10          6.962166   1.000000
     11          7.483966   1.000000
     12          7.984587   1.000000
     13          8.693835   1.000000
     14          8.829606   1.000000
     15          9.314017   1.000000
     16          9.419834   1.000000
     17         10.959511   0.999998
     18         13.949160   0.000000
     19         17.341661   0.000000
     20         25.029806   0.000000
     21         26.552728   0.000000
     22         27.966456   0.000000
     23         28.652990   0.000000
     24         30.689091   0.000000
 
  0.2500000E+00  0.8333333E-01  0.1250000E+00  0.2083333E-01
      1        -41.540479   1.000000
      2        -41.508816   1.000000
      3        -41.386723   1.000000
      4        -41.373070   1.000000
      5        -41.325500   1.000000
      6        -41.193587   1.000000
      7          4.124489   1.000000
      8          5.497079   1.000000
      9          6.332927   1.000000
     10          6.948771   1.000000
     11          7.357215   1.000000
     12          8.127050   1.000000
     13          8.577180   1.000000
     14          9.126633   1.000000
     15         10.104661   1.000000
     16         10.370679   1.000000
     17         11.002691   0.999704
     18         14.827598   0.000000
     19         18.240029   0.000000
     20         21.994660   0.000000
     21         24.929879   0.000000
     22         26.546287   0.000000
     23         28.000355   0.000000
     24         29.657410   0.000000
 
  0.3333333E+00  0.8333333E-01  0.1250000E+00  0.2083333E-01
      1        -41.619180   1.000000
      2        -41.582858   1.000000
      3        -41.401496   1.000000
      4        -41.351341   1.000000
      5        -41.344990   1.000000
      6        -41.209442   1.000000
      7          4.698073   1.000000
      8          5.208585   1.000000
      9          5.961041   1.000000
     10          6.968134   1.000000
     11          7.960338   1.000000
     12          8.232604   1.000000
     13          8.458684   1.000000
     14         10.092818   1.000000
     15         10.822334   1.000000
     16         10.938221   1.000000
     17         11.705089   0.000000
     18         15.796480   0.000000
     19         18.381128   0.000000
     20         20.021284   0.000000
     21         23.028915   0.000000
     22         24.791035   0.000000
     23         26.035498   0.000000
     24         28.126417   0.000000
 
  0.4166667E+00  0.8333333E-01  0.1250000E+00  0.2083333E-01
      1        -41.664473   1.000000
      2        -41.624957   1.000000
      3        -41.417009   1.000000
      4        -41.358815   1.000000
      5        -41.322814   1.000000
      6        -41.224546   1.000000
      7          4.805156   1.000000
      8          4.984129   1.000000
      9          5.796379   1.000000
     10          7.087710   1.000000
     11          7.899905   1.000000
     12          8.400496   1.000000
     13          8.966301   1.000000
     14         10.822312   1.000000
     15         11.076341   0.911823
     16         11.335076   0.000000
     17         13.089679   0.000000
     18         15.632686   0.000000
     19         17.796119   0.000000
     20         19.817993   0.000000
     21         21.576690   0.000000
     22         23.479810   0.000000
     23         24.919225   0.000000
     24         27.334025   0.000000
 
  0.1666667E+00  0.1666667E+00  0.1250000E+00  0.1041667E-01
      1        -41.510936   1.000000
      2        -41.498805   1.000000
      3        -41.390782   1.000000
      4        -41.372977   1.000000
      5        -41.335656   1.000000
      6        -41.191742   1.000000
      7          4.090548   1.000000