 vasp.6.3.2 27Jun22 (build Aug 12 2022 00:53:59) complex                        
  
 executed on               tv2STD date 2024.11.30  16:03:09
 running   24 mpi-ranks, with    1 threads/rank
 distrk:  each k-point on   24 cores,    1 groups
 distr:  one band on NCORE=   1 cores,   24 groups


--------------------------------------------------------------------------------------------------------


 INCAR:
   SYSTEM = Pt-hcc
   NWRITE = 2    write-flag
   ISTART = 0    job   : 0-new, 1-cont, 2-samecut
   ICHARG = 2    charge: 0-wave, 1-file, 2-atom, >10-const
   INIWAV = 1    electr: 0-lowe 1-rand  2-diag
   ENCUT = 450.0     energy cutoff in eV
   PREC = Accurate      normal | accurate
   ADDGRID = .FALSE.  (use fine grid)
   NELM = 100     number of ELM steps
   EDIFF = 1E-06    energy stopping-criterion for ELM
   LREAL = .FALSE.      real-space projection (.FALSE., .TRUE., On, Auto)
   ALGO = Normal     Normal, Fast, Very_Fast
   LWAVE = .FALSE.
   LCHARG = .FALSE.
   NSW = 0       max number of geometry steps
   IBRION = -1     ionic relax: 0-MD, 1-quasi-Newton, 2-CG, 3-Damped MD
   EDIFFG = -0.02  force (eV/A) stopping-criterion for geometry steps
   ISIF = 2     (1:force\=y stress\=trace only ions\=y shape\=n volume\=n)
   ISYM = 1     (1-use symmetry, 0-no symmetry)
   ISMEAR = 0     (-1-Fermi, 1-Methfessel/Paxton)
   SIGMA = 0.05   broadening in eV

 POTCAR:    PAW_PBE Pt_pv 12Dec2005               
 POTCAR:    PAW_PBE Pt_pv 12Dec2005               
   SHA256 =  e5abf7e8cd8db70d0153315afc5ad66b6e3eeee29cc2d5b91b16730957c1d208 Pt_pv/POTCAR          
   COPYR  = (c) Copyright 12Dec2005 Georg Kresse                                                    
   COPYR  = This file is part of the software VASP. Any use, copying, and all other rights are regul
   COPYR  = If you do not have a valid VASP license, you may not use, copy or distribute this file. 
   VRHFIN =Pt: 5ps1d9                                                                               
   LEXCH  = PE                                                                                      
   EATOM  =  2428.2504 eV,  178.4714 Ry                                                             
                                                                                                    
   TITEL  = PAW_PBE Pt_pv 12Dec2005                                                                 
   LULTRA =        F    use ultrasoft PP ?                                                          
   IUNSCR =        1    unscreen: 0-lin 1-nonlin 2-no                                               
   RPACOR =    2.000    partial core radius                                                         
   POMASS =  195.080; ZVAL   =   16.000    mass and valenz                                          
   RCORE  =    2.200    outmost cutoff radius                                                       
   RWIGS  =    2.200; RWIGS  =    1.164    wigner-seitz radius (au A)                               
   ENMAX  =  294.607; ENMIN  =  220.955 eV                                                          
   ICORE  =        3    local potential                                                             
   LCOR   =        T    correct aug charges                                                         
   LPAW   =        T    paw PP                                                                      
   EAUG   =  527.014                                                                                
   DEXC   =    0.000                                                                                
   RMAX   =    2.247    core radius for proj-oper                                                   
   RAUG   =    1.300    factor for augmentation sphere                                              
   RDEP   =    2.279    radius for radial grids                                                     
   RDEPT  =    1.878    core radius for aug-charge                                                  
                                                                                                    
   Atomic configuration                                                                             
   16 entries                                                                                       
     n  l   j            E        occ.                                                              
     1  0  0.50    -78401.1885   2.0000                                                             
     2  0  0.50    -13770.7750   2.0000                                                             
     2  1  1.50    -11931.0468   6.0000                                                             
     3  0  0.50     -3234.7234   2.0000                                                             
     3  1  1.50     -2699.2216   6.0000                                                             
     3  2  2.50     -2119.5714  10.0000                                                             
     4  0  0.50      -695.1528   2.0000                                                             
     4  1  1.50      -519.6034   6.0000                                                             
     4  2  2.50      -306.6786  10.0000                                                             
     4  3  3.50       -70.1041  14.0000                                                             
     5  0  0.50      -101.7747   2.0000                                                             
     5  1  1.50       -55.9873   6.0000                                                             
     6  1  1.50        -6.8029   0.0000                                                             
     5  2  2.50        -6.1423   9.0000                                                             
     6  0  0.50        -5.6573   1.0000                                                             
     5  3  2.50        -1.3606   0.0000                                                             
   Description                                                                                      
     l       E           TYP  RCUT    TYP  RCUT                                                     
     1    -55.9873477     23  2.000                                                                 
     1     27.2116520     23  2.000                                                                 
     2     -6.1423404     23  2.200                                                                 
     2     -4.6754623     23  2.200                                                                 
     0     -5.6573207     23  2.200                                                                 
     0     47.6203910     23  2.200                                                                 
     3      6.8029130     23  2.200                                                                 
  local pseudopotential read in
  partial core-charges read in
  partial kinetic energy density read in
  atomic valenz-charges read in
  non local Contribution for L=           1  read in
    real space projection operators read in
  non local Contribution for L=           1  read in
    real space projection operators read in
  non local Contribution for L=           2  read in
    real space projection operators read in
  non local Contribution for L=           2  read in
    real space projection operators read in
  non local Contribution for L=           0  read in
    real space projection operators read in
  non local Contribution for L=           0  read in
    real space projection operators read in
    PAW grid and wavefunctions read in
 
   number of l-projection  operators is LMAX  =           6
   number of lm-projection operators is LMMAX =          18
 
  PAW_PBE Pt_pv 12Dec2005               :
 energy of atom  1       EATOM=-2428.2504
 kinetic energy error for atom=    0.0356 (will be added to EATOM!!)
 
 
 POSCAR: Pt
  positions in cartesian coordinates
  No initial velocities read in
 exchange correlation table for  LEXCH =        8
   RHO(1)=    0.500       N(1)  =     2000
   RHO(2)=  100.500       N(2)  =     4000
 


--------------------------------------------------------------------------------------------------------


 ion  position               nearest neighbor table
   1  0.000  0.000  0.000-
   2  0.333  0.667  0.500-
 
  LATTYP: Found a hexagonal cell.
 ALAT       =     2.7600000000
 C/A-ratio  =     1.7355072464
  
  Lattice vectors:
  
 A1 = (   2.7600000000,   0.0000000000,   0.0000000000)
 A2 = (  -1.3800000000,   2.3902301144,   0.0000000000)
 A3 = (   0.0000000000,   0.0000000000,   4.7900000000)


Analysis of symmetry for initial positions (statically):
=====================================================================
 Subroutine PRICEL returns:
 Original cell was already a primitive cell.
 

 Routine SETGRP: Setting up the symmetry group for a 
 hexagonal supercell.


 Subroutine GETGRP returns: Found 24 space group operations
 (whereof 12 operations were pure point group operations)
 out of a pool of 24 trial point group operations.


The static configuration has the point symmetry D_3h.
 The point group associated with its full space group is D_6h.


Analysis of symmetry for dynamics (positions and initial velocities):
=====================================================================
 Subroutine PRICEL returns:
 Original cell was already a primitive cell.
 

 Routine SETGRP: Setting up the symmetry group for a 
 hexagonal supercell.


 Subroutine GETGRP returns: Found 24 space group operations
 (whereof 12 operations were pure point group operations)
 out of a pool of 24 trial point group operations.


The dynamic configuration has the point symmetry D_3h.
 The point group associated with its full space group is D_6h.


 Subroutine INISYM returns: Found 24 space group operations
 (whereof 12 operations are pure point group operations),
 and found     1 'primitive' translations


----------------------------------------------------------------------------------------

                                     Primitive cell                                     

  volume of cell :      31.5998

  direct lattice vectors                    reciprocal lattice vectors
     2.760000000  0.000000000  0.000000000     0.362318841  0.209184880  0.000000000
    -1.380000000  2.390230114  0.000000000     0.000000000  0.418369760  0.000000000
     0.000000000  0.000000000  4.790000000     0.000000000  0.000000000  0.208768267

  length of vectors
     2.760000000  2.760000000  4.790000000     0.418369760  0.418369760  0.208768267

  position of ions in fractional coordinates (direct lattice)
     0.000000000  0.000000000  0.000000000
     0.333333333  0.666666667  0.500000000

  ion indices of the primitive-cell ions
   primitive index   ion index
                 1           1
                 2           2

----------------------------------------------------------------------------------------

 
 
 KPOINTS: Automatic mesh                          

Automatic generation of k-mesh.
 Grid dimensions read from file:
 generate k-points for:   12   12    8

 Generating k-lattice:

  Cartesian coordinates                     Fractional coordinates (reciprocal lattice)
     0.030193237  0.017432073  0.000000000     0.083333333  0.000000000  0.000000000
     0.000000000  0.034864147  0.000000000     0.000000000  0.083333333  0.000000000
     0.000000000  0.000000000  0.026096033     0.000000000  0.000000000  0.125000000

  Length of vectors
     0.034864147  0.034864147  0.026096033

  Shift w.r.t. Gamma in fractional coordinates (k-lattice)
     0.000000000  0.000000000  0.000000000

 
 Subroutine IBZKPT returns following result:
 ===========================================
 
 Found     95 irreducible k-points:
 
 Following reciprocal coordinates:
            Coordinates               Weight
  0.000000  0.000000  0.000000      1.000000
  0.083333  0.000000  0.000000      6.000000
  0.166667  0.000000  0.000000      6.000000
  0.250000 -0.000000  0.000000      6.000000
  0.333333  0.000000  0.000000      6.000000
  0.416667 -0.000000  0.000000      6.000000
  0.500000 -0.000000  0.000000      3.000000
  0.083333  0.083333  0.000000      6.000000
  0.166667  0.083333  0.000000     12.000000
  0.250000  0.083333  0.000000     12.000000
  0.333333  0.083333  0.000000     12.000000
  0.416667  0.083333  0.000000     12.000000
  0.166667  0.166667  0.000000      6.000000
  0.250000  0.166667  0.000000     12.000000
  0.333333  0.166667  0.000000     12.000000
  0.416667  0.166667  0.000000      6.000000
  0.250000  0.250000  0.000000      6.000000
  0.333333  0.250000  0.000000     12.000000
  0.333333  0.333333  0.000000      2.000000
  0.000000  0.000000  0.125000      2.000000
  0.083333  0.000000  0.125000     12.000000
  0.166667  0.000000  0.125000     12.000000
  0.250000 -0.000000  0.125000     12.000000
  0.333333  0.000000  0.125000     12.000000
  0.416667 -0.000000  0.125000     12.000000
  0.500000 -0.000000  0.125000      6.000000
  0.083333  0.083333  0.125000     12.000000
  0.166667  0.083333  0.125000     24.000000
  0.250000  0.083333  0.125000     24.000000
  0.333333  0.083333  0.125000     24.000000
  0.416667  0.083333  0.125000     24.000000
  0.166667  0.166667  0.125000     12.000000
  0.250000  0.166667  0.125000     24.000000
  0.333333  0.166667  0.125000     24.000000
  0.416667  0.166667  0.125000     12.000000
  0.250000  0.250000  0.125000     12.000000
  0.333333  0.250000  0.125000     24.000000
  0.333333  0.333333  0.125000      4.000000
  0.000000  0.000000  0.250000      2.000000
  0.083333  0.000000  0.250000     12.000000
  0.166667  0.000000  0.250000     12.000000
  0.250000 -0.000000  0.250000     12.000000
  0.333333  0.000000  0.250000     12.000000
  0.416667 -0.000000  0.250000     12.000000
  0.500000 -0.000000  0.250000      6.000000
  0.083333  0.083333  0.250000     12.000000
  0.166667  0.083333  0.250000     24.000000
  0.250000  0.083333  0.250000     24.000000
  0.333333  0.083333  0.250000     24.000000
  0.416667  0.083333  0.250000     24.000000
  0.166667  0.166667  0.250000     12.000000
  0.250000  0.166667  0.250000     24.000000
  0.333333  0.166667  0.250000     24.000000
  0.416667  0.166667  0.250000     12.000000
  0.250000  0.250000  0.250000     12.000000
  0.333333  0.250000  0.250000     24.000000
  0.333333  0.333333  0.250000      4.000000
  0.000000  0.000000  0.375000      2.000000
  0.083333  0.000000  0.375000     12.000000
  0.166667  0.000000  0.375000     12.000000
  0.250000 -0.000000  0.375000     12.000000
  0.333333  0.000000  0.375000     12.000000
  0.416667 -0.000000  0.375000     12.000000
  0.500000 -0.000000  0.375000      6.000000
  0.083333  0.083333  0.375000     12.000000
  0.166667  0.083333  0.375000     24.000000
  0.250000  0.083333  0.375000     24.000000
  0.333333  0.083333  0.375000     24.000000
  0.416667  0.083333  0.375000     24.000000
  0.166667  0.166667  0.375000     12.000000
  0.250000  0.166667  0.375000     24.000000
  0.333333  0.166667  0.375000     24.000000
  0.416667  0.166667  0.375000     12.000000
  0.250000  0.250000  0.375000     12.000000
  0.333333  0.250000  0.375000     24.000000
  0.333333  0.333333  0.375000      4.000000
  0.000000  0.000000  0.500000      1.000000
  0.083333  0.000000  0.500000      6.000000
  0.166667  0.000000  0.500000      6.000000
  0.250000 -0.000000  0.500000      6.000000
  0.333333  0.000000  0.500000      6.000000
  0.416667 -0.000000  0.500000      6.000000
  0.500000 -0.000000  0.500000      3.000000
  0.083333  0.083333  0.500000      6.000000
  0.166667  0.083333  0.500000     12.000000
  0.250000  0.083333  0.500000     12.000000
  0.333333  0.083333  0.500000     12.000000
  0.416667  0.083333  0.500000     12.000000
  0.166667  0.166667  0.500000      6.000000
  0.250000  0.166667  0.500000     12.000000
  0.333333  0.166667  0.500000     12.000000
  0.416667  0.166667  0.500000      6.000000
  0.250000  0.250000  0.500000      6.000000
  0.333333  0.250000  0.500000     12.000000
  0.333333  0.333333  0.500000      2.000000
 
 Following cartesian coordinates:
            Coordinates               Weight
  0.000000  0.000000  0.000000      1.000000
  0.030193  0.017432  0.000000      6.000000
  0.060386  0.034864  0.000000      6.000000
  0.090580  0.052296  0.000000      6.000000
  0.120773  0.069728  0.000000      6.000000
  0.150966  0.087160  0.000000      6.000000
  0.181159  0.104592  0.000000      3.000000
  0.030193  0.052296  0.000000      6.000000
  0.060386  0.069728  0.000000     12.000000
  0.090580  0.087160  0.000000     12.000000
  0.120773  0.104592  0.000000     12.000000
  0.150966  0.122025  0.000000     12.000000
  0.060386  0.104592  0.000000      6.000000
  0.090580  0.122025  0.000000     12.000000
  0.120773  0.139457  0.000000     12.000000
  0.150966  0.156889  0.000000      6.000000
  0.090580  0.156889  0.000000      6.000000
  0.120773  0.174321  0.000000     12.000000
  0.120773  0.209185  0.000000      2.000000
  0.000000  0.000000  0.026096      2.000000
  0.030193  0.017432  0.026096     12.000000
  0.060386  0.034864  0.026096     12.000000
  0.090580  0.052296  0.026096     12.000000
  0.120773  0.069728  0.026096     12.000000
  0.150966  0.087160  0.026096     12.000000
  0.181159  0.104592  0.026096      6.000000
  0.030193  0.052296  0.026096     12.000000
  0.060386  0.069728  0.026096     24.000000
  0.090580  0.087160  0.026096     24.000000
  0.120773  0.104592  0.026096     24.000000
  0.150966  0.122025  0.026096     24.000000
  0.060386  0.104592  0.026096     12.000000
  0.090580  0.122025  0.026096     24.000000
  0.120773  0.139457  0.026096     24.000000
  0.150966  0.156889  0.026096     12.000000
  0.090580  0.156889  0.026096     12.000000
  0.120773  0.174321  0.026096     24.000000
  0.120773  0.209185  0.026096      4.000000
  0.000000  0.000000  0.052192      2.000000
  0.030193  0.017432  0.052192     12.000000
  0.060386  0.034864  0.052192     12.000000
  0.090580  0.052296  0.052192     12.000000
  0.120773  0.069728  0.052192     12.000000
  0.150966  0.087160  0.052192     12.000000
  0.181159  0.104592  0.052192      6.000000
  0.030193  0.052296  0.052192     12.000000
  0.060386  0.069728  0.052192     24.000000
  0.090580  0.087160  0.052192     24.000000
  0.120773  0.104592  0.052192     24.000000
  0.150966  0.122025  0.052192     24.000000
  0.060386  0.104592  0.052192     12.000000
  0.090580  0.122025  0.052192     24.000000
  0.120773  0.139457  0.052192     24.000000
  0.150966  0.156889  0.052192     12.000000
  0.090580  0.156889  0.052192     12.000000
  0.120773  0.174321  0.052192     24.000000
  0.120773  0.209185  0.052192      4.000000
  0.000000  0.000000  0.078288      2.000000
  0.030193  0.017432  0.078288     12.000000
  0.060386  0.034864  0.078288     12.000000
  0.090580  0.052296  0.078288     12.000000
  0.120773  0.069728  0.078288     12.000000
  0.150966  0.087160  0.078288     12.000000
  0.181159  0.104592  0.078288      6.000000
  0.030193  0.052296  0.078288     12.000000
  0.060386  0.069728  0.078288     24.000000
  0.090580  0.087160  0.078288     24.000000
  0.120773  0.104592  0.078288     24.000000
  0.150966  0.122025  0.078288     24.000000
  0.060386  0.104592  0.078288     12.000000
  0.090580  0.122025  0.078288     24.000000
  0.120773  0.139457  0.078288     24.000000
  0.150966  0.156889  0.078288     12.000000
  0.090580  0.156889  0.078288     12.000000
  0.120773  0.174321  0.078288     24.000000
  0.120773  0.209185  0.078288      4.000000
  0.000000  0.000000  0.104384      1.000000
  0.030193  0.017432  0.104384      6.000000
  0.060386  0.034864  0.104384      6.000000
  0.090580  0.052296  0.104384      6.000000
  0.120773  0.069728  0.104384      6.000000
  0.150966  0.087160  0.104384      6.000000
  0.181159  0.104592  0.104384      3.000000
  0.030193  0.052296  0.104384      6.000000
  0.060386  0.069728  0.104384     12.000000
  0.090580  0.087160  0.104384     12.000000
  0.120773  0.104592  0.104384     12.000000
  0.150966  0.122025  0.104384     12.000000
  0.060386  0.104592  0.104384      6.000000
  0.090580  0.122025  0.104384     12.000000
  0.120773  0.139457  0.104384     12.000000
  0.150966  0.156889  0.104384      6.000000
  0.090580  0.156889  0.104384      6.000000
  0.120773  0.174321  0.104384     12.000000
  0.120773  0.209185  0.104384      2.000000
 


--------------------------------------------------------------------------------------------------------




 Dimension of arrays:
   k-points           NKPTS =     95   k-points in BZ     NKDIM =     95   number of bands    NBANDS=     24
   number of dos      NEDOS =    301   number of ions     NIONS =      2
   non local maximal  LDIM  =      6   non local SUM 2l+1 LMDIM =     18
   total plane-waves  NPLWV =  14400
   max r-space proj   IRMAX =      1   max aug-charges    IRDMAX=  15713
   dimension x,y,z NGX =    20 NGY =   20 NGZ =   36
   dimension x,y,z NGXF=    40 NGYF=   40 NGZF=   72
   support grid    NGXF=    40 NGYF=   40 NGZF=   72
   ions per type =               2
   NGX,Y,Z   is equivalent  to a cutoff of  12.05, 12.05, 12.49 a.u.
   NGXF,Y,Z  is equivalent  to a cutoff of  24.09, 24.09, 24.99 a.u.

 SYSTEM =  Pt-hcc                                  
 POSCAR =  Pt                                      

 Startparameter for this run:
   NWRITE =      2    write-flag & timer
   PREC   = accura    normal or accurate (medium, high low for compatibility)
   ISTART =      0    job   : 0-new  1-cont  2-samecut
   ICHARG =      2    charge: 1-file 2-atom 10-const
   ISPIN  =      1    spin polarized calculation?
   LNONCOLLINEAR =      F non collinear calculations
   LSORBIT =      F    spin-orbit coupling
   INIWAV =      1    electr: 0-lowe 1-rand  2-diag
   LASPH  =      F    aspherical Exc in radial PAW
 Electronic Relaxation 1
   ENCUT  =  450.0 eV  33.07 Ry    5.75 a.u.   4.77  4.77  8.29*2*pi/ulx,y,z
   ENINI  =  450.0     initial cutoff
   ENAUG  =  527.0 eV  augmentation charge cutoff
   NELM   =    100;   NELMIN=  2; NELMDL= -5     # of ELM steps 
   EDIFF  = 0.1E-05   stopping-criterion for ELM
   LREAL  =      F    real-space projection
   NLSPLINE    = F    spline interpolate recip. space projectors
   LCOMPAT=      F    compatible to vasp.4.4
   GGA_COMPAT  = T    GGA compatible to vasp.4.4-vasp.4.6
   LMAXPAW     = -100 max onsite density
   LMAXMIX     =    2 max onsite mixed and CHGCAR
   VOSKOWN=      0    Vosko Wilk Nusair interpolation
   ROPT   =    0.00000
 Ionic relaxation
   EDIFFG = -.2E-01   stopping-criterion for IOM
   NSW    =      0    number of steps for IOM
   NBLOCK =      1;   KBLOCK =      1    inner block; outer block 
   IBRION =     -1    ionic relax: 0-MD 1-quasi-New 2-CG
   NFREE  =      0    steps in history (QN), initial steepest desc. (CG)
   ISIF   =      2    stress and relaxation
   IWAVPR =     10    prediction:  0-non 1-charg 2-wave 3-comb
   ISYM   =      1    0-nonsym 1-usesym 2-fastsym
   LCORR  =      T    Harris-Foulkes like correction to forces

   POTIM  = 0.5000    time-step for ionic-motion
   TEIN   =    0.0    initial temperature
   TEBEG  =    0.0;   TEEND  =   0.0 temperature during run
   SMASS  =  -3.00    Nose mass-parameter (am)
   estimated Nose-frequenzy (Omega)   =  0.10E-29 period in steps = 0.13E+47 mass=  -0.174E-27a.u.
   SCALEE = 1.0000    scale energy and forces
   NPACO  =    256;   APACO  = 10.0  distance and # of slots for P.C.
   PSTRESS=    0.0 pullay stress

  Mass of Ions in am
   POMASS = 195.08
  Ionic Valenz
   ZVAL   =  16.00
  Atomic Wigner-Seitz radii
   RWIGS  =  -1.00
  virtual crystal weights 
   VCA    =   1.00
   NELECT =      32.0000    total number of electrons
   NUPDOWN=      -1.0000    fix difference up-down

 DOS related values:
   EMIN   =  10.00;   EMAX   =-10.00  energy-range for DOS
   EFERMI =   0.00
   ISMEAR =     0;   SIGMA  =   0.05  broadening in eV -4-tet -1-fermi 0-gaus

 Electronic relaxation 2 (details)
   IALGO  =     38    algorithm
   LDIAG  =      T    sub-space diagonalisation (order eigenvalues)
   LSUBROT=      F    optimize rotation matrix (better conditioning)
   TURBO    =      0    0=normal 1=particle mesh
   IRESTART =      0    0=no restart 2=restart with 2 vectors
   NREBOOT  =      0    no. of reboots
   NMIN     =      0    reboot dimension
   EREF     =   0.00    reference energy to select bands
   IMIX   =      4    mixing-type and parameters
     AMIX     =   0.40;   BMIX     =  1.00
     AMIX_MAG =   1.60;   BMIX_MAG =  1.00
     AMIN     =   0.10
     WC   =   100.;   INIMIX=   1;  MIXPRE=   1;  MAXMIX= -45

 Intra band minimization:
   WEIMIN = 0.0000     energy-eigenvalue tresh-hold
   EBREAK =  0.10E-07  absolut break condition
   DEPER  =   0.30     relativ break condition  

   TIME   =   0.40     timestep for ELM

  volume/ion in A,a.u.               =      15.80       106.62
  Fermi-wavevector in a.u.,A,eV,Ry     =   1.643981  3.106673 36.772093  2.702673
  Thomas-Fermi vector in A             =   2.734024
 
 Write flags
   LWAVE        =      F    write WAVECAR
   LDOWNSAMPLE  =      F    k-point downsampling of WAVECAR
   LCHARG       =      F    write CHGCAR
   LVTOT        =      F    write LOCPOT, total local potential
   LVHAR        =      F    write LOCPOT, Hartree potential only
   LELF         =      F    write electronic localiz. function (ELF)
   LORBIT       =      0    0 simple, 1 ext, 2 COOP (PROOUT), +10 PAW based schemes


 Dipole corrections
   LMONO  =      F    monopole corrections only (constant potential shift)
   LDIPOL =      F    correct potential (dipole corrections)
   IDIPOL =      0    1-x, 2-y, 3-z, 4-all directions 
   EPSILON=  1.0000000 bulk dielectric constant

 Exchange correlation treatment:
   GGA     =    --    GGA type
   LEXCH   =     8    internal setting for exchange type
   LIBXC   =     F    Libxc                    
   VOSKOWN =     0    Vosko Wilk Nusair interpolation
   LHFCALC =     F    Hartree Fock is set to
   LHFONE  =     F    Hartree Fock one center treatment
   AEXX    =    0.0000 exact exchange contribution

 Linear response parameters
   LEPSILON=     F    determine dielectric tensor
   LRPA    =     F    only Hartree local field effects (RPA)
   LNABLA  =     F    use nabla operator in PAW spheres
   LVEL    =     F    velocity operator in full k-point grid
   CSHIFT  =0.1000    complex shift for real part using Kramers Kronig
   OMEGAMAX=  -1.0    maximum frequency
   DEG_THRESHOLD= 0.2000000E-02 threshold for treating states as degnerate
   RTIME   =   -0.100 relaxation time in fs
  (WPLASMAI=    0.000 imaginary part of plasma frequency in eV, 0.658/RTIME)
   DFIELD  = 0.0000000 0.0000000 0.0000000 field for delta impulse in time
 
  Optional k-point grid parameters
   LKPOINTS_OPT  =     F    use optional k-point grid
   KPOINTS_OPT_MODE=     1    mode for optional k-point grid
 
 Orbital magnetization related:
   ORBITALMAG=     F  switch on orbital magnetization
   LCHIMAG   =     F  perturbation theory with respect to B field
   DQ        =  0.001000  dq finite difference perturbation B field
   LLRAUG    =     F  two centre corrections for induced B field



--------------------------------------------------------------------------------------------------------


 Static calculation
 charge density and potential will be updated during run
 non-spin polarized calculation
 Variant of blocked Davidson
 Davidson routine will perform the subspace rotation
 perform sub-space diagonalisation
    after iterative eigenvector-optimisation
 modified Broyden-mixing scheme, WC =      100.0
 initial mixing is a Kerker type mixing with AMIX =  0.4000 and BMIX =      1.0000
 Hartree-type preconditioning will be used
 using additional bands            8
 reciprocal scheme for non local part
 use partial core corrections
 calculate Harris-corrections to forces 
   (improved forces if not selfconsistent)
 use gradient corrections 
 use of overlap-Matrix (Vanderbilt PP)
 Gauss-broadening in eV      SIGMA  =   0.05


--------------------------------------------------------------------------------------------------------


  energy-cutoff  :      450.00
  volume of cell :       31.60
      direct lattice vectors                 reciprocal lattice vectors
     2.760000000  0.000000000  0.000000000     0.362318841  0.209184880  0.000000000
    -1.380000000  2.390230114  0.000000000     0.000000000  0.418369760  0.000000000
     0.000000000  0.000000000  4.790000000     0.000000000  0.000000000  0.208768267

  length of vectors
     2.760000000  2.760000000  4.790000000     0.418369760  0.418369760  0.208768267


 
 k-points in units of 2pi/SCALE and weight: Automatic mesh                          
   0.00000000  0.00000000  0.00000000       0.001
   0.03019324  0.01743207  0.00000000       0.005
   0.06038647  0.03486415  0.00000000       0.005
   0.09057971  0.05229622  0.00000000       0.005
   0.12077295  0.06972829  0.00000000       0.005
   0.15096618  0.08716037  0.00000000       0.005
   0.18115942  0.10459244  0.00000000       0.003
   0.03019324  0.05229622  0.00000000       0.005
   0.06038647  0.06972829  0.00000000       0.010
   0.09057971  0.08716037  0.00000000       0.010
   0.12077295  0.10459244  0.00000000       0.010
   0.15096618  0.12202451  0.00000000       0.010
   0.06038647  0.10459244  0.00000000       0.005
   0.09057971  0.12202451  0.00000000       0.010
   0.12077295  0.13945659  0.00000000       0.010
   0.15096618  0.15688866  0.00000000       0.005
   0.09057971  0.15688866  0.00000000       0.005
   0.12077295  0.17432073  0.00000000       0.010
   0.12077295  0.20918488  0.00000000       0.002
   0.00000000  0.00000000  0.02609603       0.002
   0.03019324  0.01743207  0.02609603       0.010
   0.06038647  0.03486415  0.02609603       0.010
   0.09057971  0.05229622  0.02609603       0.010
   0.12077295  0.06972829  0.02609603       0.010
   0.15096618  0.08716037  0.02609603       0.010
   0.18115942  0.10459244  0.02609603       0.005
   0.03019324  0.05229622  0.02609603       0.010
   0.06038647  0.06972829  0.02609603       0.021
   0.09057971  0.08716037  0.02609603       0.021
   0.12077295  0.10459244  0.02609603       0.021
   0.15096618  0.12202451  0.02609603       0.021
   0.06038647  0.10459244  0.02609603       0.010
   0.09057971  0.12202451  0.02609603       0.021
   0.12077295  0.13945659  0.02609603       0.021
   0.15096618  0.15688866  0.02609603       0.010
   0.09057971  0.15688866  0.02609603       0.010
   0.12077295  0.17432073  0.02609603       0.021
   0.12077295  0.20918488  0.02609603       0.003
   0.00000000  0.00000000  0.05219207       0.002
   0.03019324  0.01743207  0.05219207       0.010
   0.06038647  0.03486415  0.05219207       0.010
   0.09057971  0.05229622  0.05219207       0.010
   0.12077295  0.06972829  0.05219207       0.010
   0.15096618  0.08716037  0.05219207       0.010
   0.18115942  0.10459244  0.05219207       0.005
   0.03019324  0.05229622  0.05219207       0.010
   0.06038647  0.06972829  0.05219207       0.021
   0.09057971  0.08716037  0.05219207       0.021
   0.12077295  0.10459244  0.05219207       0.021
   0.15096618  0.12202451  0.05219207       0.021
   0.06038647  0.10459244  0.05219207       0.010
   0.09057971  0.12202451  0.05219207       0.021
   0.12077295  0.13945659  0.05219207       0.021
   0.15096618  0.15688866  0.05219207       0.010
   0.09057971  0.15688866  0.05219207       0.010
   0.12077295  0.17432073  0.05219207       0.021
   0.12077295  0.20918488  0.05219207       0.003
   0.00000000  0.00000000  0.07828810       0.002
   0.03019324  0.01743207  0.07828810       0.010
   0.06038647  0.03486415  0.07828810       0.010
   0.09057971  0.05229622  0.07828810       0.010
   0.12077295  0.06972829  0.07828810       0.010
   0.15096618  0.08716037  0.07828810       0.010
   0.18115942  0.10459244  0.07828810       0.005
   0.03019324  0.05229622  0.07828810       0.010
   0.06038647  0.06972829  0.07828810       0.021
   0.09057971  0.08716037  0.07828810       0.021
   0.12077295  0.10459244  0.07828810       0.021
   0.15096618  0.12202451  0.07828810       0.021
   0.06038647  0.10459244  0.07828810       0.010
   0.09057971  0.12202451  0.07828810       0.021
   0.12077295  0.13945659  0.07828810       0.021
   0.15096618  0.15688866  0.07828810       0.010
   0.09057971  0.15688866  0.07828810       0.010
   0.12077295  0.17432073  0.07828810       0.021
   0.12077295  0.20918488  0.07828810       0.003
   0.00000000  0.00000000  0.10438413       0.001
   0.03019324  0.01743207  0.10438413       0.005
   0.06038647  0.03486415  0.10438413       0.005
   0.09057971  0.05229622  0.10438413       0.005
   0.12077295  0.06972829  0.10438413       0.005
   0.15096618  0.08716037  0.10438413       0.005
   0.18115942  0.10459244  0.10438413       0.003
   0.03019324  0.05229622  0.10438413       0.005
   0.06038647  0.06972829  0.10438413       0.010
   0.09057971  0.08716037  0.10438413       0.010
   0.12077295  0.10459244  0.10438413       0.010
   0.15096618  0.12202451  0.10438413       0.010
   0.06038647  0.10459244  0.10438413       0.005
   0.09057971  0.12202451  0.10438413       0.010
   0.12077295  0.13945659  0.10438413       0.010
   0.15096618  0.15688866  0.10438413       0.005
   0.09057971  0.15688866  0.10438413       0.005
   0.12077295  0.17432073  0.10438413       0.010
   0.12077295  0.20918488  0.10438413       0.002
 
 k-points in reciprocal lattice and weights: Automatic mesh                          
   0.00000000  0.00000000  0.00000000       0.001
   0.08333333  0.00000000  0.00000000       0.005
   0.16666667  0.00000000  0.00000000       0.005
   0.25000000 -0.00000000  0.00000000       0.005
   0.33333333  0.00000000  0.00000000       0.005
   0.41666667 -0.00000000  0.00000000       0.005
   0.50000000 -0.00000000  0.00000000       0.003
   0.08333333  0.08333333  0.00000000       0.005
   0.16666667  0.08333333  0.00000000       0.010
   0.25000000  0.08333333  0.00000000       0.010
   0.33333333  0.08333333  0.00000000       0.010
   0.41666667  0.08333333  0.00000000       0.010
   0.16666667  0.16666667  0.00000000       0.005
   0.25000000  0.16666667  0.00000000       0.010
   0.33333333  0.16666667  0.00000000       0.010
   0.41666667  0.16666667  0.00000000       0.005
   0.25000000  0.25000000  0.00000000       0.005
   0.33333333  0.25000000  0.00000000       0.010
   0.33333333  0.33333333  0.00000000       0.002
   0.00000000  0.00000000  0.12500000       0.002
   0.08333333  0.00000000  0.12500000       0.010
   0.16666667  0.00000000  0.12500000       0.010
   0.25000000 -0.00000000  0.12500000       0.010
   0.33333333  0.00000000  0.12500000       0.010
   0.41666667 -0.00000000  0.12500000       0.010
   0.50000000 -0.00000000  0.12500000       0.005
   0.08333333  0.08333333  0.12500000       0.010
   0.16666667  0.08333333  0.12500000       0.021
   0.25000000  0.08333333  0.12500000       0.021
   0.33333333  0.08333333  0.12500000       0.021
   0.41666667  0.08333333  0.12500000       0.021
   0.16666667  0.16666667  0.12500000       0.010
   0.25000000  0.16666667  0.12500000       0.021
   0.33333333  0.16666667  0.12500000       0.021
   0.41666667  0.16666667  0.12500000       0.010
   0.25000000  0.25000000  0.12500000       0.010
   0.33333333  0.25000000  0.12500000       0.021
   0.33333333  0.33333333  0.12500000       0.003
   0.00000000  0.00000000  0.25000000       0.002
   0.08333333  0.00000000  0.25000000       0.010
   0.16666667  0.00000000  0.25000000       0.010
   0.25000000 -0.00000000  0.25000000       0.010
   0.33333333  0.00000000  0.25000000       0.010
   0.41666667 -0.00000000  0.25000000       0.010
   0.50000000 -0.00000000  0.25000000       0.005
   0.08333333  0.08333333  0.25000000       0.010
   0.16666667  0.08333333  0.25000000       0.021
   0.25000000  0.08333333  0.25000000       0.021
   0.33333333  0.08333333  0.25000000       0.021
   0.41666667  0.08333333  0.25000000       0.021
   0.16666667  0.16666667  0.25000000       0.010
   0.25000000  0.16666667  0.25000000       0.021
   0.33333333  0.16666667  0.25000000       0.021
   0.41666667  0.16666667  0.25000000       0.010
   0.25000000  0.25000000  0.25000000       0.010
   0.33333333  0.25000000  0.25000000       0.021
   0.33333333  0.33333333  0.25000000       0.003
   0.00000000  0.00000000  0.37500000       0.002
   0.08333333  0.00000000  0.37500000       0.010
   0.16666667  0.00000000  0.37500000       0.010
   0.25000000 -0.00000000  0.37500000       0.010
   0.33333333  0.00000000  0.37500000       0.010
   0.41666667 -0.00000000  0.37500000       0.010
   0.50000000 -0.00000000  0.37500000       0.005
   0.08333333  0.08333333  0.37500000       0.010
   0.16666667  0.08333333  0.37500000       0.021
   0.25000000  0.08333333  0.37500000       0.021
   0.33333333  0.08333333  0.37500000       0.021
   0.41666667  0.08333333  0.37500000       0.021
   0.16666667  0.16666667  0.37500000       0.010
   0.25000000  0.16666667  0.37500000       0.021
   0.33333333  0.16666667  0.37500000       0.021
   0.41666667  0.16666667  0.37500000       0.010
   0.25000000  0.25000000  0.37500000       0.010
   0.33333333  0.25000000  0.37500000       0.021
   0.33333333  0.33333333  0.37500000       0.003
   0.00000000  0.00000000  0.50000000       0.001
   0.08333333  0.00000000  0.50000000       0.005
   0.16666667  0.00000000  0.50000000       0.005
   0.25000000 -0.00000000  0.50000000       0.005
   0.33333333  0.00000000  0.50000000       0.005
   0.41666667 -0.00000000  0.50000000       0.005
   0.50000000 -0.00000000  0.50000000       0.003
   0.08333333  0.08333333  0.50000000       0.005
   0.16666667  0.08333333  0.50000000       0.010
   0.25000000  0.08333333  0.50000000       0.010
   0.33333333  0.08333333  0.50000000       0.010
   0.41666667  0.08333333  0.50000000       0.010
   0.16666667  0.16666667  0.50000000       0.005
   0.25000000  0.16666667  0.50000000       0.010
   0.33333333  0.16666667  0.50000000       0.010
   0.41666667  0.16666667  0.50000000       0.005
   0.25000000  0.25000000  0.50000000       0.005
   0.33333333  0.25000000  0.50000000       0.010
   0.33333333  0.33333333  0.50000000       0.002
 
 position of ions in fractional coordinates (direct lattice) 
   0.00000000  0.00000000  0.00000000
   0.33333333  0.66666667  0.50000000
 
 position of ions in cartesian coordinates  (Angst):
   0.00000000  0.00000000  0.00000000
   0.00000000  1.59348674  2.39500000
 


--------------------------------------------------------------------------------------------------------


 k-point   1 :   0.0000 0.0000 0.0000  plane waves:     713
 k-point   2 :   0.0833 0.0000 0.0000  plane waves:     693
 k-point   3 :   0.1667 0.0000 0.0000  plane waves:     690
 k-point   4 :   0.2500-0.0000 0.0000  plane waves:     682
 k-point   5 :   0.3333 0.0000 0.0000  plane waves:     692
 k-point   6 :   0.4167-0.0000 0.0000  plane waves:     690
 k-point   7 :   0.5000-0.0000 0.0000  plane waves:     700
 k-point   8 :   0.0833 0.0833 0.0000  plane waves:     689
 k-point   9 :   0.1667 0.0833 0.0000  plane waves:     689
 k-point  10 :   0.2500 0.0833 0.0000  plane waves:     682
 k-point  11 :   0.3333 0.0833 0.0000  plane waves:     684
 k-point  12 :   0.4167 0.0833 0.0000  plane waves:     687
 k-point  13 :   0.1667 0.1667 0.0000  plane waves:     689
 k-point  14 :   0.2500 0.1667 0.0000  plane waves:     682
 k-point  15 :   0.3333 0.1667 0.0000  plane waves:     681
 k-point  16 :   0.4167 0.1667 0.0000  plane waves:     680
 k-point  17 :   0.2500 0.2500 0.0000  plane waves:     673
 k-point  18 :   0.3333 0.2500 0.0000  plane waves:     691
 k-point  19 :   0.3333 0.3333 0.0000  plane waves:     681
 k-point  20 :   0.0000 0.0000 0.1250  plane waves:     689
 k-point  21 :   0.0833 0.0000 0.1250  plane waves:     691
 k-point  22 :   0.1667 0.0000 0.1250  plane waves:     685
 k-point  23 :   0.2500-0.0000 0.1250  plane waves:     679
 k-point  24 :   0.3333 0.0000 0.1250  plane waves:     683
 k-point  25 :   0.4167-0.0000 0.1250  plane waves:     690
 k-point  26 :   0.5000-0.0000 0.1250  plane waves:     694
 k-point  27 :   0.0833 0.0833 0.1250  plane waves:     687
 k-point  28 :   0.1667 0.0833 0.1250  plane waves:     684
 k-point  29 :   0.2500 0.0833 0.1250  plane waves:     684
 k-point  30 :   0.3333 0.0833 0.1250  plane waves:     688
 k-point  31 :   0.4167 0.0833 0.1250  plane waves:     686
 k-point  32 :   0.1667 0.1667 0.1250  plane waves:     687
 k-point  33 :   0.2500 0.1667 0.1250  plane waves:     686
 k-point  34 :   0.3333 0.1667 0.1250  plane waves:     681
 k-point  35 :   0.4167 0.1667 0.1250  plane waves:     683
 k-point  36 :   0.2500 0.2500 0.1250  plane waves:     680
 k-point  37 :   0.3333 0.2500 0.1250  plane waves:     688
 k-point  38 :   0.3333 0.3333 0.1250  plane waves:     687
 k-point  39 :   0.0000 0.0000 0.2500  plane waves:     689
 k-point  40 :   0.0833 0.0000 0.2500  plane waves:     691
 k-point  41 :   0.1667 0.0000 0.2500  plane waves:     683
 k-point  42 :   0.2500-0.0000 0.2500  plane waves:     685
 k-point  43 :   0.3333 0.0000 0.2500  plane waves:     689
 k-point  44 :   0.4167-0.0000 0.2500  plane waves:     684
 k-point  45 :   0.5000-0.0000 0.2500  plane waves:     688
 k-point  46 :   0.0833 0.0833 0.2500  plane waves:     681
 k-point  47 :   0.1667 0.0833 0.2500  plane waves:     679
 k-point  48 :   0.2500 0.0833 0.2500  plane waves:     688
 k-point  49 :   0.3333 0.0833 0.2500  plane waves:     684
 k-point  50 :   0.4167 0.0833 0.2500  plane waves:     687
 k-point  51 :   0.1667 0.1667 0.2500  plane waves:     685
 k-point  52 :   0.2500 0.1667 0.2500  plane waves:     685
 k-point  53 :   0.3333 0.1667 0.2500  plane waves:     684
 k-point  54 :   0.4167 0.1667 0.2500  plane waves:     687
 k-point  55 :   0.2500 0.2500 0.2500  plane waves:     689
 k-point  56 :   0.3333 0.2500 0.2500  plane waves:     682
 k-point  57 :   0.3333 0.3333 0.2500  plane waves:     675
 k-point  58 :   0.0000 0.0000 0.3750  plane waves:     676
 k-point  59 :   0.0833 0.0000 0.3750  plane waves:     681
 k-point  60 :   0.1667 0.0000 0.3750  plane waves:     679
 k-point  61 :   0.2500-0.0000 0.3750  plane waves:     676
 k-point  62 :   0.3333 0.0000 0.3750  plane waves:     685
 k-point  63 :   0.4167-0.0000 0.3750  plane waves:     687
 k-point  64 :   0.5000-0.0000 0.3750  plane waves:     690
 k-point  65 :   0.0833 0.0833 0.3750  plane waves:     683
 k-point  66 :   0.1667 0.0833 0.3750  plane waves:     679
 k-point  67 :   0.2500 0.0833 0.3750  plane waves:     683
 k-point  68 :   0.3333 0.0833 0.3750  plane waves:     687
 k-point  69 :   0.4167 0.0833 0.3750  plane waves:     689
 k-point  70 :   0.1667 0.1667 0.3750  plane waves:     687
 k-point  71 :   0.2500 0.1667 0.3750  plane waves:     687
 k-point  72 :   0.3333 0.1667 0.3750  plane waves:     690
 k-point  73 :   0.4167 0.1667 0.3750  plane waves:     686
 k-point  74 :   0.2500 0.2500 0.3750  plane waves:     690
 k-point  75 :   0.3333 0.2500 0.3750  plane waves:     688
 k-point  76 :   0.3333 0.3333 0.3750  plane waves:     678
 k-point  77 :   0.0000 0.0000 0.5000  plane waves:     688
 k-point  78 :   0.0833 0.0000 0.5000  plane waves:     680
 k-point  79 :   0.1667 0.0000 0.5000  plane waves:     684
 k-point  80 :   0.2500-0.0000 0.5000  plane waves:     674
 k-point  81 :   0.3333 0.0000 0.5000  plane waves:     680
 k-point  82 :   0.4167-0.0000 0.5000  plane waves:     680
 k-point  83 :   0.5000-0.0000 0.5000  plane waves:     676
 k-point  84 :   0.0833 0.0833 0.5000  plane waves:     684
 k-point  85 :   0.1667 0.0833 0.5000  plane waves:     678
 k-point  86 :   0.2500 0.0833 0.5000  plane waves:     686
 k-point  87 :   0.3333 0.0833 0.5000  plane waves:     684
 k-point  88 :   0.4167 0.0833 0.5000  plane waves:     692
 k-point  89 :   0.1667 0.1667 0.5000  plane waves:     682
 k-point  90 :   0.2500 0.1667 0.5000  plane waves:     688
 k-point  91 :   0.3333 0.1667 0.5000  plane waves:     694
 k-point  92 :   0.4167 0.1667 0.5000  plane waves:     694
 k-point  93 :   0.2500 0.2500 0.5000  plane waves:     700
 k-point  94 :   0.3333 0.2500 0.5000  plane waves:     686
 k-point  95 :   0.3333 0.3333 0.5000  plane waves:     690

 maximum and minimum number of plane-waves per node :       713      673

 maximum number of plane-waves:       713
 maximum index in each direction: 
   IXMAX=    4   IYMAX=    4   IZMAX=    8
   IXMIN=   -5   IYMIN=   -5   IZMIN=   -8


 serial   3D FFT for wavefunctions
 parallel 3D FFT for charge:
    minimum data exchange during FFTs selected (reduces bandwidth)


 total amount of memory used by VASP MPI-rank0    42188. kBytes
=======================================================================

   base      :      30000. kBytes
   nonl-proj :       9872. kBytes
   fftplans  :        254. kBytes
   grid      :        864. kBytes
   one-center:         31. kBytes
   wavefun   :       1167. kBytes
 
     INWAV:  cpu time      0.0000: real time      0.0001
 Broyden mixing: mesh for mixing (old mesh)
   NGX =  9   NGY =  9   NGZ = 17
  (NGX  = 40   NGY  = 40   NGZ  = 72)
  gives a total of   1377 points

 initial charge density was supplied:
 charge density of overlapping atoms calculated
 number of electron      32.0000000 magnetization 
 keeping initial charge density in first step


--------------------------------------------------------------------------------------------------------


 Maximum index for augmentation-charges          730 (set IRDMAX)


--------------------------------------------------------------------------------------------------------


 First call to EWALD:  gamma=   0.561
 Maximum number of real-space cells 3x 3x 2
 Maximum number of reciprocal cells 2x 2x 4

    FEWALD:  cpu time      0.0015: real time      0.0015


--------------------------------------- Iteration      1(   1)  ---------------------------------------


    POTLOK:  cpu time      0.0039: real time      0.0040
    SETDIJ:  cpu time      0.0023: real time      0.0023
     EDDAV:  cpu time      0.4335: real time      0.4357
       DOS:  cpu time      0.0007: real time      0.0007
    --------------------------------------------
      LOOP:  cpu time      0.4404: real time      0.4426

 eigenvalue-minimisations  :  4608
 total energy-change (2. order) : 0.1421008E+03  (-0.2314434E+04)
 number of electron      32.0000000 magnetization 
 augmentation part       32.0000000 magnetization 

 Free energy of the ion-electron system (eV)
  ---------------------------------------------------
  alpha Z        PSCENC =       303.71314961
  Ewald energy   TEWEN  =     -4240.69024974
  -Hartree energ DENC   =      -819.48907223
  -exchange      EXHF   =         0.00000000
  -V(xc)+E(xc)   XCENC  =       127.32804754
  PAW double counting   =      4131.50523274    -4061.67189606
  entropy T*S    EENTRO =        -0.00140157
  eigenvalues    EBANDS =      -155.02267562
  atomic energy  EATOM  =      4856.42966544
  Solvation  Ediel_sol  =         0.00000000
  ---------------------------------------------------
  free energy    TOTEN  =       142.10080012 eV

  energy without entropy =      142.10220170  energy(sigma->0) =      142.10150091


--------------------------------------------------------------------------------------------------------




--------------------------------------- Iteration      1(   2)  ---------------------------------------


     EDDAV:  cpu time      0.4399: real time      0.4426
       DOS:  cpu time      0.0005: real time      0.0005
    --------------------------------------------
      LOOP:  cpu time      0.4403: real time      0.4430

 eigenvalue-minimisations  :  4704
 total energy-change (2. order) :-0.1534432E+03  (-0.1527617E+03)
 number of electron      32.0000000 magnetization 
 augmentation part       32.0000000 magnetization 

 Free energy of the ion-electron system (eV)
  ---------------------------------------------------
  alpha Z        PSCENC =       303.71314961
  Ewald energy   TEWEN  =     -4240.69024974
  -Hartree energ DENC   =      -819.48907223
  -exchange      EXHF   =         0.00000000
  -V(xc)+E(xc)   XCENC  =       127.32804754
  PAW double counting   =      4131.50523274    -4061.67189606
  entropy T*S    EENTRO =        -0.00432642
  eigenvalues    EBANDS =      -308.46297760
  atomic energy  EATOM  =      4856.42966544
  Solvation  Ediel_sol  =         0.00000000
  ---------------------------------------------------
  free energy    TOTEN  =       -11.34242671 eV

  energy without entropy =      -11.33810029  energy(sigma->0) =      -11.34026350


--------------------------------------------------------------------------------------------------------




--------------------------------------- Iteration      1(   3)  ---------------------------------------


     EDDAV:  cpu time      0.6766: real time      0.6798
       DOS:  cpu time      0.0005: real time      0.0005
    --------------------------------------------
      LOOP:  cpu time      0.6771: real time      0.6803

 eigenvalue-minimisations  :  6024
 total energy-change (2. order) :-0.1416687E+01  (-0.1410193E+01)
 number of electron      32.0000000 magnetization 
 augmentation part       32.0000000 magnetization 

 Free energy of the ion-electron system (eV)
  ---------------------------------------------------
  alpha Z        PSCENC =       303.71314961
  Ewald energy   TEWEN  =     -4240.69024974
  -Hartree energ DENC   =      -819.48907223
  -exchange      EXHF   =         0.00000000
  -V(xc)+E(xc)   XCENC  =       127.32804754
  PAW double counting   =      4131.50523274    -4061.67189606
  entropy T*S    EENTRO =        -0.00541145
  eigenvalues    EBANDS =      -309.87857913
  atomic energy  EATOM  =      4856.42966544
  Solvation  Ediel_sol  =         0.00000000
  ---------------------------------------------------
  free energy    TOTEN  =       -12.75911327 eV

  energy without entropy =      -12.75370182  energy(sigma->0) =      -12.75640754


--------------------------------------------------------------------------------------------------------




--------------------------------------- Iteration      1(   4)  ---------------------------------------


     EDDAV:  cpu time      0.7904: real time      0.7941
       DOS:  cpu time      0.0005: real time      0.0005
    --------------------------------------------
      LOOP:  cpu time      0.7909: real time      0.7945

 eigenvalue-minimisations  :  6720
 total energy-change (2. order) :-0.4458318E-02  (-0.4458160E-02)
 number of electron      32.0000000 magnetization 
 augmentation part       32.0000000 magnetization 

 Free energy of the ion-electron system (eV)
  ---------------------------------------------------
  alpha Z        PSCENC =       303.71314961
  Ewald energy   TEWEN  =     -4240.69024974
  -Hartree energ DENC   =      -819.48907223
  -exchange      EXHF   =         0.00000000
  -V(xc)+E(xc)   XCENC  =       127.32804754
  PAW double counting   =      4131.50523274    -4061.67189606
  entropy T*S    EENTRO =        -0.00541990
  eigenvalues    EBANDS =      -309.88302899
  atomic energy  EATOM  =      4856.42966544
  Solvation  Ediel_sol  =         0.00000000
  ---------------------------------------------------
  free energy    TOTEN  =       -12.76357158 eV

  energy without entropy =      -12.75815168  energy(sigma->0) =      -12.76086163


--------------------------------------------------------------------------------------------------------




--------------------------------------- Iteration      1(   5)  ---------------------------------------


     EDDAV:  cpu time      0.7107: real time      0.7140
       DOS:  cpu time      0.0005: real time      0.0005
    CHARGE:  cpu time      0.0284: real time      0.0285
    MIXING:  cpu time      0.0004: real time      0.0004
    --------------------------------------------
      LOOP:  cpu time      0.7399: real time      0.7433

 eigenvalue-minimisations  :  6216
 total energy-change (2. order) :-0.1074258E-05  (-0.1075083E-05)
 number of electron      31.9999996 magnetization 
 augmentation part        7.9508917 magnetization 

 Broyden mixing:
  rms(total) = 0.19707E+01    rms(broyden)= 0.19705E+01
  rms(prec ) = 0.21906E+01
  weight for this iteration     100.00

 Free energy of the ion-electron system (eV)
  ---------------------------------------------------
  alpha Z        PSCENC =       303.71314961
  Ewald energy   TEWEN  =     -4240.69024974
  -Hartree energ DENC   =      -819.48907223
  -exchange      EXHF   =         0.00000000
  -V(xc)+E(xc)   XCENC  =       127.32804754
  PAW double counting   =      4131.50523274    -4061.67189606
  entropy T*S    EENTRO =        -0.00541991
  eigenvalues    EBANDS =      -309.88303006
  atomic energy  EATOM  =      4856.42966544
  Solvation  Ediel_sol  =         0.00000000
  ---------------------------------------------------
  free energy    TOTEN  =       -12.76357266 eV

  energy without entropy =      -12.75815275  energy(sigma->0) =      -12.76086270


--------------------------------------------------------------------------------------------------------




--------------------------------------- Iteration      1(   6)  ---------------------------------------


    POTLOK:  cpu time      0.0035: real time      0.0037
    SETDIJ:  cpu time      0.0022: real time      0.0022
     EDDAV:  cpu time      0.4381: real time      0.4401
       DOS:  cpu time      0.0005: real time      0.0005
    CHARGE:  cpu time      0.0275: real time      0.0276
    MIXING:  cpu time      0.0003: real time      0.0003
    --------------------------------------------
      LOOP:  cpu time      0.4720: real time      0.4743

 eigenvalue-minimisations  :  4704
 total energy-change (2. order) : 0.6816001E+00  (-0.2644128E+00)
 number of electron      31.9999996 magnetization 
 augmentation part        8.1843447 magnetization 

 Broyden mixing:
  rms(total) = 0.59611E+00    rms(broyden)= 0.59610E+00
  rms(prec ) = 0.63606E+00
  weight for this iteration     100.00

 eigenvalues of (default mixing * dielectric matrix)
  average eigenvalue GAMMA=   1.4062
  1.4062

 Free energy of the ion-electron system (eV)
  ---------------------------------------------------
  alpha Z        PSCENC =       303.71314961
  Ewald energy   TEWEN  =     -4240.69024974
  -Hartree energ DENC   =      -788.21889483
  -exchange      EXHF   =         0.00000000
  -V(xc)+E(xc)   XCENC  =       125.98933294
  PAW double counting   =      4438.59536868    -4372.82846474
  entropy T*S    EENTRO =        -0.00618648
  eigenvalues    EBANDS =      -335.06569349
  atomic energy  EATOM  =      4856.42966544
  Solvation  Ediel_sol  =         0.00000000
  ---------------------------------------------------
  free energy    TOTEN  =       -12.08197261 eV

  energy without entropy =      -12.07578612  energy(sigma->0) =      -12.07887936


--------------------------------------------------------------------------------------------------------




--------------------------------------- Iteration      1(   7)  ---------------------------------------


    POTLOK:  cpu time      0.0033: real time      0.0035
    SETDIJ:  cpu time      0.0019: real time      0.0019
     EDDAV:  cpu time      0.6834: real time      0.6865
       DOS:  cpu time      0.0005: real time      0.0005
    CHARGE:  cpu time      0.0278: real time      0.0279
    MIXING:  cpu time      0.0004: real time      0.0004
    --------------------------------------------
      LOOP:  cpu time      0.7174: real time      0.7207

 eigenvalue-minimisations  :  6216
 total energy-change (2. order) : 0.3247974E-01  (-0.1460791E-01)
 number of electron      31.9999996 magnetization 
 augmentation part        8.2358143 magnetization 

 Broyden mixing:
  rms(total) = 0.18394E+00    rms(broyden)= 0.18394E+00
  rms(prec ) = 0.19583E+00
  weight for this iteration     100.00

 eigenvalues of (default mixing * dielectric matrix)
  average eigenvalue GAMMA=   1.9324
  1.1673  2.6975

 Free energy of the ion-electron system (eV)
  ---------------------------------------------------
  alpha Z        PSCENC =       303.71314961
  Ewald energy   TEWEN  =     -4240.69024974
  -Hartree energ DENC   =      -780.54987916
  -exchange      EXHF   =         0.00000000
  -V(xc)+E(xc)   XCENC  =       125.64012920
  PAW double counting   =      4559.50820313    -4494.78641252
  entropy T*S    EENTRO =        -0.00655289
  eigenvalues    EBANDS =      -341.30754594
  atomic energy  EATOM  =      4856.42966544
  Solvation  Ediel_sol  =         0.00000000
  ---------------------------------------------------
  free energy    TOTEN  =       -12.04949287 eV

  energy without entropy =      -12.04293997  energy(sigma->0) =      -12.04621642


--------------------------------------------------------------------------------------------------------




--------------------------------------- Iteration      1(   8)  ---------------------------------------


    POTLOK:  cpu time      0.0035: real time      0.0037
    SETDIJ:  cpu time      0.0020: real time      0.0020
     EDDAV:  cpu time      0.4918: real time      0.4941
       DOS:  cpu time      0.0005: real time      0.0005
    CHARGE:  cpu time      0.0275: real time      0.0275
    MIXING:  cpu time      0.0005: real time      0.0005
    --------------------------------------------
      LOOP:  cpu time      0.5257: real time      0.5283

 eigenvalue-minimisations  :  5016
 total energy-change (2. order) : 0.2297927E-02  (-0.8281640E-03)
 number of electron      31.9999996 magnetization 
 augmentation part        8.2267959 magnetization 

 Broyden mixing:
  rms(total) = 0.24196E-01    rms(broyden)= 0.24183E-01
  rms(prec ) = 0.25734E-01
  weight for this iteration     100.00

 eigenvalues of (default mixing * dielectric matrix)
  average eigenvalue GAMMA=   1.5598
  1.0516  1.1883  2.4397

 Free energy of the ion-electron system (eV)
  ---------------------------------------------------
  alpha Z        PSCENC =       303.71314961
  Ewald energy   TEWEN  =     -4240.69024974
  -Hartree energ DENC   =      -780.54672927
  -exchange      EXHF   =         0.00000000
  -V(xc)+E(xc)   XCENC  =       125.61347184
  PAW double counting   =      4631.80210965    -4567.08423242
  entropy T*S    EENTRO =        -0.00659130
  eigenvalues    EBANDS =      -341.27778876
  atomic energy  EATOM  =      4856.42966544
  Solvation  Ediel_sol  =         0.00000000
  ---------------------------------------------------
  free energy    TOTEN  =       -12.04719494 eV

  energy without entropy =      -12.04060364  energy(sigma->0) =      -12.04389929


--------------------------------------------------------------------------------------------------------




--------------------------------------- Iteration      1(   9)  ---------------------------------------


    POTLOK:  cpu time      0.0033: real time      0.0034
    SETDIJ:  cpu time      0.0019: real time      0.0019
     EDDAV:  cpu time      0.7039: real time      0.7070
       DOS:  cpu time      0.0005: real time      0.0005
    CHARGE:  cpu time      0.0271: real time      0.0272
    MIXING:  cpu time      0.0004: real time      0.0004
    --------------------------------------------
      LOOP:  cpu time      0.7371: real time      0.7404

 eigenvalue-minimisations  :  6240
 total energy-change (2. order) : 0.1596392E-03  (-0.1208833E-04)
 number of electron      31.9999996 magnetization 
 augmentation part        8.2270552 magnetization 

 Broyden mixing:
  rms(total) = 0.22625E-02    rms(broyden)= 0.22604E-02
  rms(prec ) = 0.29017E-02
  weight for this iteration     100.00

 eigenvalues of (default mixing * dielectric matrix)
  average eigenvalue GAMMA=   1.8210
  1.0207  1.1761  2.7589  2.3283

 Free energy of the ion-electron system (eV)
  ---------------------------------------------------
  alpha Z        PSCENC =       303.71314961
  Ewald energy   TEWEN  =     -4240.69024974
  -Hartree energ DENC   =      -780.68930969
  -exchange      EXHF   =         0.00000000
  -V(xc)+E(xc)   XCENC  =       125.62209420
  PAW double counting   =      4625.24746851    -4560.47601797
  entropy T*S    EENTRO =        -0.00658882
  eigenvalues    EBANDS =      -341.19724685
  atomic energy  EATOM  =      4856.42966544
  Solvation  Ediel_sol  =         0.00000000
  ---------------------------------------------------
  free energy    TOTEN  =       -12.04703530 eV

  energy without entropy =      -12.04044648  energy(sigma->0) =      -12.04374089


--------------------------------------------------------------------------------------------------------




--------------------------------------- Iteration      1(  10)  ---------------------------------------


    POTLOK:  cpu time      0.0032: real time      0.0034
    SETDIJ:  cpu time      0.0020: real time      0.0020
     EDDAV:  cpu time      0.5331: real time      0.5355
       DOS:  cpu time      0.0005: real time      0.0005
    CHARGE:  cpu time      0.0272: real time      0.0273
    MIXING:  cpu time      0.0003: real time      0.0003
    --------------------------------------------
      LOOP:  cpu time      0.5663: real time      0.5690

 eigenvalue-minimisations  :  5256
 total energy-change (2. order) :-0.1118163E-04  (-0.1165426E-05)
 number of electron      31.9999996 magnetization 
 augmentation part        8.2271815 magnetization 

 Broyden mixing:
  rms(total) = 0.99140E-03    rms(broyden)= 0.99117E-03
  rms(prec ) = 0.10359E-02
  weight for this iteration     100.00

 eigenvalues of (default mixing * dielectric matrix)
  average eigenvalue GAMMA=   1.6746
  2.7080  2.3475  0.9603  1.1786  1.1786

 Free energy of the ion-electron system (eV)
  ---------------------------------------------------
  alpha Z        PSCENC =       303.71314961
  Ewald energy   TEWEN  =     -4240.69024974
  -Hartree energ DENC   =      -780.73682141
  -exchange      EXHF   =         0.00000000
  -V(xc)+E(xc)   XCENC  =       125.62386245
  PAW double counting   =      4628.54904655    -4563.72573641
  entropy T*S    EENTRO =        -0.00659117
  eigenvalues    EBANDS =      -341.20337182
  atomic energy  EATOM  =      4856.42966544
  Solvation  Ediel_sol  =         0.00000000
  ---------------------------------------------------
  free energy    TOTEN  =       -12.04704648 eV

  energy without entropy =      -12.04045531  energy(sigma->0) =      -12.04375090


--------------------------------------------------------------------------------------------------------




--------------------------------------- Iteration      1(  11)  ---------------------------------------


    POTLOK:  cpu time      0.0033: real time      0.0034
    SETDIJ:  cpu time      0.0020: real time      0.0020
     EDDAV:  cpu time      0.3703: real time      0.3720
       DOS:  cpu time      0.0005: real time      0.0005
    --------------------------------------------
      LOOP:  cpu time      0.3760: real time      0.3778

 eigenvalue-minimisations  :  3456
 total energy-change (2. order) : 0.5546617E-06  (-0.2033528E-07)
 number of electron      31.9999996 magnetization 
 augmentation part        8.2271815 magnetization 

 Free energy of the ion-electron system (eV)
  ---------------------------------------------------
  alpha Z        PSCENC =       303.71314961
  Ewald energy   TEWEN  =     -4240.69024974
  -Hartree energ DENC   =      -780.74222570
  -exchange      EXHF   =         0.00000000
  -V(xc)+E(xc)   XCENC  =       125.62409685
  PAW double counting   =      4628.35485033    -4563.52823564
  entropy T*S    EENTRO =        -0.00658986
  eigenvalues    EBANDS =      -341.20150723
  atomic energy  EATOM  =      4856.42966544
  Solvation  Ediel_sol  =         0.00000000
  ---------------------------------------------------
  free energy    TOTEN  =       -12.04704593 eV

  energy without entropy =      -12.04045607  energy(sigma->0) =      -12.04375100


--------------------------------------------------------------------------------------------------------




 average (electrostatic) potential at core
  the test charge radii are     0.9952
  (the norm of the test charge is              1.0000)
       1 -89.4857       2 -89.4857
 
 
 
 E-fermi :  11.1241     XC(G=0): -13.6993     alpha+bet :-16.6031

 Fermi energy:        11.1241441685

 k-point     1 :       0.0000    0.0000    0.0000
  band No.  band energies     occupation 
      1     -41.4895      2.00000
      2     -41.3007      2.00000
      3     -41.3007      2.00000
      4     -41.2606      2.00000
      5     -41.2606      2.00000
      6     -41.1608      2.00000
      7       1.4212      2.00000
      8       4.0693      2.00000
      9       7.1940      2.00000
     10       7.7184      2.00000
     11       7.7184      2.00000
     12       8.0833      2.00000
     13       8.0833      2.00000
     14       9.3386      2.00000
     15       9.3386      2.00000
     16      10.4147      2.00000
     17      10.9153      2.00000
     18      10.9153      2.00000
     19      15.7974      0.00000
     20      26.2340      0.00000
     21      26.8062      0.00000
     22      28.3840      0.00000
     23      32.1631      0.00000
     24      32.1631      0.00000

 k-point     2 :       0.0833    0.0000    0.0000
  band No.  band energies     occupation 
      1     -41.4808      2.00000
      2     -41.3254      2.00000
      3     -41.3073      2.00000
      4     -41.2862      2.00000
      5     -41.2655      2.00000
      6     -41.1625      2.00000
      7       1.6736      2.00000
      8       4.3002      2.00000
      9       7.1649      2.00000
     10       7.7128      2.00000
     11       7.9112      2.00000
     12       7.9675      2.00000
     13       8.2665      2.00000
     14       8.9692      2.00000
     15       9.2175      2.00000
     16       9.4206      2.00000
     17      10.9613      2.00000
     18      12.3279      0.00000
     19      15.7723      0.00000
     20      26.5664      0.00000
     21      27.1805      0.00000
     22      28.6637      0.00000
     23      30.8430      0.00000
     24      31.0305      0.00000

 k-point     3 :       0.1667    0.0000    0.0000
  band No.  band energies     occupation 
      1     -41.4572      2.00000
      2     -41.3946      2.00000
      3     -41.3565      2.00000
      4     -41.3272      2.00000
      5     -41.2799      2.00000
      6     -41.1683      2.00000
      7       2.3853      2.00000
      8       4.8822      2.00000
      9       6.9658      2.00000
     10       7.5701      2.00000
     11       7.8237      2.00000
     12       8.0991      2.00000
     13       8.4662      2.00000
     14       8.7919      2.00000
     15       8.9268      2.00000
     16       8.9751      2.00000
     17      11.0470      1.97092
     18      14.1056      0.00000
     19      15.7135      0.00000
     20      26.1619      0.00000
     21      27.9953      0.00000
     22      28.7170      0.00000
     23      29.0556      0.00000
     24      29.5504      0.00000

 k-point     4 :       0.2500   -0.0000    0.0000
  band No.  band energies     occupation 
      1     -41.4893      2.00000
      2     -41.4503      2.00000
      3     -41.4227      2.00000
      4     -41.3537      2.00000
      5     -41.2997      2.00000
      6     -41.1786      2.00000
      7       3.3865      2.00000
      8       5.3015      2.00000
      9       6.8206      2.00000
     10       7.0351      2.00000
     11       7.3117      2.00000
     12       8.5382      2.00000
     13       8.5889      2.00000
     14       8.8226      2.00000
     15       9.3106      2.00000
     16       9.5831      2.00000
     17      11.1098      1.31459
     18      15.7080      0.00000
     19      15.9543      0.00000
     20      23.3451      0.00000
     21      27.0141      0.00000
     22      27.2193      0.00000
     23      29.4376      0.00000
     24      29.6344      0.00000

 k-point     5 :       0.3333    0.0000    0.0000
  band No.  band energies     occupation 
      1     -41.5837      2.00000
      2     -41.5432      2.00000
      3     -41.3828      2.00000
      4     -41.3800      2.00000
      5     -41.3208      2.00000
      6     -41.1948      2.00000
      7       4.2836      2.00000
      8       5.1428      2.00000
      9       6.0782      2.00000
     10       7.2815      2.00000
     11       7.8336      2.00000
     12       8.1442      2.00000
     13       8.2925      2.00000
     14      10.0266      2.00000
     15      10.2892      2.00000
     16      10.4918      2.00000
     17      11.1363      0.73036
     18      15.9958      0.00000
     19      17.7549      0.00000
     20      20.1682      0.00000
     21      25.1370      0.00000
     22      25.8991      0.00000
     23      26.4797      0.00000
     24      28.6638      0.00000

 k-point     6 :       0.4167   -0.0000    0.0000
  band No.  band energies     occupation 
      1     -41.6527      2.00000
      2     -41.6100      2.00000
      3     -41.3990      2.00000
      4     -41.3468      2.00000
      5     -41.3357      2.00000
      6     -41.2130      2.00000
      7       4.6742      2.00000
      8       4.8915      2.00000
      9       5.6231      2.00000
     10       7.8150      2.00000
     11       7.8760      2.00000
     12       8.0949      2.00000
     13       8.4244      2.00000
     14      11.1113      1.28450
     15      11.1407      0.64040
     16      11.2898      0.00000
     17      11.7330      0.00000
     18      16.6841      0.00000
     19      17.4386      0.00000
     20      19.2764      0.00000
     21      22.8654      0.00000
     22      23.7179      0.00000
     23      24.8701      0.00000
     24      27.6490      0.00000

 k-point     7 :       0.5000   -0.0000    0.0000
  band No.  band energies     occupation 
      1     -41.6776      2.00000
      2     -41.6348      2.00000
      3     -41.4062      2.00000
      4     -41.3413      2.00000
      5     -41.3306      2.00000
      6     -41.2234      2.00000
      7       4.7282      2.00000
      8       4.8032      2.00000
      9       5.4697      2.00000
     10       7.7815      2.00000
     11       8.0255      2.00000
     12       8.2087      2.00000
     13       8.5461      2.00000
     14      11.1395      0.66442
     15      11.4326      0.00000
     16      11.6325      0.00000
     17      13.3993      0.00000
     18      14.8772      0.00000
     19      18.3998      0.00000
     20      19.9625      0.00000
     21      20.6334      0.00000
     22      23.1668      0.00000
     23      24.3998      0.00000
     24      27.2433      0.00000

 k-point     8 :       0.0833    0.0833    0.0000
  band No.  band energies     occupation 
      1     -41.4649      2.00000
      2     -41.3692      2.00000
      3     -41.3418      2.00000
      4     -41.3138      2.00000
      5     -41.2782      2.00000
      6     -41.1662      2.00000
      7       2.1583      2.00000
      8       4.7213      2.00000
      9       6.9996      2.00000
     10       7.7499      2.00000
     11       7.8289      2.00000
     12       8.1781      2.00000
     13       8.3124      2.00000
     14       8.6650      2.00000
     15       8.7767      2.00000
     16       9.2980      2.00000
     17      10.9926      1.99980
     18      13.6288      0.00000
     19      15.7309      0.00000
     20      26.8116      0.00000
     21      27.8534      0.00000
     22      28.0500      0.00000
     23      29.9149      0.00000
     24      30.0748      0.00000

 k-point     9 :       0.1667    0.0833    0.0000
  band No.  band energies     occupation 
      1     -41.4461      2.00000
      2     -41.4359      2.00000
      3     -41.4189      2.00000
      4     -41.3428      2.00000
      5     -41.2998      2.00000
      6     -41.1746      2.00000
      7       3.0389      2.00000
      8       5.3404      2.00000
      9       6.7460      2.00000
     10       7.2056      2.00000
     11       7.4411      2.00000
     12       8.2504      2.00000
     13       8.3503      2.00000
     14       9.0282      2.00000
     15       9.0767      2.00000
     16       9.4335      2.00000
     17      11.0175      1.99744
     18      15.3340      0.00000
     19      15.7048      0.00000
     20      24.9123      0.00000
     21      26.4650      0.00000
     22      28.0649      0.00000
     23      29.0905      0.00000
     24      30.1388      0.00000

 k-point    10 :       0.2500    0.0833    0.0000
  band No.  band energies     occupation 
      1     -41.5378      2.00000
      2     -41.5052      2.00000
      3     -41.3983      2.00000
      4     -41.3754      2.00000
      5     -41.3235      2.00000
      6     -41.1876      2.00000
      7       4.0647      2.00000
      8       5.4614      2.00000
      9       6.3984      2.00000
     10       6.9713      2.00000
     11       7.4296      2.00000
     12       8.0144      2.00000
     13       8.6353      2.00000
     14       9.0222      2.00000
     15      10.0313      2.00000
     16      10.4669      2.00000
     17      11.0292      1.99278
     18      15.8728      0.00000
     19      17.1418      0.00000
     20      21.7363      0.00000
     21      24.7935      0.00000
     22      26.6895      0.00000
     23      28.5213      0.00000
     24      29.0713      0.00000

 k-point    11 :       0.3333    0.0833    0.0000
  band No.  band energies     occupation 
      1     -41.6177      2.00000
      2     -41.5789      2.00000
      3     -41.4030      2.00000
      4     -41.3594      2.00000
      5     -41.3440      2.00000
      6     -41.2059      2.00000
      7       4.7484      2.00000
      8       5.1836      2.00000
      9       5.8357      2.00000
     10       7.4300      2.00000
     11       7.8131      2.00000
     12       8.0249      2.00000
     13       8.2501      2.00000
     14      10.1103      2.00000
     15      10.8715      2.00000
     16      11.0239      1.99541
     17      11.6825      0.00000
     18      16.5855      0.00000
     19      18.6104      0.00000
     20      18.8559      0.00000
     21      22.9700      0.00000
     22      25.2344      0.00000
     23      25.5456      0.00000
     24      27.9622      0.00000

 k-point    12 :       0.4167    0.0833    0.0000
  band No.  band energies     occupation 
      1     -41.6635      2.00000
      2     -41.6211      2.00000
      3     -41.4188      2.00000
      4     -41.3559      2.00000
      5     -41.3305      2.00000
      6     -41.2231      2.00000
      7       4.9180      2.00000
      8       5.0058      2.00000
      9       5.5480      2.00000
     10       7.7651      2.00000
     11       7.9760      2.00000
     12       8.0681      2.00000
     13       8.3571      2.00000
     14      11.0150      1.99797
     15      11.0832      1.75341
     16      11.3074      0.00000
     17      13.1675      0.00000
     18      15.8221      0.00000
     19      18.1247      0.00000
     20      20.0966      0.00000
     21      20.9324      0.00000
     22      23.1758      0.00000
     23      24.7308      0.00000
     24      27.1895      0.00000

 k-point    13 :       0.1667    0.1667    0.0000
  band No.  band energies     occupation 
      1     -41.5065      2.00000
      2     -41.4972      2.00000
      3     -41.4039      2.00000
      4     -41.3735      2.00000
      5     -41.3345      2.00000
      6     -41.1856      2.00000
      7       4.0108      2.00000
      8       5.9332      2.00000
      9       6.3843      2.00000
     10       6.5798      2.00000
     11       7.4034      2.00000
     12       7.8687      2.00000
     13       8.5309      2.00000
     14       8.8364      2.00000
     15      10.0086      2.00000
     16      10.5026      2.00000
     17      10.9169      2.00000
     18      15.8688      0.00000
     19      16.9580      0.00000
     20      23.0367      0.00000
     21      23.6674      0.00000
     22      27.2870      0.00000
     23      29.1456      0.00000
     24      29.8233      0.00000

 k-point    14 :       0.2500    0.1667    0.0000
  band No.  band energies     occupation 
      1     -41.5754      2.00000
      2     -41.5559      2.00000
      3     -41.4135      2.00000
      4     -41.3686      2.00000
      5     -41.3661      2.00000
      6     -41.2023      2.00000
      7       4.9850      2.00000
      8       5.8220      2.00000
      9       6.0649      2.00000
     10       6.6774      2.00000
     11       7.5987      2.00000
     12       7.6961      2.00000
     13       8.4575      2.00000
     14       9.1407      2.00000
     15      10.8215      2.00000
     16      10.8238      2.00000
     17      11.7951      0.00000
     18      16.5281      0.00000
     19      18.7234      0.00000
     20      20.0513      0.00000
     21      21.8352      0.00000
     22      26.4041      0.00000
     23      27.0165      0.00000
     24      28.1039      0.00000

 k-point    15 :       0.3333    0.1667    0.0000
  band No.  band energies     occupation 
      1     -41.6279      2.00000
      2     -41.5920      2.00000
      3     -41.4477      2.00000
      4     -41.3928      2.00000
      5     -41.3308      2.00000
      6     -41.2226      2.00000
      7       5.4307      2.00000
      8       5.5376      2.00000
      9       5.7323      2.00000
     10       7.3703      2.00000
     11       7.5521      2.00000
     12       8.0425      2.00000
     13       8.1723      2.00000
     14      10.0224      2.00000
     15      10.7599      2.00000
     16      11.1479      0.50245
     17      13.1850      0.00000
     18      17.1351      0.00000
     19      17.9964      0.00000
     20      20.3595      0.00000
     21      20.3838      0.00000
     22      24.2355      0.00000
     23      25.5490      0.00000
     24      27.0066      0.00000

 k-point    16 :       0.4167    0.1667    0.0000
  band No.  band energies     occupation 
      1     -41.6471      2.00000
      2     -41.6045      2.00000
      3     -41.4607      2.00000
      4     -41.4017      2.00000
      5     -41.3131      2.00000
      6     -41.2347      2.00000
      7       5.4297      2.00000
      8       5.4986      2.00000
      9       5.6181      2.00000
     10       7.6961      2.00000
     11       7.7326      2.00000
     12       7.8010      2.00000
     13       8.3388      2.00000
     14      10.6699      2.00000
     15      10.7369      2.00000
     16      11.0427      1.97879
     17      14.4825      0.00000
     18      15.2881      0.00000
     19      19.1728      0.00000
     20      19.6443      0.00000
     21      21.1825      0.00000
     22      22.6947      0.00000
     23      24.9977      0.00000
     24      26.6207      0.00000

 k-point    17 :       0.2500    0.2500    0.0000
  band No.  band energies     occupation 
      1     -41.5981      2.00000
      2     -41.5809      2.00000
      3     -41.4610      2.00000
      4     -41.4206      2.00000
      5     -41.3308      2.00000
      6     -41.2222      2.00000
      7       5.7559      2.00000
      8       5.8468      2.00000
      9       6.3309      2.00000
     10       6.4529      2.00000
     11       7.4017      2.00000
     12       8.0949      2.00000
     13       8.1058      2.00000
     14       9.4893      2.00000
     15      10.6277      2.00000
     16      11.1136      1.23390
     17      13.2229      0.00000
     18      17.4201      0.00000
     19      18.8332      0.00000
[...]
      5     -41.2907      2.00000
      6     -41.2907      2.00000
      7       3.8572      2.00000
      8       3.8572      2.00000
      9       6.8343      2.00000
     10       6.8343      2.00000
     11       7.5002      2.00000
     12       7.5002      2.00000
     13       8.2452      2.00000
     14       8.2452      2.00000
     15      10.2351      2.00000
     16      10.2351      2.00000
     17      10.5397      2.00000
     18      10.5397      2.00000
     19      23.4229      0.00000
     20      23.4229      0.00000
     21      27.3836      0.00000
     22      27.3836      0.00000
     23      29.0638      0.00000
     24      29.0638      0.00000

 k-point    85 :       0.1667    0.0833    0.5000
  band No.  band energies     occupation 
      1     -41.4500      2.00000
      2     -41.4500      2.00000
      3     -41.3251      2.00000
      4     -41.3251      2.00000
      5     -41.2841      2.00000
      6     -41.2841      2.00000
      7       4.5605      2.00000
      8       4.5605      2.00000
      9       6.5878      2.00000
     10       6.5878      2.00000
     11       7.3344      2.00000
     12       7.3344      2.00000
     13       8.8289      2.00000
     14       8.8289      2.00000
     15      10.2094      2.00000
     16      10.2094      2.00000
     17      10.7774      2.00000
     18      10.7774      2.00000
     19      23.6488      0.00000
     20      23.6488      0.00000
     21      26.6410      0.00000
     22      26.6410      0.00000
     23      28.0696      0.00000
     24      28.0696      0.00000

 k-point    86 :       0.2500    0.0833    0.5000
  band No.  band energies     occupation 
      1     -41.5386      2.00000
      2     -41.5386      2.00000
      3     -41.3525      2.00000
      4     -41.3525      2.00000
      5     -41.2735      2.00000
      6     -41.2735      2.00000
      7       4.9633      2.00000
      8       4.9633      2.00000
      9       6.3988      2.00000
     10       6.3988      2.00000
     11       7.7443      2.00000
     12       7.7443      2.00000
     13       9.1919      2.00000
     14       9.1919      2.00000
     15      10.6216      2.00000
     16      10.6216      2.00000
     17      11.1132      1.24342
     18      11.1132      1.24336
     19      22.7519      0.00000
     20      22.7519      0.00000
     21      25.3889      0.00000
     22      25.3889      0.00000
     23      27.4535      0.00000
     24      27.4535      0.00000

 k-point    87 :       0.3333    0.0833    0.5000
  band No.  band energies     occupation 
      1     -41.6147      2.00000
      2     -41.6147      2.00000
      3     -41.3762      2.00000
      4     -41.3762      2.00000
      5     -41.2635      2.00000
      6     -41.2635      2.00000
      7       4.9103      2.00000
      8       4.9103      2.00000
      9       6.1909      2.00000
     10       6.1909      2.00000
     11       8.7459      2.00000
     12       8.7459      2.00000
     13       9.3374      2.00000
     14       9.3374      2.00000
     15      11.0451      1.97459
     16      11.0451      1.97458
     17      12.0424      0.00000
     18      12.0424      0.00000
     19      20.3065      0.00000
     20      20.3065      0.00000
     21      25.3416      0.00000
     22      25.3416      0.00000
     23      26.4434      0.00000
     24      26.4434      0.00000

 k-point    88 :       0.4167    0.0833    0.5000
  band No.  band energies     occupation 
      1     -41.6585      2.00000
      2     -41.6585      2.00000
      3     -41.3900      2.00000
      4     -41.3900      2.00000
      5     -41.2578      2.00000
      6     -41.2578      2.00000
      7       4.7996      2.00000
      8       4.7996      2.00000
      9       6.0612      2.00000
     10       6.0612      2.00000
     11       8.9428      2.00000
     12       8.9428      2.00000
     13      10.0628      2.00000
     14      10.0628      2.00000
     15      11.1414      0.62561
     16      11.1414      0.62556
     17      13.3753      0.00000
     18      13.3753      0.00000
     19      18.0356      0.00000
     20      18.0356      0.00000
     21      25.3452      0.00000
     22      25.3452      0.00000
     23      25.7867      0.00000
     24      25.7867      0.00000

 k-point    89 :       0.1667    0.1667    0.5000
  band No.  band energies     occupation 
      1     -41.5167      2.00000
      2     -41.5167      2.00000
      3     -41.3607      2.00000
      4     -41.3607      2.00000
      5     -41.2731      2.00000
      6     -41.2731      2.00000
      7       5.1384      2.00000
      8       5.1384      2.00000
      9       6.5745      2.00000
     10       6.5745      2.00000
     11       7.1255      2.00000
     12       7.1255      2.00000
     13       9.0898      2.00000
     14       9.0898      2.00000
     15      10.7030      2.00000
     16      10.7030      2.00000
     17      11.1067      1.37727
     18      11.1068      1.37722
     19      23.4791      0.00000
     20      23.4791      0.00000
     21      25.4555      0.00000
     22      25.4555      0.00000
     23      26.5395      0.00000
     24      26.5395      0.00000

 k-point    90 :       0.2500    0.1667    0.5000
  band No.  band energies     occupation 
      1     -41.5800      2.00000
      2     -41.5800      2.00000
      3     -41.3989      2.00000
      4     -41.3989      2.00000
      5     -41.2624      2.00000
      6     -41.2624      2.00000
      7       5.3251      2.00000
      8       5.3251      2.00000
      9       6.5275      2.00000
     10       6.5275      2.00000
     11       7.5797      2.00000
     12       7.5797      2.00000
     13       8.9521      2.00000
     14       8.9521      2.00000
     15      11.1352      0.75513
     16      11.1352      0.75506
     17      12.2276      0.00000
     18      12.2276      0.00000
     19      21.6484      0.00000
     20      21.6484      0.00000
     21      24.4743      0.00000
     22      24.4743      0.00000
     23      26.0469      0.00000
     24      26.0469      0.00000

 k-point    91 :       0.3333    0.1667    0.5000
  band No.  band energies     occupation 
      1     -41.6249      2.00000
      2     -41.6249      2.00000
      3     -41.4280      2.00000
      4     -41.4280      2.00000
      5     -41.2545      2.00000
      6     -41.2545      2.00000
      7       5.2721      2.00000
      8       5.2721      2.00000
      9       6.3779      2.00000
     10       6.3779      2.00000
     11       8.1626      2.00000
     12       8.1626      2.00000
     13       9.1676      2.00000
     14       9.1676      2.00000
     15      11.1476      0.50633
     16      11.1476      0.50628
     17      13.9010      0.00000
     18      13.9010      0.00000
     19      19.1686      0.00000
     20      19.1686      0.00000
     21      23.6838      0.00000
     22      23.6838      0.00000
     23      26.2561      0.00000
     24      26.2561      0.00000

 k-point    92 :       0.4167    0.1667    0.5000
  band No.  band energies     occupation 
      1     -41.6409      2.00000
      2     -41.6409      2.00000
      3     -41.4387      2.00000
      4     -41.4387      2.00000
      5     -41.2518      2.00000
      6     -41.2518      2.00000
      7       5.2342      2.00000
      8       5.2342      2.00000
      9       6.3242      2.00000
     10       6.3242      2.00000
     11       8.2062      2.00000
     12       8.2062      2.00000
     13       9.5951      2.00000
     14       9.5951      2.00000
     15      11.0429      1.97844
     16      11.0429      1.97843
     17      15.1025      0.00000
     18      15.1025      0.00000
     19      17.6518      0.00000
     20      17.6518      0.00000
     21      23.3164      0.00000
     22      23.3164      0.00000
     23      26.4384      0.00000
     24      26.4384      0.00000

 k-point    93 :       0.2500    0.2500    0.5000
  band No.  band energies     occupation 
      1     -41.6023      2.00000
      2     -41.6023      2.00000
      3     -41.4526      2.00000
      4     -41.4526      2.00000
      5     -41.2535      2.00000
      6     -41.2535      2.00000
      7       5.5874      2.00000
      8       5.5874      2.00000
      9       6.7209      2.00000
     10       6.7209      2.00000
     11       7.5518      2.00000
     12       7.5518      2.00000
     13       8.7249      2.00000
     14       8.7249      2.00000
     15      11.1985      0.03558
     16      11.1985      0.03557
     17      14.0733      0.00000
     18      14.0733      0.00000
     19      20.0684      0.00000
     20      20.0684      0.00000
     21      22.5604      0.00000
     22      22.5604      0.00000
     23      26.6379      0.00000
     24      26.6379      0.00000

 k-point    94 :       0.3333    0.2500    0.5000
  band No.  band energies     occupation 
      1     -41.6051      2.00000
      2     -41.6051      2.00000
      3     -41.4922      2.00000
      4     -41.4922      2.00000
      5     -41.2481      2.00000
      6     -41.2481      2.00000
      7       5.7430      2.00000
      8       5.7430      2.00000
      9       6.6822      2.00000
     10       6.6822      2.00000
     11       7.6005      2.00000
     12       7.6005      2.00000
     13       8.9040      2.00000
     14       8.9040      2.00000
     15      11.0511      1.96129
     16      11.0511      1.96128
     17      16.0026      0.00000
     18      16.0026      0.00000
     19      18.3221      0.00000
     20      18.3221      0.00000
     21      21.3629      0.00000
     22      21.3629      0.00000
     23      27.4961      0.00000
     24      27.4961      0.00000

 k-point    95 :       0.3333    0.3333    0.5000
  band No.  band energies     occupation 
      1     -41.5696      2.00000
      2     -41.5696      2.00000
      3     -41.5442      2.00000
      4     -41.5442      2.00000
      5     -41.2461      2.00000
      6     -41.2461      2.00000
      7       6.0647      2.00000
      8       6.0647      2.00000
      9       6.6617      2.00000
     10       6.6617      2.00000
     11       7.4909      2.00000
     12       7.4909      2.00000
     13       8.7397      2.00000
     14       8.7397      2.00000
     15      10.9601      2.00000
     16      10.9601      2.00000
     17      17.6697      0.00000
     18      17.6697      0.00000
     19      17.7364      0.00000
     20      17.7364      0.00000
     21      19.9224      0.00000
     22      19.9224      0.00000
     23      28.6409      0.00000
     24      28.6409      0.00000


--------------------------------------------------------------------------------------------------------


 soft charge-density along one line, spin component           1
         0         1         2         3         4         5         6         7         8         9
 total charge-density along one line
 
 pseudopotential strength for first ion, spin component:           1
-31.682  -0.000   0.000  10.736   0.000  -0.000  -0.000  -0.000
 -0.000 -31.624  -0.000   0.000  10.678   0.000   0.000   0.000
  0.000  -0.000 -31.682  -0.000   0.000  10.736  -0.000   0.000
 10.736   0.000  -0.000  16.249  -0.000   0.000   0.000   0.000
  0.000  10.678   0.000  -0.000  16.271  -0.000  -0.000  -0.000
 -0.000   0.000  10.736   0.000  -0.000  16.249   0.000  -0.000
 -0.000   0.000  -0.000   0.000  -0.000   0.000  -3.718   0.000
 -0.000   0.000   0.000   0.000  -0.000  -0.000   0.000  -3.676
 -0.000  -0.000   0.000   0.000   0.000  -0.000  -0.000   0.000
  0.000  -0.000   0.000  -0.000   0.000  -0.000  -0.000   0.000
 -0.000   0.000  -0.000   0.000  -0.000   0.000  -0.000   0.000
 -0.000   0.000  -0.000   0.000  -0.000   0.000  -3.948   0.000
 -0.000   0.000   0.000   0.000  -0.000  -0.000   0.000  -3.901
 -0.000  -0.000   0.000   0.000   0.000  -0.000  -0.000   0.000
  0.000  -0.000   0.000  -0.000   0.000  -0.000  -0.000   0.000
 -0.000   0.000  -0.000   0.000  -0.000   0.000  -0.000   0.000
 -0.000   0.000   0.000  -0.000   0.000   0.000  -0.000   0.000
  0.000  -0.000  -0.000   0.000  -0.000  -0.000   0.000  -0.000
 total augmentation occupancy for first ion, spin component:           1
  2.002   0.000  -0.000  -0.021  -0.000   0.000   0.000   0.000  -0.000   0.000   0.004   0.000  -0.000   0.000   0.000  -0.004
 -0.000   2.002   0.000   0.000  -0.019   0.000   0.000  -0.000   0.000   0.000  -0.000   0.000   0.000   0.000   0.000  -0.000
 -0.000   0.000   2.002   0.000  -0.000  -0.021   0.004   0.000   0.000   0.000   0.000  -0.004   0.000  -0.000  -0.000  -0.000
 -0.021   0.000   0.000   0.050  -0.000   0.000  -0.000   0.000   0.000   0.000  -0.025   0.000   0.000  -0.000  -0.000   0.024
  0.000  -0.019   0.000  -0.000   0.042  -0.000   0.000   0.000   0.000  -0.000   0.000   0.000  -0.000   0.000   0.000   0.000
  0.000  -0.000  -0.021   0.000  -0.000   0.050  -0.025   0.000  -0.000   0.000   0.000   0.024   0.000   0.000   0.000   0.000
  0.000   0.000   0.004  -0.000   0.000  -0.025   4.983  -0.000   0.000   0.000   0.000  -2.706  -0.000  -0.000   0.000  -0.000
  0.000  -0.000   0.000  -0.000   0.000   0.000   0.000   4.242   0.000  -0.000  -0.000  -0.000  -2.304  -0.000  -0.000  -0.000
 -0.000   0.000   0.000   0.000   0.000  -0.000   0.000   0.000   5.011   0.000  -0.000  -0.000  -0.000  -2.727   0.000   0.000
  0.000   0.000   0.000   0.000   0.000   0.000   0.000   0.000   0.000   4.242   0.000   0.000  -0.000   0.000  -2.304  -0.000
  0.004   0.000  -0.000  -0.025   0.000  -0.000   0.000   0.000  -0.000   0.000   4.983  -0.000   0.000   0.000  -0.000  -2.706
 -0.000  -0.000  -0.004   0.000   0.000   0.024  -2.706  -0.000  -0.000  -0.000  -0.000   2.168   0.000   0.000   0.000   0.000
  0.000   0.000   0.000  -0.000  -0.000   0.000  -0.000  -2.304   0.000  -0.000   0.000   0.000   2.212   0.000  -0.000   0.000
  0.000   0.000  -0.000  -0.000   0.000   0.000  -0.000   0.000  -2.727  -0.000   0.000   0.000   0.000   2.160   0.000  -0.000
  0.000   0.000   0.000   0.000   0.000   0.000   0.000   0.000   0.000  -2.304   0.000   0.000   0.000   0.000   2.212   0.000
 -0.004  -0.000  -0.000   0.024   0.000  -0.000  -0.000  -0.000   0.000   0.000  -2.706   0.000   0.000  -0.000  -0.000   2.168
  0.000   0.000  -0.000   0.000   0.000   0.000  -0.000   0.000  -0.210  -0.000   0.000   0.000   0.000   0.187   0.000  -0.000
 -0.000   0.000   0.000  -0.000   0.000   0.000  -0.000   0.000   0.003   0.000   0.000   0.000  -0.000   0.001   0.000  -0.000


------------------------ aborting loop because EDIFF is reached ----------------------------------------


    CHARGE:  cpu time      0.0273: real time      0.0274
    FORLOC:  cpu time      0.0002: real time      0.0002
    FORNL :  cpu time      0.0209: real time      0.0210
    STRESS:  cpu time      0.2412: real time      0.2420
    FORCOR:  cpu time      0.0032: real time      0.0032
    FORHAR:  cpu time      0.0006: real time      0.0006
    MIXING:  cpu time      0.0003: real time      0.0003
    OFIELD:  cpu time      0.0000: real time      0.0000

  FORCE on cell =-STRESS in cart. coord.  units (eV):
  Direction    XX          YY          ZZ          XY          YZ          ZX
  --------------------------------------------------------------------------------------
  Alpha Z   303.71315   303.71315   303.71315
  Ewald   -1374.27429 -1374.27429 -1492.14368     0.00000     0.00000    -0.00000
  Hartree   277.88340   277.88340   224.97088    -0.00000    -0.00000    -0.00000
  E(xc)    -170.75538  -170.75539  -170.99252    -0.00000    -0.00000    -0.00000
  Local     182.82147   182.82145   342.73909    -0.00002    -0.00000    -0.00000
  n-local   -59.15727   -61.05170   -62.54396   -12.80393     3.71515     3.34110
  augment   145.62650   145.62651   148.93837     0.00001    -0.00000    -0.00000
  Kinetic   697.48709   691.76534   704.82721   -17.36212     3.88596     1.45600
  Fock        0.00000     0.00000     0.00000     0.00000     0.00000     0.00000
  -------------------------------------------------------------------------------------
  Total      -0.46343    -0.46343    -0.49147     0.00000     0.00000    -0.00000
  in kB     -23.49676   -23.49676   -24.91860     0.00000     0.00000    -0.00000
  external pressure =      -23.97 kB  Pullay stress =        0.00 kB


 VOLUME and BASIS-vectors are now :
 -----------------------------------------------------------------------------
  energy-cutoff  :      450.00
  volume of cell :       31.60
      direct lattice vectors                 reciprocal lattice vectors
     2.760000000  0.000000000  0.000000000     0.362318841  0.209184880  0.000000000
    -1.380000000  2.390230114  0.000000000     0.000000000  0.418369760  0.000000000
     0.000000000  0.000000000  4.790000000     0.000000000  0.000000000  0.208768267

  length of vectors
     2.760000000  2.760000000  4.790000000     0.418369760  0.418369760  0.208768267


 FORCES acting on ions
    electron-ion (+dipol)            ewald-force                    non-local-force                 convergence-correction
 -----------------------------------------------------------------------------------------------
   0.374E-06 -.216E-06 0.144E-12   0.179E-11 -.111E-11 -.683E-13   -.347E-16 -.278E-16 0.000E+00   -.884E-08 0.510E-08 -.222E-12
   -.288E-06 0.166E-06 -.287E-11   -.176E-11 0.110E-11 0.683E-13   0.312E-16 0.278E-16 0.000E+00   0.885E-08 -.511E-08 -.275E-13
 -----------------------------------------------------------------------------------------------
   0.862E-07 -.498E-07 -.272E-11   0.219E-13 -.314E-14 0.000E+00   -.347E-17 0.000E+00 0.000E+00   0.112E-10 -.634E-11 -.250E-12
 
 
 POSITION                                       TOTAL-FORCE (eV/Angst)
 -----------------------------------------------------------------------------------
      0.00000      0.00000      0.00000         0.000000      0.000000      0.000000
      0.00000      1.59349      2.39500        -0.000000      0.000000      0.000000
 -----------------------------------------------------------------------------------
    total drift:                                0.000000     -0.000000     -0.000000


--------------------------------------------------------------------------------------------------------



  FREE ENERGIE OF THE ION-ELECTRON SYSTEM (eV)
  ---------------------------------------------------
  free  energy   TOTEN  =       -12.04704593 eV

  energy  without entropy=      -12.04045607  energy(sigma->0) =      -12.04375100
 


--------------------------------------------------------------------------------------------------------


    POTLOK:  cpu time      0.0059: real time      0.0059


--------------------------------------------------------------------------------------------------------


     LOOP+:  cpu time      6.7899: real time      6.8290
    4ORBIT:  cpu time      0.0000: real time      0.0000

 total amount of memory used by VASP MPI-rank0    42188. kBytes
=======================================================================

   base      :      30000. kBytes
   nonl-proj :       9872. kBytes
   fftplans  :        254. kBytes
   grid      :        864. kBytes
   one-center:         31. kBytes
   wavefun   :       1167. kBytes
 
  
  
 General timing and accounting informations for this job:
 ========================================================
  
                  Total CPU time used (sec):        7.630
                            User time (sec):        7.139
                          System time (sec):        0.491
                         Elapsed time (sec):        9.547
  
                   Maximum memory used (kb):      240452.
                   Average memory used (kb):          N/A
  
                          Minor page faults:        35534
                          Major page faults:           88
                 Voluntary context switches:         2254
