   1   1   0   0
  0.1081089E+02  0.2481945E-09  0.2481945E-09  0.2481945E-09  0.5000000E-15
  1.000000000000000E-004
  CAR 
 Co fcc                                  
     53.27401160     -0.81397283  301     10.39859875      1.00000000
     -0.814  0.0000E+00  0.0000E+00  0.0000E+00  0.0000E+00
     -0.634  0.0000E+00  0.0000E+00  0.0000E+00  0.0000E+00
     -0.453  0.0000E+00  0.0000E+00  0.0000E+00  0.0000E+00
     -0.273  0.0000E+00  0.0000E+00  0.0000E+00  0.0000E+00
     -0.093 -0.2125E-33 -0.4719E-34 -0.3831E-34 -0.8508E-35
      0.087 -0.5354E-27 -0.1392E-27 -0.9653E-28 -0.2510E-28
      0.268 -0.2620E-21 -0.7976E-22 -0.4724E-22 -0.1438E-22
      0.448 -0.2481E-16 -0.8846E-17 -0.4472E-17 -0.1595E-17
      0.628 -0.4346E-12 -0.1819E-12 -0.7837E-13 -0.3280E-13
      0.809 -0.1481E-08 -0.7285E-09 -0.2671E-09 -0.1314E-09
      0.989 -0.9301E-06 -0.5393E-06 -0.1680E-06 -0.9736E-07
      1.169 -0.1005E-03 -0.6940E-04 -0.1828E-04 -0.1261E-04
      1.350 -0.1375E-02 -0.1205E-02 -0.2662E-03 -0.2299E-03
      1.530  0.6209E-02  0.4085E-02  0.8533E-03  0.5066E-03
      1.710  0.3438E-01  0.3301E-01  0.7051E-02  0.6459E-02
      1.890  0.1369E-01  0.1706E-01  0.9518E-02  0.9535E-02
      2.071 -0.5963E-02 -0.5151E-02  0.8443E-02  0.8607E-02
      2.251  0.2314E-01  0.1335E-01  0.1262E-01  0.1101E-01
      2.431  0.1047E+00  0.1002E+00  0.3149E-01  0.2908E-01
      2.612  0.3504E-01  0.4896E-01  0.3780E-01  0.3791E-01
      2.792 -0.8816E-02 -0.9062E-02  0.3621E-01  0.3627E-01
      2.972  0.5308E-01  0.3049E-01  0.4578E-01  0.4177E-01
      3.152  0.9754E-01  0.1052E+00  0.6337E-01  0.6073E-01
      3.333  0.5484E-02  0.2477E-01  0.6436E-01  0.6520E-01
      3.513  0.2764E-01 -0.4013E-02  0.6934E-01  0.6447E-01
      3.693  0.1374E+00  0.1036E+00  0.9412E-01  0.8316E-01
      3.874  0.4235E-01  0.1041E+00  0.1018E+00  0.1019E+00
      4.054  0.1749E-01 -0.8367E-02  0.1049E+00  0.1004E+00
      4.234  0.1928E+00  0.7949E-01  0.1397E+00  0.1148E+00
      4.415  0.1193E+00  0.2048E+00  0.1612E+00  0.1517E+00
      4.595  0.8825E-01  0.3837E-01  0.1771E+00  0.1586E+00
      4.775  0.4799E-01  0.6774E-01  0.1857E+00  0.1708E+00
      4.955  0.1218E+00  0.7576E-01  0.2077E+00  0.1845E+00
      5.136  0.3145E+00  0.1001E-01  0.2644E+00  0.1863E+00
      5.316  0.4903E+00  0.1468E+00  0.3528E+00  0.2127E+00
      5.496  0.6027E+00  0.1775E+00  0.4615E+00  0.2447E+00
      5.677  0.6525E+00  0.1695E+00  0.5791E+00  0.2753E+00
      5.857  0.6441E+00  0.2463E+00  0.6952E+00  0.3197E+00
      6.037  0.9067E+00  0.1453E+00  0.8587E+00  0.3459E+00
      6.217  0.9838E+00  0.2033E+00  0.1036E+01  0.3826E+00
      6.398  0.8849E+00  0.4292E+00  0.1196E+01  0.4599E+00
      6.578  0.8478E+00  0.4858E+00  0.1348E+01  0.5475E+00
      6.758  0.8794E+00  0.5226E+00  0.1507E+01  0.6417E+00
      6.939  0.6523E+00  0.3733E+00  0.1625E+01  0.7090E+00
      7.119  0.9411E+00  0.4040E+00  0.1794E+01  0.7819E+00
      7.299  0.1111E+01  0.8117E+00  0.1995E+01  0.9282E+00
      7.480  0.1194E+01  0.7932E+00  0.2210E+01  0.1071E+01
      7.660  0.1287E+01  0.7086E+00  0.2442E+01  0.1199E+01
      7.840  0.1545E+01  0.7095E+00  0.2720E+01  0.1327E+01
      8.020  0.1703E+01  0.8126E+00  0.3028E+01  0.1473E+01
      8.201  0.1065E+01  0.5934E+00  0.3220E+01  0.1580E+01
      8.381  0.8851E+00  0.6038E+00  0.3379E+01  0.1689E+01
      8.561  0.1219E+01  0.9919E+00  0.3599E+01  0.1868E+01
      8.742  0.1487E+01  0.1208E+01  0.3867E+01  0.2086E+01
      8.922  0.9523E+00  0.8096E+00  0.4039E+01  0.2232E+01
      9.102  0.1057E+01  0.9256E+00  0.4229E+01  0.2399E+01
      9.282  0.1173E+01  0.1090E+01  0.4441E+01  0.2595E+01
      9.463  0.1402E+01  0.1077E+01  0.4694E+01  0.2790E+01
      9.643  0.1785E+01  0.1303E+01  0.5015E+01  0.3025E+01
      9.823  0.9672E+00  0.1006E+01  0.5190E+01  0.3206E+01
     10.004  0.3143E+00  0.7329E+00  0.5247E+01  0.3338E+01
     10.184  0.1240E+00  0.6995E+00  0.5269E+01  0.3464E+01
     10.364  0.3024E+00  0.8918E+00  0.5323E+01  0.3625E+01
     10.545  0.1691E+00  0.1240E+01  0.5354E+01  0.3848E+01
     10.725  0.6177E-01  0.7303E+00  0.5365E+01  0.3980E+01
     10.905  0.9449E-01  0.1088E+01  0.5382E+01  0.4176E+01
     11.085  0.8743E-01  0.1275E+01  0.5398E+01  0.4406E+01
     11.266  0.1372E+00  0.8617E+00  0.5423E+01  0.4561E+01
     11.446  0.3352E+00  0.1577E+01  0.5483E+01  0.4846E+01
     11.626  0.2485E+00  0.1494E+01  0.5528E+01  0.5115E+01
     11.807 -0.1388E-02  0.7688E+00  0.5528E+01  0.5254E+01
     11.987  0.3545E-01  0.4866E+00  0.5534E+01  0.5341E+01
     12.167  0.2079E+00  0.3231E+00  0.5571E+01  0.5400E+01
     12.347  0.7304E-01  0.8028E-01  0.5585E+01  0.5414E+01
     12.528 -0.5817E-02  0.3128E-01  0.5584E+01  0.5420E+01
     12.708  0.1263E+00  0.1843E+00  0.5606E+01  0.5453E+01
     12.888  0.1736E+00  0.2191E+00  0.5638E+01  0.5492E+01
     13.069  0.1694E+00  0.1917E+00  0.5668E+01  0.5527E+01
     13.249  0.1380E+00  0.1902E+00  0.5693E+01  0.5561E+01
     13.429 -0.7951E-02  0.1716E+00  0.5692E+01  0.5592E+01
     13.609  0.1910E+00  0.1474E+00  0.5726E+01  0.5619E+01
     13.790  0.3986E+00  0.1702E+00  0.5798E+01  0.5649E+01
     13.970  0.5843E-01  0.9131E-01  0.5808E+01  0.5666E+01
     14.150 -0.1966E-01  0.3542E-01  0.5805E+01  0.5672E+01
     14.331  0.1953E-02  0.8573E-01  0.5805E+01  0.5688E+01
     14.511  0.1639E+00  0.1488E+00  0.5835E+01  0.5715E+01
     14.691  0.1512E+00  0.3930E+00  0.5862E+01  0.5785E+01
     14.872 -0.1176E-02  0.1197E+00  0.5862E+01  0.5807E+01
     15.052 -0.8068E-02  0.3852E-01  0.5860E+01  0.5814E+01
     15.232 -0.4071E-02  0.2080E+00  0.5860E+01  0.5852E+01
     15.412  0.1594E+00  0.6368E-01  0.5888E+01  0.5863E+01
     15.593  0.2568E+00 -0.9422E-02  0.5935E+01  0.5861E+01
     15.773  0.6361E-01 -0.3111E-02  0.5946E+01  0.5861E+01
     15.953 -0.8291E-02 -0.1336E-01  0.5945E+01  0.5858E+01
     16.134 -0.8526E-02  0.1101E+00  0.5943E+01  0.5878E+01
     16.314  0.2200E-01  0.3077E+00  0.5947E+01  0.5934E+01
     16.494  0.1920E+00  0.7381E-01  0.5982E+01  0.5947E+01
     16.674  0.1200E+00 -0.1416E-01  0.6003E+01  0.5944E+01
     16.855  0.9856E-01 -0.1066E-01  0.6021E+01  0.5942E+01
     17.035  0.1344E+00  0.8305E-01  0.6045E+01  0.5957E+01
     17.215  0.1890E+00  0.2067E+00  0.6079E+01  0.5995E+01
     17.396  0.1659E+00  0.3647E-01  0.6109E+01  0.6001E+01
     17.576  0.3533E-01 -0.1437E-01  0.6116E+01  0.5999E+01
     17.756  0.1933E+00  0.6634E-01  0.6151E+01  0.6011E+01
     17.937  0.9707E-01  0.2206E+00  0.6168E+01  0.6050E+01
     18.117  0.5072E-01  0.2625E+00  0.6177E+01  0.6098E+01
     18.297  0.1494E+00  0.1440E+00  0.6204E+01  0.6124E+01
     18.477  0.2167E+00  0.1949E+00  0.6243E+01  0.6159E+01
     18.658  0.1410E+00  0.6390E-01  0.6269E+01  0.6170E+01
     18.838  0.1959E+00  0.1014E+00  0.6304E+01  0.6189E+01
     19.018  0.7031E-01  0.7792E-01  0.6317E+01  0.6203E+01
     19.199  0.1574E+00  0.2076E+00  0.6345E+01  0.6240E+01
     19.379  0.1382E+00  0.3375E+00  0.6370E+01  0.6301E+01
     19.559  0.3136E-01  0.8081E-01  0.6376E+01  0.6316E+01
     19.739  0.2005E+00  0.6315E-01  0.6412E+01  0.6327E+01
     19.920  0.8699E-01  0.1973E+00  0.6427E+01  0.6363E+01
     20.100 -0.5001E-02  0.5568E-01  0.6426E+01  0.6373E+01
     20.280  0.8192E-01  0.1684E+00  0.6441E+01  0.6403E+01
     20.461  0.5297E-01  0.1350E+00  0.6451E+01  0.6427E+01
     20.641  0.2256E+00 -0.9035E-02  0.6491E+01  0.6426E+01
     20.821  0.3790E+00  0.2441E-01  0.6560E+01  0.6430E+01
     21.002  0.3657E-01  0.9229E-01  0.6566E+01  0.6447E+01
     21.182  0.1309E+00  0.8934E-01  0.6590E+01  0.6463E+01
     21.362  0.1613E+00  0.3190E+00  0.6619E+01  0.6520E+01
     21.542  0.2787E+00  0.2125E+00  0.6669E+01  0.6559E+01
     21.723  0.4178E+00  0.1475E+00  0.6745E+01  0.6585E+01
     21.903  0.1014E+00  0.1760E+00  0.6763E+01  0.6617E+01
     22.083  0.1587E+00  0.2157E+00  0.6792E+01  0.6656E+01
     22.264  0.2300E+00  0.3930E+00  0.6833E+01  0.6727E+01
     22.444  0.1884E+00  0.2625E+00  0.6867E+01  0.6774E+01
     22.624  0.7659E-01  0.1915E+00  0.6881E+01  0.6808E+01
     22.804  0.8791E-01  0.1269E+00  0.6897E+01  0.6831E+01
     22.985  0.1503E-02  0.1906E+00  0.6897E+01  0.6866E+01
     23.165  0.7223E-01  0.9129E-01  0.6910E+01  0.6882E+01
     23.345  0.3124E+00  0.8066E-01  0.6966E+01  0.6897E+01
     23.526  0.3029E+00 -0.2070E-02  0.7021E+01  0.6896E+01
     23.706  0.3907E+00  0.1764E+00  0.7091E+01  0.6928E+01
     23.886  0.2499E+00  0.3571E+00  0.7136E+01  0.6993E+01
     24.067  0.1481E+00  0.3653E+00  0.7163E+01  0.7058E+01
     24.247  0.7236E-01  0.4488E+00  0.7176E+01  0.7139E+01
     24.427 -0.6072E-02  0.7758E-01  0.7175E+01  0.7153E+01
     24.607  0.1290E+00  0.8379E-01  0.7198E+01  0.7168E+01
     24.788  0.1852E+00  0.3696E-01  0.7232E+01  0.7175E+01
     24.968  0.3901E+00  0.2112E-01  0.7302E+01  0.7179E+01
     25.148  0.4461E+00  0.2597E+00  0.7382E+01  0.7226E+01
     25.329  0.1263E+00  0.4338E+00  0.7405E+01  0.7304E+01
     25.509  0.3898E-01  0.3660E+00  0.7412E+01  0.7370E+01
     25.689  0.2225E+00  0.1563E+00  0.7452E+01  0.7398E+01
     25.869  0.3576E+00  0.8338E-01  0.7517E+01  0.7413E+01
     26.050  0.4716E+00  0.2524E+00  0.7602E+01  0.7459E+01
     26.230  0.2719E+00  0.2895E+00  0.7651E+01  0.7511E+01
     26.410  0.1271E+00  0.4505E+00  0.7674E+01  0.7592E+01
     26.591  0.5563E-01  0.3324E+00  0.7684E+01  0.7652E+01
     26.771  0.6563E-01  0.1250E+00  0.7696E+01  0.7674E+01
     26.951  0.2148E+00  0.6136E-01  0.7734E+01  0.7686E+01
     27.131  0.2327E+00  0.1321E+00  0.7776E+01  0.7709E+01
     27.312  0.3457E+00  0.1925E+00  0.7839E+01  0.7744E+01
     27.492  0.2314E+00  0.2372E+00  0.7880E+01  0.7787E+01
     27.672 -0.4114E-02  0.3294E+00  0.7880E+01  0.7846E+01
     27.853  0.6391E-01  0.1891E+00  0.7891E+01  0.7880E+01
     28.033  0.2555E+00  0.1201E-01  0.7937E+01  0.7882E+01
     28.213  0.2713E+00  0.1013E+00  0.7986E+01  0.7901E+01
     28.394  0.4506E-01  0.2233E+00  0.7994E+01  0.7941E+01
     28.574  0.1152E+00  0.2453E+00  0.8015E+01  0.7985E+01
     28.754  0.3053E+00  0.6164E-01  0.8070E+01  0.7996E+01
     28.934  0.4178E+00  0.2273E+00  0.8145E+01  0.8037E+01
     29.115  0.2008E+00  0.4396E+00  0.8182E+01  0.8117E+01
     29.295  0.1571E+00  0.2598E+00  0.8210E+01  0.8163E+01
     29.475  0.1392E+00  0.2026E+00  0.8235E+01  0.8200E+01
     29.656  0.2854E+00  0.1532E+00  0.8287E+01  0.8228E+01
     29.836  0.6724E-01  0.1639E+00  0.8299E+01  0.8257E+01
     30.016 -0.1182E-01  0.1991E+00  0.8296E+01  0.8293E+01
     30.196 -0.6470E-02  0.2611E-01  0.8295E+01  0.8298E+01
     30.377 -0.1516E-01 -0.1162E-01  0.8293E+01  0.8296E+01
     30.557  0.2333E+00 -0.1737E-02  0.8335E+01  0.8295E+01
     30.737  0.4528E+00  0.1122E+00  0.8416E+01  0.8316E+01
     30.918  0.1378E+00  0.4785E+00  0.8441E+01  0.8402E+01
     31.098  0.1748E+00  0.3519E+00  0.8473E+01  0.8465E+01
     31.278  0.3241E+00 -0.1603E-01  0.8531E+01  0.8462E+01
     31.459  0.3514E+00  0.1479E+00  0.8594E+01  0.8489E+01
     31.639  0.3402E+00  0.3446E+00  0.8656E+01  0.8551E+01
     31.819  0.1025E-01  0.3477E+00  0.8658E+01  0.8614E+01
     31.999  0.8032E-01  0.3373E+00  0.8672E+01  0.8675E+01
     32.180  0.3747E+00  0.1868E+00  0.8740E+01  0.8708E+01
     32.360  0.4033E+00  0.1668E+00  0.8812E+01  0.8738E+01
     32.540  0.1270E+00  0.3411E+00  0.8835E+01  0.8800E+01
     32.721  0.1451E-01  0.2275E+00  0.8838E+01  0.8841E+01
     32.901  0.2058E-01  0.7668E-02  0.8842E+01  0.8842E+01
     33.081  0.2380E+00  0.3310E-01  0.8885E+01  0.8848E+01
     33.261  0.3138E+00  0.2078E+00  0.8941E+01  0.8886E+01
     33.442  0.1001E+00  0.2237E+00  0.8959E+01  0.8926E+01
     33.622  0.2827E+00  0.2099E+00  0.9010E+01  0.8964E+01
     33.802  0.3108E+00  0.2472E+00  0.9066E+01  0.9008E+01
     33.983  0.2996E+00  0.3033E+00  0.9120E+01  0.9063E+01
     34.163  0.4403E+00  0.2439E+00  0.9200E+01  0.9107E+01
     34.343  0.2954E+00  0.6084E+00  0.9253E+01  0.9217E+01
     34.524  0.1756E+00  0.2881E+00  0.9284E+01  0.9269E+01
     34.704  0.4911E-01  0.9199E-02  0.9293E+01  0.9270E+01
     34.884  0.2693E+00  0.6654E-01  0.9342E+01  0.9282E+01
     35.064  0.5913E+00  0.4073E+00  0.9448E+01  0.9356E+01
     35.245  0.3589E+00  0.6768E+00  0.9513E+01  0.9478E+01
     35.425  0.3265E+00  0.2771E+00  0.9572E+01  0.9528E+01
     35.605  0.1693E+00  0.1523E+00  0.9603E+01  0.9555E+01
     35.786  0.6357E-01  0.9016E-01  0.9614E+01  0.9572E+01
     35.966  0.1135E+00  0.1442E+00  0.9634E+01  0.9598E+01
     36.146  0.1722E+00  0.4373E-01  0.9666E+01  0.9605E+01
     36.326  0.1534E+00  0.1339E+00  0.9693E+01  0.9630E+01
     36.507  0.2802E+00  0.2292E+00  0.9744E+01  0.9671E+01
     36.687  0.3551E+00  0.3869E+00  0.9808E+01  0.9741E+01
     36.867  0.3120E+00  0.4067E+00  0.9864E+01  0.9814E+01
     37.048  0.2059E+00  0.2340E+00  0.9901E+01  0.9856E+01
     37.228  0.9093E-01  0.1745E+00  0.9917E+01  0.9888E+01
     37.408  0.8736E-01  0.1743E+00  0.9933E+01  0.9919E+01
     37.588  0.1661E+00  0.6127E-01  0.9963E+01  0.9930E+01
     37.769  0.4042E+00  0.2626E+00  0.1004E+02  0.9977E+01
     37.949  0.1273E+00  0.3984E+00  0.1006E+02  0.1005E+02
     38.129 -0.1974E-01  0.5033E-01  0.1006E+02  0.1006E+02
     38.310  0.1117E-01 -0.1554E-01  0.1006E+02  0.1006E+02
     38.490  0.6040E-01 -0.2940E-02  0.1007E+02  0.1006E+02
     38.670  0.5432E-01  0.4155E-01  0.1008E+02  0.1006E+02
     38.851  0.2245E+00  0.5147E-01  0.1012E+02  0.1007E+02
     39.031  0.4013E+00  0.1742E-01  0.1019E+02  0.1007E+02
     39.211  0.3952E+00  0.3163E+00  0.1026E+02  0.1013E+02
     39.391  0.5617E-01  0.3671E+00  0.1027E+02  0.1020E+02
     39.572  0.6407E-01  0.3160E+00  0.1028E+02  0.1026E+02
     39.752  0.8056E-01  0.1697E+00  0.1030E+02  0.1029E+02
     39.932  0.5880E+00  0.9029E-01  0.1040E+02  0.1030E+02
     40.113  0.8149E+00  0.3493E+00  0.1055E+02  0.1036E+02
     40.293  0.3537E+00  0.9752E+00  0.1062E+02  0.1054E+02
     40.473  0.1856E+00  0.5436E+00  0.1065E+02  0.1064E+02
     40.653  0.4705E-01  0.7326E-01  0.1066E+02  0.1065E+02
     40.834  0.3689E-01  0.2980E-01  0.1066E+02  0.1066E+02
     41.014  0.2477E+00  0.2897E-02  0.1071E+02  0.1066E+02
     41.194  0.1796E+00  0.1756E+00  0.1074E+02  0.1069E+02
     41.375  0.2439E+00  0.2089E+00  0.1078E+02  0.1073E+02
     41.555  0.2793E+00  0.2688E+00  0.1084E+02  0.1078E+02
     41.735  0.1967E+00  0.3288E+00  0.1087E+02  0.1083E+02
     41.916  0.3524E+00  0.7788E-01  0.1093E+02  0.1085E+02
     42.096  0.2258E+00  0.2851E+00  0.1097E+02  0.1090E+02
     42.276  0.2185E+00  0.4325E+00  0.1101E+02  0.1098E+02
     42.456  0.1743E+00  0.1760E+00  0.1105E+02  0.1101E+02
     42.637  0.2995E+00  0.1699E+00  0.1110E+02  0.1104E+02
     42.817  0.1506E+00  0.2462E+00  0.1113E+02  0.1109E+02
     42.997  0.5868E-01  0.1358E+00  0.1114E+02  0.1111E+02
     43.178  0.1144E-01  0.8034E-01  0.1114E+02  0.1112E+02
     43.358  0.3426E+00  0.1835E+00  0.1120E+02  0.1116E+02
     43.538  0.4111E+00  0.4314E+00  0.1128E+02  0.1123E+02
     43.718  0.1465E+00  0.2422E+00  0.1130E+02  0.1128E+02
     43.899  0.2136E+00 -0.1359E-01  0.1134E+02  0.1128E+02
     44.079  0.3752E+00  0.2950E-01  0.1141E+02  0.1128E+02
     44.259  0.3052E+00  0.4615E+00  0.1146E+02  0.1136E+02
     44.440  0.4944E-01  0.5210E+00  0.1147E+02  0.1146E+02
     44.620  0.1524E+00  0.9409E-01  0.1150E+02  0.1148E+02
     44.800  0.2790E+00  0.5937E-01  0.1155E+02  0.1149E+02
     44.981  0.3934E-01  0.7089E-01  0.1156E+02  0.1150E+02
     45.161  0.2278E+00  0.6208E-01  0.1160E+02  0.1151E+02
     45.341  0.2339E+00  0.2092E+00  0.1164E+02  0.1155E+02
     45.521  0.2342E-03  0.2660E+00  0.1164E+02  0.1160E+02
     45.702 -0.1413E-01  0.2143E+00  0.1164E+02  0.1163E+02
     45.882  0.2445E-01  0.3303E-01  0.1164E+02  0.1164E+02
     46.062  0.1910E+00 -0.1084E-01  0.1168E+02  0.1164E+02
     46.243  0.2950E+00 -0.1246E-01  0.1173E+02  0.1164E+02
     46.423  0.4397E+00  0.1127E+00  0.1181E+02  0.1166E+02
     46.603  0.1396E+00  0.2946E+00  0.1183E+02  0.1171E+02
     46.783  0.1314E-01  0.7850E-01  0.1184E+02  0.1172E+02
     46.964  0.4502E+00 -0.1853E-01  0.1192E+02  0.1172E+02
     47.144  0.4369E+00  0.1228E+00  0.1200E+02  0.1174E+02
     47.324  0.3538E-01  0.2916E+00  0.1200E+02  0.1180E+02
     47.505 -0.1341E-01  0.2040E+00  0.1200E+02  0.1183E+02
     47.685 -0.9753E-03  0.1438E-01  0.1200E+02  0.1183E+02
     47.865 -0.1129E-04 -0.8703E-02  0.1200E+02  0.1183E+02
     48.046 -0.2436E-07 -0.1237E-01  0.1200E+02  0.1183E+02
     48.226 -0.1003E-10  0.8851E-01  0.1200E+02  0.1185E+02
     48.406 -0.7868E-15  0.2918E+00  0.1200E+02  0.1190E+02
     48.586  0.0000E+00  0.1065E+00  0.1200E+02  0.1192E+02
     48.767  0.0000E+00  0.6893E-01  0.1200E+02  0.1193E+02
     48.947  0.0000E+00  0.7618E-01  0.1200E+02  0.1194E+02
     49.127  0.0000E+00  0.2448E-03  0.1200E+02  0.1194E+02
     49.308  0.0000E+00 -0.2118E-02  0.1200E+02  0.1194E+02
     49.488  0.0000E+00 -0.6668E-04  0.1200E+02  0.1194E+02
     49.668  0.0000E+00 -0.3188E-06  0.1200E+02  0.1194E+02
     49.848  0.0000E+00 -0.5091E-08  0.1200E+02  0.1194E+02
     50.029  0.0000E+00 -0.2993E-05  0.1200E+02  0.1194E+02
     50.209  0.0000E+00 -0.3257E-03  0.1200E+02  0.1194E+02
     50.389  0.0000E+00 -0.4954E-02  0.1200E+02  0.1194E+02
     50.570  0.0000E+00  0.1473E-01  0.1200E+02  0.1195E+02
     50.750  0.0000E+00  0.1457E+00  0.1200E+02  0.1197E+02
     50.930  0.0000E+00  0.1443E+00  0.1200E+02  0.1200E+02
     51.110  0.0000E+00  0.1393E-01  0.1200E+02  0.1200E+02
     51.291  0.0000E+00 -0.4876E-02  0.1200E+02  0.1200E+02
     51.471  0.0000E+00 -0.3127E-03  0.1200E+02  0.1200E+02
     51.651  0.0000E+00 -0.2819E-05  0.1200E+02  0.1200E+02
     51.832  0.0000E+00 -0.4457E-08  0.1200E+02  0.1200E+02
     52.012  0.0000E+00 -0.1305E-11  0.1200E+02  0.1200E+02
     52.192  0.0000E+00 -0.6842E-16  0.1200E+02  0.1200E+02
     52.373  0.0000E+00  0.0000E+00  0.1200E+02  0.1200E+02
     52.553  0.0000E+00  0.0000E+00  0.1200E+02  0.1200E+02
     52.733  0.0000E+00  0.0000E+00  0.1200E+02  0.1200E+02
     52.913  0.0000E+00  0.0000E+00  0.1200E+02  0.1200E+02
     53.094  0.0000E+00  0.0000E+00  0.1200E+02  0.1200E+02
     53.274  0.0000E+00  0.0000E+00  0.1200E+02  0.1200E+02
