    1    1    1    2
  0.1081089E+02  0.2481945E-09  0.2481945E-09  0.2481945E-09  0.5000000E-15
  1.000000000000000E-004
  CAR 
 Co fcc                                  
      9     28     12
 
  0.8333333E-01  0.8333333E-01  0.8333333E-01  0.9259259E-02
      1          1.644572        1.661921   1.000000   1.000000
      2          7.583209        9.182459   1.000000   1.000000
      3          7.723221        9.352771   1.000000   1.000000
      4          7.723221        9.352771   1.000000   1.000000
      5          8.701762       10.675441   1.000000  -0.032334
      6          8.701762       10.675441   1.000000  -0.032334
      7         32.708142       32.584747   0.000000   0.000000
      8         35.439933       35.480090   0.000000   0.000000
      9         37.401728       37.626311   0.000000   0.000000
     10         37.401728       37.626311   0.000000   0.000000
     11         41.750489       41.921666   0.000000   0.000000
     12         41.750596       41.984548   0.000000   0.000000
 
  0.2500000E+00  0.8333333E-01  0.8333333E-01  0.2777778E-01
      1          3.017175        3.058316   1.000000   1.000000
      2          7.264898        8.757364   1.000000   1.000000
      3          7.874636        9.541244   1.000000   1.000000
      4          7.965172        9.641309   1.000000   1.000001
      5          8.500106       10.411516   1.000000   0.445468
      6          8.977475       10.914008   1.000000  -0.000815
      7         28.017278       28.345446   0.000000   0.000000
      8         31.474718       31.637164   0.000000   0.000000
      9         36.601413       36.601407   0.000000   0.000000
     10         39.025368       39.225418   0.000000   0.000000
     11         39.529725       39.512305   0.000000   0.000000
     12         41.071961       41.368029   0.000000   0.000000
 
  0.4166667E+00  0.8333333E-01  0.8333333E-01  0.2777778E-01
      1          5.048990        5.565207   1.000000   1.000000
      2          7.583366        8.748211   1.000000   1.000000
      3          7.749740        9.277059   1.000000   1.000000
      4          7.819907        9.489292   1.000000   1.000000
      5          9.144263       11.025612   1.000000  -0.000043
      6          9.946909       11.708788   1.003180  -0.000000
      7         20.260479       20.913052   0.000000   0.000000
      8         30.584049       30.692138   0.000000   0.000000
      9         34.377767       34.427778   0.000000   0.000000
     10         36.431958       36.777981   0.000000   0.000000
     11         38.933202       39.228972   0.000000   0.000000
     12         40.434695       40.598513   0.000000   0.000000
 
 -0.4166667E+00  0.8333333E-01  0.8333333E-01  0.2777778E-01
      1          5.315233        6.255246   1.000000   1.000000
      2          7.407305        9.021759   1.000000   1.000000
      3          7.658205        9.384461   1.000000   1.000000
      4          8.673984        9.572471   1.000000   1.000000
      5          9.622386       11.565088   1.000000  -0.000000
      6         11.116949       12.232426  -0.000002  -0.000000
      7         16.796831       17.776719   0.000000   0.000000
      8         30.991584       30.910144   0.000000   0.000000
      9         33.531288       33.866035   0.000000   0.000000
     10         33.919699       34.168130   0.000000   0.000000
     11         40.016280       40.242374   0.000000   0.000000
     12         40.041341       40.283608   0.000000   0.000000
 
 -0.2500000E+00  0.8333333E-01  0.8333333E-01  0.2777778E-01
      1          4.539755        4.779868   1.000000   1.000000
      2          7.311398        8.536138   1.000000   1.000000
      3          7.679182        9.390035   1.000000   1.000000
      4          7.881432        9.601427   1.000000   1.000000
      5          9.190778       10.964522   1.000000  -0.000235
      6          9.279724       11.219824   1.000000  -0.000000
      7         22.666529       23.195480   0.000000   0.000000
      8         32.288514       32.167948   0.000000   0.000000
      9         33.055624       33.415916   0.000000   0.000000
     10         36.314203       36.653163   0.000000   0.000000
     11         40.015410       40.171615   0.000000   0.000000
     12         42.544920       42.720249   0.000000   0.000000
 
 -0.8333333E-01  0.8333333E-01  0.8333333E-01  0.2777778E-01
      1          2.354380        2.378877   1.000000   1.000000
      2          7.343852        8.892239   1.000000   1.000000
      3          7.898108        9.546274   1.000000   1.000000
      4          7.907848        9.556285   1.000000   1.000000
      5          8.497211       10.415159   1.000000   0.430192
      6          8.831849       10.813663   1.000000  -0.006220
      7         30.731794       30.918022   0.000000   0.000000
      8         33.755310       33.699043   0.000000   0.000000
      9         34.499130       34.831439   0.000000   0.000000
     10         37.184564       37.243130   0.000000   0.000000
     11         41.337607       41.598875   0.000000   0.000000
     12         43.645318       44.184193   0.000000   0.000000
 
  0.2500000E+00  0.2500000E+00  0.8333333E-01  0.2777778E-01
      1          3.627449        3.700659   1.000000   1.000000
      2          6.913068        8.383278   1.000000   1.000000
      3          7.956782        9.685989   1.000000   1.000003
      4          8.259599        9.950975   1.000000   1.003440
      5          8.575056       10.305824   1.000000   0.849616
      6          9.059170       11.052219   1.000000  -0.000019
      7         28.498503       28.820157   0.000000   0.000000
      8         31.490192       31.837419   0.000000   0.000000
      9         31.992554       32.021351   0.000000   0.000000
     10         34.118189       34.279078   0.000000   0.000000
     11         39.075162       39.727026   0.000000   0.000000
     12         45.164476       45.179931   0.000000   0.000000
 
  0.4166667E+00  0.2500000E+00  0.8333333E-01  0.5555556E-01
      1          5.349133        5.763530   1.000000   1.000000
      2          6.617526        7.970188   1.000000   1.000000
      3          7.533170        9.092712   1.000000   1.000000
      4          8.542866       10.320169   1.000000   0.805266
      5          9.165043       10.980057   1.000000  -0.000155
      6         10.285062       11.938492   0.904986  -0.000000
      7         23.613339       24.072362   0.000000   0.000000
      8         27.100260       27.422559   0.000000   0.000000
      9         29.572872       29.889607   0.000000   0.000000
     10         34.893180       35.085740   0.000000   0.000000
     11         39.877805       40.241073   0.000000   0.000000
     12         44.091462       44.355246   0.000000   0.000000
 
 -0.4166667E+00  0.2500000E+00  0.8333333E-01  0.5555556E-01
      1          6.030527        7.112096   1.000000   1.000000
      2          6.728858        8.023349   1.000000   1.000000
      3          7.611825        8.911527   1.000000   1.000000
      4          8.249328       10.048749   1.000000   1.016456
      5          9.575504       11.480865   1.000000  -0.000000
      6         13.679339       14.562092  -0.000000  -0.000000
      7         17.236224       18.049015   0.000000   0.000000
      8         26.143794       26.501203   0.000000   0.000000
      9         28.094802       28.458305   0.000000   0.000000
     10         35.016734       35.152031   0.000000   0.000000
     11         41.445347       41.625051   0.000000   0.000000
     12         46.396346       47.167381   0.000000   0.000000
 
 -0.2500000E+00  0.2500000E+00  0.8333333E-01  0.5555556E-01
      1          5.934688        6.533213   1.000000   1.000000
      2          6.955208        8.229737   1.000000   1.000000
      3          7.156591        8.710814   1.000000   1.000000
      4          8.320845       10.131565   1.000000   1.033848
      5          9.053717       10.860349   1.000000  -0.002607
      6         11.481658       12.924501  -0.000000  -0.000000
      7         21.187362       21.756352   0.000000   0.000000
      8         25.005781       25.403926   0.000000   0.000000
      9         30.613163       30.898263   0.000000   0.000000
     10         36.862691       36.991898   0.000000   0.000000
     11         39.890754       40.008686   0.000000   0.000000
     12         45.157231       45.588904   0.000000   0.000000
 
 -0.8333333E-01  0.2500000E+00  0.8333333E-01  0.5555556E-01
      1          4.187008        4.301585   1.000000   1.000000
      2          6.991744        8.410556   1.000000   1.000000
      3          7.717188        9.410993   1.000000   1.000000
      4          8.172494        9.902991   1.000000   1.001277
      5          8.648146       10.453713   1.000000   0.276321
      6          9.435535       11.322558   1.000000  -0.000000
      7         25.621038       26.037172   0.000000   0.000000
      8         29.141661       29.411843   0.000000   0.000000
      9         34.180265       34.295817   0.000000   0.000000
     10         36.565434       36.723318   0.000000   0.000000
     11         40.934591       41.171071   0.000000   0.000000
     12         41.791227       42.096202   0.000000   0.000000
 
  0.4166667E+00  0.4166667E+00  0.8333333E-01  0.2777778E-01
      1          5.289887        6.221717   1.000000   1.000000
      2          6.034895        7.365553   1.000000   1.000000
      3          8.873512       10.144848   1.000000   1.035177
      4          9.157753       11.048258   1.000000  -0.000022
      5          9.601770       11.563594   1.000000  -0.000000
      6         10.833455       11.982811  -0.004374  -0.000000
      7         24.064019       24.551732   0.000000   0.000000
      8         24.979560       25.343381   0.000000   0.000000
      9         26.854646       27.102010   0.000000   0.000000
     10         31.473597       31.806073   0.000000   0.000000
     11         35.796203       36.240264   0.000000   0.000000
     12         47.007477       50.682409   0.000000   0.000000
 
 -0.4166667E+00  0.4166667E+00  0.8333333E-01  0.5555556E-01
      1          5.563079        6.784881   1.000000   1.000000
      2          6.081409        7.365770   1.000000   1.000000
      3          8.419423        9.757070   1.000000   1.000028
      4          9.122066       11.091151   1.000000  -0.000006
      5          9.779249       11.653469   1.000054  -0.000000
      6         14.504794       15.146790  -0.000000  -0.000000
      7         20.676870       21.298885   0.000000   0.000000
      8         21.549112       22.076335   0.000000   0.000000
      9         24.920090       25.231662   0.000000   0.000000
     10         33.608520       33.864965   0.000000   0.000000
     11         38.784018       39.173158   0.000000   0.000000
     12         46.931135       48.291105   0.000000   0.000000
 
 -0.2500000E+00  0.4166667E+00  0.8333333E-01  0.5555556E-01
      1          6.298147        7.602499   1.000000   1.000000
      2          6.510620        7.668666   1.000000   1.000000
      3          7.409553        8.705565   1.000000   1.000000
      4          8.559293       10.440444   1.000000   0.327162
      5          9.493302       11.340058   1.000000  -0.000000
      6         15.417829       16.193628  -0.000000   0.000000
      7         17.703412       18.377785   0.000000   0.000000
      8         22.311619       22.860524   0.000000   0.000000
      9         27.321282       27.679083   0.000000   0.000000
     10         34.926030       35.097800   0.000000   0.000000
     11         43.333068       43.425115   0.000000   0.000000
     12         46.246500       47.365630   0.000000   0.000000
 
 -0.8333333E-01  0.4166667E+00  0.8333333E-01  0.5555556E-01
      1          5.556217        6.395362   1.000000   1.000000
      2          7.216221        8.572064   1.000000   1.000000
      3          7.791651        9.076287   1.000000   1.000000
      4          7.951749        9.666553   1.000000   1.000001
      5          9.459693       11.356742   1.000000  -0.000000
      6         11.359329       12.663192  -0.000000  -0.000000
      7         18.421806       19.180722   0.000000   0.000000
      8         28.822908       29.031324   0.000000   0.000000
      9         31.178273       31.468769   0.000000   0.000000
     10         35.270719       35.415002   0.000000   0.000000
     11         39.966944       40.207160   0.000000   0.000000
     12         43.435874       43.569651   0.000000   0.000000
 
 -0.4166667E+00 -0.4166667E+00  0.8333333E-01  0.2777778E-01
      1          5.209608        6.383773   1.000000   1.000000
      2          5.811741        7.110239   1.000000   1.000000
      3          9.403406       10.929863   1.000000  -0.000560
      4          9.414788       11.429838   1.000000  -0.000000
      5          9.804179       11.695981   1.000109  -0.000000
      6         13.012262       13.476474  -0.000000  -0.000000
      7         20.681031       21.484708   0.000000   0.000000
      8         23.895891       24.171412   0.000000   0.000000
      9         25.759454       25.954287   0.000000   0.000000
     10         31.205740       31.581551   0.000000   0.000000
     11         35.428650       35.866384   0.000000   0.000000
     12         47.070219       50.815467   0.000000   0.000000
 
 -0.2500000E+00 -0.4166667E+00  0.8333333E-01  0.5555556E-01
      1          5.678756        6.666659   1.000000   1.000000
      2          6.271309        7.581334   1.000000   1.000000
      3          7.930206        9.243129   1.000000   1.000000
      4          8.950441       10.814213   1.000000  -0.006162
      5          9.556297       11.442600   1.000000  -0.000000
      6         12.094670       13.224532  -0.000000  -0.000000
      7         22.057339       22.510739   0.000000   0.000000
      8         24.621243       25.081665   0.000000   0.000000
      9         25.923212       26.281977   0.000000   0.000000
     10         34.001224       34.230330   0.000000   0.000000
     11         39.102583       39.475592   0.000000   0.000000
     12         46.006831       46.471617   0.000000   0.000000
 
 -0.2500000E+00 -0.2500000E+00  0.8333333E-01  0.2777778E-01
      1          4.907805        5.264068   1.000000   1.000000
      2          6.433862        7.824917   1.000000   1.000000
      3          8.065605        9.546988   1.000000   1.000000
      4          8.720018       10.488060   1.000000   0.160199
      5          9.310464       10.930574   1.000000  -0.000550
      6          9.332061       11.326927   1.000000  -0.000000
      7         26.404534       26.756790   0.000000   0.000000
      8         28.647409       28.931109   0.000000   0.000000
      9         28.851526       29.161952   0.000000   0.000000
     10         32.148187       32.410143   0.000000   0.000000
     11         36.828508       37.333231   0.000000   0.000000
     12         46.900624       48.765946   0.000000   0.000000
 
  0.2500000E+00  0.2500000E+00  0.2500000E+00  0.9259259E-02
      1          3.588028        3.675757   1.000000   1.000000
      2          7.342166        8.711577   1.000000   1.000000
      3          7.840809        9.541128   1.000000   1.000000
      4          7.840809        9.541128   1.000000   1.000000
      5          8.875350       10.788498   1.000000  -0.009379
      6          8.875350       10.788498   1.000000  -0.009379
      7         25.113440       25.548244   0.000000   0.000000
      8         33.705374       33.461532   0.000000   0.000000
      9         36.067626       36.425294   0.000000   0.000000
     10         36.067626       36.425294   0.000000   0.000000
     11         41.322195       41.507399   0.000000   0.000000
     12         41.322196       41.507400   0.000000   0.000000
 
  0.4166667E+00  0.2500000E+00  0.2500000E+00  0.2777778E-01
      1          5.099881        5.359127   1.000000   1.000000
      2          7.060492        8.387899   1.000000   1.000000
      3          7.514302        9.147915   1.000000   1.000000
      4          8.093774        9.898127   1.000000   1.001146
      5          8.678132       10.475342   1.000000   0.200260
      6         10.214097       11.970487   1.015104  -0.000000
      7         23.178591       23.685308   0.000000   0.000000
      8         26.838902       27.181007   0.000000   0.000000
      9         35.127357       35.121225   0.000000   0.000000
     10         36.074457       36.419305   0.000000   0.000000
     11         40.328007       40.297837   0.000000   0.000000
     12         41.836319       42.117694   0.000000   0.000000
 
 -0.4166667E+00  0.2500000E+00  0.2500000E+00  0.2777778E-01
      1          6.266614        7.184002   1.000000   1.000000
      2          6.804436        8.182000   1.000000   1.000000
      3          7.312436        8.609312   1.000000   1.000000
      4          8.298452       10.148617   1.000000   1.035364
      5          9.184339       11.007562   1.000000  -0.000073
      6         13.121092       14.227354  -0.000000  -0.000000
      7         19.187738       19.839220   0.000000   0.000000
      8         23.367007       23.842295   0.000000   0.000000
      9         31.483074       31.840467   0.000000   0.000000
     10         33.086902       33.192718   0.000000   0.000000
     11         44.227081       44.215146   0.000000   0.000000
     12         44.624659       44.798978   0.000000   0.000000
 
 -0.2500000E+00  0.2500000E+00  0.2500000E+00  0.2777778E-01
      1          5.852643        6.914869   1.000000   1.000000
      2          6.491252        7.735404   1.000000   1.000000
      3          7.761821        9.079234   1.000000   1.000000
      4          8.487971       10.316036   1.000000   0.818531
      5          9.680141       11.619585   1.000002  -0.000000
      6         12.782775       13.813805  -0.000000  -0.000000
      7         19.190098       19.789701   0.000000   0.000000
      8         25.217649       25.650562   0.000000   0.000000
      9         28.787182       29.091913   0.000000   0.000000
     10         32.377235       32.616624   0.000000   0.000000
     11         42.822999       43.163564   0.000000   0.000000
     12         46.323510       46.563513   0.000000   0.000000
 
  0.4166667E+00  0.4166667E+00  0.2500000E+00  0.2777778E-01
      1          5.440413        6.041395   1.000000   1.000000
      2          6.953964        8.180809   1.000000   1.000000
      3          7.557526        9.088500   1.000000   1.000000
      4          8.116362        9.876199   1.000000   1.000692
      5          9.575998       11.532780   1.000000  -0.000000
      6         10.500997       11.944443   0.123387  -0.000000
      7         20.685982       21.276012   0.000000   0.000000
      8         29.479667       29.649979   0.000000   0.000000
      9         30.566480       30.900443   0.000000   0.000000
     10         33.239790       33.507096   0.000000   0.000000
     11         43.315865       43.425859   0.000000   0.000000
     12         44.029861       44.378474   0.000000   0.000000
 
 -0.4166667E+00  0.4166667E+00  0.2500000E+00  0.5555556E-01
      1          6.231101        7.299545   1.000000   1.000000
      2          6.634055        7.932643   1.000000   1.000000
      3          7.178858        8.505892   1.000000   1.000000
      4          8.632910       10.493509   1.000000   0.144199
      5          9.480715       11.323309   1.000000  -0.000000
      6         13.647102       14.642167  -0.000000  -0.000000
      7         19.678843       20.260648   0.000000   0.000000
      8         23.676241       24.114996   0.000000   0.000000
      9         25.935139       26.355092   0.000000   0.000000
     10         37.713787       37.835702   0.000000   0.000000
     11         40.154097       40.288372   0.000000   0.000000
     12         44.684284       45.364113   0.000000   0.000000
 
 -0.2500000E+00  0.4166667E+00  0.2500000E+00  0.5555556E-01
      1          6.025840        7.309326   1.000000   1.000000
      2          6.596632        7.861953   1.000000   1.000000
      3          7.404446        8.691475   1.000000   1.000000
      4          8.728785       10.630606   1.000000  -0.034754
      5          9.770317       11.636889   1.000041  -0.000000
      6         16.449352       17.101844   0.000000   0.000000
      7         18.756809       19.321757   0.000000   0.000000
      8         21.664376       22.266959   0.000000   0.000000
      9         23.327094       23.769759   0.000000   0.000000
     10         37.648248       37.799963   0.000000   0.000000
     11         42.095942       42.247291   0.000000   0.000000
     12         43.873316       44.224655   0.000000   0.000000
 
 -0.4166667E+00 -0.4166667E+00  0.2500000E+00  0.2777778E-01
      1          5.850325        7.138056   1.000000   1.000000
      2          6.277008        7.489352   1.000000   1.000000
      3          8.027038        9.322111   1.000000   1.000000
      4          8.841573       10.765922   1.000000  -0.013064
      5          9.607980       11.480972   1.000000  -0.000000
      6         15.560355       16.245912  -0.000000   0.000000
      7         18.197374       18.776446   0.000000   0.000000
      8         21.509084       22.156504   0.000000   0.000000
      9         27.857003       28.143729   0.000000   0.000000
     10         32.148054       32.415938   0.000000   0.000000
     11         42.497474       42.884358   0.000000   0.000000
     12         46.947117       48.387852   0.000000   0.000000
 
  0.4166667E+00  0.4166667E+00  0.4166667E+00  0.9259259E-02
      1          5.088594        5.869991   1.000000   1.000000
      2          7.587199        9.303750   1.000000   1.000000
      3          7.587199        9.303750   1.000000   1.000000
      4          9.148611        9.461770   1.000000   1.000000
      5          9.500572       11.432425   1.000000  -0.000000
      6          9.500572       11.432425   1.000000  -0.000000
      7         18.069619       18.904938   0.000000   0.000000
      8         32.268333       31.973018   0.000000   0.000000
      9         35.437690       35.777045   0.000000   0.000000
     10         35.437690       35.777045   0.000000   0.000000
     11         38.417909       38.699075   0.000000   0.000000
     12         38.417909       38.699075   0.000000   0.000000
 
 -0.4166667E+00  0.4166667E+00  0.4166667E+00  0.2777778E-01
      1          5.741828        6.740676   1.000000   1.000000
      2          7.073438        8.480892   1.000000   1.000000
      3          7.938160        9.130630   1.000000   1.000000
      4          7.950210        9.707833   1.000000   1.000006
      5          9.479421       11.385009   1.000000  -0.000000
      6         12.671339       13.648934  -0.000000  -0.000000
      7         16.999538       17.903352   0.000000   0.000000
      8         27.301904       27.600424   0.000000   0.000000
      9         32.169343       32.515101   0.000000   0.000000
     10         33.101373       33.181053   0.000000   0.000000
     11         42.257812       42.497952   0.000000   0.000000
     12         42.564295       42.673660   0.000000   0.000000
