 vasp.6.3.2 27Jun22 (build Aug 12 2022 00:53:59) complex                        
  
 executed on               tv2STD date 2024.11.30  15:06:55
 running   24 mpi-ranks, with    1 threads/rank
 distrk:  each k-point on   24 cores,    1 groups
 distr:  one band on NCORE=   6 cores,    4 groups


--------------------------------------------------------------------------------------------------------


 INCAR:
   SYSTEM = Co fcc
   NWRITE = 2    write-flag
   ISTART = 0    job   : 0-new, 1-cont, 2-samecut
   ICHARG = 2    charge: 0-wave, 1-file, 2-atom, >10-const
   INIWAV = 1    electr: 0-lowe 1-rand  2-diag
   ENCUT = 475     energy cutoff in eV
   PREC = Accurate      normal | accurate
   ADDGRID = .FALSE.  (use fine grid)
   NELM = 100     number of ELM steps
   EDIFF = 1E-06    energy stopping-criterion for ELM
   LREAL = .FALSE.      real-space projection (.FALSE., .TRUE., On, Auto)
   ALGO = Normal     Normal, Fast, Very_Fast
   LWAVE = .FALSE.
   LCHARG = .FALSE.
   NSW = 0       max number of geometry steps
   IBRION = -1     ionic relax: 0-MD, 1-quasi-Newton, 2-CG, 3-Damped MD
   EDIFFG = -0.02  force (eV/A) stopping-criterion for geometry steps
   ISIF = 2     (1:force\=y stress\=trace only ions\=y shape\=n volume\=n)
   ISYM = 1     (1-use symmetry, 0-no symmetry)
   ISMEAR = 1     (-1-Fermi, 1-Methfessel/Paxton)
   SIGMA = 0.2   broadening in eV
   NPAR = 4
   ISPIN = 2
   MAGMOM = 1*3

 POTCAR:    PAW_PBE Co 02Aug2007                  
 POTCAR:    PAW_PBE Co 02Aug2007                  
   SHA256 =  0e690c60710354995174544f52f9f2c30879afabeffe3b3fbd4001cb294e56d4 Co/POTCAR             
   COPYR  = (c) Copyright 02Aug2007 Georg Kresse                                                    
   COPYR  = This file is part of the software VASP. Any use, copying, and all other rights are regul
   COPYR  = If you do not have a valid VASP license, you may not use, copy or distribute this file. 
   VRHFIN =Co: d8 s1                                                                                
   LEXCH  = PE                                                                                      
   EATOM  =   813.3670 eV,   59.7808 Ry                                                             
                                                                                                    
   TITEL  = PAW_PBE Co 02Aug2007                                                                    
   LULTRA =        F    use ultrasoft PP ?                                                          
   IUNSCR =        1    unscreen: 0-lin 1-nonlin 2-no                                               
   RPACOR =    2.000    partial core radius                                                         
   POMASS =   58.933; ZVAL   =    9.000    mass and valenz                                          
   RCORE  =    2.300    outmost cutoff radius                                                       
   RWIGS  =    2.460; RWIGS  =    1.302    wigner-seitz radius (au A)                               
   ENMAX  =  267.968; ENMIN  =  200.976 eV                                                          
   RCLOC  =    1.203    cutoff for local pot                                                        
   LCOR   =        T    correct aug charges                                                         
   LPAW   =        T    paw PP                                                                      
   EAUG   =  477.818                                                                                
   DEXC   =    0.000                                                                                
   RMAX   =    2.360    core radius for proj-oper                                                   
   RAUG   =    1.300    factor for augmentation sphere                                              
   RDEP   =    2.393    radius for radial grids                                                     
   RDEPT  =    1.864    core radius for aug-charge                                                  
                                                                                                    
   Atomic configuration                                                                             
    9 entries                                                                                       
     n  l   j            E        occ.                                                              
     1  0  0.50     -7587.6674   2.0000                                                             
     2  0  0.50      -893.6084   2.0000                                                             
     2  1  1.50      -764.5805   6.0000                                                             
     3  0  0.50       -97.5973   2.0000                                                             
     3  1  1.50       -60.9648   6.0000                                                             
     3  2  2.50        -4.2382   8.0000                                                             
     4  0  0.50        -4.3746   1.0000                                                             
     4  1  1.50        -4.0817   0.0000                                                             
     4  3  2.50        -1.3606   0.0000                                                             
   Description                                                                                      
     l       E           TYP  RCUT    TYP  RCUT                                                     
     2     -4.2382362     23  2.300                                                                 
     2     -5.5988188     23  2.300                                                                 
     0     -4.3745797     23  2.300                                                                 
     0      5.7660125     23  2.300                                                                 
     1     -2.7211652     23  2.300                                                                 
     1     16.9860234     23  2.300                                                                 
  local pseudopotential read in
  partial core-charges read in
  partial kinetic energy density read in
  atomic valenz-charges read in
  non local Contribution for L=           2  read in
    real space projection operators read in
  non local Contribution for L=           2  read in
    real space projection operators read in
  non local Contribution for L=           0  read in
    real space projection operators read in
  non local Contribution for L=           0  read in
    real space projection operators read in
  non local Contribution for L=           1  read in
    real space projection operators read in
  non local Contribution for L=           1  read in
    real space projection operators read in
    PAW grid and wavefunctions read in
 
   number of l-projection  operators is LMAX  =           6
   number of lm-projection operators is LMMAX =          18
 
  PAW_PBE Co 02Aug2007                  :
 energy of atom  1       EATOM= -813.3670
 kinetic energy error for atom=    0.0029 (will be added to EATOM!!)
 
 
 POSCAR: Co
  positions in cartesian coordinates
  No initial velocities read in
 exchange correlation table for  LEXCH =        8
   RHO(1)=    0.500       N(1)  =     2000
   RHO(2)=  100.500       N(2)  =     4000
 


--------------------------------------------------------------------------------------------------------


 ion  position               nearest neighbor table
   1  0.000  0.000  0.000-
 
  LATTYP: Found a face centered cubic cell.
 ALAT       =     3.5100000000
  
  Lattice vectors:
  
 A1 = (   0.0000000000,   1.7550000000,   1.7550000000)
 A2 = (   1.7550000000,   0.0000000000,   1.7550000000)
 A3 = (   1.7550000000,   1.7550000000,   0.0000000000)


Analysis of symmetry for initial positions (statically):
=====================================================================
 Subroutine PRICEL returns:
 Original cell was already a primitive cell.
 

 Routine SETGRP: Setting up the symmetry group for a 
 face centered cubic supercell.


 Subroutine GETGRP returns: Found 48 space group operations
 (whereof 48 operations were pure point group operations)
 out of a pool of 48 trial point group operations.


The static configuration has the point symmetry O_h .


Analysis of symmetry for dynamics (positions and initial velocities):
=====================================================================
 Subroutine PRICEL returns:
 Original cell was already a primitive cell.
 

 Routine SETGRP: Setting up the symmetry group for a 
 face centered cubic supercell.


 Subroutine GETGRP returns: Found 48 space group operations
 (whereof 48 operations were pure point group operations)
 out of a pool of 48 trial point group operations.


The dynamic configuration has the point symmetry O_h .


Analysis of structural, dynamic, and magnetic symmetry:
=====================================================================
 Subroutine PRICEL returns:
 Original cell was already a primitive cell.
 

 Routine SETGRP: Setting up the symmetry group for a 
 face centered cubic supercell.


 Subroutine GETGRP returns: Found 48 space group operations
 (whereof 48 operations were pure point group operations)
 out of a pool of 48 trial point group operations.


The overall configuration has the point symmetry O_h .


 Subroutine INISYM returns: Found 48 space group operations
 (whereof 48 operations are pure point group operations),
 and found     1 'primitive' translations


----------------------------------------------------------------------------------------

                                     Primitive cell                                     

  volume of cell :      10.8109

  direct lattice vectors                    reciprocal lattice vectors
     0.000000000  1.755000000  1.755000000    -0.284900285  0.284900285  0.284900285
     1.755000000  0.000000000  1.755000000     0.284900285 -0.284900285  0.284900285
     1.755000000  1.755000000  0.000000000     0.284900285  0.284900285 -0.284900285

  length of vectors
     2.481944802  2.481944802  2.481944802     0.493461769  0.493461769  0.493461769

  position of ions in fractional coordinates (direct lattice)
     0.000000000  0.000000000  0.000000000

  ion indices of the primitive-cell ions
   primitive index   ion index
                 1           1

----------------------------------------------------------------------------------------

 
 
 KPOINTS: Automatic mesh                          

Automatic generation of k-mesh.
 Grid dimensions read from file:
 generate k-points for:    6    6    6

 Generating k-lattice:

  Cartesian coordinates                     Fractional coordinates (reciprocal lattice)
    -0.047483381  0.047483381  0.047483381     0.166666667  0.000000000  0.000000000
     0.047483381 -0.047483381  0.047483381     0.000000000  0.166666667  0.000000000
     0.047483381  0.047483381 -0.047483381     0.000000000  0.000000000  0.166666667

  Length of vectors
     0.082243628  0.082243628  0.082243628

  Shift w.r.t. Gamma in fractional coordinates (k-lattice)
     0.500000000  0.500000000  0.500000000

 
 Subroutine IBZKPT returns following result:
 ===========================================
 
 Found     28 irreducible k-points:
 
 Following reciprocal coordinates:
            Coordinates               Weight
  0.083333  0.083333  0.083333      8.000000
  0.250000  0.083333  0.083333     24.000000
  0.416667  0.083333  0.083333     24.000000
 -0.416667  0.083333  0.083333     24.000000
 -0.250000  0.083333  0.083333     24.000000
 -0.083333  0.083333  0.083333     24.000000
  0.250000  0.250000  0.083333     24.000000
  0.416667  0.250000  0.083333     48.000000
 -0.416667  0.250000  0.083333     48.000000
 -0.250000  0.250000  0.083333     48.000000
 -0.083333  0.250000  0.083333     48.000000
  0.416667  0.416667  0.083333     24.000000
 -0.416667  0.416667  0.083333     48.000000
 -0.250000  0.416667  0.083333     48.000000
 -0.083333  0.416667  0.083333     48.000000
 -0.416667 -0.416667  0.083333     24.000000
 -0.250000 -0.416667  0.083333     48.000000
 -0.250000 -0.250000  0.083333     24.000000
  0.250000  0.250000  0.250000      8.000000
  0.416667  0.250000  0.250000     24.000000
 -0.416667  0.250000  0.250000     24.000000
 -0.250000  0.250000  0.250000     24.000000
  0.416667  0.416667  0.250000     24.000000
 -0.416667  0.416667  0.250000     48.000000
 -0.250000  0.416667  0.250000     48.000000
 -0.416667 -0.416667  0.250000     24.000000
  0.416667  0.416667  0.416667      8.000000
 -0.416667  0.416667  0.416667     24.000000
 
 Following cartesian coordinates:
            Coordinates               Weight
  0.023742  0.023742  0.023742      8.000000
 -0.023742  0.071225  0.071225     24.000000
 -0.071225  0.118708  0.118708     24.000000
  0.166192 -0.118708 -0.118708     24.000000
  0.118708 -0.071225 -0.071225     24.000000
  0.071225 -0.023742 -0.023742     24.000000
  0.023742  0.023742  0.118708     24.000000
 -0.023742  0.071225  0.166192     48.000000
  0.213675 -0.166192 -0.071225     48.000000
  0.166192 -0.118708 -0.023742     48.000000
  0.118708 -0.071225  0.023742     48.000000
  0.023742  0.023742  0.213675     24.000000
  0.261159 -0.213675 -0.023742     48.000000
  0.213675 -0.166192  0.023742     48.000000
  0.166192 -0.118708  0.071225     48.000000
  0.023742  0.023742 -0.261159     24.000000
 -0.023742  0.071225 -0.213675     48.000000
  0.023742  0.023742 -0.166192     24.000000
  0.071225  0.071225  0.071225      8.000000
  0.023742  0.118708  0.118708     24.000000
  0.261159 -0.118708 -0.118708     24.000000
  0.213675 -0.071225 -0.071225     24.000000
  0.071225  0.071225  0.166192     24.000000
  0.308642 -0.166192 -0.071225     48.000000
  0.261159 -0.118708 -0.023742     48.000000
  0.071225  0.071225 -0.308642     24.000000
  0.118708  0.118708  0.118708      8.000000
  0.356125 -0.118708 -0.118708     24.000000
 


--------------------------------------------------------------------------------------------------------




 Dimension of arrays:
   k-points           NKPTS =     28   k-points in BZ     NKDIM =     28   number of bands    NBANDS=     12
   number of dos      NEDOS =    301   number of ions     NIONS =      1
   non local maximal  LDIM  =      6   non local SUM 2l+1 LMDIM =     18
   total plane-waves  NPLWV =   5832
   max r-space proj   IRMAX =      1   max aug-charges    IRDMAX=  21473
   dimension x,y,z NGX =    18 NGY =   18 NGZ =   18
   dimension x,y,z NGXF=    36 NGYF=   36 NGZF=   36
   support grid    NGXF=    36 NGYF=   36 NGZF=   36
   ions per type =               1
   NGX,Y,Z   is equivalent  to a cutoff of  12.06, 12.06, 12.06 a.u.
   NGXF,Y,Z  is equivalent  to a cutoff of  24.11, 24.11, 24.11 a.u.

 SYSTEM =  Co fcc                                  
 POSCAR =  Co                                      

 Startparameter for this run:
   NWRITE =      2    write-flag & timer
   PREC   = accura    normal or accurate (medium, high low for compatibility)
   ISTART =      0    job   : 0-new  1-cont  2-samecut
   ICHARG =      2    charge: 1-file 2-atom 10-const
   ISPIN  =      2    spin polarized calculation?
   LNONCOLLINEAR =      F non collinear calculations
   LSORBIT =      F    spin-orbit coupling
   INIWAV =      1    electr: 0-lowe 1-rand  2-diag
   LASPH  =      F    aspherical Exc in radial PAW
 Electronic Relaxation 1
   ENCUT  =  475.0 eV  34.91 Ry    5.91 a.u.   4.41  4.41  4.41*2*pi/ulx,y,z
   ENINI  =  475.0     initial cutoff
   ENAUG  =  477.8 eV  augmentation charge cutoff
   NELM   =    100;   NELMIN=  2; NELMDL= -5     # of ELM steps 
   EDIFF  = 0.1E-05   stopping-criterion for ELM
   LREAL  =      F    real-space projection
   NLSPLINE    = F    spline interpolate recip. space projectors
   LCOMPAT=      F    compatible to vasp.4.4
   GGA_COMPAT  = T    GGA compatible to vasp.4.4-vasp.4.6
   LMAXPAW     = -100 max onsite density
   LMAXMIX     =    2 max onsite mixed and CHGCAR
   VOSKOWN=      0    Vosko Wilk Nusair interpolation
   ROPT   =    0.00000
 Ionic relaxation
   EDIFFG = -.2E-01   stopping-criterion for IOM
   NSW    =      0    number of steps for IOM
   NBLOCK =      1;   KBLOCK =      1    inner block; outer block 
   IBRION =     -1    ionic relax: 0-MD 1-quasi-New 2-CG
   NFREE  =      0    steps in history (QN), initial steepest desc. (CG)
   ISIF   =      2    stress and relaxation
   IWAVPR =     10    prediction:  0-non 1-charg 2-wave 3-comb
   ISYM   =      1    0-nonsym 1-usesym 2-fastsym
   LCORR  =      T    Harris-Foulkes like correction to forces

   POTIM  = 0.5000    time-step for ionic-motion
   TEIN   =    0.0    initial temperature
   TEBEG  =    0.0;   TEEND  =   0.0 temperature during run
   SMASS  =  -3.00    Nose mass-parameter (am)
   estimated Nose-frequenzy (Omega)   =  0.10E-29 period in steps = 0.13E+47 mass=  -0.141E-27a.u.
   SCALEE = 1.0000    scale energy and forces
   NPACO  =    256;   APACO  = 10.0  distance and # of slots for P.C.
   PSTRESS=    0.0 pullay stress

  Mass of Ions in am
   POMASS =  58.93
  Ionic Valenz
   ZVAL   =   9.00
  Atomic Wigner-Seitz radii
   RWIGS  =  -1.00
  virtual crystal weights 
   VCA    =   1.00
   NELECT =       9.0000    total number of electrons
   NUPDOWN=      -1.0000    fix difference up-down

 DOS related values:
   EMIN   =  10.00;   EMAX   =-10.00  energy-range for DOS
   EFERMI =   0.00
   ISMEAR =     1;   SIGMA  =   0.20  broadening in eV -4-tet -1-fermi 0-gaus

 Electronic relaxation 2 (details)
   IALGO  =     38    algorithm
   LDIAG  =      T    sub-space diagonalisation (order eigenvalues)
   LSUBROT=      F    optimize rotation matrix (better conditioning)
   TURBO    =      0    0=normal 1=particle mesh
   IRESTART =      0    0=no restart 2=restart with 2 vectors
   NREBOOT  =      0    no. of reboots
   NMIN     =      0    reboot dimension
   EREF     =   0.00    reference energy to select bands
   IMIX   =      4    mixing-type and parameters
     AMIX     =   0.40;   BMIX     =  1.00
     AMIX_MAG =   1.60;   BMIX_MAG =  1.00
     AMIN     =   0.10
     WC   =   100.;   INIMIX=   1;  MIXPRE=   1;  MAXMIX= -45

 Intra band minimization:
   WEIMIN = 0.0000     energy-eigenvalue tresh-hold
   EBREAK =  0.21E-07  absolut break condition
   DEPER  =   0.30     relativ break condition  

   TIME   =   0.40     timestep for ELM

  volume/ion in A,a.u.               =      10.81        72.96
  Fermi-wavevector in a.u.,A,eV,Ry     =   1.540051  2.910275 32.269731  2.371758
  Thomas-Fermi vector in A             =   2.646193
 
 Write flags
   LWAVE        =      F    write WAVECAR
   LDOWNSAMPLE  =      F    k-point downsampling of WAVECAR
   LCHARG       =      F    write CHGCAR
   LVTOT        =      F    write LOCPOT, total local potential
   LVHAR        =      F    write LOCPOT, Hartree potential only
   LELF         =      F    write electronic localiz. function (ELF)
   LORBIT       =      0    0 simple, 1 ext, 2 COOP (PROOUT), +10 PAW based schemes


 Dipole corrections
   LMONO  =      F    monopole corrections only (constant potential shift)
   LDIPOL =      F    correct potential (dipole corrections)
   IDIPOL =      0    1-x, 2-y, 3-z, 4-all directions 
   EPSILON=  1.0000000 bulk dielectric constant

 Exchange correlation treatment:
   GGA     =    --    GGA type
   LEXCH   =     8    internal setting for exchange type
   LIBXC   =     F    Libxc                    
   VOSKOWN =     0    Vosko Wilk Nusair interpolation
   LHFCALC =     F    Hartree Fock is set to
   LHFONE  =     F    Hartree Fock one center treatment
   AEXX    =    0.0000 exact exchange contribution

 Linear response parameters
   LEPSILON=     F    determine dielectric tensor
   LRPA    =     F    only Hartree local field effects (RPA)
   LNABLA  =     F    use nabla operator in PAW spheres
   LVEL    =     F    velocity operator in full k-point grid
   CSHIFT  =0.1000    complex shift for real part using Kramers Kronig
   OMEGAMAX=  -1.0    maximum frequency
   DEG_THRESHOLD= 0.2000000E-02 threshold for treating states as degnerate
   RTIME   =   -0.100 relaxation time in fs
  (WPLASMAI=    0.000 imaginary part of plasma frequency in eV, 0.658/RTIME)
   DFIELD  = 0.0000000 0.0000000 0.0000000 field for delta impulse in time
 
  Optional k-point grid parameters
   LKPOINTS_OPT  =     F    use optional k-point grid
   KPOINTS_OPT_MODE=     1    mode for optional k-point grid
 
 Orbital magnetization related:
   ORBITALMAG=     F  switch on orbital magnetization
   LCHIMAG   =     F  perturbation theory with respect to B field
   DQ        =  0.001000  dq finite difference perturbation B field
   LLRAUG    =     F  two centre corrections for induced B field



--------------------------------------------------------------------------------------------------------


 Static calculation
 charge density and potential will be updated during run
 spin polarized calculation
 Variant of blocked Davidson
 Davidson routine will perform the subspace rotation
 perform sub-space diagonalisation
    after iterative eigenvector-optimisation
 modified Broyden-mixing scheme, WC =      100.0
 initial mixing is a Kerker type mixing with AMIX =  0.4000 and BMIX =      1.0000
 Hartree-type preconditioning will be used
 using additional bands            7
 reciprocal scheme for non local part
 use partial core corrections
 calculate Harris-corrections to forces 
   (improved forces if not selfconsistent)
 use gradient corrections 
 use of overlap-Matrix (Vanderbilt PP)
 Methfessel and Paxton  Order N= 1 SIGMA  =   0.20


--------------------------------------------------------------------------------------------------------


  energy-cutoff  :      475.00
  volume of cell :       10.81
      direct lattice vectors                 reciprocal lattice vectors
     0.000000000  1.755000000  1.755000000    -0.284900285  0.284900285  0.284900285
     1.755000000  0.000000000  1.755000000     0.284900285 -0.284900285  0.284900285
     1.755000000  1.755000000  0.000000000     0.284900285  0.284900285 -0.284900285

  length of vectors
     2.481944802  2.481944802  2.481944802     0.493461769  0.493461769  0.493461769


 
 k-points in units of 2pi/SCALE and weight: Automatic mesh                          
   0.02374169  0.02374169  0.02374169       0.009
  -0.02374169  0.07122507  0.07122507       0.028
  -0.07122507  0.11870845  0.11870845       0.028
   0.16619183 -0.11870845 -0.11870845       0.028
   0.11870845 -0.07122507 -0.07122507       0.028
   0.07122507 -0.02374169 -0.02374169       0.028
   0.02374169  0.02374169  0.11870845       0.028
  -0.02374169  0.07122507  0.16619183       0.056
   0.21367521 -0.16619183 -0.07122507       0.056
   0.16619183 -0.11870845 -0.02374169       0.056
   0.11870845 -0.07122507  0.02374169       0.056
   0.02374169  0.02374169  0.21367521       0.028
   0.26115859 -0.21367521 -0.02374169       0.056
   0.21367521 -0.16619183  0.02374169       0.056
   0.16619183 -0.11870845  0.07122507       0.056
   0.02374169  0.02374169 -0.26115859       0.028
  -0.02374169  0.07122507 -0.21367521       0.056
   0.02374169  0.02374169 -0.16619183       0.028
   0.07122507  0.07122507  0.07122507       0.009
   0.02374169  0.11870845  0.11870845       0.028
   0.26115859 -0.11870845 -0.11870845       0.028
   0.21367521 -0.07122507 -0.07122507       0.028
   0.07122507  0.07122507  0.16619183       0.028
   0.30864198 -0.16619183 -0.07122507       0.056
   0.26115859 -0.11870845 -0.02374169       0.056
   0.07122507  0.07122507 -0.30864198       0.028
   0.11870845  0.11870845  0.11870845       0.009
   0.35612536 -0.11870845 -0.11870845       0.028
 
 k-points in reciprocal lattice and weights: Automatic mesh                          
   0.08333333  0.08333333  0.08333333       0.009
   0.25000000  0.08333333  0.08333333       0.028
   0.41666667  0.08333333  0.08333333       0.028
  -0.41666667  0.08333333  0.08333333       0.028
  -0.25000000  0.08333333  0.08333333       0.028
  -0.08333333  0.08333333  0.08333333       0.028
   0.25000000  0.25000000  0.08333333       0.028
   0.41666667  0.25000000  0.08333333       0.056
  -0.41666667  0.25000000  0.08333333       0.056
  -0.25000000  0.25000000  0.08333333       0.056
  -0.08333333  0.25000000  0.08333333       0.056
   0.41666667  0.41666667  0.08333333       0.028
  -0.41666667  0.41666667  0.08333333       0.056
  -0.25000000  0.41666667  0.08333333       0.056
  -0.08333333  0.41666667  0.08333333       0.056
  -0.41666667 -0.41666667  0.08333333       0.028
  -0.25000000 -0.41666667  0.08333333       0.056
  -0.25000000 -0.25000000  0.08333333       0.028
   0.25000000  0.25000000  0.25000000       0.009
   0.41666667  0.25000000  0.25000000       0.028
  -0.41666667  0.25000000  0.25000000       0.028
  -0.25000000  0.25000000  0.25000000       0.028
   0.41666667  0.41666667  0.25000000       0.028
  -0.41666667  0.41666667  0.25000000       0.056
  -0.25000000  0.41666667  0.25000000       0.056
  -0.41666667 -0.41666667  0.25000000       0.028
   0.41666667  0.41666667  0.41666667       0.009
  -0.41666667  0.41666667  0.41666667       0.028
 
 position of ions in fractional coordinates (direct lattice) 
   0.00000000  0.00000000  0.00000000
 
 position of ions in cartesian coordinates  (Angst):
   0.00000000  0.00000000  0.00000000
 


--------------------------------------------------------------------------------------------------------


 k-point   1 :   0.0833 0.0833 0.0833  plane waves:     265
 k-point   2 :   0.2500 0.0833 0.0833  plane waves:     261
 k-point   3 :   0.4167 0.0833 0.0833  plane waves:     253
 k-point   4 :  -0.4167 0.0833 0.0833  plane waves:     254
 k-point   5 :  -0.2500 0.0833 0.0833  plane waves:     257
 k-point   6 :  -0.0833 0.0833 0.0833  plane waves:     264
 k-point   7 :   0.2500 0.2500 0.0833  plane waves:     255
 k-point   8 :   0.4167 0.2500 0.0833  plane waves:     253
 k-point   9 :  -0.4167 0.2500 0.0833  plane waves:     251
 k-point  10 :  -0.2500 0.2500 0.0833  plane waves:     254
 k-point  11 :  -0.0833 0.2500 0.0833  plane waves:     257
 k-point  12 :   0.4167 0.4167 0.0833  plane waves:     249
 k-point  13 :  -0.4167 0.4167 0.0833  plane waves:     250
 k-point  14 :  -0.2500 0.4167 0.0833  plane waves:     253
 k-point  15 :  -0.0833 0.4167 0.0833  plane waves:     252
 k-point  16 :  -0.4167-0.4167 0.0833  plane waves:     247
 k-point  17 :  -0.2500-0.4167 0.0833  plane waves:     252
 k-point  18 :  -0.2500-0.2500 0.0833  plane waves:     253
 k-point  19 :   0.2500 0.2500 0.2500  plane waves:     259
 k-point  20 :   0.4167 0.2500 0.2500  plane waves:     257
 k-point  21 :  -0.4167 0.2500 0.2500  plane waves:     253
 k-point  22 :  -0.2500 0.2500 0.2500  plane waves:     253
 k-point  23 :   0.4167 0.4167 0.2500  plane waves:     253
 k-point  24 :  -0.4167 0.4167 0.2500  plane waves:     252
 k-point  25 :  -0.2500 0.4167 0.2500  plane waves:     257
 k-point  26 :  -0.4167-0.4167 0.2500  plane waves:     251
 k-point  27 :   0.4167 0.4167 0.4167  plane waves:     254
 k-point  28 :  -0.4167 0.4167 0.4167  plane waves:     250

 maximum and minimum number of plane-waves per node :        50       33

 maximum number of plane-waves:       265
 maximum index in each direction: 
   IXMAX=    4   IYMAX=    4   IZMAX=    4
   IXMIN=   -4   IYMIN=   -4   IZMIN=   -4


 parallel 3D FFT for wavefunctions:
    minimum data exchange during FFTs selected (reduces bandwidth)
 parallel 3D FFT for charge:
    minimum data exchange during FFTs selected (reduces bandwidth)


 total amount of memory used by VASP MPI-rank0    30821. kBytes
=======================================================================

   base      :      30000. kBytes
   nonl-proj :        210. kBytes
   fftplans  :        113. kBytes
   grid      :        274. kBytes
   one-center:         31. kBytes
   wavefun   :        193. kBytes
 
     INWAV:  cpu time      0.0000: real time      0.0001
 Broyden mixing: mesh for mixing (old mesh)
   NGX =  9   NGY =  9   NGZ =  9
  (NGX  = 36   NGY  = 36   NGZ  = 36)
  gives a total of    729 points

 initial charge density was supplied:
 charge density of overlapping atoms calculated
 number of electron       9.0000000 magnetization       3.0000000
 keeping initial charge density in first step


--------------------------------------------------------------------------------------------------------


 Maximum index for augmentation-charges         1346 (set IRDMAX)


--------------------------------------------------------------------------------------------------------


 First call to EWALD:  gamma=   0.802
 Maximum number of real-space cells 3x 3x 3
 Maximum number of reciprocal cells 3x 3x 3

    FEWALD:  cpu time      0.0014: real time      0.0014


--------------------------------------- Iteration      1(   1)  ---------------------------------------


    POTLOK:  cpu time      0.0054: real time      0.0055
    SETDIJ:  cpu time      0.0053: real time      0.0053
     EDDAV:  cpu time      0.1329: real time      0.1338
       DOS:  cpu time      0.0010: real time      0.0010
    --------------------------------------------
      LOOP:  cpu time      0.1446: real time      0.1457

 eigenvalue-minimisations  :  1352
 total energy-change (2. order) : 0.2526100E+02  (-0.4039660E+03)
 number of electron       9.0000000 magnetization       3.0000000
 augmentation part        9.0000000 magnetization       3.0000000

 Free energy of the ion-electron system (eV)
  ---------------------------------------------------
  alpha Z        PSCENC =        39.18058524
  Ewald energy   TEWEN  =      -761.78120824
  -Hartree energ DENC   =      -149.59159932
  -exchange      EXHF   =         0.00000000
  -V(xc)+E(xc)   XCENC  =        17.82600536
  PAW double counting   =       719.99081943     -772.94345096
  entropy T*S    EENTRO =         0.00211876
  eigenvalues    EBANDS =       119.21365735
  atomic energy  EATOM  =       813.36407671
  Solvation  Ediel_sol  =         0.00000000
  ---------------------------------------------------
  free energy    TOTEN  =        25.26100434 eV

  energy without entropy =       25.25888558  energy(sigma->0) =       25.26029809


--------------------------------------------------------------------------------------------------------




--------------------------------------- Iteration      1(   2)  ---------------------------------------


     EDDAV:  cpu time      0.1301: real time      0.1318
       DOS:  cpu time      0.0006: real time      0.0006
    --------------------------------------------
      LOOP:  cpu time      0.1308: real time      0.1325

 eigenvalue-minimisations  :  1440
 total energy-change (2. order) :-0.3215154E+02  (-0.2961822E+02)
 number of electron       9.0000000 magnetization       3.0000000
 augmentation part        9.0000000 magnetization       3.0000000

 Free energy of the ion-electron system (eV)
  ---------------------------------------------------
  alpha Z        PSCENC =        39.18058524
  Ewald energy   TEWEN  =      -761.78120824
  -Hartree energ DENC   =      -149.59159932
  -exchange      EXHF   =         0.00000000
  -V(xc)+E(xc)   XCENC  =        17.82600536
  PAW double counting   =       719.99081943     -772.94345096
  entropy T*S    EENTRO =         0.00130743
  eigenvalues    EBANDS =        87.06292409
  atomic energy  EATOM  =       813.36407671
  Solvation  Ediel_sol  =         0.00000000
  ---------------------------------------------------
  free energy    TOTEN  =        -6.89054026 eV

  energy without entropy =       -6.89184769  energy(sigma->0) =       -6.89097607


--------------------------------------------------------------------------------------------------------




--------------------------------------- Iteration      1(   3)  ---------------------------------------


     EDDAV:  cpu time      0.1365: real time      0.1373
       DOS:  cpu time      0.0006: real time      0.0006
    --------------------------------------------
      LOOP:  cpu time      0.1371: real time      0.1380

 eigenvalue-minimisations  :  1576
 total energy-change (2. order) :-0.9074864E+00  (-0.9049113E+00)
 number of electron       9.0000000 magnetization       3.0000000
 augmentation part        9.0000000 magnetization       3.0000000

 Free energy of the ion-electron system (eV)
  ---------------------------------------------------
  alpha Z        PSCENC =        39.18058524
  Ewald energy   TEWEN  =      -761.78120824
  -Hartree energ DENC   =      -149.59159932
  -exchange      EXHF   =         0.00000000
  -V(xc)+E(xc)   XCENC  =        17.82600536
  PAW double counting   =       719.99081943     -772.94345096
  entropy T*S    EENTRO =         0.00135855
  eigenvalues    EBANDS =        86.15538658
  atomic energy  EATOM  =       813.36407671
  Solvation  Ediel_sol  =         0.00000000
  ---------------------------------------------------
  free energy    TOTEN  =        -7.79802665 eV

  energy without entropy =       -7.79938520  energy(sigma->0) =       -7.79847950


--------------------------------------------------------------------------------------------------------




--------------------------------------- Iteration      1(   4)  ---------------------------------------


     EDDAV:  cpu time      0.1393: real time      0.1402
       DOS:  cpu time      0.0006: real time      0.0006
    --------------------------------------------
      LOOP:  cpu time      0.1400: real time      0.1408

 eigenvalue-minimisations  :  1600
 total energy-change (2. order) :-0.9364624E-02  (-0.9362284E-02)
 number of electron       9.0000000 magnetization       3.0000000
 augmentation part        9.0000000 magnetization       3.0000000

 Free energy of the ion-electron system (eV)
  ---------------------------------------------------
  alpha Z        PSCENC =        39.18058524
  Ewald energy   TEWEN  =      -761.78120824
  -Hartree energ DENC   =      -149.59159932
  -exchange      EXHF   =         0.00000000
  -V(xc)+E(xc)   XCENC  =        17.82600536
  PAW double counting   =       719.99081943     -772.94345096
  entropy T*S    EENTRO =         0.00136140
  eigenvalues    EBANDS =        86.14601910
  atomic energy  EATOM  =       813.36407671
  Solvation  Ediel_sol  =         0.00000000
  ---------------------------------------------------
  free energy    TOTEN  =        -7.80739127 eV

  energy without entropy =       -7.80875267  energy(sigma->0) =       -7.80784507


--------------------------------------------------------------------------------------------------------




--------------------------------------- Iteration      1(   5)  ---------------------------------------


     EDDAV:  cpu time      0.1474: real time      0.1483
       DOS:  cpu time      0.0006: real time      0.0006
    CHARGE:  cpu time      0.0116: real time      0.0117
    MIXING:  cpu time      0.0002: real time      0.0002
    --------------------------------------------
      LOOP:  cpu time      0.1599: real time      0.1608

 eigenvalue-minimisations  :  1752
 total energy-change (2. order) :-0.2444897E-03  (-0.2444818E-03)
 number of electron       8.9999999 magnetization       1.4262690
 augmentation part        4.5922549 magnetization       1.0193975

 Broyden mixing:
  rms(total) = 0.11381E+01    rms(broyden)= 0.11381E+01
  rms(prec ) = 0.32074E+01
  weight for this iteration     100.00

 Free energy of the ion-electron system (eV)
  ---------------------------------------------------
  alpha Z        PSCENC =        39.18058524
  Ewald energy   TEWEN  =      -761.78120824
  -Hartree energ DENC   =      -149.59159932
  -exchange      EXHF   =         0.00000000
  -V(xc)+E(xc)   XCENC  =        17.82600536
  PAW double counting   =       719.99081943     -772.94345096
  entropy T*S    EENTRO =         0.00136157
  eigenvalues    EBANDS =        86.14577444
  atomic energy  EATOM  =       813.36407671
  Solvation  Ediel_sol  =         0.00000000
  ---------------------------------------------------
  free energy    TOTEN  =        -7.80763576 eV

  energy without entropy =       -7.80899733  energy(sigma->0) =       -7.80808962


--------------------------------------------------------------------------------------------------------




--------------------------------------- Iteration      1(   6)  ---------------------------------------


    POTLOK:  cpu time      0.0036: real time      0.0038
    SETDIJ:  cpu time      0.0048: real time      0.0049
     EDDAV:  cpu time      0.1450: real time      0.1458
       DOS:  cpu time      0.0007: real time      0.0007
    CHARGE:  cpu time      0.0107: real time      0.0108
    MIXING:  cpu time      0.0003: real time      0.0003
    --------------------------------------------
      LOOP:  cpu time      0.1651: real time      0.1661

 eigenvalue-minimisations  :  1728
 total energy-change (2. order) : 0.6159319E+00  (-0.1150065E+01)
 number of electron       8.9999998 magnetization       1.5816987
 augmentation part        5.3276598 magnetization       1.4471405

 Broyden mixing:
  rms(total) = 0.42355E+00    rms(broyden)= 0.42354E+00
  rms(prec ) = 0.87928E+00
  weight for this iteration     100.00

 eigenvalues of (default mixing * dielectric matrix)
  average eigenvalue GAMMA=   0.8913
  0.8913

 Free energy of the ion-electron system (eV)
  ---------------------------------------------------
  alpha Z        PSCENC =        39.18058524
  Ewald energy   TEWEN  =      -761.78120824
  -Hartree energ DENC   =      -131.30591342
  -exchange      EXHF   =         0.00000000
  -V(xc)+E(xc)   XCENC  =        16.30470188
  PAW double counting   =       794.30083560     -842.22820455
  entropy T*S    EENTRO =        -0.00562638
  eigenvalues    EBANDS =        64.97904929
  atomic energy  EATOM  =       813.36407671
  Solvation  Ediel_sol  =         0.00000000
  ---------------------------------------------------
  free energy    TOTEN  =        -7.19170386 eV

  energy without entropy =       -7.18607748  energy(sigma->0) =       -7.18982840


--------------------------------------------------------------------------------------------------------




--------------------------------------- Iteration      1(   7)  ---------------------------------------


    POTLOK:  cpu time      0.0035: real time      0.0037
    SETDIJ:  cpu time      0.0047: real time      0.0047
     EDDAV:  cpu time      0.1426: real time      0.1433
       DOS:  cpu time      0.0006: real time      0.0006
    CHARGE:  cpu time      0.0107: real time      0.0107
    MIXING:  cpu time      0.0002: real time      0.0002
    --------------------------------------------
      LOOP:  cpu time      0.1624: real time      0.1634

 eigenvalue-minimisations  :  1692
 total energy-change (2. order) : 0.1596025E+00  (-0.1316676E+00)
 number of electron       8.9999999 magnetization       1.6657634
 augmentation part        5.0926655 magnetization       1.4938027

 Broyden mixing:
  rms(total) = 0.24126E+00    rms(broyden)= 0.24126E+00
  rms(prec ) = 0.39677E+00
  weight for this iteration     100.00

 eigenvalues of (default mixing * dielectric matrix)
  average eigenvalue GAMMA=   0.7452
  0.9762  0.5142

 Free energy of the ion-electron system (eV)
  ---------------------------------------------------
  alpha Z        PSCENC =        39.18058524
  Ewald energy   TEWEN  =      -761.78120824
  -Hartree energ DENC   =      -134.96352394
  -exchange      EXHF   =         0.00000000
  -V(xc)+E(xc)   XCENC  =        16.55028565
  PAW double counting   =       828.51329000     -879.71269501
  entropy T*S    EENTRO =        -0.00565796
  eigenvalues    EBANDS =        71.82274615
  atomic energy  EATOM  =       813.36407671
  Solvation  Ediel_sol  =         0.00000000
  ---------------------------------------------------
  free energy    TOTEN  =        -7.03210139 eV

  energy without entropy =       -7.02644343  energy(sigma->0) =       -7.03021541


--------------------------------------------------------------------------------------------------------




--------------------------------------- Iteration      1(   8)  ---------------------------------------


    POTLOK:  cpu time      0.0035: real time      0.0037
    SETDIJ:  cpu time      0.0047: real time      0.0047
     EDDAV:  cpu time      0.1505: real time      0.1513
       DOS:  cpu time      0.0006: real time      0.0006
    CHARGE:  cpu time      0.0107: real time      0.0108
    MIXING:  cpu time      0.0002: real time      0.0002
    --------------------------------------------
      LOOP:  cpu time      0.1704: real time      0.1714

 eigenvalue-minimisations  :  1816
 total energy-change (2. order) : 0.1002403E-01  (-0.1499979E-02)
 number of electron       8.9999999 magnetization       1.7000737
 augmentation part        5.1081708 magnetization       1.5219201

 Broyden mixing:
  rms(total) = 0.12554E+00    rms(broyden)= 0.12554E+00
  rms(prec ) = 0.21777E+00
  weight for this iteration     100.00

 eigenvalues of (default mixing * dielectric matrix)
  average eigenvalue GAMMA=   1.0918
  1.9194  0.8004  0.5556

 Free energy of the ion-electron system (eV)
  ---------------------------------------------------
  alpha Z        PSCENC =        39.18058524
  Ewald energy   TEWEN  =      -761.78120824
  -Hartree energ DENC   =      -133.64545553
  -exchange      EXHF   =         0.00000000
  -V(xc)+E(xc)   XCENC  =        16.52748720
  PAW double counting   =       857.33629999     -909.25654380
  entropy T*S    EENTRO =        -0.00458049
  eigenvalues    EBANDS =        71.25726156
  atomic energy  EATOM  =       813.36407671
  Solvation  Ediel_sol  =         0.00000000
  ---------------------------------------------------
  free energy    TOTEN  =        -7.02207736 eV

  energy without entropy =       -7.01749686  energy(sigma->0) =       -7.02055053


--------------------------------------------------------------------------------------------------------




--------------------------------------- Iteration      1(   9)  ---------------------------------------


    POTLOK:  cpu time      0.0035: real time      0.0037
    SETDIJ:  cpu time      0.0047: real time      0.0047
     EDDAV:  cpu time      0.1586: real time      0.1595
       DOS:  cpu time      0.0007: real time      0.0007
    CHARGE:  cpu time      0.0107: real time      0.0107
    MIXING:  cpu time      0.0003: real time      0.0003
    --------------------------------------------
      LOOP:  cpu time      0.1784: real time      0.1795

 eigenvalue-minimisations  :  1940
 total energy-change (2. order) : 0.6250312E-02  (-0.7145640E-03)
 number of electron       8.9999998 magnetization       1.6747692
 augmentation part        5.1229416 magnetization       1.4979227

 Broyden mixing:
  rms(total) = 0.31168E-01    rms(broyden)= 0.31168E-01
  rms(prec ) = 0.50124E-01
  weight for this iteration     100.00

 eigenvalues of (default mixing * dielectric matrix)
  average eigenvalue GAMMA=   1.0963
  2.2858  0.7333  0.7333  0.6330

 Free energy of the ion-electron system (eV)
  ---------------------------------------------------
  alpha Z        PSCENC =        39.18058524
  Ewald energy   TEWEN  =      -761.78120824
  -Hartree energ DENC   =      -132.29403794
  -exchange      EXHF   =         0.00000000
  -V(xc)+E(xc)   XCENC  =        16.49296283
  PAW double counting   =       890.76487207     -943.49836079
  entropy T*S    EENTRO =        -0.00400988
  eigenvalues    EBANDS =        70.75929295
  atomic energy  EATOM  =       813.36407671
  Solvation  Ediel_sol  =         0.00000000
  ---------------------------------------------------
  free energy    TOTEN  =        -7.01582704 eV

  energy without entropy =       -7.01181716  energy(sigma->0) =       -7.01449042


--------------------------------------------------------------------------------------------------------




--------------------------------------- Iteration      1(  10)  ---------------------------------------


    POTLOK:  cpu time      0.0035: real time      0.0037
    SETDIJ:  cpu time      0.0047: real time      0.0047
     EDDAV:  cpu time      0.1795: real time      0.1804
       DOS:  cpu time      0.0007: real time      0.0007
    CHARGE:  cpu time      0.0111: real time      0.0112
    MIXING:  cpu time      0.0003: real time      0.0003
    --------------------------------------------
      LOOP:  cpu time      0.1997: real time      0.2009

 eigenvalue-minimisations  :  2036
 total energy-change (2. order) : 0.3409540E-03  (-0.2541017E-04)
 number of electron       8.9999998 magnetization       1.6630799
 augmentation part        5.1256037 magnetization       1.4884602

 Broyden mixing:
  rms(total) = 0.68800E-02    rms(broyden)= 0.68799E-02
  rms(prec ) = 0.10419E-01
  weight for this iteration     100.00

 eigenvalues of (default mixing * dielectric matrix)
  average eigenvalue GAMMA=   1.2847
  2.5691  1.6469  0.8663  0.7103  0.6308

 Free energy of the ion-electron system (eV)
  ---------------------------------------------------
  alpha Z        PSCENC =        39.18058524
  Ewald energy   TEWEN  =      -761.78120824
  -Hartree energ DENC   =      -131.95339929
  -exchange      EXHF   =         0.00000000
  -V(xc)+E(xc)   XCENC  =        16.46796986
  PAW double counting   =       901.46614214     -954.46357619
  entropy T*S    EENTRO =        -0.00421399
  eigenvalues    EBANDS =        70.70813767
  atomic energy  EATOM  =       813.36407671
  Solvation  Ediel_sol  =         0.00000000
  ---------------------------------------------------
  free energy    TOTEN  =        -7.01548609 eV

  energy without entropy =       -7.01127210  energy(sigma->0) =       -7.01408143


--------------------------------------------------------------------------------------------------------




--------------------------------------- Iteration      1(  11)  ---------------------------------------


    POTLOK:  cpu time      0.0037: real time      0.0039
    SETDIJ:  cpu time      0.0050: real time      0.0050
     EDDAV:  cpu time      0.1581: real time      0.1590
       DOS:  cpu time      0.0007: real time      0.0007
    CHARGE:  cpu time      0.0106: real time      0.0107
    MIXING:  cpu time      0.0003: real time      0.0003
    --------------------------------------------
      LOOP:  cpu time      0.1784: real time      0.1795

 eigenvalue-minimisations  :  1924
 total energy-change (2. order) :-0.5599324E-05  (-0.1591000E-04)
 number of electron       8.9999998 magnetization       1.6620468
 augmentation part        5.1258557 magnetization       1.4868745

 Broyden mixing:
  rms(total) = 0.42971E-02    rms(broyden)= 0.42970E-02
  rms(prec ) = 0.44120E-02
  weight for this iteration     100.00

 eigenvalues of (default mixing * dielectric matrix)
  average eigenvalue GAMMA=   1.1660
  2.4603  1.6912  0.8440  0.6966  0.6966  0.6069

 Free energy of the ion-electron system (eV)
  ---------------------------------------------------
  alpha Z        PSCENC =        39.18058524
  Ewald energy   TEWEN  =      -761.78120824
  -Hartree energ DENC   =      -131.86764740
  -exchange      EXHF   =         0.00000000
  -V(xc)+E(xc)   XCENC  =        16.45397876
  PAW double counting   =       906.12534492     -959.21119817
  entropy T*S    EENTRO =        -0.00441681
  eigenvalues    EBANDS =        70.72499329
  atomic energy  EATOM  =       813.36407671
  Solvation  Ediel_sol  =         0.00000000
  ---------------------------------------------------
  free energy    TOTEN  =        -7.01549169 eV

  energy without entropy =       -7.01107488  energy(sigma->0) =       -7.01401942


--------------------------------------------------------------------------------------------------------




--------------------------------------- Iteration      1(  12)  ---------------------------------------


    POTLOK:  cpu time      0.0035: real time      0.0037
    SETDIJ:  cpu time      0.0048: real time      0.0048
     EDDAV:  cpu time      0.1271: real time      0.2608
       DOS:  cpu time      0.0007: real time      0.0007
    --------------------------------------------
      LOOP:  cpu time      0.1360: real time      0.2699

 eigenvalue-minimisations  :  1428
 total energy-change (2. order) : 0.2461204E-06  (-0.2793378E-06)
 number of electron       8.9999998 magnetization       1.6620468
 augmentation part        5.1258557 magnetization       1.4868745

 Free energy of the ion-electron system (eV)
  ---------------------------------------------------
  alpha Z        PSCENC =        39.18058524
  Ewald energy   TEWEN  =      -761.78120824
  -Hartree energ DENC   =      -131.88142688
  -exchange      EXHF   =         0.00000000
  -V(xc)+E(xc)   XCENC  =        16.45471805
  PAW double counting   =       905.96638168     -959.03794871
  entropy T*S    EENTRO =        -0.00440649
  eigenvalues    EBANDS =        70.72373719
  atomic energy  EATOM  =       813.36407671
  Solvation  Ediel_sol  =         0.00000000
  ---------------------------------------------------
  free energy    TOTEN  =        -7.01549144 eV

  energy without entropy =       -7.01108496  energy(sigma->0) =       -7.01402262


--------------------------------------------------------------------------------------------------------




 average (electrostatic) potential at core
  the test charge radii are     1.0452
  (the norm of the test charge is              1.0000)
       1 -78.2485
 
 
 
 E-fermi :  10.3986     XC(G=0): -13.4257     alpha+bet :-17.7917

 Fermi energy:        10.3985987541

 spin component 1

 k-point     1 :       0.0833    0.0833    0.0833
  band No.  band energies     occupation 
      1       1.6446      1.00000
      2       7.5832      1.00000
      3       7.7232      1.00000
      4       7.7232      1.00000
      5       8.7018      1.00000
      6       8.7018      1.00000
      7      32.7081      0.00000
      8      35.4399      0.00000
      9      37.4017      0.00000
     10      37.4017      0.00000
     11      41.7505      0.00000
     12      41.7506      0.00000

 k-point     2 :       0.2500    0.0833    0.0833
  band No.  band energies     occupation 
      1       3.0172      1.00000
      2       7.2649      1.00000
      3       7.8746      1.00000
      4       7.9652      1.00000
      5       8.5001      1.00000
      6       8.9775      1.00000
      7      28.0173      0.00000
      8      31.4747      0.00000
      9      36.6014      0.00000
     10      39.0254      0.00000
     11      39.5297      0.00000
     12      41.0720      0.00000

 k-point     3 :       0.4167    0.0833    0.0833
  band No.  band energies     occupation 
      1       5.0490      1.00000
      2       7.5834      1.00000
      3       7.7497      1.00000
      4       7.8199      1.00000
      5       9.1443      1.00000
      6       9.9469      1.00318
      7      20.2605      0.00000
      8      30.5840      0.00000
      9      34.3778      0.00000
     10      36.4320      0.00000
     11      38.9332      0.00000
     12      40.4347      0.00000

 k-point     4 :      -0.4167    0.0833    0.0833
  band No.  band energies     occupation 
      1       5.3152      1.00000
      2       7.4073      1.00000
      3       7.6582      1.00000
      4       8.6740      1.00000
      5       9.6224      1.00000
      6      11.1169     -0.00000
      7      16.7968      0.00000
      8      30.9916      0.00000
      9      33.5313      0.00000
     10      33.9197      0.00000
     11      40.0163      0.00000
     12      40.0413      0.00000

 k-point     5 :      -0.2500    0.0833    0.0833
  band No.  band energies     occupation 
      1       4.5398      1.00000
      2       7.3114      1.00000
      3       7.6792      1.00000
      4       7.8814      1.00000
      5       9.1908      1.00000
      6       9.2797      1.00000
      7      22.6665      0.00000
      8      32.2885      0.00000
      9      33.0556      0.00000
     10      36.3142      0.00000
     11      40.0154      0.00000
     12      42.5449      0.00000

 k-point     6 :      -0.0833    0.0833    0.0833
  band No.  band energies     occupation 
      1       2.3544      1.00000
      2       7.3439      1.00000
      3       7.8981      1.00000
      4       7.9078      1.00000
      5       8.4972      1.00000
      6       8.8318      1.00000
      7      30.7318      0.00000
      8      33.7553      0.00000
      9      34.4991      0.00000
     10      37.1846      0.00000
     11      41.3376      0.00000
     12      43.6453      0.00000

 k-point     7 :       0.2500    0.2500    0.0833
  band No.  band energies     occupation 
      1       3.6274      1.00000
      2       6.9131      1.00000
      3       7.9568      1.00000
      4       8.2596      1.00000
      5       8.5751      1.00000
      6       9.0592      1.00000
      7      28.4985      0.00000
      8      31.4902      0.00000
      9      31.9926      0.00000
     10      34.1182      0.00000
     11      39.0752      0.00000
     12      45.1645      0.00000

 k-point     8 :       0.4167    0.2500    0.0833
  band No.  band energies     occupation 
      1       5.3491      1.00000
      2       6.6175      1.00000
      3       7.5332      1.00000
      4       8.5429      1.00000
      5       9.1650      1.00000
      6      10.2851      0.90499
      7      23.6133      0.00000
      8      27.1003      0.00000
      9      29.5729      0.00000
     10      34.8932      0.00000
     11      39.8778      0.00000
     12      44.0915      0.00000

 k-point     9 :      -0.4167    0.2500    0.0833
  band No.  band energies     occupation 
      1       6.0305      1.00000
      2       6.7289      1.00000
      3       7.6118      1.00000
      4       8.2493      1.00000
      5       9.5755      1.00000
      6      13.6793     -0.00000
      7      17.2362      0.00000
      8      26.1438      0.00000
      9      28.0948      0.00000
     10      35.0167      0.00000
     11      41.4453      0.00000
     12      46.3963      0.00000

 k-point    10 :      -0.2500    0.2500    0.0833
  band No.  band energies     occupation 
      1       5.9347      1.00000
      2       6.9552      1.00000
      3       7.1566      1.00000
      4       8.3208      1.00000
      5       9.0537      1.00000
      6      11.4817     -0.00000
      7      21.1874      0.00000
      8      25.0058      0.00000
      9      30.6132      0.00000
     10      36.8627      0.00000
     11      39.8908      0.00000
     12      45.1572      0.00000

 k-point    11 :      -0.0833    0.2500    0.0833
  band No.  band energies     occupation 
      1       4.1870      1.00000
      2       6.9917      1.00000
      3       7.7172      1.00000
      4       8.1725      1.00000
      5       8.6481      1.00000
      6       9.4355      1.00000
      7      25.6210      0.00000
      8      29.1417      0.00000
      9      34.1803      0.00000
     10      36.5654      0.00000
     11      40.9346      0.00000
     12      41.7912      0.00000

 k-point    12 :       0.4167    0.4167    0.0833
  band No.  band energies     occupation 
      1       5.2899      1.00000
      2       6.0349      1.00000
      3       8.8735      1.00000
      4       9.1578      1.00000
      5       9.6018      1.00000
      6      10.8335     -0.00437
      7      24.0640      0.00000
      8      24.9796      0.00000
      9      26.8546      0.00000
     10      31.4736      0.00000
     11      35.7962      0.00000
     12      47.0075      0.00000

 k-point    13 :      -0.4167    0.4167    0.0833
  band No.  band energies     occupation 
      1       5.5631      1.00000
      2       6.0814      1.00000
      3       8.4194      1.00000
      4       9.1221      1.00000
      5       9.7792      1.00005
      6      14.5048     -0.00000
      7      20.6769      0.00000
      8      21.5491      0.00000
      9      24.9201      0.00000
     10      33.6085      0.00000
     11      38.7840      0.00000
     12      46.9311      0.00000

 k-point    14 :      -0.2500    0.4167    0.0833
  band No.  band energies     occupation 
      1       6.2981      1.00000
      2       6.5106      1.00000
      3       7.4096      1.00000
      4       8.5593      1.00000
      5       9.4933      1.00000
      6      15.4178     -0.00000
      7      17.7034      0.00000
      8      22.3116      0.00000
      9      27.3213      0.00000
     10      34.9260      0.00000
     11      43.3331      0.00000
     12      46.2465      0.00000

 k-point    15 :      -0.0833    0.4167    0.0833
  band No.  band energies     occupation 
      1       5.5562      1.00000
      2       7.2162      1.00000
      3       7.7917      1.00000
      4       7.9517      1.00000
      5       9.4597      1.00000
      6      11.3593     -0.00000
      7      18.4218      0.00000
      8      28.8229      0.00000
      9      31.1783      0.00000
     10      35.2707      0.00000
     11      39.9669      0.00000
     12      43.4359      0.00000

 k-point    16 :      -0.4167   -0.4167    0.0833
  band No.  band energies     occupation 
      1       5.2096      1.00000
      2       5.8117      1.00000
      3       9.4034      1.00000
      4       9.4148      1.00000
      5       9.8042      1.00011
      6      13.0123     -0.00000
      7      20.6810      0.00000
      8      23.8959      0.00000
      9      25.7595      0.00000
     10      31.2057      0.00000
     11      35.4286      0.00000
     12      47.0702      0.00000

 k-point    17 :      -0.2500   -0.4167    0.0833
  band No.  band energies     occupation 
      1       5.6788      1.00000
      2       6.2713      1.00000
      3       7.9302      1.00000
      4       8.9504      1.00000
      5       9.5563      1.00000
      6      12.0947     -0.00000
      7      22.0573      0.00000
      8      24.6212      0.00000
      9      25.9232      0.00000
     10      34.0012      0.00000
     11      39.1026      0.00000
     12      46.0068      0.00000

 k-point    18 :      -0.2500   -0.2500    0.0833
  band No.  band energies     occupation 
      1       4.9078      1.00000
      2       6.4339      1.00000
      3       8.0656      1.00000
      4       8.7200      1.00000
      5       9.3105      1.00000
      6       9.3321      1.00000
      7      26.4045      0.00000
      8      28.6474      0.00000
      9      28.8515      0.00000
     10      32.1482      0.00000
     11      36.8285      0.00000
     12      46.9006      0.00000

 k-point    19 :       0.2500    0.2500    0.2500
  band No.  band energies     occupation 
      1       3.5880      1.00000
      2       7.3422      1.00000
      3       7.8408      1.00000
      4       7.8408      1.00000
      5       8.8753      1.00000
      6       8.8753      1.00000
      7      25.1134      0.00000
      8      33.7054      0.00000
      9      36.0676      0.00000
     10      36.0676      0.00000
     11      41.3222      0.00000
     12      41.3222      0.00000

 k-point    20 :       0.4167    0.2500    0.2500
  band No.  band energies     occupation 
      1       5.0999      1.00000
      2       7.0605      1.00000
      3       7.5143      1.00000
      4       8.0938      1.00000
      5       8.6781      1.00000
      6      10.2141      1.01510
      7      23.1786      0.00000
      8      26.8389      0.00000
      9      35.1274      0.00000
     10      36.0745      0.00000
     11      40.3280      0.00000
     12      41.8363      0.00000

 k-point    21 :      -0.4167    0.2500    0.2500
  band No.  band energies     occupation 
      1       6.2666      1.00000
      2       6.8044      1.00000
      3       7.3124      1.00000
      4       8.2985      1.00000
      5       9.1843      1.00000
      6      13.1211     -0.00000
      7      19.1877      0.00000
      8      23.3670      0.00000
      9      31.4831      0.00000
     10      33.0869      0.00000
     11      44.2271      0.00000
     12      44.6247      0.00000

 k-point    22 :      -0.2500    0.2500    0.2500
  band No.  band energies     occupation 
      1       5.8526      1.00000
      2       6.4913      1.00000
      3       7.7618      1.00000
      4       8.4880      1.00000
      5       9.6801      1.00000
      6      12.7828     -0.00000
      7      19.1901      0.00000
      8      25.2176      0.00000
      9      28.7872      0.00000
     10      32.3772      0.00000
     11      42.8230      0.00000
     12      46.3235      0.00000

 k-point    23 :       0.4167    0.4167    0.2500
  band No.  band energies     occupation 
      1       5.4404      1.00000
      2       6.9540      1.00000
      3       7.5575      1.00000
      4       8.1164      1.00000
      5       9.5760      1.00000
      6      10.5010      0.12339
      7      20.6860      0.00000
      8      29.4797      0.00000
      9      30.5665      0.00000
     10      33.2398      0.00000
     11      43.3159      0.00000
     12      44.0299      0.00000

 k-point    24 :      -0.4167    0.4167    0.2500
  band No.  band energies     occupation 
      1       6.2311      1.00000
      2       6.6341      1.00000
      3       7.1789      1.00000
      4       8.6329      1.00000
      5       9.4807      1.00000
      6      13.6471     -0.00000
      7      19.6788      0.00000
      8      23.6762      0.00000
      9      25.9351      0.00000
     10      37.7138      0.00000
     11      40.1541      0.00000
     12      44.6843      0.00000

 k-point    25 :      -0.2500    0.4167    0.2500
  band No.  band energies     occupation 
      1       6.0258      1.00000
      2       6.5966      1.00000
      3       7.4044      1.00000
      4       8.7288      1.00000
      5       9.7703      1.00004
      6      16.4494      0.00000
      7      18.7568      0.00000
      8      21.6644      0.00000
      9      23.3271      0.00000
     10      37.6482      0.00000
     11      42.0959      0.00000
     12      43.8733      0.00000

 k-point    26 :      -0.4167   -0.4167    0.2500
  band No.  band energies     occupation 
      1       5.8503      1.00000
      2       6.2770      1.00000
      3       8.0270      1.00000
      4       8.8416      1.00000
      5       9.6080      1.00000
      6      15.5604     -0.00000
      7      18.1974      0.00000
      8      21.5091      0.00000
      9      27.8570      0.00000
     10      32.1481      0.00000
     11      42.4975      0.00000
     12      46.9471      0.00000

 k-point    27 :       0.4167    0.4167    0.4167
  band No.  band energies     occupation 
      1       5.0886      1.00000
      2       7.5872      1.00000
      3       7.5872      1.00000
      4       9.1486      1.00000
      5       9.5006      1.00000
      6       9.5006      1.00000
      7      18.0696      0.00000
      8      32.2683      0.00000
      9      35.4377      0.00000
     10      35.4377      0.00000
     11      38.4179      0.00000
     12      38.4179      0.00000

 k-point    28 :      -0.4167    0.4167    0.4167
  band No.  band energies     occupation 
      1       5.7418      1.00000
      2       7.0734      1.00000
      3       7.9382      1.00000
      4       7.9502      1.00000
      5       9.4794      1.00000
      6      12.6713     -0.00000
      7      16.9995      0.00000
      8      27.3019      0.00000
      9      32.1693      0.00000
     10      33.1014      0.00000
     11      42.2578      0.00000
     12      42.5643      0.00000
 Fermi energy:        10.3985987541

 spin component 2

 k-point     1 :       0.0833    0.0833    0.0833
  band No.  band energies     occupation 
      1       1.6619      1.00000
      2       9.1825      1.00000
      3       9.3528      1.00000
      4       9.3528      1.00000
      5      10.6754     -0.03233
      6      10.6754     -0.03233
      7      32.5847      0.00000
      8      35.4801      0.00000
      9      37.6263      0.00000
     10      37.6263      0.00000
     11      41.9217      0.00000
     12      41.9845      0.00000

 k-point     2 :       0.2500    0.0833    0.0833
  band No.  band energies     occupation 
      1       3.0583      1.00000
      2       8.7574      1.00000
      3       9.5412      1.00000
      4       9.6413      1.00000
      5      10.4115      0.44547
      6      10.9140     -0.00082
      7      28.3454      0.00000
      8      31.6372      0.00000
      9      36.6014      0.00000
     10      39.2254      0.00000
     11      39.5123      0.00000
     12      41.3680      0.00000

 k-point     3 :       0.4167    0.0833    0.0833
  band No.  band energies     occupation 
      1       5.5652      1.00000
      2       8.7482      1.00000
      3       9.2771      1.00000
      4       9.4893      1.00000
      5      11.0256     -0.00004
      6      11.7088     -0.00000
      7      20.9131      0.00000
      8      30.6921      0.00000
      9      34.4278      0.00000
     10      36.7780      0.00000
     11      39.2290      0.00000
     12      40.5985      0.00000

 k-point     4 :      -0.4167    0.0833    0.0833
  band No.  band energies     occupation 
      1       6.2552      1.00000
      2       9.0218      1.00000
      3       9.3845      1.00000
      4       9.5725      1.00000
      5      11.5651     -0.00000
      6      12.2324     -0.00000
      7      17.7767      0.00000
      8      30.9101      0.00000
      9      33.8660      0.00000
     10      34.1681      0.00000
     11      40.2424      0.00000
     12      40.2836      0.00000

 k-point     5 :      -0.2500    0.0833    0.0833
  band No.  band energies     occupation 
      1       4.7799      1.00000
      2       8.5361      1.00000
      3       9.3900      1.00000
      4       9.6014      1.00000
      5      10.9645     -0.00023
      6      11.2198     -0.00000
      7      23.1955      0.00000
      8      32.1679      0.00000
      9      33.4159      0.00000
     10      36.6532      0.00000
     11      40.1716      0.00000
     12      42.7202      0.00000

 k-point     6 :      -0.0833    0.0833    0.0833
  band No.  band energies     occupation 
      1       2.3789      1.00000
      2       8.8922      1.00000
      3       9.5463      1.00000
      4       9.5563      1.00000
      5      10.4152      0.43019
      6      10.8137     -0.00622
      7      30.9180      0.00000
      8      33.6990      0.00000
      9      34.8314      0.00000
     10      37.2431      0.00000
     11      41.5989      0.00000
     12      44.1842      0.00000

 k-point     7 :       0.2500    0.2500    0.0833
  band No.  band energies     occupation 
      1       3.7007      1.00000
      2       8.3833      1.00000
      3       9.6860      1.00000
      4       9.9510      1.00344
      5      10.3058      0.84962
      6      11.0522     -0.00002
      7      28.8202      0.00000
      8      31.8374      0.00000
      9      32.0214      0.00000
     10      34.2791      0.00000
     11      39.7270      0.00000
     12      45.1799      0.00000

 k-point     8 :       0.4167    0.2500    0.0833
  band No.  band energies     occupation 
      1       5.7635      1.00000
      2       7.9702      1.00000
      3       9.0927      1.00000
      4      10.3202      0.80527
      5      10.9801     -0.00016
      6      11.9385     -0.00000
      7      24.0724      0.00000
      8      27.4226      0.00000
      9      29.8896      0.00000
     10      35.0857      0.00000
     11      40.2411      0.00000
     12      44.3552      0.00000

 k-point     9 :      -0.4167    0.2500    0.0833
  band No.  band energies     occupation 
      1       7.1121      1.00000
      2       8.0233      1.00000
      3       8.9115      1.00000
      4      10.0487      1.01646
      5      11.4809     -0.00000
      6      14.5621     -0.00000
      7      18.0490      0.00000
      8      26.5012      0.00000
      9      28.4583      0.00000
     10      35.1520      0.00000
     11      41.6251      0.00000
     12      47.1674      0.00000

 k-point    10 :      -0.2500    0.2500    0.0833
  band No.  band energies     occupation 
      1       6.5332      1.00000
      2       8.2297      1.00000
      3       8.7108      1.00000
      4      10.1316      1.03385
      5      10.8603     -0.00261
      6      12.9245     -0.00000
      7      21.7564      0.00000
      8      25.4039      0.00000
      9      30.8983      0.00000
     10      36.9919      0.00000
     11      40.0087      0.00000
     12      45.5889      0.00000

 k-point    11 :      -0.0833    0.2500    0.0833
  band No.  band energies     occupation 
      1       4.3016      1.00000
      2       8.4106      1.00000
      3       9.4110      1.00000
      4       9.9030      1.00128
      5      10.4537      0.27632
      6      11.3226     -0.00000
      7      26.0372      0.00000
      8      29.4118      0.00000
      9      34.2958      0.00000
     10      36.7233      0.00000
     11      41.1711      0.00000
     12      42.0962      0.00000

 k-point    12 :       0.4167    0.4167    0.0833
  band No.  band energies     occupation 
      1       6.2217      1.00000
      2       7.3656      1.00000
      3      10.1448      1.03518
      4      11.0483     -0.00002
      5      11.5636     -0.00000
      6      11.9828     -0.00000
      7      24.5517      0.00000
      8      25.3434      0.00000
      9      27.1020      0.00000
     10      31.8061      0.00000
     11      36.2403      0.00000
     12      50.6824      0.00000

 k-point    13 :      -0.4167    0.4167    0.0833
  band No.  band energies     occupation 
      1       6.7849      1.00000
      2       7.3658      1.00000
      3       9.7571      1.00003
      4      11.0912     -0.00001
      5      11.6535     -0.00000
      6      15.1468     -0.00000
      7      21.2989      0.00000
      8      22.0763      0.00000
      9      25.2317      0.00000
     10      33.8650      0.00000
     11      39.1732      0.00000
     12      48.2911      0.00000

 k-point    14 :      -0.2500    0.4167    0.0833
  band No.  band energies     occupation 
      1       7.6025      1.00000
      2       7.6687      1.00000
      3       8.7056      1.00000
      4      10.4404      0.32716
      5      11.3401     -0.00000
      6      16.1936      0.00000
      7      18.3778      0.00000
      8      22.8605      0.00000
      9      27.6791      0.00000
     10      35.0978      0.00000
     11      43.4251      0.00000
     12      47.3656      0.00000

 k-point    15 :      -0.0833    0.4167    0.0833
  band No.  band energies     occupation 
      1       6.3954      1.00000
      2       8.5721      1.00000
      3       9.0763      1.00000
      4       9.6666      1.00000
      5      11.3567     -0.00000
      6      12.6632     -0.00000
      7      19.1807      0.00000
      8      29.0313      0.00000
      9      31.4688      0.00000
     10      35.4150      0.00000
     11      40.2072      0.00000
     12      43.5697      0.00000

 k-point    16 :      -0.4167   -0.4167    0.0833
  band No.  band energies     occupation 
      1       6.3838      1.00000
      2       7.1102      1.00000
      3      10.9299     -0.00056
      4      11.4298     -0.00000
      5      11.6960     -0.00000
      6      13.4765     -0.00000
      7      21.4847      0.00000
      8      24.1714      0.00000
      9      25.9543      0.00000
     10      31.5816      0.00000
     11      35.8664      0.00000
     12      50.8155      0.00000

 k-point    17 :      -0.2500   -0.4167    0.0833
  band No.  band energies     occupation 
      1       6.6667      1.00000
      2       7.5813      1.00000
      3       9.2431      1.00000
      4      10.8142     -0.00616
      5      11.4426     -0.00000
      6      13.2245     -0.00000
      7      22.5107      0.00000
      8      25.0817      0.00000
      9      26.2820      0.00000
     10      34.2303      0.00000
     11      39.4756      0.00000
     12      46.4716      0.00000

 k-point    18 :      -0.2500   -0.2500    0.0833
  band No.  band energies     occupation 
      1       5.2641      1.00000
      2       7.8249      1.00000
      3       9.5470      1.00000
      4      10.4881      0.16020
      5      10.9306     -0.00055
      6      11.3269     -0.00000
      7      26.7568      0.00000
      8      28.9311      0.00000
      9      29.1620      0.00000
     10      32.4101      0.00000
     11      37.3332      0.00000
     12      48.7659      0.00000

 k-point    19 :       0.2500    0.2500    0.2500
  band No.  band energies     occupation 
      1       3.6758      1.00000
      2       8.7116      1.00000
      3       9.5411      1.00000
      4       9.5411      1.00000
      5      10.7885     -0.00938
      6      10.7885     -0.00938
      7      25.5482      0.00000
      8      33.4615      0.00000
      9      36.4253      0.00000
     10      36.4253      0.00000
     11      41.5074      0.00000
     12      41.5074      0.00000

 k-point    20 :       0.4167    0.2500    0.2500
  band No.  band energies     occupation 
      1       5.3591      1.00000
      2       8.3879      1.00000
      3       9.1479      1.00000
      4       9.8981      1.00115
      5      10.4753      0.20026
      6      11.9705     -0.00000
      7      23.6853      0.00000
      8      27.1810      0.00000
      9      35.1212      0.00000
     10      36.4193      0.00000
     11      40.2978      0.00000
     12      42.1177      0.00000

 k-point    21 :      -0.4167    0.2500    0.2500
  band No.  band energies     occupation 
      1       7.1840      1.00000
      2       8.1820      1.00000
      3       8.6093      1.00000
      4      10.1486      1.03536
      5      11.0076     -0.00007
      6      14.2274     -0.00000
      7      19.8392      0.00000
      8      23.8423      0.00000
      9      31.8405      0.00000
     10      33.1927      0.00000
     11      44.2151      0.00000
     12      44.7990      0.00000

 k-point    22 :      -0.2500    0.2500    0.2500
  band No.  band energies     occupation 
      1       6.9149      1.00000
      2       7.7354      1.00000
      3       9.0792      1.00000
      4      10.3160      0.81853
      5      11.6196     -0.00000
      6      13.8138     -0.00000
      7      19.7897      0.00000
      8      25.6506      0.00000
      9      29.0919      0.00000
     10      32.6166      0.00000
     11      43.1636      0.00000
     12      46.5635      0.00000

 k-point    23 :       0.4167    0.4167    0.2500
  band No.  band energies     occupation 
      1       6.0414      1.00000
      2       8.1808      1.00000
      3       9.0885      1.00000
      4       9.8762      1.00069
      5      11.5328     -0.00000
      6      11.9444     -0.00000
      7      21.2760      0.00000
      8      29.6500      0.00000
      9      30.9004      0.00000
     10      33.5071      0.00000
     11      43.4259      0.00000
     12      44.3785      0.00000

 k-point    24 :      -0.4167    0.4167    0.2500
  band No.  band energies     occupation 
      1       7.2995      1.00000
      2       7.9326      1.00000
      3       8.5059      1.00000
      4      10.4935      0.14420
      5      11.3233     -0.00000
      6      14.6422     -0.00000
      7      20.2606      0.00000
      8      24.1150      0.00000
      9      26.3551      0.00000
     10      37.8357      0.00000
     11      40.2884      0.00000
     12      45.3641      0.00000

 k-point    25 :      -0.2500    0.4167    0.2500
  band No.  band energies     occupation 
      1       7.3093      1.00000
      2       7.8620      1.00000
      3       8.6915      1.00000
      4      10.6306     -0.03475
      5      11.6369     -0.00000
      6      17.1018      0.00000
      7      19.3218      0.00000
      8      22.2670      0.00000
      9      23.7698      0.00000
     10      37.8000      0.00000
     11      42.2473      0.00000
     12      44.2247      0.00000

 k-point    26 :      -0.4167   -0.4167    0.2500
  band No.  band energies     occupation 
      1       7.1381      1.00000
      2       7.4894      1.00000
      3       9.3221      1.00000
      4      10.7659     -0.01306
      5      11.4810     -0.00000
      6      16.2459      0.00000
      7      18.7764      0.00000
      8      22.1565      0.00000
      9      28.1437      0.00000
     10      32.4159      0.00000
     11      42.8844      0.00000
     12      48.3879      0.00000

 k-point    27 :       0.4167    0.4167    0.4167
  band No.  band energies     occupation 
      1       5.8700      1.00000
      2       9.3038      1.00000
      3       9.3038      1.00000
      4       9.4618      1.00000
      5      11.4324     -0.00000
      6      11.4324     -0.00000
      7      18.9049      0.00000
      8      31.9730      0.00000
      9      35.7770      0.00000
     10      35.7770      0.00000
     11      38.6991      0.00000
     12      38.6991      0.00000

 k-point    28 :      -0.4167    0.4167    0.4167
  band No.  band energies     occupation 
      1       6.7407      1.00000
      2       8.4809      1.00000
      3       9.1306      1.00000
      4       9.7078      1.00001
      5      11.3850     -0.00000
      6      13.6489     -0.00000
      7      17.9034      0.00000
      8      27.6004      0.00000
      9      32.5151      0.00000
     10      33.1811      0.00000
     11      42.4980      0.00000
     12      42.6737      0.00000


--------------------------------------------------------------------------------------------------------


 soft charge-density along one line, spin component           1
         0         1         2         3         4         5         6         7         8         9
 total charge-density along one line
 
 soft charge-density along one line, spin component           2
         0         1         2         3         4         5         6         7         8         9
 total charge-density along one line
 
 pseudopotential strength for first ion, spin component:           1
 -0.582  -0.000  -0.000  -0.000  -0.000  -1.217  -0.000  -0.000
 -0.000  -0.582   0.000  -0.000  -0.000  -0.000  -1.217   0.000
 -0.000   0.000  -0.653   0.000  -0.000  -0.000   0.000  -1.285
 -0.000  -0.000   0.000  -0.582   0.000  -0.000  -0.000   0.000
 -0.000  -0.000  -0.000   0.000  -0.653  -0.000  -0.000  -0.000
 -1.217  -0.000  -0.000  -0.000  -0.000  -1.793  -0.000  -0.000
 -0.000  -1.217   0.000  -0.000  -0.000  -0.000  -1.793   0.000
 -0.000   0.000  -1.285   0.000  -0.000  -0.000   0.000  -1.859
 -0.000  -0.000   0.000  -1.217   0.000  -0.000  -0.000   0.000
 -0.000  -0.000  -0.000   0.000  -1.285  -0.000  -0.000  -0.000
 -0.000  -0.000  -0.000  -0.000  -0.000  -0.000  -0.000  -0.000
 -0.000  -0.000  -0.000  -0.000  -0.000  -0.000  -0.000  -0.000
  0.000   0.000  -0.000   0.000  -0.000   0.000   0.000  -0.000
  0.000   0.000   0.000   0.000   0.000   0.000   0.000   0.000
  0.000   0.000  -0.000   0.000   0.000   0.000   0.000  -0.000
  0.000   0.000  -0.000   0.000  -0.000   0.000   0.000  -0.000
  0.000   0.000   0.000   0.000   0.000   0.000   0.000   0.000
  0.000   0.000  -0.000   0.000   0.000   0.000  -0.000  -0.000
 pseudopotential strength for first ion, spin component:           2
  0.734   0.000  -0.000   0.000   0.000   0.043   0.000  -0.000
  0.000   0.734   0.000   0.000  -0.000   0.000   0.043   0.000
 -0.000   0.000   0.802   0.000  -0.000  -0.000   0.000   0.109
  0.000   0.000   0.000   0.734   0.000   0.000   0.000   0.000
  0.000  -0.000  -0.000   0.000   0.802   0.000  -0.000  -0.000
  0.043   0.000  -0.000   0.000   0.000  -0.587   0.000  -0.000
  0.000   0.043   0.000   0.000  -0.000   0.000  -0.587   0.000
 -0.000   0.000   0.109   0.000  -0.000  -0.000   0.000  -0.522
  0.000   0.000   0.000   0.043   0.000   0.000   0.000   0.000
  0.000  -0.000  -0.000   0.000   0.109   0.000  -0.000  -0.000
 -0.000  -0.000   0.000  -0.000  -0.000  -0.000  -0.000   0.000
 -0.000  -0.000   0.000  -0.000  -0.000  -0.000  -0.000   0.000
  0.000   0.000  -0.000   0.000  -0.000   0.000   0.000  -0.000
  0.000   0.000   0.000   0.000   0.000   0.000   0.000   0.000
  0.000   0.000  -0.000   0.000  -0.000   0.000   0.000  -0.000
  0.000   0.000  -0.000   0.000  -0.000   0.000   0.000  -0.000
  0.000   0.000   0.000   0.000   0.000   0.000   0.000   0.000
  0.000   0.000  -0.000   0.000   0.000   0.000  -0.000  -0.000
 total augmentation occupancy for first ion, spin component:           1
  2.844   0.000   0.000   0.000   0.000  -1.554  -0.000   0.000   0.000   0.000   0.000   0.000   0.000   0.000   0.000   0.000
  0.000   2.844   0.000   0.000   0.000  -0.000  -1.554  -0.000   0.000   0.000  -0.000  -0.000   0.000   0.000   0.000   0.000
  0.000  -0.000   3.191   0.000  -0.000   0.000  -0.000  -1.741   0.000   0.000   0.000   0.000   0.000   0.000   0.000   0.000
  0.000   0.000   0.000   2.844   0.000  -0.000   0.000   0.000  -1.554  -0.000   0.000   0.000   0.000   0.000   0.000   0.000
 -0.000   0.000   0.000  -0.000   3.191   0.000  -0.000   0.000   0.000  -1.741   0.000   0.000   0.000   0.000   0.000   0.000
 -1.554  -0.000   0.000  -0.000  -0.000   1.843   0.000   0.000   0.000  -0.000   0.000  -0.000   0.000   0.000   0.000   0.000
  0.000  -1.554  -0.000   0.000  -0.000  -0.000   1.843   0.000   0.000   0.000  -0.000   0.000   0.000   0.000   0.000   0.000
  0.000  -0.000  -1.741  -0.000   0.000   0.000  -0.000   1.797   0.000   0.000   0.000   0.000   0.000   0.000   0.000   0.000
  0.000   0.000   0.000  -1.554   0.000   0.000   0.000  -0.000   1.843  -0.000   0.000   0.000   0.000   0.000   0.000   0.000
 -0.000   0.000   0.000  -0.000  -1.741   0.000  -0.000   0.000  -0.000   1.797   0.000  -0.000   0.000   0.000   0.000   0.000
  0.000   0.000   0.000   0.000   0.000   0.000   0.000   0.000   0.000  -0.000   2.307  -0.269   0.000   0.000   0.000   0.000
  0.000  -0.000   0.000   0.000   0.000   0.000  -0.000   0.000  -0.000   0.000  -0.269   0.040   0.000   0.000   0.000   0.000
  0.000   0.000   0.000   0.000   0.000   0.000   0.000   0.000   0.000   0.000   0.000   0.000   0.317   0.000   0.000  -0.031
  0.000   0.000   0.000   0.000   0.000   0.000   0.000   0.000   0.000   0.000   0.000   0.000   0.000   0.317  -0.000   0.000
  0.000   0.000   0.000   0.000   0.000   0.000   0.000   0.000   0.000   0.000   0.000   0.000   0.000  -0.000   0.317   0.000
  0.000   0.000   0.000   0.000   0.000   0.000   0.000   0.000   0.000   0.000   0.000   0.000  -0.031   0.000   0.000   0.003
  0.000   0.000   0.000   0.000   0.000   0.000   0.000   0.000   0.000   0.000   0.000   0.000   0.000  -0.031  -0.000  -0.000
  0.000   0.000   0.000   0.000   0.000   0.000   0.000   0.000   0.000   0.000   0.000   0.000  -0.000  -0.000  -0.031  -0.000
 total augmentation occupancy for first ion, spin component:           2
  2.056  -0.000   0.000  -0.000  -0.000  -1.001   0.000  -0.000   0.000   0.000  -0.000   0.000   0.000   0.000   0.000   0.000
  0.000   2.056  -0.000   0.000   0.000   0.000  -1.001  -0.000  -0.000  -0.000   0.000  -0.000   0.000   0.000   0.000   0.000
  0.000   0.000   2.216  -0.000  -0.000   0.000  -0.000  -1.032  -0.000   0.000  -0.000   0.000   0.000   0.000   0.000   0.000
 -0.000   0.000  -0.000   2.056   0.000   0.000   0.000  -0.000  -1.001   0.000   0.000  -0.000   0.000   0.000   0.000   0.000
  0.000  -0.000   0.000  -0.000   2.216  -0.000   0.000   0.000   0.000  -1.032   0.000   0.000   0.000   0.000   0.000   0.000
 -1.001   0.000  -0.000   0.000   0.000   0.284   0.000  -0.000   0.000   0.000   0.000  -0.000   0.000   0.000   0.000   0.000
 -0.000  -1.001  -0.000   0.000   0.000  -0.000   0.284  -0.000   0.000  -0.000   0.000   0.000   0.000   0.000   0.000   0.000
  0.000   0.000  -1.032  -0.000   0.000   0.000   0.000   0.302  -0.000   0.000   0.000  -0.000   0.000   0.000   0.000   0.000
  0.000  -0.000   0.000  -1.001   0.000   0.000   0.000  -0.000   0.284  -0.000  -0.000  -0.000   0.000   0.000   0.000   0.000
  0.000   0.000  -0.000   0.000  -1.032  -0.000   0.000   0.000  -0.000   0.302   0.000   0.000   0.000   0.000   0.000   0.000
 -0.000   0.000  -0.000   0.000   0.000   0.000   0.000   0.000  -0.000   0.000  -0.300   0.092   0.000   0.000   0.000   0.000
  0.000   0.000  -0.000   0.000   0.000  -0.000  -0.000  -0.000   0.000   0.000   0.092  -0.016   0.000   0.000   0.000   0.000
  0.000   0.000   0.000   0.000   0.000   0.000   0.000   0.000   0.000   0.000   0.000   0.000  -0.035  -0.000   0.000   0.005
  0.000   0.000   0.000   0.000   0.000   0.000   0.000   0.000   0.000   0.000   0.000   0.000  -0.000  -0.035  -0.000   0.000
  0.000   0.000   0.000   0.000   0.000   0.000   0.000   0.000   0.000   0.000   0.000   0.000   0.000  -0.000  -0.035   0.000
  0.000   0.000   0.000   0.000   0.000   0.000   0.000   0.000   0.000   0.000   0.000   0.000   0.005   0.000   0.000  -0.001
  0.000   0.000   0.000   0.000   0.000   0.000   0.000   0.000   0.000   0.000   0.000   0.000   0.000   0.005  -0.000   0.000
  0.000   0.000   0.000   0.000   0.000   0.000   0.000   0.000   0.000   0.000   0.000   0.000   0.000  -0.000   0.005   0.000


------------------------ aborting loop because EDIFF is reached ----------------------------------------


    CHARGE:  cpu time      0.0106: real time      0.0106
    FORLOC:  cpu time      0.0001: real time      0.0001
    FORNL :  cpu time      0.0051: real time      0.0052
    STRESS:  cpu time      0.0180: real time      0.0180
    FORCOR:  cpu time      0.0033: real time      0.0033
    FORHAR:  cpu time      0.0004: real time      0.0004
    MIXING:  cpu time      0.0002: real time      0.0002
    OFIELD:  cpu time      0.0000: real time      0.0000

  FORCE on cell =-STRESS in cart. coord.  units (eV):
  Direction    XX          YY          ZZ          XY          YZ          ZX
  --------------------------------------------------------------------------------------
  Alpha Z    39.18059    39.18059    39.18059
  Ewald    -253.92708  -253.92708  -253.92708     0.00000     0.00000     0.00000
  Hartree    43.96024    43.96024    43.96024     0.00000     0.00000     0.00000
  E(xc)     -46.29252   -46.29252   -46.29252     0.00000     0.00000     0.00000
  Local      -9.71365    -9.71365    -9.71365     0.00002     0.00002     0.00002
  n-local    -4.57298    -3.13120    -6.06859     2.05421    -1.74531    -0.17010
  augment   155.47255   155.47255   155.47255    -0.00002    -0.00002    -0.00002
  Kinetic    75.21665    74.56832    78.23973    -0.73161     1.04063     0.19171
  Fock        0.00000     0.00000     0.00000     0.00000     0.00000     0.00000
  -------------------------------------------------------------------------------------
  Total       0.09745     0.09745     0.09745     0.00000     0.00000     0.00000
  in kB      14.44256    14.44256    14.44256     0.00000     0.00000     0.00000
  external pressure =       14.44 kB  Pullay stress =        0.00 kB


 VOLUME and BASIS-vectors are now :
 -----------------------------------------------------------------------------
  energy-cutoff  :      475.00
  volume of cell :       10.81
      direct lattice vectors                 reciprocal lattice vectors
     0.000000000  1.755000000  1.755000000    -0.284900285  0.284900285  0.284900285
     1.755000000  0.000000000  1.755000000     0.284900285 -0.284900285  0.284900285
     1.755000000  1.755000000  0.000000000     0.284900285  0.284900285 -0.284900285

  length of vectors
     2.481944802  2.481944802  2.481944802     0.493461769  0.493461769  0.493461769


 FORCES acting on ions
    electron-ion (+dipol)            ewald-force                    non-local-force                 convergence-correction
 -----------------------------------------------------------------------------------------------
   -.384E-14 -.660E-14 -.501E-15   0.813E-15 0.404E-15 -.279E-14   -.463E-22 0.199E-22 -.265E-22   -.701E-14 0.246E-14 0.901E-14
 -----------------------------------------------------------------------------------------------
   -.384E-14 -.660E-14 -.501E-15   0.813E-15 0.404E-15 -.279E-14   -.463E-22 0.199E-22 -.265E-22   -.701E-14 0.246E-14 0.901E-14
 
 
 POSITION                                       TOTAL-FORCE (eV/Angst)
 -----------------------------------------------------------------------------------
      0.00000      0.00000      0.00000         0.000000     -0.000000     -0.000000
 -----------------------------------------------------------------------------------
    total drift:                               -0.000000     -0.000000      0.000000


--------------------------------------------------------------------------------------------------------



  FREE ENERGIE OF THE ION-ELECTRON SYSTEM (eV)
  ---------------------------------------------------
  free  energy   TOTEN  =        -7.01549144 eV

  energy  without entropy=       -7.01108496  energy(sigma->0) =       -7.01402262
 


--------------------------------------------------------------------------------------------------------


    POTLOK:  cpu time      0.0086: real time      0.0087


--------------------------------------------------------------------------------------------------------


     LOOP+:  cpu time      1.9570: real time      2.1435
    4ORBIT:  cpu time      0.0000: real time      0.0000

 total amount of memory used by VASP MPI-rank0    30821. kBytes
=======================================================================

   base      :      30000. kBytes
   nonl-proj :        210. kBytes
   fftplans  :        113. kBytes
   grid      :        274. kBytes
   one-center:         31. kBytes
   wavefun   :        193. kBytes
 
  
  
 General timing and accounting informations for this job:
 ========================================================
  
                  Total CPU time used (sec):        2.672
                            User time (sec):        2.200
                          System time (sec):        0.472
                         Elapsed time (sec):        4.593
  
                   Maximum memory used (kb):      219420.
                   Average memory used (kb):          N/A
  
                          Minor page faults:        17419
                          Major page faults:           83
                 Voluntary context switches:         2160
