Co-fcc                                  
   1.00000000000000     
     0.000000    1.841981    1.841981
     1.841981    0.000000    1.841981
     1.841981    1.841981    0.000000
   Co
     1
Direct
  0.000000  0.000000  0.000000
 
   36   36   36
  118.88      116.58      109.96      99.785      87.144      73.227      59.148      45.832      33.976      24.053    
  16.312      10.781      7.2542      5.3177      4.4064      3.9221      3.5929      3.4040      3.3430      3.4040    
  3.5929      3.9221      4.4064      5.3177      7.2542      10.781      16.312      24.053      33.976      45.832    
  59.148      73.227      87.144      99.785      109.96      116.58      116.58      112.12      103.73      92.349    
  79.117      65.188      51.580      39.096      28.316      19.598      13.080      8.6722      6.0599      4.7443    
  4.1252      3.7261      3.4713      3.3491      3.3491      3.4713      3.7261      4.1252      4.7443      6.0599    
  8.6722      13.080      19.598      28.316      39.096      51.580      65.188      79.117      92.349      103.73    
  112.12      116.58      109.96      103.73      94.153      82.235      69.093      55.782      43.185      31.977    
  22.615      15.344      10.183      6.9251      5.1581      4.3274      3.8637      3.5472      3.3664      3.3080    
  3.3664      3.5472      3.8637      4.3274      5.1581      6.9251      10.183      15.344      22.615      31.977    
  43.185      55.782      69.093      82.235      94.153      103.73      109.96      112.12      99.785      92.349    
  82.235      70.445      58.003      45.827      34.660      25.047      17.325      11.617      7.8228      5.6257    
  4.5398      3.9969      3.6264      3.3921      3.2802      3.2802      3.3921      3.6264      3.9969      4.5398    
  5.6257      7.8228      11.617      17.325      25.047      34.660      45.827      58.003      70.445      82.235    
  92.349      99.785      103.73      103.73      87.144      79.117      69.093      58.003      46.740      36.080    
  26.625      18.794      12.799      8.6390      6.0943      4.7608      4.1172      3.7027      3.4222      3.2636    
  3.2126      3.2636      3.4222      3.7027      4.1172      4.7608      6.0943      8.6390      12.799      18.794    
  26.625      36.080      46.740      58.003      69.093      79.117      87.144      92.349      94.153      92.349    
  73.227      65.188      55.782      45.827      36.080      27.172      19.576      13.578      9.2600      6.4965    
  4.9685      4.2192      3.7704      3.4526      3.2549      3.1614      3.1614      3.2549      3.4526      3.7704    
  4.2192      4.9685      6.4965      9.2600      13.578      19.576      27.172      36.080      45.827      55.782    
  65.188      73.227      79.117      82.235      82.235      79.117      59.148      51.580      43.185      34.660    
  26.625      19.576      13.849      9.5955      6.7685      5.1319      4.3006      3.8246      3.4796      3.2513    
  3.1240      3.0834      3.1240      3.2513      3.4796      3.8246      4.3006      5.1319      6.7685      9.5955    
  13.849      19.576      26.625      34.660      43.185      51.580      59.148      65.188      69.093      70.445    
  69.093      65.188      45.832      39.096      31.977      25.047      18.794      13.578      9.5955      6.8646    
  5.2220      4.3545      3.8623      3.5004      3.2503      3.0975      3.0260      3.0260      3.0975      3.2503    
  3.5004      3.8623      4.3545      5.2220      6.8645      9.5955      13.578      18.794      25.047      31.977    
  39.096      45.832      51.580      55.782      58.003      58.003      55.782      51.580      33.976      28.316    
  22.615      17.325      12.799      9.2600      6.7685      5.2220      4.3735      3.8815      3.5134      3.2503    
  3.0799      2.9860      2.9563      2.9860      3.0799      3.2503      3.5134      3.8815      4.3735      5.2220    
  6.7684      9.2600      12.799      17.325      22.615      28.316      33.976      39.096      43.185      45.827    
  46.740      45.827      43.185      39.096      24.053      19.598      15.344      11.617      8.6390      6.4965    
  5.1319      4.3545      3.8815      3.5178      3.2504      3.0697      2.9609      2.9104      2.9104      2.9609    
  3.0697      3.2504      3.5178      3.8815      4.3545      5.1319      6.4965      8.6390      11.617      15.344    
  19.598      24.053      28.316      31.977      34.660      36.080      36.080      34.660      31.977      28.316    
  16.312      13.080      10.183      7.8228      6.0943      4.9685      4.3006      3.8623      3.5134      3.2504    
  3.0664      2.9487      2.8844      2.8640      2.8844      2.9487      3.0664      3.2504      3.5134      3.8623    
  4.3006      4.9685      6.0943      7.8228      10.183      13.080      16.312      19.598      22.615      25.047    
  26.625      27.172      26.625      25.047      22.615      19.598      10.781      8.6722      6.9251      5.6257    
  4.7608      4.2192      3.8246      3.5004      3.2503      3.0697      2.9487      2.8760      2.8422      2.8422    
  2.8760      2.9487      3.0697      3.2503      3.5004      3.8246      4.2192      4.7608      5.6257      6.9251    
  8.6722      10.781      13.080      15.344      17.325      18.794      19.576      19.576      18.794      17.325    
  15.344      13.080      7.2542      6.0599      5.1581      4.5398      4.1172      3.7704      3.4796      3.2503    
  3.0799      2.9609      2.8844      2.8422      2.8288      2.8422      2.8844      2.9609      3.0799      3.2503    
  3.4796      3.7704      4.1172      4.5398      5.1581      6.0599      7.2542      8.6722      10.183      11.617    
  12.799      13.578      13.849      13.578      12.799      11.617      10.183      8.6722      5.3177      4.7443    
  4.3274      3.9969      3.7027      3.4526      3.2513      3.0975      2.9860      2.9104      2.8640      2.8422    
  2.8422      2.8640      2.9104      2.9860      3.0975      3.2513      3.4526      3.7027      3.9969      4.3274    
  4.7443      5.3177      6.0599      6.9251      7.8228      8.6390      9.2600      9.5955      9.5955      9.2600    
  8.6390      7.8228      6.9251      6.0599      4.4064      4.1252      3.8637      3.6264      3.4222      3.2549    
  3.1240      3.0260      2.9563      2.9104      2.8844      2.8760      2.8844      2.9104      2.9563      3.0260    
  3.1240      3.2549      3.4222      3.6264      3.8637      4.1252      4.4064      4.7443      5.1581      5.6257    
  6.0943      6.4965      6.7684      6.8645      6.7685      6.4965      6.0943      5.6257      5.1581      4.7443    
  3.9221      3.7261      3.5472      3.3921      3.2636      3.1614      3.0834      3.0260      2.9860      2.9609    
  2.9487      2.9487      2.9609      2.9860      3.0260      3.0834      3.1614      3.2635      3.3921      3.5472    
  3.7261      3.9221      4.1252      4.3274      4.5398      4.7608      4.9685      5.1319      5.2220      5.2220    
  5.1319      4.9685      4.7608      4.5398      4.3274      4.1252      3.5929      3.4713      3.3664      3.2802    
  3.2126      3.1614      3.1240      3.0975      3.0799      3.0697      3.0664      3.0697      3.0799      3.0975    
  3.1240      3.1614      3.2126      3.2802      3.3664      3.4713      3.5929      3.7261      3.8637      3.9969    
  4.1172      4.2192      4.3006      4.3545      4.3735      4.3545      4.3006      4.2192      4.1172      3.9969    
  3.8637      3.7261      3.4040      3.3491      3.3080      3.2802      3.2636      3.2549      3.2513      3.2503    
  3.2503      3.2504      3.2504      3.2503      3.2503      3.2513      3.2549      3.2635      3.2802      3.3080    
  3.3491      3.4040      3.4713      3.5472      3.6264      3.7027      3.7704      3.8246      3.8623      3.8815    
  3.8815      3.8623      3.8246      3.7704      3.7027      3.6264      3.5472      3.4713      3.3430      3.3491    
  3.3664      3.3921      3.4222      3.4526      3.4796      3.5004      3.5134      3.5178      3.5134      3.5004    
  3.4796      3.4526      3.4222      3.3921      3.3664      3.3491      3.3430      3.3491      3.3664      3.3921    
  3.4222      3.4526      3.4796      3.5004      3.5134      3.5178      3.5134      3.5004      3.4796      3.4526    
  3.4222      3.3921      3.3664      3.3491      3.4040      3.4713      3.5472      3.6264      3.7027      3.7704    
  3.8246      3.8623      3.8815      3.8815      3.8623      3.8246      3.7704      3.7027      3.6264      3.5472    
  3.4713      3.4040      3.3491      3.3080      3.2802      3.2635      3.2549      3.2513      3.2503      3.2503    
  3.2504      3.2504      3.2503      3.2503      3.2513      3.2549      3.2636      3.2802      3.3080      3.3491    
  3.5929      3.7261      3.8637      3.9969      4.1172      4.2192      4.3006      4.3545      4.3735      4.3545    
  4.3006      4.2192      4.1172      3.9969      3.8637      3.7261      3.5929      3.4713      3.3664      3.2802    
  3.2126      3.1614      3.1240      3.0975      3.0799      3.0697      3.0664      3.0697      3.0799      3.0975    
  3.1240      3.1614      3.2126      3.2802      3.3664      3.4713      3.9221      4.1252      4.3274      4.5398    
  4.7608      4.9685      5.1319      5.2220      5.2220      5.1319      4.9685      4.7608      4.5398      4.3274    
  4.1252      3.9221      3.7261      3.5472      3.3921      3.2635      3.1614      3.0834      3.0260      2.9860    
  2.9609      2.9487      2.9487      2.9609      2.9860      3.0260      3.0834      3.1614      3.2636      3.3921    
  3.5472      3.7261      4.4064      4.7443      5.1581      5.6257      6.0943      6.4965      6.7685      6.8645    
  6.7684      6.4965      6.0943      5.6257      5.1581      4.7443      4.4064      4.1252      3.8637      3.6264    
  3.4222      3.2549      3.1240      3.0260      2.9563      2.9104      2.8844      2.8760      2.8844      2.9104    
  2.9563      3.0260      3.1240      3.2549      3.4222      3.6264      3.8637      4.1252      5.3177      6.0599    
  6.9251      7.8228      8.6390      9.2600      9.5955      9.5955      9.2600      8.6390      7.8228      6.9251    
  6.0599      5.3177      4.7443      4.3274      3.9969      3.7027      3.4526      3.2513      3.0975      2.9860    
  2.9104      2.8640      2.8422      2.8422      2.8640      2.9104      2.9860      3.0975      3.2513      3.4526    
  3.7027      3.9969      4.3274      4.7443      7.2542      8.6722      10.183      11.617      12.799      13.578    
  13.849      13.578      12.799      11.617      10.183      8.6722      7.2542      6.0599      5.1581      4.5398    
  4.1172      3.7704      3.4796      3.2503      3.0799      2.9609      2.8844      2.8422      2.8288      2.8422    
  2.8844      2.9609      3.0799      3.2503      3.4796      3.7704      4.1172      4.5398      5.1581      6.0599    
  10.781      13.080      15.344      17.325      18.794      19.576      19.576      18.794      17.325      15.344    
  13.080      10.781      8.6722      6.9251      5.6257      4.7608      4.2192      3.8246      3.5004      3.2503    
  3.0697      2.9487      2.8760      2.8422      2.8422      2.8760      2.9487      3.0697      3.2503      3.5004    
  3.8246      4.2192      4.7608      5.6257      6.9251      8.6722      16.312      19.598      22.615      25.047    
  26.625      27.172      26.625      25.047      22.615      19.598      16.312      13.080      10.183      7.8228    
  6.0943      4.9685      4.3006      3.8623      3.5134      3.2504      3.0664      2.9487      2.8844      2.8640    
  2.8844      2.9487      3.0664      3.2504      3.5134      3.8623      4.3006      4.9685      6.0943      7.8228    
  10.183      13.080      24.053      28.316      31.977      34.660      36.080      36.080      34.660      31.977    
  28.316      24.053      19.598      15.344      11.617      8.6390      6.4965      5.1319      4.3545      3.8815    
  3.5178      3.2504      3.0697      2.9609      2.9104      2.9104      2.9609      3.0697      3.2504      3.5178    
  3.8815      4.3545      5.1319      6.4965      8.6390      11.617      15.344      19.598      33.976      39.096    
  43.185      45.827      46.740      45.827      43.185      39.096      33.976      28.316      22.615      17.325    
  12.799      9.2600      6.7684      5.2220      4.3735      3.8815      3.5134      3.2503      3.0799      2.9860    
  2.9563      2.9860      3.0799      3.2503      3.5134      3.8815      4.3735      5.2220      6.7685      9.2600    
  12.799      17.325      22.615      28.316      45.832      51.580      55.782      58.003      58.003      55.782    
  51.580      45.832      39.096      31.977      25.047      18.794      13.578      9.5955      6.8645      5.2220    
  4.3545      3.8623      3.5004      3.2503      3.0975      3.0260      3.0260      3.0975      3.2503      3.5004    
  3.8623      4.3545      5.2220      6.8646      9.5955      13.578      18.794      25.047      31.977      39.096    
  59.148      65.188      69.093      70.445      69.093      65.188      59.148      51.580      43.185      34.660    
  26.625      19.576      13.849      9.5955      6.7685      5.1319      4.3006      3.8246      3.4796      3.2513    
  3.1240      3.0834      3.1240      3.2513      3.4796      3.8246      4.3006      5.1319      6.7685      9.5955    
  13.849      19.576      26.625      34.660      43.185      51.580      73.227      79.117      82.235      82.235    
  79.117      73.227      65.188      55.782      45.827      36.080      27.172      19.576      13.578      9.2600    
  6.4965      4.9685      4.2192      3.7704      3.4526      3.2549      3.1614      3.1614      3.2549      3.4526    
  3.7704      4.2192      4.9685      6.4965      9.2600      13.578      19.576      27.172      36.080      45.827    
  55.782      65.188      87.144      92.349      94.153      92.349      87.144      79.117      69.093      58.003    
  46.740      36.080      26.625      18.794      12.799      8.6390      6.0943      4.7608      4.1172      3.7027    
  3.4222      3.2636      3.2126      3.2636      3.4222      3.7027      4.1172      4.7608      6.0943      8.6390    
  12.799      18.794      26.625      36.080      46.740      58.003      69.093      79.117      99.785      103.73    
  103.73      99.785      92.349      82.235      70.445      58.003      45.827      34.660      25.047      17.325    
  11.617      7.8228      5.6257      4.5398      3.9969      3.6264      3.3921      3.2802      3.2802      3.3921    
  3.6264      3.9969      4.5398      5.6257      7.8228      11.617      17.325      25.047      34.660      45.827    
  58.003      70.445      82.235      92.349      109.96      112.12      109.96      103.73      94.153      82.235    
  69.093      55.782      43.185      31.977      22.615      15.344      10.183      6.9251      5.1581      4.3274    
  3.8637      3.5472      3.3664      3.3080      3.3664      3.5472      3.8637      4.3274      5.1581      6.9251    
  10.183      15.344      22.615      31.977      43.185      55.782      69.093      82.235      94.153      103.73    
  116.58      116.58      112.12      103.73      92.349      79.117      65.188      51.580      39.096      28.316    
  19.598      13.080      8.6722      6.0599      4.7443      4.1252      3.7261      3.4713      3.3491      3.3491    
  3.4713      3.7261      4.1252      4.7443      6.0599      8.6722      13.080      19.598      28.316      39.096    
  51.580      65.188      79.117      92.349      103.73      112.12      116.58      112.12      103.73      92.349    
  79.117      65.188      51.580      39.096      28.316      19.598      13.080      8.6722      6.0599      4.7443    
  4.1252      3.7261      3.4713      3.3491      3.3491      3.4713      3.7261      4.1252      4.7443      6.0599    
  8.6722      13.080      19.598      28.316      39.096      51.580      65.188      79.117      92.349      103.73    
  112.12      116.58      112.12      105.78      96.021      83.883      70.500      56.943      44.108      32.679    
  23.122      15.685      10.394      7.0426      5.2174      4.3593      3.8882      3.5670      3.3832      3.3239    
  3.3832      3.5670      3.8882      4.3593      5.2174      7.0426      10.394      15.685      23.122      32.679    
  44.108      56.943      70.500      83.883      96.021      105.78      112.12      114.32      103.73      96.021    
  85.536      73.313      60.412      47.780      36.179      26.171      18.107      12.120      8.1157      5.7785    
  4.6169      4.0495      3.6684      3.4267      3.3111      3.3111      3.4267      3.6684      4.0495      4.6169    
  5.7785      8.1157      12.120      18.107      26.171      36.179      47.780      60.412      73.313      85.536    
  96.021      103.73      107.82      107.82      92.349      83.883      73.313      61.614      49.722      38.447    
  28.418      20.076      13.651      9.1546      6.3740      4.9010      4.2003      3.7687      3.4753      3.3088    
  3.2553      3.3088      3.4753      3.7687      4.2003      4.9010      6.3740      9.1546      13.651      20.076    
  28.418      38.447      49.722      61.614      73.313      83.883      92.349      97.838      99.741      97.838    
  79.117      70.500      60.412      49.722      39.232      29.610      21.361      14.797      10.023      6.9260    
  5.1872      4.3375      3.8608      3.5243      3.3139      3.2141      3.2141      3.3139      3.5243      3.8608    
  4.3375      5.1872      6.9260      10.023      14.797      21.361      29.611      39.232      49.722      60.412    
  70.500      79.117      85.428      88.769      88.769      85.428      65.188      56.943      47.780      38.447    
  29.610      21.808      15.410      10.600      7.3519      5.4361      4.4588      3.9385      3.5690      3.3229    
  3.1851      3.1410      3.1851      3.3229      3.5690      3.9385      4.4588      5.4361      7.3519      10.600    
  15.410      21.808      29.611      38.447      47.780      56.943      65.188      71.764      76.013      77.483    
  76.013      71.764      51.580      44.108      36.179      28.418      21.361      15.410      10.802      7.5839    
  5.6061      4.5521      3.9970      3.6055      3.3327      3.1652      3.0866      3.0866      3.1652      3.3327    
  3.6055      3.9970      4.5521      5.6061      7.5839      10.802      15.410      21.361      28.418      36.179    
  44.108      51.580      57.942      62.586      65.038      65.038      62.586      57.942      39.096      32.679    
  26.171      20.076      14.797      10.600      7.5839      5.6665      4.6033      4.0332      3.6311      3.3410    
  3.1521      3.0477      3.0146      3.0477      3.1521      3.3410      3.6311      4.0332      4.6033      5.6665    
  7.5839      10.600      14.797      20.076      26.171      32.679      39.096      44.873      49.473      52.439    
  53.464      52.439      49.473      44.873      28.316      23.122      18.107      13.651      10.023      7.3519    
  5.6061      4.6033      4.0455      3.6443      3.3465      3.1441      3.0218      2.9649      2.9649      3.0218    
  3.1441      3.3465      3.6443      4.0455      4.6033      5.6061      7.3519      10.023      13.651      18.107    
  23.122      28.316      33.246      37.456      40.531      42.153      42.153      40.531      37.456      33.246    
  19.598      15.685      12.120      9.1546      6.9260      5.4361      4.5521      4.0332      3.6443      3.3483    
  3.1403      3.0070      2.9340      2.9110      2.9340      3.0070      3.1403      3.3483      3.6443      4.0332    
  4.5521      5.4361      6.9260      9.1546      12.120      15.685      19.598      23.525      27.098      29.959    
  31.809      32.449      31.809      29.959      27.098      23.525      13.080      10.394      8.1157      6.3740    
  5.1872      4.4588      3.9970      3.6311      3.3465      3.1403      3.0021      2.9192      2.8808      2.8808    
  2.9192      3.0021      3.1403      3.3465      3.6311      3.9970      4.4588      5.1872      6.3740      8.1156    
  10.394      13.080      15.955      18.746      21.163      22.943      23.887      23.887      22.943      21.163    
  18.746      15.955      8.6722      7.0426      5.7785      4.9010      4.3375      3.9385      3.6055      3.3410    
  3.1441      3.0070      2.9192      2.8711      2.8558      2.8711      2.9192      3.0070      3.1441      3.3410    
  3.6055      3.9385      4.3375      4.9010      5.7785      7.0426      8.6722      10.559      12.528      14.368    
  15.868      16.849      17.189      16.849      15.868      14.368      12.528      10.559      6.0599      5.2174    
  4.6169      4.2003      3.8608      3.5690      3.3327      3.1521      3.0218      2.9340      2.8808      2.8558    
  2.8558      2.8808      2.9340      3.0218      3.1521      3.3327      3.5690      3.8608      4.2003      4.6169    
  5.2174      6.0599      7.1300      8.3469      9.5824      10.687      11.518      11.964      11.964      11.518    
  10.687      9.5824      8.3469      7.1300      4.7443      4.3593      4.0495      3.7687      3.5243      3.3229    
  3.1652      3.0477      2.9649      2.9110      2.8808      2.8711      2.8808      2.9110      2.9649      3.0477    
  3.1652      3.3229      3.5243      3.7687      4.0495      4.3593      4.7443      5.2549      5.8882      6.5932    
  7.2861      7.8716      8.2629      8.4005      8.2629      7.8716      7.2861      6.5932      5.8882      5.2549    
  4.1252      3.8882      3.6684      3.4753      3.3139      3.1851      3.0866      3.0146      2.9649      2.9340    
  2.9192      2.9192      2.9340      2.9649      3.0146      3.0866      3.1851      3.3139      3.4753      3.6684    
  3.8882      4.1252      4.3732      4.6585      4.9912      5.3476      5.6824      5.9437      6.0869      6.0869    
  5.9437      5.6824      5.3476      4.9912      4.6585      4.3732      3.7261      3.5670      3.4267      3.3088    
  3.2141      3.1410      3.0866      3.0477      3.0218      3.0070      3.0021      3.0070      3.0218      3.0477    
  3.0866      3.1410      3.2141      3.3088      3.4267      3.5670      3.7261      3.8969      4.0699      4.2356    
  4.3972      4.5533      4.6877      4.7797      4.8125      4.7797      4.6877      4.5533      4.3972      4.2356    
  4.0699      3.8969      3.4713      3.3832      3.3111      3.2553      3.2141      3.1851      3.1652      3.1521    
  3.1441      3.1403      3.1403      3.1441      3.1521      3.1652      3.1851      3.2141      3.2553      3.3111    
  3.3832      3.4713      3.5725      3.6818      3.7920      3.8959      3.9863      4.0578      4.1078      4.1339    
  4.1339      4.1078      4.0578      3.9862      3.8958      3.7920      3.6818      3.5725      3.3491      3.3239    
  3.3111      3.3088      3.3139      3.3229      3.3327      3.3410      3.3465      3.3483      3.3465      3.3410    
  3.3327      3.3229      3.3139      3.3088      3.3111      3.3239      3.3491      3.3867      3.4348      3.4894    
  3.5457      3.5986      3.6436      3.6776      3.6985      3.7056      3.6985      3.6776      3.6436      3.5986    
  3.5457      3.4894      3.4348      3.3867      3.3491      3.3832      3.4267      3.4753      3.5243      3.5690    
  3.6055      3.6311      3.6443      3.6443      3.6311      3.6055      3.5690      3.5243      3.4753      3.4267    
  3.3832      3.3491      3.3267      3.3165      3.3170      3.3255      3.3384      3.3522      3.3643      3.3730    
  3.3775      3.3775      3.3730      3.3643      3.3522      3.3384      3.3255      3.3170      3.3165      3.3267    
  3.4713      3.5670      3.6684      3.7687      3.8608      3.9385      3.9970      4.0332      4.0455      4.0332    
  3.9970      3.9385      3.8608      3.7687      3.6684      3.5670      3.4713      3.3867      3.3165      3.2615    
  3.2208      3.1919      3.1720      3.1587      3.1500      3.1451      3.1435      3.1451      3.1500      3.1587    
  3.1720      3.1919      3.2208      3.2615      3.3165      3.3867      3.7261      3.8882      4.0495      4.2003    
  4.3375      4.4588      4.5521      4.6033      4.6033      4.5521      4.4588      4.3375      4.2003      4.0495    
  3.8882      3.7261      3.5725      3.4348      3.3170      3.2208      3.1449      3.0871      3.0445      3.0146    
  2.9955      2.9862      2.9862      2.9955      3.0146      3.0445      3.0871      3.1449      3.2208      3.3170    
  3.4348      3.5725      4.1252      4.3593      4.6169      4.9010      5.1872      5.4361      5.6061      5.6665    
  5.6061      5.4361      5.1872      4.9010      4.6169      4.3593      4.1252      3.8969      3.6818      3.4894    
  3.3255      3.1919      3.0871      3.0082      2.9514      2.9134      2.8916      2.8845      2.8916      2.9134    
  2.9514      3.0082      3.0871      3.1919      3.3255      3.4894      3.6818      3.8969      4.7443      5.2174    
  5.7785      6.3740      6.9260      7.3519      7.5839      7.5839      7.3519      6.9260      6.3740      5.7785    
  5.2174      4.7443      4.3732      4.0699      3.7920      3.5457      3.3384      3.1720      3.0445      2.9514    
  2.8874      2.8478      2.8288      2.8288      2.8478      2.8874      2.9514      3.0445      3.1720      3.3384    
  3.5457      3.7920      4.0699      4.3732      6.0599      7.0426      8.1157      9.1546      10.023      10.600    
  10.802      10.600      10.023      9.1546      8.1156      7.0426      6.0599      5.2549      4.6585      4.2356    
  3.8959      3.5986      3.3522      3.1587      3.0146      2.9134      2.8478      2.8112      2.7995      2.8112    
  2.8478      2.9134      3.0146      3.1586      3.3522      3.5986      3.8958      4.2356      4.6585      5.2549    
  8.6722      10.394      12.120      13.651      14.797      15.410      15.410      14.797      13.651      12.120    
  10.394      8.6722      7.1300      5.8882      4.9912      4.3972      3.9863      3.6436      3.3643      3.1500    
  2.9955      2.8916      2.8288      2.7995      2.7995      2.8288      2.8916      2.9955      3.1500      3.3643    
  3.6436      3.9862      4.3972      4.9912      5.8882      7.1300      13.080      15.685      18.107      20.076    
  21.361      21.808      21.361      20.076      18.107      15.685      13.080      10.559      8.3469      6.5932    
  5.3476      4.5533      4.0578      3.6776      3.3730      3.1451      2.9862      2.8845      2.8288      2.8112    
  2.8288      2.8845      2.9862      3.1451      3.3730      3.6776      4.0578      4.5533      5.3476      6.5932    
  8.3469      10.559      19.598      23.122      26.171      28.418      29.611      29.611      28.418      26.171    
  23.122      19.598      15.955      12.528      9.5824      7.2861      5.6824      4.6877      4.1078      3.6985    
  3.3775      3.1435      2.9862      2.8916      2.8478      2.8478      2.8916      2.9862      3.1435      3.3775    
  3.6985      4.1078      4.6877      5.6824      7.2861      9.5824      12.528      15.955      28.316      32.679    
  36.179      38.447      39.232      38.447      36.179      32.679      28.316      23.525      18.746      14.368    
  10.687      7.8716      5.9437      4.7797      4.1339      3.7056      3.3775      3.1451      2.9955      2.9134    
  2.8874      2.9134      2.9955      3.1451      3.3775      3.7056      4.1339      4.7797      5.9437      7.8716    
  10.687      14.368      18.746      23.525      39.096      44.108      47.780      49.722      49.722      47.780    
  44.108      39.096      33.246      27.098      21.163      15.868      11.518      8.2629      6.0869      4.8125    
  4.1339      3.6985      3.3730      3.1500      3.0146      2.9514      2.9514      3.0146      3.1500      3.3730    
  3.6985      4.1339      4.8125      6.0869      8.2629      11.518      15.868      21.163      27.098      33.246    
  51.580      56.943      60.412      61.614      60.412      56.943      51.580      44.873      37.456      29.959    
  22.943      16.849      11.964      8.4005      6.0869      4.7797      4.1078      3.6776      3.3643      3.1587    
  3.0445      3.0082      3.0445      3.1586      3.3643      3.6776      4.1078      4.7797      6.0869      8.4005    
  11.964      16.849      22.943      29.959      37.456      44.873      65.188      70.500      73.313      73.313    
  70.500      65.188      57.942      49.473      40.531      31.809      23.887      17.189      11.964      8.2629    
  5.9437      4.6877      4.0578      3.6436      3.3522      3.1720      3.0871      3.0871      3.1720      3.3522    
  3.6436      4.0578      4.6877      5.9437      8.2629      11.964      17.189      23.887      31.809      40.531    
  49.473      57.942      79.117      83.883      85.536      83.883      79.117      71.764      62.586      52.439    
  42.153      32.449      23.887      16.849      11.518      7.8716      5.6824      4.5533      3.9862      3.5986    
  3.3384      3.1919      3.1449      3.1919      3.3384      3.5986      3.9862      4.5533      5.6824      7.8716    
  11.518      16.849      23.887      32.449      42.153      52.439      62.586      71.764      92.349      96.021    