Co-fcc                                  
   1.00000000000000     
     0.000000    1.783031    1.783031
     1.783031    0.000000    1.783031
     1.783031    1.783031    0.000000
   Co
     1
Direct
  0.000000  0.000000  0.000000
 
   32   32   32
 0.10760229570E+03 0.10514120957E+03 0.98107618309E+02 0.87454090889E+02 0.74491237356E+02
 0.60600412547E+02 0.47008752626E+02 0.34674441566E+02 0.24260986349E+02 0.16144446555E+02
 0.10413136631E+02 0.68625146785E+01 0.50192746263E+01 0.42242856672E+01 0.38141903075E+01
 0.35709898703E+01 0.34910591740E+01 0.35709898703E+01 0.38141903075E+01 0.42242856672E+01
 0.50192746263E+01 0.68625146785E+01 0.10413136631E+02 0.16144446555E+02 0.24260986349E+02
 0.34674441566E+02 0.47008752626E+02 0.60600412547E+02 0.74491237356E+02 0.87454090889E+02
 0.98107618309E+02 0.10514120957E+03 0.10514120957E+03 0.10039556586E+03 0.91564160827E+02
 0.79790317152E+02 0.66427260740E+02 0.52778081905E+02 0.39927815386E+02 0.28678788015E+02
 0.19545834984E+02 0.12759726250E+02 0.82604565110E+01 0.57024874536E+01 0.45074161122E+01
 0.39802964226E+01 0.36576330157E+01 0.34987758774E+01 0.34987756068E+01 0.36576321482E+01
 0.39802949129E+01 0.45074141770E+01 0.57024857092E+01 0.82604557863E+01 0.12759727090E+02
 0.19545837096E+02 0.28678790038E+02 0.39927815237E+02 0.52778077674E+02 0.66427251737E+02
 0.79790304576E+02 0.91564147649E+02 0.10039555584E+03 0.10514120583E+03 0.98107618309E+02
 0.91564160827E+02 0.81639746265E+02 0.69543096986E+02 0.56557909326E+02 0.43837350908E+02
 0.32294328155E+02 0.22568843672E+02 0.15024393235E+02 0.97406841737E+01 0.65083825260E+01
 0.48574730793E+01 0.41439997083E+01 0.37521503890E+01 0.35203883188E+01 0.34444612635E+01
 0.35203874542E+01 0.37521485048E+01 0.41439968774E+01 0.48574700168E+01 0.65083805893E+01
 0.97406847407E+01 0.15024396701E+02 0.22568848663E+02 0.32294331568E+02 0.43837349014E+02
 0.56557899551E+02 0.69543079539E+02 0.81639724693E+02 0.91564141062E+02 0.98107606489E+02
 0.10039555584E+03 0.87454090889E+02 0.79790317152E+02 0.69543096986E+02 0.57874689736E+02
 0.45925052692E+02 0.34666543157E+02 0.24836126692E+02 0.16912763421E+02 0.11104103622E+02
 0.73343370761E+01 0.52549764842E+01 0.43060997961E+01 0.38461045207E+01 0.35517097340E+01
 0.34081500676E+01 0.34081497058E+01 0.35517084750E+01 0.38461021282E+01 0.43060965818E+01
 0.52549736875E+01 0.73343365424E+01 0.11104106762E+02 0.16912769984E+02 0.24836134154E+02
 0.34666547313E+02 0.45925049409E+02 0.57874677114E+02 0.69543076822E+02 0.79790294811E+02
 0.87454073448E+02 0.91564141062E+02 0.91564147649E+02 0.74491237356E+02 0.66427260740E+02
 0.56557909326E+02 0.45925052692E+02 0.35493174972E+02 0.26051329795E+02 0.18165129107E+02
 0.12150215380E+02 0.80522907406E+01 0.56449547297E+01 0.44696394173E+01 0.39309203467E+01
 0.35870311867E+01 0.33871965681E+01 0.33223024242E+01 0.33871962386E+01 0.35870300625E+01
 0.39309180864E+01 0.44696365134E+01 0.56449527191E+01 0.80522915839E+01 0.12150220235E+02
 0.18165137202E+02 0.26051338182E+02 0.35493179531E+02 0.45925050039E+02 0.56557898709E+02
 0.66427244869E+02 0.74491221607E+02 0.79790294811E+02 0.81639724693E+02 0.79790304576E+02
 0.60600412547E+02 0.52778081905E+02 0.43837350908E+02 0.34666543157E+02 0.26051329795E+02
 0.18603651889E+02 0.12717968922E+02 0.85408625840E+01 0.59579808323E+01 0.46167808842E+01
 0.39995193951E+01 0.36205352513E+01 0.33774066630E+01 0.32607859306E+01 0.32607860779E+01
 0.33774067328E+01 0.36205344562E+01 0.39995172870E+01 0.46167779933E+01 0.59579786829E+01
 0.85408629664E+01 0.12717972783E+02 0.18603658508E+02 0.26051336813E+02 0.34666547569E+02
 0.43837350563E+02 0.52778076721E+02 0.60600404740E+02 0.66427244869E+02 0.69543076822E+02
 0.69543079539E+02 0.66427251737E+02 0.47008752626E+02 0.39927815386E+02 0.32294328155E+02
 0.24836126692E+02 0.18165129107E+02 0.12717968922E+02 0.87140493031E+01 0.61324063988E+01
 0.47204599070E+01 0.40479334897E+01 0.36474697130E+01 0.33743469266E+01 0.32195580897E+01
 0.31698971586E+01 0.32195585602E+01 0.33743472103E+01 0.36474689380E+01 0.40479311847E+01
 0.47204564117E+01 0.61324028049E+01 0.87140469396E+01 0.12717968667E+02 0.18165130915E+02
 0.24836129618E+02 0.32294330853E+02 0.39927816815E+02 0.47008752558E+02 0.52778076721E+02
 0.56557898709E+02 0.57874677114E+02 0.56557899551E+02 0.52778077674E+02 0.34674441566E+02
 0.28678788015E+02 0.22568843672E+02 0.16912763421E+02 0.12150215380E+02 0.85408625840E+01
 0.61324063988E+01 0.47579337128E+01 0.40735915895E+01 0.36646960638E+01 0.33743367951E+01
 0.31940871049E+01 0.31092539390E+01 0.31092541235E+01 0.31940874995E+01 0.33743369630E+01
 0.36646954123E+01 0.40735895534E+01 0.47579299682E+01 0.61324010375E+01 0.85408561795E+01
 0.12150208892E+02 0.16912757934E+02 0.22568840057E+02 0.28678786623E+02 0.34674442088E+02
 0.39927816815E+02 0.43837350563E+02 0.45925050039E+02 0.45925049409E+02 0.43837349014E+02
 0.39927815237E+02 0.24260986349E+02 0.19545834984E+02 0.15024393235E+02 0.11104103622E+02
 0.80522907406E+01 0.59579808323E+01 0.47204599070E+01 0.40735915895E+01 0.36705962428E+01
 0.33749217788E+01 0.31804976858E+01 0.30729617350E+01 0.30388760716E+01 0.30729616167E+01
 0.31804977739E+01 0.33749223357E+01 0.36705969768E+01 0.40735914449E+01 0.47204573659E+01
 0.59579746444E+01 0.80522806950E+01 0.11104090914E+02 0.15024380140E+02 0.19545823972E+02
 0.24260979052E+02 0.28678786623E+02 0.32294330853E+02 0.34666547569E+02 0.35493179531E+02
 0.34666547313E+02 0.32294331568E+02 0.28678790038E+02 0.16144446555E+02 0.12759726250E+02
 0.97406841737E+01 0.73343370761E+01 0.56449547297E+01 0.46167808842E+01 0.40479334897E+01
 0.36646960638E+01 0.33749217788E+01 0.31762584784E+01 0.30561669391E+01 0.30005226520E+01
 0.30005222733E+01 0.30561663265E+01 0.31762588019E+01 0.33749238969E+01 0.36646996206E+01
 0.40479366602E+01 0.46167809988E+01 0.56449494988E+01 0.73343257565E+01 0.97406680563E+01
 0.12759708184E+02 0.16144429771E+02 0.19545823972E+02 0.22568840057E+02 0.24836129618E+02
 0.26051336813E+02 0.26051338182E+02 0.24836134154E+02 0.22568848663E+02 0.19545837096E+02
 0.10413136631E+02 0.82604565110E+01 0.65083825260E+01 0.52549764842E+01 0.44696394173E+01
 0.39995193951E+01 0.36474697130E+01 0.33743367951E+01 0.31804976858E+01 0.30561669391E+01
 0.29884356751E+01 0.29671246679E+01 0.29884346683E+01 0.30561661223E+01 0.31804986923E+01
 0.33743405959E+01 0.36474757843E+01 0.39995256305E+01 0.44696428461E+01 0.52549744727E+01
 0.65083738559E+01 0.82604418662E+01 0.10413118313E+02 0.12759708184E+02 0.15024380140E+02
 0.16912757934E+02 0.18165130915E+02 0.18603658508E+02 0.18165137202E+02 0.16912769984E+02
 0.15024396701E+02 0.12759727090E+02 0.68625146785E+01 0.57024874536E+01 0.48574730793E+01
 0.43060997961E+01 0.39309203467E+01 0.36205352513E+01 0.33743469266E+01 0.31940871049E+01
 0.30729617350E+01 0.30005226520E+01 0.29671246679E+01 0.29671239918E+01 0.30005211034E+01
 0.30729605472E+01 0.31940877164E+01 0.33743503051E+01 0.36205413359E+01 0.39309278508E+01
 0.43061064516E+01 0.48574762927E+01 0.57024851578E+01 0.68625060973E+01 0.82604418662E+01
 0.97406680563E+01 0.11104090914E+02 0.12150208892E+02 0.12717968667E+02 0.12717972783E+02
 0.12150220235E+02 0.11104106762E+02 0.97406847407E+01 0.82604557863E+01 0.50192746263E+01
 0.45074161122E+01 0.41439997083E+01 0.38461045207E+01 0.35870311867E+01 0.33774066630E+01
 0.32195580897E+01 0.31092539390E+01 0.30388760716E+01 0.30005222733E+01 0.29884346683E+01
 0.30005211034E+01 0.30388738846E+01 0.31092512440E+01 0.32195559255E+01 0.33774064654E+01
 0.35870342251E+01 0.38461111197E+01 0.41440086800E+01 0.45074248293E+01 0.50192799032E+01
 0.57024851578E+01 0.65083738559E+01 0.73343257565E+01 0.80522806950E+01 0.85408561795E+01
 0.87140469396E+01 0.85408629664E+01 0.80522915839E+01 0.73343365424E+01 0.65083805893E+01
 0.57024857092E+01 0.42242856672E+01 0.39802964226E+01 0.37521503890E+01 0.35517097340E+01
 0.33871965681E+01 0.32607859306E+01 0.31698971586E+01 0.31092541235E+01 0.30729616167E+01
 0.30561663265E+01 0.30561661223E+01 0.30729605472E+01 0.31092512440E+01 0.31698920243E+01
 0.32607794446E+01 0.33871910421E+01 0.35517079685E+01 0.37521542123E+01 0.39803055272E+01
 0.42242974538E+01 0.45074248293E+01 0.48574762927E+01 0.52549744727E+01 0.56449494988E+01
 0.59579746444E+01 0.61324010375E+01 0.61324028049E+01 0.59579786829E+01 0.56449527191E+01
 0.52549736875E+01 0.48574700168E+01 0.45074141770E+01 0.38141903075E+01 0.36576330157E+01
 0.35203883188E+01 0.34081500676E+01 0.33223024242E+01 0.32607860779E+01 0.32195585602E+01
 0.31940874995E+01 0.31804977739E+01 0.31762588019E+01 0.31804986923E+01 0.31940877164E+01
 0.32195559255E+01 0.32607794446E+01 0.33222926989E+01 0.34081401309E+01 0.35203818035E+01
 0.36576325859E+01 0.38141963854E+01 0.39803055272E+01 0.41440086800E+01 0.43061064516E+01
 0.44696428461E+01 0.46167809988E+01 0.47204573659E+01 0.47579299682E+01 0.47204564117E+01
 0.46167779933E+01 0.44696365134E+01 0.43060965818E+01 0.41439968774E+01 0.39802949129E+01
 0.35709898703E+01 0.34987758774E+01 0.34444612635E+01 0.34081497058E+01 0.33871962386E+01
 0.33774067328E+01 0.33743472103E+01 0.33743369630E+01 0.33749223357E+01 0.33749238969E+01
 0.33743405959E+01 0.33743503051E+01 0.33774064654E+01 0.33871910421E+01 0.34081401309E+01
 0.34444498235E+01 0.34987659978E+01 0.35709844785E+01 0.36576325859E+01 0.37521542123E+01
 0.38461111197E+01 0.39309278508E+01 0.39995256305E+01 0.40479366602E+01 0.40735914449E+01
 0.40735895534E+01 0.40479311847E+01 0.39995172870E+01 0.39309180864E+01 0.38461021282E+01
 0.37521485048E+01 0.36576321482E+01 0.34910591740E+01 0.34987756068E+01 0.35203874542E+01
 0.35517084750E+01 0.35870300625E+01 0.36205344562E+01 0.36474689380E+01 0.36646954123E+01
 0.36705969768E+01 0.36646996206E+01 0.36474757843E+01 0.36205413359E+01 0.35870342251E+01
 0.35517079685E+01 0.35203818035E+01 0.34987659978E+01 0.34910480836E+01 0.34987659978E+01
 0.35203818035E+01 0.35517079685E+01 0.35870342251E+01 0.36205413359E+01 0.36474757843E+01
 0.36646996206E+01 0.36705969768E+01 0.36646954123E+01 0.36474689380E+01 0.36205344562E+01
 0.35870300625E+01 0.35517084750E+01 0.35203874542E+01 0.34987756068E+01 0.35709898703E+01
 0.36576321482E+01 0.37521485048E+01 0.38461021282E+01 0.39309180864E+01 0.39995172870E+01
 0.40479311847E+01 0.40735895534E+01 0.40735914449E+01 0.40479366602E+01 0.39995256305E+01
 0.39309278508E+01 0.38461111197E+01 0.37521542123E+01 0.36576325859E+01 0.35709844785E+01
 0.34987659978E+01 0.34444498235E+01 0.34081401309E+01 0.33871910421E+01 0.33774064654E+01
 0.33743503051E+01 0.33743405959E+01 0.33749238969E+01 0.33749223357E+01 0.33743369630E+01
 0.33743472103E+01 0.33774067328E+01 0.33871962386E+01 0.34081497058E+01 0.34444612635E+01
 0.34987758774E+01 0.38141903075E+01 0.39802949129E+01 0.41439968774E+01 0.43060965818E+01
 0.44696365134E+01 0.46167779933E+01 0.47204564117E+01 0.47579299682E+01 0.47204573659E+01
 0.46167809988E+01 0.44696428461E+01 0.43061064516E+01 0.41440086800E+01 0.39803055272E+01
 0.38141963854E+01 0.36576325859E+01 0.35203818035E+01 0.34081401309E+01 0.33222926989E+01
 0.32607794446E+01 0.32195559255E+01 0.31940877164E+01 0.31804986923E+01 0.31762588019E+01
 0.31804977739E+01 0.31940874995E+01 0.32195585602E+01 0.32607860779E+01 0.33223024242E+01
 0.34081500676E+01 0.35203883188E+01 0.36576330157E+01 0.42242856672E+01 0.45074141770E+01
 0.48574700168E+01 0.52549736875E+01 0.56449527191E+01 0.59579786829E+01 0.61324028049E+01
 0.61324010375E+01 0.59579746444E+01 0.56449494988E+01 0.52549744727E+01 0.48574762927E+01
 0.45074248293E+01 0.42242974538E+01 0.39803055272E+01 0.37521542123E+01 0.35517079685E+01
 0.33871910421E+01 0.32607794446E+01 0.31698920243E+01 0.31092512440E+01 0.30729605472E+01
 0.30561661223E+01 0.30561663265E+01 0.30729616167E+01 0.31092541235E+01 0.31698971586E+01
 0.32607859306E+01 0.33871965681E+01 0.35517097340E+01 0.37521503890E+01 0.39802964226E+01
 0.50192746263E+01 0.57024857092E+01 0.65083805893E+01 0.73343365424E+01 0.80522915839E+01
 0.85408629664E+01 0.87140469396E+01 0.85408561795E+01 0.80522806950E+01 0.73343257565E+01
 0.65083738559E+01 0.57024851578E+01 0.50192799032E+01 0.45074248293E+01 0.41440086800E+01
 0.38461111197E+01 0.35870342251E+01 0.33774064654E+01 0.32195559255E+01 0.31092512440E+01
 0.30388738846E+01 0.30005211034E+01 0.29884346683E+01 0.30005222733E+01 0.30388760716E+01
 0.31092539390E+01 0.32195580897E+01 0.33774066630E+01 0.35870311867E+01 0.38461045207E+01
 0.41439997083E+01 0.45074161122E+01 0.68625146785E+01 0.82604557863E+01 0.97406847407E+01
 0.11104106762E+02 0.12150220235E+02 0.12717972783E+02 0.12717968667E+02 0.12150208892E+02
 0.11104090914E+02 0.97406680563E+01 0.82604418662E+01 0.68625060973E+01 0.57024851578E+01
 0.48574762927E+01 0.43061064516E+01 0.39309278508E+01 0.36205413359E+01 0.33743503051E+01
 0.31940877164E+01 0.30729605472E+01 0.30005211034E+01 0.29671239918E+01 0.29671246679E+01
 0.30005226520E+01 0.30729617350E+01 0.31940871049E+01 0.33743469266E+01 0.36205352513E+01
 0.39309203467E+01 0.43060997961E+01 0.48574730793E+01 0.57024874536E+01 0.10413136631E+02
 0.12759727090E+02 0.15024396701E+02 0.16912769984E+02 0.18165137202E+02 0.18603658508E+02
 0.18165130915E+02 0.16912757934E+02 0.15024380140E+02 0.12759708184E+02 0.10413118313E+02
 0.82604418662E+01 0.65083738559E+01 0.52549744727E+01 0.44696428461E+01 0.39995256305E+01
 0.36474757843E+01 0.33743405959E+01 0.31804986923E+01 0.30561661223E+01 0.29884346683E+01
 0.29671246679E+01 0.29884356751E+01 0.30561669391E+01 0.31804976858E+01 0.33743367951E+01
 0.36474697130E+01 0.39995193951E+01 0.44696394173E+01 0.52549764842E+01 0.65083825260E+01
 0.82604565110E+01 0.16144446555E+02 0.19545837096E+02 0.22568848663E+02 0.24836134154E+02
 0.26051338182E+02 0.26051336813E+02 0.24836129618E+02 0.22568840057E+02 0.19545823972E+02
 0.16144429771E+02 0.12759708184E+02 0.97406680563E+01 0.73343257565E+01 0.56449494988E+01
 0.46167809988E+01 0.40479366602E+01 0.36646996206E+01 0.33749238969E+01 0.31762588019E+01
 0.30561663265E+01 0.30005222733E+01 0.30005226520E+01 0.30561669391E+01 0.31762584784E+01
 0.33749217788E+01 0.36646960638E+01 0.40479334897E+01 0.46167808842E+01 0.56449547297E+01
 0.73343370761E+01 0.97406841737E+01 0.12759726250E+02 0.24260986349E+02 0.28678790038E+02
 0.32294331568E+02 0.34666547313E+02 0.35493179531E+02 0.34666547569E+02 0.32294330853E+02
 0.28678786623E+02 0.24260979052E+02 0.19545823972E+02 0.15024380140E+02 0.11104090914E+02
 0.80522806950E+01 0.59579746444E+01 0.47204573659E+01 0.40735914449E+01 0.36705969768E+01
 0.33749223357E+01 0.31804977739E+01 0.30729616167E+01 0.30388760716E+01 0.30729617350E+01
 0.31804976858E+01 0.33749217788E+01 0.36705962428E+01 0.40735915895E+01 0.47204599070E+01
 0.59579808323E+01 0.80522907406E+01 0.11104103622E+02 0.15024393235E+02 0.19545834984E+02
 0.34674441566E+02 0.39927815237E+02 0.43837349014E+02 0.45925049409E+02 0.45925050039E+02
 0.43837350563E+02 0.39927816815E+02 0.34674442088E+02 0.28678786623E+02 0.22568840057E+02
 0.16912757934E+02 0.12150208892E+02 0.85408561795E+01 0.61324010375E+01 0.47579299682E+01
 0.40735895534E+01 0.36646954123E+01 0.33743369630E+01 0.31940874995E+01 0.31092541235E+01
 0.31092539390E+01 0.31940871049E+01 0.33743367951E+01 0.36646960638E+01 0.40735915895E+01
 0.47579337128E+01 0.61324063988E+01 0.85408625840E+01 0.12150215380E+02 0.16912763421E+02
 0.22568843672E+02 0.28678788015E+02 0.47008752626E+02 0.52778077674E+02 0.56557899551E+02
 0.57874677114E+02 0.56557898709E+02 0.52778076721E+02 0.47008752558E+02 0.39927816815E+02
 0.32294330853E+02 0.24836129618E+02 0.18165130915E+02 0.12717968667E+02 0.87140469396E+01
 0.61324028049E+01 0.47204564117E+01 0.40479311847E+01 0.36474689380E+01 0.33743472103E+01
 0.32195585602E+01 0.31698971586E+01 0.32195580897E+01 0.33743469266E+01 0.36474697130E+01
 0.40479334897E+01 0.47204599070E+01 0.61324063988E+01 0.87140493031E+01 0.12717968922E+02
 0.18165129107E+02 0.24836126692E+02 0.32294328155E+02 0.39927815386E+02 0.60600412547E+02
 0.66427251737E+02 0.69543079539E+02 0.69543076822E+02 0.66427244869E+02 0.60600404740E+02
 0.52778076721E+02 0.43837350563E+02 0.34666547569E+02 0.26051336813E+02 0.18603658508E+02
 0.12717972783E+02 0.85408629664E+01 0.59579786829E+01 0.46167779933E+01 0.39995172870E+01
 0.36205344562E+01 0.33774067328E+01 0.32607860779E+01 0.32607859306E+01 0.33774066630E+01
 0.36205352513E+01 0.39995193951E+01 0.46167808842E+01 0.59579808323E+01 0.85408625840E+01
 0.12717968922E+02 0.18603651889E+02 0.26051329795E+02 0.34666543157E+02 0.43837350908E+02
 0.52778081905E+02 0.74491237356E+02 0.79790304576E+02 0.81639724693E+02 0.79790294811E+02
 0.74491221607E+02 0.66427244869E+02 0.56557898709E+02 0.45925050039E+02 0.35493179531E+02
 0.26051338182E+02 0.18165137202E+02 0.12150220235E+02 0.80522915839E+01 0.56449527191E+01
 0.44696365134E+01 0.39309180864E+01 0.35870300625E+01 0.33871962386E+01 0.33223024242E+01
 0.33871965681E+01 0.35870311867E+01 0.39309203467E+01 0.44696394173E+01 0.56449547297E+01
 0.80522907406E+01 0.12150215380E+02 0.18165129107E+02 0.26051329795E+02 0.35493174972E+02
 0.45925052692E+02 0.56557909326E+02 0.66427260740E+02 0.87454090889E+02 0.91564147649E+02
 0.91564141062E+02 0.87454073448E+02 0.79790294811E+02 0.69543076822E+02 0.57874677114E+02
 0.45925049409E+02 0.34666547313E+02 0.24836134154E+02 0.16912769984E+02 0.11104106762E+02
 0.73343365424E+01 0.52549736875E+01 0.43060965818E+01 0.38461021282E+01 0.35517084750E+01
 0.34081497058E+01 0.34081500676E+01 0.35517097340E+01 0.38461045207E+01 0.43060997961E+01
 0.52549764842E+01 0.73343370761E+01 0.11104103622E+02 0.16912763421E+02 0.24836126692E+02
 0.34666543157E+02 0.45925052692E+02 0.57874689736E+02 0.69543096986E+02 0.79790317152E+02
 0.98107618309E+02 0.10039555584E+03 0.98107606489E+02 0.91564141062E+02 0.81639724693E+02
 0.69543079539E+02 0.56557899551E+02 0.43837349014E+02 0.32294331568E+02 0.22568848663E+02
 0.15024396701E+02 0.97406847407E+01 0.65083805893E+01 0.48574700168E+01 0.41439968774E+01
 0.37521485048E+01 0.35203874542E+01 0.34444612635E+01 0.35203883188E+01 0.37521503890E+01
 0.41439997083E+01 0.48574730793E+01 0.65083825260E+01 0.97406841737E+01 0.15024393235E+02
 0.22568843672E+02 0.32294328155E+02 0.43837350908E+02 0.56557909326E+02 0.69543096986E+02
 0.81639746265E+02 0.91564160827E+02 0.10514120957E+03 0.10514120583E+03 0.10039555584E+03
 0.91564147649E+02 0.79790304576E+02 0.66427251737E+02 0.52778077674E+02 0.39927815237E+02
 0.28678790038E+02 0.19545837096E+02 0.12759727090E+02 0.82604557863E+01 0.57024857092E+01
 0.45074141770E+01 0.39802949129E+01 0.36576321482E+01 0.34987756068E+01 0.34987758774E+01
 0.36576330157E+01 0.39802964226E+01 0.45074161122E+01 0.57024874536E+01 0.82604565110E+01
 0.12759726250E+02 0.19545834984E+02 0.28678788015E+02 0.39927815386E+02 0.52778081905E+02
 0.66427260740E+02 0.79790317152E+02 0.91564160827E+02 0.10039556586E+03 0.10514120957E+03
 0.10039556586E+03 0.91564160827E+02 0.79790317152E+02 0.66427260740E+02 0.52778081905E+02
 0.39927815386E+02 0.28678788015E+02 0.19545834984E+02 0.12759726250E+02 0.82604565110E+01
 0.57024874536E+01 0.45074161122E+01 0.39802964226E+01 0.36576330157E+01 0.34987758774E+01
 0.34987756068E+01 0.36576321482E+01 0.39802949129E+01 0.45074141770E+01 0.57024857092E+01
 0.82604557863E+01 0.12759727090E+02 0.19545837096E+02 0.28678790038E+02 0.39927815237E+02
 0.52778077674E+02 0.66427251737E+02 0.79790304576E+02 0.91564147649E+02 0.10039555584E+03
 0.10514120583E+03 0.10039556586E+03 0.93703261483E+02 0.83555301878E+02 0.71189152685E+02
 0.57916657812E+02 0.44913408299E+02 0.33107716642E+02 0.23149635465E+02 0.15409722111E+02
 0.99728600530E+01 0.66323546218E+01 0.49168919734E+01 0.41765620971E+01 0.37782839549E+01
 0.35424239782E+01 0.34650755162E+01 0.35424233136E+01 0.37782823856E+01 0.41765595690E+01
 0.49168890913E+01 0.66323526844E+01 0.99728604211E+01 0.15409725159E+02 0.23149639747E+02
 0.33107718930E+02 0.44913404737E+02 0.57916645805E+02 0.71189132603E+02 0.83555277637E+02
 0.93703239518E+02 0.10039555279E+03 0.10273584003E+03 0.91564160827E+02 0.83555301878E+02
 0.72850682785E+02 0.60664676201E+02 0.48183544478E+02 0.36414590216E+02 0.26119032958E+02
 0.17793116193E+02 0.11657564090E+02 0.76451533307E+01 0.54090165609E+01 0.43817687443E+01
 0.39009045343E+01 0.35964529037E+01 0.34475439499E+01 0.34475438832E+01 0.35964524244E+01
 0.39009031406E+01 0.43817664457E+01 0.54090143712E+01 0.76451529775E+01 0.11657566907E+02
 0.17793121786E+02 0.26119038533E+02 0.36414591243E+02 0.48183536634E+02 0.60664657759E+02
 0.72850656209E+02 0.83555273617E+02 0.91564139180E+02 0.95860547847E+02 0.95860555958E+02
 0.79790317152E+02 0.71189152685E+02 0.60664676201E+02 0.49323272972E+02 0.38183480083E+02
 0.28075217263E+02 0.19594651007E+02 0.13081205738E+02 0.85980022854E+01 0.59267253226E+01
 0.46040329316E+01 0.40153894076E+01 0.36546594622E+01 0.34438323849E+01 0.33751820359E+01
 0.34438330661E+01 0.36546600643E+01 0.40153891338E+01 0.46040318409E+01 0.59267246554E+01
 0.85980038236E+01 0.13081210448E+02 0.19594657793E+02 0.28075222719E+02 0.38183479688E+02
 0.49323263308E+02 0.60664657111E+02 0.71189128150E+02 0.79790294233E+02 0.85444279818E+02
 0.87418022358E+02 0.85444293657E+02 0.66427260740E+02 0.57916657812E+02 0.48183544478E+02
 0.38183480083E+02 0.28758163459E+02 0.20564464010E+02 0.14033298743E+02 0.93396983938E+01
 0.63865240462E+01 0.48225642133E+01 0.41133554526E+01 0.37101446679E+01 0.34496459130E+01
 0.33240637484E+01 0.33240646180E+01 0.34496479513E+01 0.37101465834E+01 0.41133562024E+01
 0.48225638518E+01 0.63865238227E+01 0.93396999413E+01 0.14033302800E+02 0.20564469489E+02
 0.28758167541E+02 0.38183479464E+02 0.48183537196E+02 0.57916644654E+02 0.66427245394E+02
 0.72766571545E+02 0.76156911577E+02 0.76156916272E+02 0.72766583840E+02 0.52778081905E+02
 0.44913408299E+02 0.36414590216E+02 0.28075217263E+02 0.20564464010E+02 0.14368023619E+02
 0.97455932383E+01 0.67039656733E+01 0.50002308679E+01 0.41921869629E+01 0.37567432396E+01
 0.34600457121E+01 0.32906372275E+01 0.32360885763E+01 0.32906391896E+01 0.34600485558E+01
 0.37567454382E+01 0.41921874350E+01 0.50002295956E+01 0.67039636762E+01 0.97455919194E+01
 0.14368023871E+02 0.20564465622E+02 0.28075219001E+02 0.36414590533E+02 0.44913406289E+02
 0.52778077930E+02 0.59178492522E+02 0.63369849884E+02 0.64829802149E+02 0.63369852753E+02
 0.59178496922E+02 0.39927815386E+02 0.33107716642E+02 0.26119032958E+02 0.19594651007E+02
 0.14033298743E+02 0.97455932383E+01 0.68172967500E+01 0.51002479365E+01 0.42453498549E+01
 0.37899530623E+01 0.34706187598E+01 0.32704907947E+01 0.31757826718E+01 0.31757834512E+01
 0.32704927673E+01 0.34706209621E+01 0.37899542873E+01 0.42453490979E+01 0.51002447790E+01
 0.68172915401E+01 0.97455870100E+01 0.14033292898E+02 0.19594646868E+02 0.26119031351E+02
 0.33107717633E+02 0.39927818270E+02 0.45883331171E+02 0.50306970527E+02 0.52667025688E+02
 0.52667024614E+02 0.50306967696E+02 0.45883327631E+02 0.28678788015E+02 0.23149635465E+02
 0.17793116193E+02 0.13081205738E+02 0.93396983938E+01 0.67039656733E+01 0.51002479365E+01
 0.42643014123E+01 0.38071260155E+01 0.34781691031E+01 0.32595533934E+01 0.31378307735E+01
 0.30991217822E+01 0.31378310537E+01 0.32595540821E+01 0.34781701192E+01 0.38071266848E+01
 0.42643004171E+01 0.51002437960E+01 0.67039575882E+01 0.93396869961E+01 0.13081193239E+02
 0.17793105701E+02 0.23149629699E+02 0.28678788025E+02 0.33823306166E+02 0.38014790169E+02
 0.40757727126E+02 0.41712406686E+02 0.40757722939E+02 0.38014784063E+02 0.33823301599E+02
 0.19545834984E+02 0.15409722111E+02 0.11657564090E+02 0.85980022854E+01 0.63865240462E+01
 0.50002308679E+01 0.42453498549E+01 0.38071260155E+01 0.34808775178E+01 0.32548519578E+01
 0.31173235317E+01 0.30533666532E+01 0.30533660853E+01 0.31173224405E+01 0.32548516728E+01
 0.34808788960E+01 0.38071283996E+01 0.42453509430E+01 0.50002277341E+01 0.63865148039E+01
 0.85979874405E+01 0.11657546727E+02 0.15409706669E+02 0.19545825214E+02 0.23651982888E+02
 0.27270704148E+02 0.29970015704E+02 0.31412388561E+02 0.31412386780E+02 0.29970011830E+02
 0.27270701768E+02 0.23651985712E+02 0.12759726250E+02 0.99728600530E+01 0.76451533307E+01
 0.59267253226E+01 0.48225642133E+01 0.41921869629E+01 0.37899530623E+01 0.34781691031E+01
 0.32548519578E+01 0.31108859608E+01 0.30322661645E+01 0.30075059373E+01 0.30322644727E+01
 0.31108843037E+01 0.32548525573E+01 0.34781729772E+01 0.37899589386E+01 0.41921915353E+01
 0.48225636908E+01 0.59267174408E+01 0.76451386792E+01 0.99728419628E+01 0.12759709252E+02
 0.15738759700E+02 0.18573300377E+02 0.20913861460E+02 0.22456677372E+02 0.22995324835E+02
 0.22456677303E+02 0.20913863308E+02 0.18573306762E+02 0.15738771985E+02 0.82604565110E+01
 0.66323546218E+01 0.54090165609E+01 0.46040329316E+01 0.41133554526E+01 0.37567432396E+01
 0.34706187598E+01 0.32595533934E+01 0.31173235317E+01 0.30322661645E+01 0.29930938221E+01
 0.29930928493E+01 0.30322641701E+01 0.31173227110E+01 0.32595558235E+01 0.34706249813E+01
 0.37567516357E+01 0.41133627910E+01 0.46040357970E+01 0.54090129310E+01 0.66323447475E+01
 0.82604427084E+01 0.10167128889E+02 0.12141632791E+02 0.13931231310E+02 0.15289551835E+02
 0.16022183696E+02 0.16022185223E+02 0.15289556697E+02 0.13931239984E+02 0.12141645114E+02
 0.10167143362E+02 0.57024874536E+01 0.49168919734E+01 0.43817687443E+01 0.40153894076E+01
 0.37101446679E+01 0.34600457121E+01 0.32704907947E+01 0.31378307735E+01 0.30533666532E+01
 0.30075059373E+01 0.29930928493E+01 0.30075046764E+01 0.30533651405E+01 0.31378305457E+01
 0.32704931696E+01 0.34600511160E+01 0.37101523232E+01 0.40153975277E+01 0.43817751186E+01
 0.49168947306E+01 0.57024856778E+01 0.67300567213E+01 0.79078953120E+01 0.90861383223E+01
 0.10092338078E+02 0.10769315758E+02 0.11007963182E+02 0.10769320193E+02 0.10092345930E+02
 0.90861477606E+01 0.79079040898E+01 0.67300627149E+01 0.45074161122E+01 0.41765620971E+01
 0.39009045343E+01 0.36546594622E+01 0.34496459130E+01 0.32906372275E+01 0.31757826718E+01
 0.30991217822E+01 0.30533660853E+01 0.30322644727E+01 0.30322641701E+01 0.30533651405E+01
 0.30991202201E+01 0.31757808725E+01 0.32906360961E+01 0.34496467020E+01 0.36546632149E+01
 0.39009114277E+01 0.41765710565E+01 0.45074250114E+01 0.49555101140E+01 0.55249951065E+01
 0.61614895639E+01 0.67724234039E+01 0.72543067093E+01 0.75199643840E+01 0.75199660038E+01
 0.72543106723E+01 0.67724274553E+01 0.61614911744E+01 0.55249926662E+01 0.49555036500E+01
 0.39802964226E+01 0.37782839549E+01 0.35964529037E+01 0.34438323849E+01 0.33240637484E+01
 0.32360885763E+01 0.31757834512E+01 0.31378310537E+01 0.31173224405E+01 0.31108843037E+01
 0.31173227110E+01 0.31378305457E+01 0.31757808725E+01 0.32360834971E+01 0.33240572898E+01
 0.34438270138E+01 0.35964513633E+01 0.37782878999E+01 0.39803055191E+01 0.41902534957E+01
 0.44217358838E+01 0.46914391076E+01 0.49787969795E+01 0.52387741816E+01 0.54207595850E+01
 0.54861885872E+01 0.54207592477E+01 0.52387722756E+01 0.49787919236E+01 0.46914302041E+01
 0.44217241384E+01 0.41902415036E+01 0.36576330157E+01 0.35424239782E+01 0.34475439499E+01
 0.33751820359E+01 0.33240646180E+01 0.32906391896E+01 0.32704927673E+01 0.32595540821E+01
 0.32548516728E+01 0.32548525573E+01 0.32595558235E+01 0.32704931696E+01 0.32906360961E+01
 0.33240572898E+01 0.33751718237E+01 0.34475338952E+01 0.35424175426E+01 0.36576325952E+01
 0.37870920812E+01 0.39214760932E+01 0.40499417039E+01 0.41669178981E+01 0.42733727525E+01
 0.43583562416E+01 0.44061651563E+01 0.44061633297E+01 0.43583507168E+01 0.42733636462E+01
 0.41669060364E+01 0.40499290027E+01 0.39214653521E+01 0.37870861045E+01 0.34987758774E+01
 0.34650755162E+01 0.34475438832E+01 0.34438330661E+01 0.34496479513E+01 0.34600485558E+01
 0.34706209621E+01 0.34781701192E+01 0.34808788960E+01 0.34781729772E+01 0.34706249813E+01
 0.34600511160E+01 0.34496467020E+01 0.34438270138E+01 0.34475338952E+01 0.34650640531E+01
 0.34987661014E+01 0.35480772900E+01 0.36092924118E+01 0.36762217988E+01 0.37415668323E+01
 0.37985236771E+01 0.38419901499E+01 0.38689445139E+01 0.38780416198E+01 0.38689393090E+01
 0.38419809783E+01 0.37985127907E+01 0.37415570324E+01 0.36762157616E+01 0.36092919246E+01
 0.35480826408E+01 0.34987756068E+01 0.35424233136E+01 0.35964524244E+01 0.36546600643E+01
 0.37101465834E+01 0.37567454382E+01 0.37899542873E+01 0.38071266848E+01 0.38071283996E+01
 0.37899589386E+01 0.37567516357E+01 0.37101523232E+01 0.36546632149E+01 0.35964513633E+01
 0.35424175426E+01 0.34987661014E+01 0.34696029939E+01 0.34560795471E+01 0.34563648808E+01
 0.34664183306E+01 0.34812543483E+01 0.34962244592E+01 0.35078670022E+01 0.35141284588E+01
 0.35141261258E+01 0.35078610321E+01 0.34962175078E+01 0.34812495996E+01 0.34664182071E+01
 0.34563701032E+01 0.34560889154E+01 0.34696139179E+01 0.36576321482E+01 0.37782823856E+01
 0.39009031406E+01 0.40153891338E+01 0.41133562024E+01 0.41921874350E+01 0.42453490979E+01
 0.42643004171E+01 0.42453509430E+01 0.41921915353E+01 0.41133627910E+01 0.40153975277E+01
 0.39009114277E+01 0.37782878999E+01 0.36576325952E+01 0.35480772900E+01 0.34560795471E+01
 0.33845509230E+01 0.33330060374E+01 0.32985255980E+01 0.32770861496E+01 0.32647780505E+01
 0.32585923801E+01 0.32567259748E+01 0.32585902648E+01 0.32647757186E+01 0.32770863049E+01
 0.32985301648E+01 0.33330149525E+01 0.33845619669E+01 0.34560892887E+01 0.35480826408E+01
 0.39802949129E+01 0.41765595690E+01 0.43817664457E+01 0.46040318409E+01 0.48225638518E+01
 0.50002295956E+01 0.51002447790E+01 0.51002437960E+01 0.50002277341E+01 0.48225636908E+01
 0.46040357970E+01 0.43817751186E+01 0.41765710565E+01 0.39803055191E+01 0.37870920812E+01
 0.36092924118E+01 0.34563648808E+01 0.33330060374E+01 0.32394384471E+01 0.31726957702E+01
 0.31282784753E+01 0.31016455502E+01 0.30892749786E+01 0.30892749792E+01 0.31016462612E+01
 0.31282814711E+01 0.31727021800E+01 0.32394477415E+01 0.33330157376E+01 0.34563714755E+01