Co-fcc                                  
   1.00000000000000     
     0.000000    1.841981    1.841981
     1.841981    0.000000    1.841981
     1.841981    1.841981    0.000000
   Co
     1
Direct
  0.000000  0.000000  0.000000
 
   36   36   36
 0.11887633156E+03 0.11657730612E+03 0.10995786366E+03 0.99785132441E+02 0.87144472185E+02
 0.73227249885E+02 0.59147722184E+02 0.45831547261E+02 0.33976316428E+02 0.24052998021E+02
 0.16312441664E+02 0.10780773082E+02 0.72541696063E+01 0.53177087212E+01 0.44064214252E+01
 0.39220606267E+01 0.35928727812E+01 0.34040353208E+01 0.33429850638E+01 0.34040353208E+01
 0.35928727812E+01 0.39220606267E+01 0.44064214252E+01 0.53177087212E+01 0.72541696063E+01
 0.10780773082E+02 0.16312441664E+02 0.24052998021E+02 0.33976316428E+02 0.45831547261E+02
 0.59147722184E+02 0.73227249885E+02 0.87144472185E+02 0.99785132441E+02 0.10995786366E+03
 0.11657730612E+03 0.11657730612E+03 0.11211921634E+03 0.10373147848E+03 0.92349016726E+02
 0.79116709873E+02 0.65188462265E+02 0.51579962382E+02 0.39096179647E+02 0.28315989902E+02
 0.19597943540E+02 0.13080114638E+02 0.86722282815E+01 0.60599112918E+01 0.47443151228E+01
 0.41251980704E+01 0.37260946238E+01 0.34713167139E+01 0.33490861907E+01 0.33490861499E+01
 0.34713165408E+01 0.37260942059E+01 0.41251973272E+01 0.47443140944E+01 0.60599101629E+01
 0.86722273095E+01 0.13080114010E+02 0.19597943223E+02 0.28315989578E+02 0.39096178772E+02
 0.51579960391E+02 0.65188458826E+02 0.79116705102E+02 0.92349011261E+02 0.10373147335E+03
 0.11211921267E+03 0.11657730479E+03 0.10995786366E+03 0.10373147848E+03 0.94153073655E+02
 0.82234714225E+02 0.69093353116E+02 0.55782113689E+02 0.43185193920E+02 0.31976588815E+02
 0.22614969312E+02 0.15343621728E+02 0.10182729691E+02 0.69251011102E+01 0.51581419104E+01
 0.43274415139E+01 0.38636608527E+01 0.35472221631E+01 0.33663770587E+01 0.33080155056E+01
 0.33663769841E+01 0.35472218239E+01 0.38636600152E+01 0.43274401054E+01 0.51581401502E+01
 0.69250994675E+01 0.10182728661E+02 0.15343621518E+02 0.22614969600E+02 0.31976588727E+02
 0.43185192290E+02 0.55782109526E+02 0.69093346101E+02 0.82234705020E+02 0.94153063862E+02
 0.10373147023E+03 0.10995785893E+03 0.11211921267E+03 0.99785132441E+02 0.92349016726E+02
 0.82234714225E+02 0.70444662889E+02 0.58002754489E+02 0.45826859273E+02 0.34660066846E+02
 0.25046561023E+02 0.17324505068E+02 0.11616963858E+02 0.78228046834E+01 0.56257283750E+01
 0.45397765030E+01 0.39969134666E+01 0.36263870669E+01 0.33920627995E+01 0.32802389053E+01
 0.32802390025E+01 0.33920629155E+01 0.36263867983E+01 0.39969124825E+01 0.45397748399E+01
 0.56257265387E+01 0.78228034593E+01 0.11616963890E+02 0.17324506402E+02 0.25046562858E+02
 0.34660067678E+02 0.45826857413E+02 0.58002748795E+02 0.70444653397E+02 0.82234702384E+02
 0.92349005099E+02 0.99785123927E+02 0.10373147023E+03 0.10373147335E+03 0.87144472185E+02
 0.79116709873E+02 0.69093353116E+02 0.58002754489E+02 0.46740483252E+02 0.36079653630E+02
 0.26625288613E+02 0.18793947103E+02 0.12799305612E+02 0.86389586893E+01 0.60942775622E+01
 0.47607684308E+01 0.41172311704E+01 0.37027030959E+01 0.34222170449E+01 0.32635524781E+01
 0.32126015747E+01 0.32635530484E+01 0.34222176936E+01 0.37027031579E+01 0.41172302664E+01
 0.47607667992E+01 0.60942760534E+01 0.86389583782E+01 0.12799307191E+02 0.18793950355E+02
 0.26625292253E+02 0.36079655665E+02 0.46740481753E+02 0.58002748471E+02 0.69093343147E+02
 0.79116698098E+02 0.87144461709E+02 0.92349005099E+02 0.94153063862E+02 0.92349011261E+02
 0.73227249885E+02 0.65188462265E+02 0.55782113689E+02 0.45826859273E+02 0.36079653630E+02
 0.27172466885E+02 0.19576302385E+02 0.13577652650E+02 0.92599965372E+01 0.64965444872E+01
 0.49685202821E+01 0.42191800907E+01 0.37703514051E+01 0.34526333096E+01 0.32549269723E+01
 0.31614448672E+01 0.31614454339E+01 0.32549283096E+01 0.34526345395E+01 0.37703516537E+01
 0.42191790391E+01 0.49685184444E+01 0.64965430396E+01 0.92599967505E+01 0.13577655182E+02
 0.19576306789E+02 0.27172471608E+02 0.36079656554E+02 0.45826858604E+02 0.55782108806E+02
 0.65188454144E+02 0.73227240872E+02 0.79116698098E+02 0.82234702384E+02 0.82234705020E+02
 0.79116705102E+02 0.59147722184E+02 0.51579962382E+02 0.43185193920E+02 0.34660066846E+02
 0.26625288613E+02 0.19576302385E+02 0.13849197367E+02 0.95954782138E+01 0.67684539213E+01
 0.51318654441E+01 0.43006181163E+01 0.38246214486E+01 0.34796073936E+01 0.32513247651E+01
 0.31239802396E+01 0.30833650204E+01 0.31239815292E+01 0.32513265874E+01 0.34796086355E+01
 0.38246212413E+01 0.43006163341E+01 0.51318628420E+01 0.67684518252E+01 0.95954778970E+01
 0.13849199402E+02 0.19576306293E+02 0.26625292988E+02 0.34660069925E+02 0.43185194364E+02
 0.51579959895E+02 0.59147717698E+02 0.65188454144E+02 0.69093343147E+02 0.70444653397E+02
 0.69093346101E+02 0.65188458826E+02 0.45831547261E+02 0.39096179647E+02 0.31976588815E+02
 0.25046561023E+02 0.18793947103E+02 0.13577652650E+02 0.95954782138E+01 0.68645503791E+01
 0.52220303831E+01 0.43545440917E+01 0.38622838449E+01 0.35004197149E+01 0.32503038553E+01
 0.30974886588E+01 0.30259932634E+01 0.30259938575E+01 0.30974900998E+01 0.32503052803E+01
 0.35004201478E+01 0.38622826652E+01 0.43545413468E+01 0.52220268026E+01 0.68645470811E+01
 0.95954762406E+01 0.13577652538E+02 0.18793948681E+02 0.25046563523E+02 0.31976591234E+02
 0.39096181182E+02 0.45831547634E+02 0.51579959895E+02 0.55782108806E+02 0.58002748471E+02
 0.58002748795E+02 0.55782109526E+02 0.51579960391E+02 0.33976316428E+02 0.28315989902E+02
 0.22614969312E+02 0.17324505068E+02 0.12799305612E+02 0.92599965372E+01 0.67684539213E+01
 0.52220303831E+01 0.43735363259E+01 0.38815037993E+01 0.35134238383E+01 0.32502727462E+01
 0.30798510387E+01 0.29860450355E+01 0.29563215911E+01 0.29860455119E+01 0.30798516924E+01
 0.32502730804E+01 0.35134233279E+01 0.38815020746E+01 0.43735333092E+01 0.52220263399E+01
 0.67684494071E+01 0.92599922618E+01 0.12799302262E+02 0.17324503134E+02 0.22614968976E+02
 0.28315991001E+02 0.33976318502E+02 0.39096181182E+02 0.43185194364E+02 0.45826858604E+02
 0.46740481753E+02 0.45826857413E+02 0.43185192290E+02 0.39096178772E+02 0.24052998021E+02
 0.19597943540E+02 0.15343621728E+02 0.11616963858E+02 0.86389586893E+01 0.64965444872E+01
 0.51318654441E+01 0.43545440917E+01 0.38815037993E+01 0.35178317060E+01 0.32504104014E+01
 0.30697172702E+01 0.29608737005E+01 0.29103526641E+01 0.29103525008E+01 0.29608732999E+01
 0.30697168253E+01 0.32504100323E+01 0.35178312851E+01 0.38815029019E+01 0.43545421215E+01
 0.51318619100E+01 0.64965393015E+01 0.86389523449E+01 0.11616957373E+02 0.15343616342E+02
 0.19597940279E+02 0.24052997297E+02 0.28315991001E+02 0.31976591234E+02 0.34660069925E+02
 0.36079656554E+02 0.36079655665E+02 0.34660067678E+02 0.31976588727E+02 0.28315989578E+02
 0.16312441664E+02 0.13080114638E+02 0.10182729691E+02 0.78228046834E+01 0.60942775622E+01
 0.49685202821E+01 0.43006181163E+01 0.38622838449E+01 0.35134238383E+01 0.32504104014E+01
 0.30664054741E+01 0.29487172702E+01 0.28843590219E+01 0.28640220525E+01 0.28843581727E+01
 0.29487161048E+01 0.30664047500E+01 0.32504106426E+01 0.35134249604E+01 0.38622850699E+01
 0.43006182382E+01 0.49685181830E+01 0.60942727456E+01 0.78227975686E+01 0.10182721533E+02
 0.13080107073E+02 0.16312436090E+02 0.19597940279E+02 0.22614968976E+02 0.25046563523E+02
 0.26625292988E+02 0.27172471608E+02 0.26625292253E+02 0.25046562858E+02 0.22614969600E+02
 0.19597943223E+02 0.10780773082E+02 0.86722282815E+01 0.69251011102E+01 0.56257283750E+01
 0.47607684308E+01 0.42191800907E+01 0.38246214486E+01 0.35004197149E+01 0.32502727462E+01
 0.30697172702E+01 0.29487172702E+01 0.28759649349E+01 0.28421682139E+01 0.28421677035E+01
 0.28759637514E+01 0.29487162833E+01 0.30697174201E+01 0.32502745371E+01 0.35004228802E+01
 0.38246249601E+01 0.42191825099E+01 0.47607684565E+01 0.56257253563E+01 0.69250952914E+01
 0.86722207017E+01 0.10780765171E+02 0.13080107073E+02 0.15343616342E+02 0.17324503134E+02
 0.18793948681E+02 0.19576306293E+02 0.19576306789E+02 0.18793950355E+02 0.17324506402E+02
 0.15343621518E+02 0.13080114010E+02 0.72541696063E+01 0.60599112918E+01 0.51581419104E+01
 0.45397765030E+01 0.41172311704E+01 0.37703514051E+01 0.34796073936E+01 0.32503038553E+01
 0.30798510387E+01 0.29608737005E+01 0.28843590219E+01 0.28421682139E+01 0.28287566910E+01
 0.28421675884E+01 0.28843582479E+01 0.29608735292E+01 0.30798521696E+01 0.32503066153E+01
 0.34796115488E+01 0.37703561712E+01 0.41172354275E+01 0.45397791151E+01 0.51581420637E+01
 0.60599087095E+01 0.72541646066E+01 0.86722207017E+01 0.10182721533E+02 0.11616957373E+02
 0.12799302262E+02 0.13577652538E+02 0.13849199402E+02 0.13577655182E+02 0.12799307191E+02
 0.11616963890E+02 0.10182728661E+02 0.86722273095E+01 0.53177087212E+01 0.47443151228E+01
 0.43274415139E+01 0.39969134666E+01 0.37027030959E+01 0.34526333096E+01 0.32513247651E+01
 0.30974886588E+01 0.29860450355E+01 0.29103526641E+01 0.28640220525E+01 0.28421677035E+01
 0.28421675884E+01 0.28640217634E+01 0.29103523778E+01 0.29860450587E+01 0.30974894011E+01
 0.32513266410E+01 0.34526365788E+01 0.37027076788E+01 0.39969188362E+01 0.43274467169E+01
 0.47443189868E+01 0.53177102018E+01 0.60599087095E+01 0.69250952914E+01 0.78227975686E+01
 0.86389523449E+01 0.92599922618E+01 0.95954762406E+01 0.95954778970E+01 0.92599967505E+01
 0.86389583782E+01 0.78228034593E+01 0.69250994675E+01 0.60599101629E+01 0.44064214252E+01
 0.41251980704E+01 0.38636608527E+01 0.36263870669E+01 0.34222170449E+01 0.32549269723E+01
 0.31239802396E+01 0.30259932634E+01 0.29563215911E+01 0.29103525008E+01 0.28843581727E+01
 0.28759637514E+01 0.28843582479E+01 0.29103523778E+01 0.29563209431E+01 0.30259920222E+01
 0.31239788141E+01 0.32549262173E+01 0.34222179606E+01 0.36263903310E+01 0.38636664141E+01
 0.41252050087E+01 0.44064281734E+01 0.47443189868E+01 0.51581420637E+01 0.56257253563E+01
 0.60942727456E+01 0.64965393015E+01 0.67684494071E+01 0.68645470811E+01 0.67684518252E+01
 0.64965430396E+01 0.60942760534E+01 0.56257265387E+01 0.51581401502E+01 0.47443140944E+01
 0.39220606267E+01 0.37260946238E+01 0.35472221631E+01 0.33920627995E+01 0.32635524781E+01
 0.31614448672E+01 0.30833650204E+01 0.30259938575E+01 0.29860455119E+01 0.29608732999E+01
 0.29487161048E+01 0.29487162833E+01 0.29608735292E+01 0.29860450587E+01 0.30259920222E+01
 0.30833616362E+01 0.31614405758E+01 0.32635486151E+01 0.33920609185E+01 0.35472233938E+01
 0.37260991546E+01 0.39220675662E+01 0.41252050087E+01 0.43274467169E+01 0.45397791151E+01
 0.47607684565E+01 0.49685181830E+01 0.51318619100E+01 0.52220263399E+01 0.52220268026E+01
 0.51318628420E+01 0.49685184444E+01 0.47607667992E+01 0.45397748399E+01 0.43274401054E+01
 0.41251973272E+01 0.35928727812E+01 0.34713167139E+01 0.33663770587E+01 0.32802389053E+01
 0.32126015747E+01 0.31614454339E+01 0.31239815292E+01 0.30974900998E+01 0.30798516924E+01
 0.30697168253E+01 0.30664047500E+01 0.30697174201E+01 0.30798521696E+01 0.30974894011E+01
 0.31239788141E+01 0.31614405758E+01 0.32125953591E+01 0.32802328228E+01 0.33663727839E+01
 0.34713154873E+01 0.35928749566E+01 0.37260991546E+01 0.38636664141E+01 0.39969188362E+01
 0.41172354275E+01 0.42191825099E+01 0.43006182382E+01 0.43545421215E+01 0.43735333092E+01
 0.43545413468E+01 0.43006163341E+01 0.42191790391E+01 0.41172302664E+01 0.39969124825E+01
 0.38636600152E+01 0.37260942059E+01 0.34040353208E+01 0.33490861907E+01 0.33080155056E+01
 0.32802390025E+01 0.32635530484E+01 0.32549283096E+01 0.32513265874E+01 0.32503052803E+01
 0.32502730804E+01 0.32504100323E+01 0.32504106426E+01 0.32502745371E+01 0.32503066153E+01
 0.32513266410E+01 0.32549262173E+01 0.32635486151E+01 0.32802328228E+01 0.33080087868E+01
 0.33490803579E+01 0.34040315676E+01 0.34713154873E+01 0.35472233938E+01 0.36263903310E+01
 0.37027076788E+01 0.37703561712E+01 0.38246249601E+01 0.38622850699E+01 0.38815029019E+01
 0.38815020746E+01 0.38622826652E+01 0.38246212413E+01 0.37703516537E+01 0.37027031579E+01
 0.36263867983E+01 0.35472218239E+01 0.34713165408E+01 0.33429850638E+01 0.33490861499E+01
 0.33663769841E+01 0.33920629155E+01 0.34222176936E+01 0.34526345395E+01 0.34796086355E+01
 0.35004201478E+01 0.35134233279E+01 0.35178312851E+01 0.35134249604E+01 0.35004228802E+01
 0.34796115488E+01 0.34526365788E+01 0.34222179606E+01 0.33920609185E+01 0.33663727839E+01
 0.33490803579E+01 0.33429786927E+01 0.33490803579E+01 0.33663727839E+01 0.33920609185E+01
 0.34222179606E+01 0.34526365788E+01 0.34796115488E+01 0.35004228802E+01 0.35134249604E+01
 0.35178312851E+01 0.35134233279E+01 0.35004201478E+01 0.34796086355E+01 0.34526345395E+01
 0.34222176936E+01 0.33920629155E+01 0.33663769841E+01 0.33490861499E+01 0.34040353208E+01
 0.34713165408E+01 0.35472218239E+01 0.36263867983E+01 0.37027031579E+01 0.37703516537E+01
 0.38246212413E+01 0.38622826652E+01 0.38815020746E+01 0.38815029019E+01 0.38622850699E+01
 0.38246249601E+01 0.37703561712E+01 0.37027076788E+01 0.36263903310E+01 0.35472233938E+01
 0.34713154873E+01 0.34040315676E+01 0.33490803579E+01 0.33080087868E+01 0.32802328228E+01
 0.32635486151E+01 0.32549262173E+01 0.32513266410E+01 0.32503066153E+01 0.32502745371E+01
 0.32504106426E+01 0.32504100323E+01 0.32502730804E+01 0.32503052803E+01 0.32513265874E+01
 0.32549283096E+01 0.32635530484E+01 0.32802390025E+01 0.33080155056E+01 0.33490861907E+01
 0.35928727812E+01 0.37260942059E+01 0.38636600152E+01 0.39969124825E+01 0.41172302664E+01
 0.42191790391E+01 0.43006163341E+01 0.43545413468E+01 0.43735333092E+01 0.43545421215E+01
 0.43006182382E+01 0.42191825099E+01 0.41172354275E+01 0.39969188362E+01 0.38636664141E+01
 0.37260991546E+01 0.35928749566E+01 0.34713154873E+01 0.33663727839E+01 0.32802328228E+01
 0.32125953591E+01 0.31614405758E+01 0.31239788141E+01 0.30974894011E+01 0.30798521696E+01
 0.30697174201E+01 0.30664047500E+01 0.30697168253E+01 0.30798516924E+01 0.30974900998E+01
 0.31239815292E+01 0.31614454339E+01 0.32126015747E+01 0.32802389053E+01 0.33663770587E+01
 0.34713167139E+01 0.39220606267E+01 0.41251973272E+01 0.43274401054E+01 0.45397748399E+01
 0.47607667992E+01 0.49685184444E+01 0.51318628420E+01 0.52220268026E+01 0.52220263399E+01
 0.51318619100E+01 0.49685181830E+01 0.47607684565E+01 0.45397791151E+01 0.43274467169E+01
 0.41252050087E+01 0.39220675662E+01 0.37260991546E+01 0.35472233938E+01 0.33920609185E+01
 0.32635486151E+01 0.31614405758E+01 0.30833616362E+01 0.30259920222E+01 0.29860450587E+01
 0.29608735292E+01 0.29487162833E+01 0.29487161048E+01 0.29608732999E+01 0.29860455119E+01
 0.30259938575E+01 0.30833650204E+01 0.31614448672E+01 0.32635524781E+01 0.33920627995E+01
 0.35472221631E+01 0.37260946238E+01 0.44064214252E+01 0.47443140944E+01 0.51581401502E+01
 0.56257265387E+01 0.60942760534E+01 0.64965430396E+01 0.67684518252E+01 0.68645470811E+01
 0.67684494071E+01 0.64965393015E+01 0.60942727456E+01 0.56257253563E+01 0.51581420637E+01
 0.47443189868E+01 0.44064281734E+01 0.41252050087E+01 0.38636664141E+01 0.36263903310E+01
 0.34222179606E+01 0.32549262173E+01 0.31239788141E+01 0.30259920222E+01 0.29563209431E+01
 0.29103523778E+01 0.28843582479E+01 0.28759637514E+01 0.28843581727E+01 0.29103525008E+01
 0.29563215911E+01 0.30259932634E+01 0.31239802396E+01 0.32549269723E+01 0.34222170449E+01
 0.36263870669E+01 0.38636608527E+01 0.41251980704E+01 0.53177087212E+01 0.60599101629E+01
 0.69250994675E+01 0.78228034593E+01 0.86389583782E+01 0.92599967505E+01 0.95954778970E+01
 0.95954762406E+01 0.92599922618E+01 0.86389523449E+01 0.78227975686E+01 0.69250952914E+01
 0.60599087095E+01 0.53177102018E+01 0.47443189868E+01 0.43274467169E+01 0.39969188362E+01
 0.37027076788E+01 0.34526365788E+01 0.32513266410E+01 0.30974894011E+01 0.29860450587E+01
 0.29103523778E+01 0.28640217634E+01 0.28421675884E+01 0.28421677035E+01 0.28640220525E+01
 0.29103526641E+01 0.29860450355E+01 0.30974886588E+01 0.32513247651E+01 0.34526333096E+01
 0.37027030959E+01 0.39969134666E+01 0.43274415139E+01 0.47443151228E+01 0.72541696063E+01
 0.86722273095E+01 0.10182728661E+02 0.11616963890E+02 0.12799307191E+02 0.13577655182E+02
 0.13849199402E+02 0.13577652538E+02 0.12799302262E+02 0.11616957373E+02 0.10182721533E+02
 0.86722207017E+01 0.72541646066E+01 0.60599087095E+01 0.51581420637E+01 0.45397791151E+01
 0.41172354275E+01 0.37703561712E+01 0.34796115488E+01 0.32503066153E+01 0.30798521696E+01
 0.29608735292E+01 0.28843582479E+01 0.28421675884E+01 0.28287566910E+01 0.28421682139E+01
 0.28843590219E+01 0.29608737005E+01 0.30798510387E+01 0.32503038553E+01 0.34796073936E+01
 0.37703514051E+01 0.41172311704E+01 0.45397765030E+01 0.51581419104E+01 0.60599112918E+01
 0.10780773082E+02 0.13080114010E+02 0.15343621518E+02 0.17324506402E+02 0.18793950355E+02
 0.19576306789E+02 0.19576306293E+02 0.18793948681E+02 0.17324503134E+02 0.15343616342E+02
 0.13080107073E+02 0.10780765171E+02 0.86722207017E+01 0.69250952914E+01 0.56257253563E+01
 0.47607684565E+01 0.42191825099E+01 0.38246249601E+01 0.35004228802E+01 0.32502745371E+01
 0.30697174201E+01 0.29487162833E+01 0.28759637514E+01 0.28421677035E+01 0.28421682139E+01
 0.28759649349E+01 0.29487172702E+01 0.30697172702E+01 0.32502727462E+01 0.35004197149E+01
 0.38246214486E+01 0.42191800907E+01 0.47607684308E+01 0.56257283750E+01 0.69251011102E+01
 0.86722282815E+01 0.16312441664E+02 0.19597943223E+02 0.22614969600E+02 0.25046562858E+02
 0.26625292253E+02 0.27172471608E+02 0.26625292988E+02 0.25046563523E+02 0.22614968976E+02
 0.19597940279E+02 0.16312436090E+02 0.13080107073E+02 0.10182721533E+02 0.78227975686E+01
 0.60942727456E+01 0.49685181830E+01 0.43006182382E+01 0.38622850699E+01 0.35134249604E+01
 0.32504106426E+01 0.30664047500E+01 0.29487161048E+01 0.28843581727E+01 0.28640220525E+01
 0.28843590219E+01 0.29487172702E+01 0.30664054741E+01 0.32504104014E+01 0.35134238383E+01
 0.38622838449E+01 0.43006181163E+01 0.49685202821E+01 0.60942775622E+01 0.78228046834E+01
 0.10182729691E+02 0.13080114638E+02 0.24052998021E+02 0.28315989578E+02 0.31976588727E+02
 0.34660067678E+02 0.36079655665E+02 0.36079656554E+02 0.34660069925E+02 0.31976591234E+02
 0.28315991001E+02 0.24052997297E+02 0.19597940279E+02 0.15343616342E+02 0.11616957373E+02
 0.86389523449E+01 0.64965393015E+01 0.51318619100E+01 0.43545421215E+01 0.38815029019E+01
 0.35178312851E+01 0.32504100323E+01 0.30697168253E+01 0.29608732999E+01 0.29103525008E+01
 0.29103526641E+01 0.29608737005E+01 0.30697172702E+01 0.32504104014E+01 0.35178317060E+01
 0.38815037993E+01 0.43545440917E+01 0.51318654441E+01 0.64965444872E+01 0.86389586893E+01
 0.11616963858E+02 0.15343621728E+02 0.19597943540E+02 0.33976316428E+02 0.39096178772E+02
 0.43185192290E+02 0.45826857413E+02 0.46740481753E+02 0.45826858604E+02 0.43185194364E+02
 0.39096181182E+02 0.33976318502E+02 0.28315991001E+02 0.22614968976E+02 0.17324503134E+02
 0.12799302262E+02 0.92599922618E+01 0.67684494071E+01 0.52220263399E+01 0.43735333092E+01
 0.38815020746E+01 0.35134233279E+01 0.32502730804E+01 0.30798516924E+01 0.29860455119E+01
 0.29563215911E+01 0.29860450355E+01 0.30798510387E+01 0.32502727462E+01 0.35134238383E+01
 0.38815037993E+01 0.43735363259E+01 0.52220303831E+01 0.67684539213E+01 0.92599965372E+01
 0.12799305612E+02 0.17324505068E+02 0.22614969312E+02 0.28315989902E+02 0.45831547261E+02
 0.51579960391E+02 0.55782109526E+02 0.58002748795E+02 0.58002748471E+02 0.55782108806E+02
 0.51579959895E+02 0.45831547634E+02 0.39096181182E+02 0.31976591234E+02 0.25046563523E+02
 0.18793948681E+02 0.13577652538E+02 0.95954762406E+01 0.68645470811E+01 0.52220268026E+01
 0.43545413468E+01 0.38622826652E+01 0.35004201478E+01 0.32503052803E+01 0.30974900998E+01
 0.30259938575E+01 0.30259932634E+01 0.30974886588E+01 0.32503038553E+01 0.35004197149E+01
 0.38622838449E+01 0.43545440917E+01 0.52220303831E+01 0.68645503791E+01 0.95954782138E+01
 0.13577652650E+02 0.18793947103E+02 0.25046561023E+02 0.31976588815E+02 0.39096179647E+02
 0.59147722184E+02 0.65188458826E+02 0.69093346101E+02 0.70444653397E+02 0.69093343147E+02
 0.65188454144E+02 0.59147717698E+02 0.51579959895E+02 0.43185194364E+02 0.34660069925E+02
 0.26625292988E+02 0.19576306293E+02 0.13849199402E+02 0.95954778970E+01 0.67684518252E+01
 0.51318628420E+01 0.43006163341E+01 0.38246212413E+01 0.34796086355E+01 0.32513265874E+01
 0.31239815292E+01 0.30833650204E+01 0.31239802396E+01 0.32513247651E+01 0.34796073936E+01
 0.38246214486E+01 0.43006181163E+01 0.51318654441E+01 0.67684539213E+01 0.95954782138E+01
 0.13849197367E+02 0.19576302385E+02 0.26625288613E+02 0.34660066846E+02 0.43185193920E+02
 0.51579962382E+02 0.73227249885E+02 0.79116705102E+02 0.82234705020E+02 0.82234702384E+02
 0.79116698098E+02 0.73227240872E+02 0.65188454144E+02 0.55782108806E+02 0.45826858604E+02
 0.36079656554E+02 0.27172471608E+02 0.19576306789E+02 0.13577655182E+02 0.92599967505E+01
 0.64965430396E+01 0.49685184444E+01 0.42191790391E+01 0.37703516537E+01 0.34526345395E+01
 0.32549283096E+01 0.31614454339E+01 0.31614448672E+01 0.32549269723E+01 0.34526333096E+01
 0.37703514051E+01 0.42191800907E+01 0.49685202821E+01 0.64965444872E+01 0.92599965372E+01
 0.13577652650E+02 0.19576302385E+02 0.27172466885E+02 0.36079653630E+02 0.45826859273E+02
 0.55782113689E+02 0.65188462265E+02 0.87144472185E+02 0.92349011261E+02 0.94153063862E+02
 0.92349005099E+02 0.87144461709E+02 0.79116698098E+02 0.69093343147E+02 0.58002748471E+02
 0.46740481753E+02 0.36079655665E+02 0.26625292253E+02 0.18793950355E+02 0.12799307191E+02
 0.86389583782E+01 0.60942760534E+01 0.47607667992E+01 0.41172302664E+01 0.37027031579E+01
 0.34222176936E+01 0.32635530484E+01 0.32126015747E+01 0.32635524781E+01 0.34222170449E+01
 0.37027030959E+01 0.41172311704E+01 0.47607684308E+01 0.60942775622E+01 0.86389586893E+01
 0.12799305612E+02 0.18793947103E+02 0.26625288613E+02 0.36079653630E+02 0.46740483252E+02
 0.58002754489E+02 0.69093353116E+02 0.79116709873E+02 0.99785132441E+02 0.10373147335E+03
 0.10373147023E+03 0.99785123927E+02 0.92349005099E+02 0.82234702384E+02 0.70444653397E+02
 0.58002748795E+02 0.45826857413E+02 0.34660067678E+02 0.25046562858E+02 0.17324506402E+02
 0.11616963890E+02 0.78228034593E+01 0.56257265387E+01 0.45397748399E+01 0.39969124825E+01
 0.36263867983E+01 0.33920629155E+01 0.32802390025E+01 0.32802389053E+01 0.33920627995E+01
 0.36263870669E+01 0.39969134666E+01 0.45397765030E+01 0.56257283750E+01 0.78228046834E+01
 0.11616963858E+02 0.17324505068E+02 0.25046561023E+02 0.34660066846E+02 0.45826859273E+02
 0.58002754489E+02 0.70444662889E+02 0.82234714225E+02 0.92349016726E+02 0.10995786366E+03
 0.11211921267E+03 0.10995785893E+03 0.10373147023E+03 0.94153063862E+02 0.82234705020E+02
 0.69093346101E+02 0.55782109526E+02 0.43185192290E+02 0.31976588727E+02 0.22614969600E+02
 0.15343621518E+02 0.10182728661E+02 0.69250994675E+01 0.51581401502E+01 0.43274401054E+01
 0.38636600152E+01 0.35472218239E+01 0.33663769841E+01 0.33080155056E+01 0.33663770587E+01
 0.35472221631E+01 0.38636608527E+01 0.43274415139E+01 0.51581419104E+01 0.69251011102E+01
 0.10182729691E+02 0.15343621728E+02 0.22614969312E+02 0.31976588815E+02 0.43185193920E+02
 0.55782113689E+02 0.69093353116E+02 0.82234714225E+02 0.94153073655E+02 0.10373147848E+03
 0.11657730612E+03 0.11657730479E+03 0.11211921267E+03 0.10373147335E+03 0.92349011261E+02
 0.79116705102E+02 0.65188458826E+02 0.51579960391E+02 0.39096178772E+02 0.28315989578E+02
 0.19597943223E+02 0.13080114010E+02 0.86722273095E+01 0.60599101629E+01 0.47443140944E+01
 0.41251973272E+01 0.37260942059E+01 0.34713165408E+01 0.33490861499E+01 0.33490861907E+01
 0.34713167139E+01 0.37260946238E+01 0.41251980704E+01 0.47443151228E+01 0.60599112918E+01
 0.86722282815E+01 0.13080114638E+02 0.19597943540E+02 0.28315989902E+02 0.39096179647E+02
 0.51579962382E+02 0.65188462265E+02 0.79116709873E+02 0.92349016726E+02 0.10373147848E+03
 0.11211921634E+03 0.11657730612E+03 0.11211921634E+03 0.10373147848E+03 0.92349016726E+02
 0.79116709873E+02 0.65188462265E+02 0.51579962382E+02 0.39096179647E+02 0.28315989902E+02
 0.19597943540E+02 0.13080114638E+02 0.86722282815E+01 0.60599112918E+01 0.47443151228E+01
 0.41251980704E+01 0.37260946238E+01 0.34713167139E+01 0.33490861907E+01 0.33490861499E+01
 0.34713165408E+01 0.37260942059E+01 0.41251973272E+01 0.47443140944E+01 0.60599101629E+01
 0.86722273095E+01 0.13080114010E+02 0.19597943223E+02 0.28315989578E+02 0.39096178772E+02
 0.51579960391E+02 0.65188458826E+02 0.79116705102E+02 0.92349011261E+02 0.10373147335E+03
 0.11211921267E+03 0.11657730479E+03 0.11211921634E+03 0.10577700395E+03 0.96021323797E+02
 0.83883478431E+02 0.70500438891E+02 0.56942685231E+02 0.44107631614E+02 0.32678741728E+02
 0.23121693483E+02 0.15685338955E+02 0.10394041132E+02 0.70426113310E+01 0.52173528921E+01
 0.43593283377E+01 0.38881856147E+01 0.35670113305E+01 0.33832465843E+01 0.33239097072E+01
 0.33832464629E+01 0.35670109077E+01 0.38881846684E+01 0.43593267959E+01 0.52173509545E+01
 0.70426094278E+01 0.10394039710E+02 0.15685338183E+02 0.23121693030E+02 0.32678740748E+02
 0.44107629007E+02 0.56942680092E+02 0.70500430986E+02 0.83883468489E+02 0.96021313452E+02
 0.10577699533E+03 0.11211921143E+03 0.11432089474E+03 0.10373147848E+03 0.96021323797E+02
 0.85535686100E+02 0.73313273296E+02 0.60412487270E+02 0.47779563708E+02 0.36179015848E+02
 0.26171170133E+02 0.18107073569E+02 0.12120080041E+02 0.81156559582E+01 0.57785198123E+01
 0.46169313805E+01 0.40495184863E+01 0.36683832090E+01 0.34266576049E+01 0.33111139026E+01
 0.33111139290E+01 0.34266575319E+01 0.36683826886E+01 0.40495172371E+01 0.46169294422E+01
 0.57785176245E+01 0.81156541805E+01 0.12120079173E+02 0.18107073550E+02 0.26171170146E+02
 0.36179014477E+02 0.47779559445E+02 0.60412479202E+02 0.73313261672E+02 0.85535672528E+02
 0.96021310922E+02 0.10373146923E+03 0.10782374194E+03 0.10782374531E+03 0.92349016726E+02
 0.83883478431E+02 0.73313273296E+02 0.61613694892E+02 0.49722401253E+02 0.38446623398E+02
 0.28418257993E+02 0.20075748562E+02 0.13650887164E+02 0.91545703553E+01 0.63740421390E+01
 0.49009519539E+01 0.42002808721E+01 0.37686621713E+01 0.34752793134E+01 0.33088039176E+01
 0.32552642824E+01 0.33088042717E+01 0.34752796213E+01 0.37686618997E+01 0.42002797351E+01
 0.49009501769E+01 0.63740404274E+01 0.91545695401E+01 0.13650887677E+02 0.20075750002E+02
 0.28418259046E+02 0.38446622219E+02 0.49722396202E+02 0.61613685344E+02 0.73313260159E+02
 0.83883464111E+02 0.92349004493E+02 0.97837872688E+02 0.99740635961E+02 0.97837879741E+02
 0.79116709873E+02 0.70500438891E+02 0.60412487270E+02 0.49722401253E+02 0.39231904628E+02
 0.29610499400E+02 0.21360932081E+02 0.14796833846E+02 0.10023195993E+02 0.69260083150E+01
 0.51872288538E+01 0.43375467803E+01 0.38607984349E+01 0.35242958188E+01 0.33138900195E+01
 0.32141279119E+01 0.32141283689E+01 0.33138910902E+01 0.35242967820E+01 0.38607985874E+01
 0.43375458946E+01 0.51872273870E+01 0.69260072271E+01 0.10023196230E+02 0.14796835730E+02
 0.21360934928E+02 0.29610501593E+02 0.39231904192E+02 0.49722396711E+02 0.60412478422E+02
 0.70500427155E+02 0.79116697985E+02 0.85427994926E+02 0.88769232217E+02 0.88769235487E+02
 0.85428003773E+02 0.65188462265E+02 0.56942685231E+02 0.47779563708E+02 0.38446623398E+02
 0.29610499400E+02 0.21807553262E+02 0.15410187506E+02 0.10600260908E+02 0.73519289731E+01
 0.54360988647E+01 0.44588253139E+01 0.39385198682E+01 0.35690014957E+01 0.33229010888E+01
 0.31850551593E+01 0.31410025741E+01 0.31850564038E+01 0.33229028976E+01 0.35690028770E+01
 0.39385200655E+01 0.44588242466E+01 0.54360972226E+01 0.73519278946E+01 0.10600261383E+02
 0.15410189787E+02 0.21807556594E+02 0.29610502224E+02 0.38446623985E+02 0.47779560952E+02
 0.56942679246E+02 0.65188454495E+02 0.71764060356E+02 0.76012748250E+02 0.77482776606E+02
 0.76012752596E+02 0.71764067587E+02 0.51579962382E+02 0.44107631614E+02 0.36179015848E+02
 0.28418257993E+02 0.21360932081E+02 0.15410187506E+02 0.10802485701E+02 0.75839367710E+01
 0.56061034214E+01 0.45520949249E+01 0.39970345349E+01 0.36055147377E+01 0.33327210589E+01
 0.31651825403E+01 0.30865645537E+01 0.30865652504E+01 0.31651842721E+01 0.33327229244E+01
 0.36055157326E+01 0.39970340470E+01 0.45520930474E+01 0.56061009306E+01 0.75839347756E+01
 0.10802485124E+02 0.15410188643E+02 0.21360934443E+02 0.28418260516E+02 0.36179017375E+02
 0.44107631428E+02 0.51579960538E+02 0.57941902028E+02 0.62585900119E+02 0.65038241345E+02
 0.65038242257E+02 0.62585902443E+02 0.57941904715E+02 0.39096179647E+02 0.32678741728E+02
 0.26171170133E+02 0.20075748562E+02 0.14796833846E+02 0.10600260908E+02 0.75839367710E+01
 0.56665288169E+01 0.46032590053E+01 0.40332284667E+01 0.36311271677E+01 0.33410447129E+01
 0.31520877009E+01 0.30477133569E+01 0.30145855873E+01 0.30477142096E+01 0.31520889594E+01
 0.33410456646E+01 0.36311271218E+01 0.40332270345E+01 0.46032562601E+01 0.56665252784E+01
 0.75839332234E+01 0.10600258136E+02 0.14796832385E+02 0.20075748564E+02 0.26171171375E+02
 0.32678743734E+02 0.39096181874E+02 0.44873375889E+02 0.49472936076E+02 0.52438875735E+02
 0.53463758752E+02 0.52438874985E+02 0.49472934630E+02 0.44873373901E+02 0.28315989902E+02
 0.23121693483E+02 0.18107073569E+02 0.13650887164E+02 0.10023195993E+02 0.73519289731E+01
 0.56061034214E+01 0.46032590053E+01 0.40454589601E+01 0.36442712854E+01 0.33464752775E+01
 0.31441024802E+01 0.30218016845E+01 0.29649410836E+01 0.29649411018E+01 0.30218017260E+01
 0.31441024817E+01 0.33464750728E+01 0.36442705772E+01 0.40454573677E+01 0.46032561980E+01
 0.56060993050E+01 0.73519238405E+01 0.10023190559E+02 0.13650882426E+02 0.18107070520E+02
 0.23121692768E+02 0.28315991549E+02 0.33246470993E+02 0.37456133637E+02 0.40530519798E+02
 0.42153445700E+02 0.42153444563E+02 0.40530516780E+02 0.37456129786E+02 0.33246467650E+02
 0.19597943540E+02 0.15685338955E+02 0.12120080041E+02 0.91545703553E+01 0.69260083150E+01
 0.54360988647E+01 0.45520949249E+01 0.40332284667E+01 0.36442712854E+01 0.33483469358E+01