   1   1   1   0
  0.1249929E+02  0.2604954E-09  0.2604954E-09  0.2604954E-09  0.5000000E-15
  1.000000000000000E-004
  CAR 
 Co-fcc                                  
     50.68450785     -1.98205852  301      8.50760937      1.00000000
     -1.982  0.0000E+00  0.0000E+00  0.0000E+00  0.0000E+00
     -1.807  0.0000E+00  0.0000E+00  0.0000E+00  0.0000E+00
     -1.631  0.0000E+00  0.0000E+00  0.0000E+00  0.0000E+00
     -1.455  0.0000E+00  0.0000E+00  0.0000E+00  0.0000E+00
     -1.280  0.0000E+00  0.0000E+00  0.0000E+00  0.0000E+00
     -1.104  0.0000E+00  0.0000E+00  0.0000E+00  0.0000E+00
     -0.929  0.0000E+00  0.0000E+00  0.0000E+00  0.0000E+00
     -0.753  0.0000E+00  0.0000E+00  0.0000E+00  0.0000E+00
     -0.578  0.0000E+00  0.0000E+00  0.0000E+00  0.0000E+00
     -0.402  0.0000E+00  0.0000E+00  0.0000E+00  0.0000E+00
     -0.227  0.0000E+00  0.0000E+00  0.0000E+00  0.0000E+00
     -0.051  0.0000E+00  0.0000E+00  0.0000E+00  0.0000E+00
      0.125  0.1235E-19  0.4941E-19  0.2168E-20  0.8674E-20
      0.300  0.7504E-07  0.1756E-06  0.1317E-07  0.3083E-07
      0.476  0.2094E-03  0.2144E-03  0.3677E-04  0.3768E-04
      0.651  0.1311E-04  0.7983E-05  0.3907E-04  0.3908E-04
      0.827  0.5813E-03  0.6043E-03  0.1411E-03  0.1452E-03
      1.002  0.8626E-04  0.6321E-04  0.1563E-03  0.1563E-03
      1.178  0.5610E-03  0.5709E-03  0.2547E-03  0.2565E-03
      1.353  0.1065E-03  0.9667E-04  0.2734E-03  0.2734E-03
      1.529  0.7781E-03  0.7510E-03  0.4100E-03  0.4053E-03
      1.705  0.1124E-03  0.1391E-03  0.4298E-03  0.4297E-03
      1.880  0.1265E-02  0.1187E-02  0.6518E-03  0.6381E-03
      2.056  0.8404E-04  0.1486E-03  0.6665E-03  0.6642E-03
      2.231  0.6523E-03  0.6495E-03  0.7811E-03  0.7782E-03
      2.407  0.1847E-03  0.2561E-04  0.8135E-03  0.7827E-03
      2.582  0.1152E-02  0.1318E-02  0.1016E-02  0.1014E-02
      2.758  0.1631E-02  0.2636E-03  0.1302E-02  0.1060E-02
      2.933  0.4427E-03  0.1748E-02  0.1380E-02  0.1367E-02
      3.109  0.7224E-03  0.4293E-03  0.1507E-02  0.1443E-02
      3.285  0.9649E-03  0.2737E-03  0.1676E-02  0.1491E-02
      3.460  0.2425E-02  0.1448E-02  0.2102E-02  0.1745E-02
      3.636  0.1382E-02  0.1166E-02  0.2344E-02  0.1949E-02
      3.811  0.1841E-02  0.9124E-03  0.2668E-02  0.2110E-02
      3.987  0.4756E-02  0.1412E-02  0.3503E-02  0.2358E-02
      4.162  0.8715E-02  0.1108E-02  0.5033E-02  0.2552E-02
      4.338  0.5096E-02  0.1341E-02  0.5927E-02  0.2787E-02
      4.513  0.1069E-01  0.2124E-02  0.7804E-02  0.3160E-02
      4.689  0.9799E-02  0.2153E-02  0.9524E-02  0.3538E-02
      4.865  0.1211E-01  0.1619E-02  0.1165E-01  0.3822E-02
      5.040  0.9512E-02  0.4538E-02  0.1332E-01  0.4619E-02
      5.216  0.1175E-01  0.3178E-02  0.1538E-01  0.5177E-02
      5.391  0.8371E-02  0.5782E-02  0.1685E-01  0.6192E-02
      5.567  0.1220E-01  0.3470E-02  0.1899E-01  0.6801E-02
      5.742  0.1570E-01  0.5487E-02  0.2175E-01  0.7765E-02
      5.918  0.1678E-01  0.6776E-02  0.2470E-01  0.8954E-02
      6.093  0.2109E-01  0.8856E-02  0.2840E-01  0.1051E-01
      6.269  0.1738E-01  0.9669E-02  0.3145E-01  0.1221E-01
      6.445  0.1180E-01  0.6496E-02  0.3352E-01  0.1335E-01
      6.620  0.1542E-01  0.9795E-02  0.3623E-01  0.1507E-01
      6.796  0.1769E-01  0.6970E-02  0.3933E-01  0.1629E-01
      6.971  0.1413E-01  0.1265E-01  0.4182E-01  0.1851E-01
      7.147  0.1143E-01  0.1094E-01  0.4382E-01  0.2043E-01
      7.322  0.1638E-01  0.1102E-01  0.4670E-01  0.2237E-01
      7.498  0.2141E-01  0.1259E-01  0.5046E-01  0.2458E-01
      7.673  0.1130E-01  0.1329E-01  0.5244E-01  0.2691E-01
      7.849  0.1957E-02  0.1435E-01  0.5278E-01  0.2943E-01
      8.025  0.4367E-03  0.1227E-01  0.5286E-01  0.3158E-01
      8.200  0.1267E-02  0.9100E-02  0.5308E-01  0.3318E-01
      8.376  0.2779E-02  0.8308E-02  0.5357E-01  0.3464E-01
      8.551  0.1781E-02  0.1323E-01  0.5388E-01  0.3696E-01
      8.727  0.1797E-03  0.1224E-01  0.5391E-01  0.3911E-01
      8.902  0.1310E-02  0.1378E-01  0.5414E-01  0.4153E-01
      9.078  0.3445E-02  0.9603E-02  0.5475E-01  0.4322E-01
      9.253  0.9343E-03  0.1584E-01  0.5491E-01  0.4600E-01
      9.429  0.1456E-02  0.2065E-01  0.5517E-01  0.4962E-01
      9.605  0.9306E-03  0.1751E-01  0.5533E-01  0.5270E-01
      9.780  0.1197E-02  0.9450E-03  0.5554E-01  0.5286E-01
      9.956  0.2471E-03  0.4589E-02  0.5559E-01  0.5367E-01
     10.131  0.2428E-02  0.2812E-02  0.5601E-01  0.5416E-01
     10.307  0.7457E-03  0.1875E-02  0.5614E-01  0.5449E-01
     10.482  0.3220E-02  0.1016E-02  0.5671E-01  0.5467E-01
     10.658  0.1396E-02  0.1853E-02  0.5695E-01  0.5499E-01
     10.833  0.6558E-03  0.2713E-02  0.5707E-01  0.5547E-01
     11.009  0.1778E-03  0.2114E-02  0.5710E-01  0.5584E-01
     11.185  0.1169E-02  0.1100E-02  0.5730E-01  0.5604E-01
     11.360  0.1041E-03  0.2037E-02  0.5732E-01  0.5639E-01
     11.536  0.2660E-02  0.2284E-02  0.5779E-01  0.5679E-01
     11.711  0.2463E-02  0.1575E-02  0.5822E-01  0.5707E-01
     11.887  0.7086E-03  0.3698E-04  0.5835E-01  0.5708E-01
     12.062  0.7251E-04  0.1892E-02  0.5836E-01  0.5741E-01
     12.238  0.9855E-03  0.1005E-02  0.5853E-01  0.5759E-01
     12.413  0.2350E-02  0.2405E-02  0.5894E-01  0.5801E-01
     12.589  0.1963E-05  0.9846E-03  0.5895E-01  0.5818E-01
     12.765  0.1385E-03  0.1066E-02  0.5897E-01  0.5837E-01
     12.940  0.1196E-02  0.6211E-03  0.5918E-01  0.5848E-01
     13.116  0.8496E-04  0.2508E-02  0.5919E-01  0.5892E-01
     13.291  0.8050E-03  0.1753E-03  0.5934E-01  0.5895E-01
     13.467  0.1183E-02  0.1315E-02  0.5954E-01  0.5918E-01
     13.642  0.1985E-02  0.4977E-05  0.5989E-01  0.5918E-01
     13.818  0.1502E-02  0.1483E-03  0.6016E-01  0.5921E-01
     13.993  0.4533E-03  0.1828E-02  0.6024E-01  0.5953E-01
     14.169  0.1436E-02  0.2839E-03  0.6049E-01  0.5958E-01
     14.345  0.2017E-02  0.1077E-02  0.6084E-01  0.5977E-01
     14.520  0.2513E-02  0.2176E-04  0.6128E-01  0.5977E-01
     14.696  0.9281E-03  0.1702E-02  0.6145E-01  0.6007E-01
     14.871  0.1195E-02  0.2499E-02  0.6166E-01  0.6051E-01
     15.047  0.1491E-02  0.1766E-02  0.6192E-01  0.6082E-01
     15.222  0.1350E-02  0.2050E-02  0.6215E-01  0.6118E-01
     15.398  0.1303E-02  0.1575E-02  0.6238E-01  0.6145E-01
     15.573  0.2958E-05  0.1376E-02  0.6238E-01  0.6170E-01
     15.749  0.1989E-02  0.1281E-02  0.6273E-01  0.6192E-01
     15.925  0.3102E-02  0.2628E-02  0.6328E-01  0.6238E-01
     16.100  0.2814E-03  0.7897E-05  0.6333E-01  0.6238E-01
     16.276  0.1681E-02  0.7483E-03  0.6362E-01  0.6251E-01
     16.451  0.9557E-03  0.3806E-02  0.6379E-01  0.6318E-01
     16.627  0.5679E-03  0.6932E-03  0.6389E-01  0.6330E-01
     16.802  0.8170E-03  0.9424E-03  0.6403E-01  0.6347E-01
     16.978  0.1095E-02  0.1820E-02  0.6422E-01  0.6379E-01
     17.153  0.1978E-02  0.1643E-03  0.6457E-01  0.6382E-01
     17.329  0.3417E-02  0.1173E-02  0.6517E-01  0.6402E-01
     17.505  0.4694E-03  0.1198E-02  0.6525E-01  0.6423E-01
     17.680  0.1555E-02  0.1043E-02  0.6553E-01  0.6442E-01
     17.856  0.3530E-02  0.2133E-02  0.6615E-01  0.6479E-01
     18.031  0.1929E-02  0.2337E-02  0.6649E-01  0.6520E-01
     18.207  0.1387E-02  0.1333E-02  0.6673E-01  0.6544E-01
     18.382  0.1949E-02  0.3534E-02  0.6707E-01  0.6606E-01
     18.558  0.1977E-02  0.2376E-02  0.6742E-01  0.6647E-01
     18.733  0.1870E-03  0.1256E-02  0.6745E-01  0.6669E-01
     18.909  0.1379E-02  0.2181E-02  0.6769E-01  0.6708E-01
     19.085  0.1445E-02  0.1899E-02  0.6795E-01  0.6741E-01
     19.260  0.2733E-02  0.1177E-02  0.6843E-01  0.6762E-01
     19.436  0.4019E-02  0.4412E-03  0.6913E-01  0.6769E-01
     19.611  0.7699E-03  0.2094E-02  0.6927E-01  0.6806E-01
     19.787  0.1401E-02  0.3303E-02  0.6951E-01  0.6864E-01
     19.962  0.4354E-02  0.3235E-02  0.7028E-01  0.6921E-01
     20.138  0.1857E-02  0.1047E-02  0.7060E-01  0.6939E-01
     20.313  0.1275E-02  0.2109E-02  0.7083E-01  0.6976E-01
     20.489  0.1520E-02  0.3775E-02  0.7109E-01  0.7043E-01
     20.665  0.1296E-02  0.1293E-02  0.7132E-01  0.7065E-01
     20.840  0.2237E-02  0.2489E-02  0.7171E-01  0.7109E-01
     21.016  0.2389E-02  0.1265E-02  0.7213E-01  0.7131E-01
     21.191  0.3419E-02  0.1045E-02  0.7273E-01  0.7150E-01
     21.367  0.1317E-02  0.3632E-02  0.7296E-01  0.7213E-01
     21.542  0.1376E-02  0.3399E-02  0.7321E-01  0.7273E-01
     21.718  0.3154E-02  0.7301E-03  0.7376E-01  0.7286E-01
     21.893  0.2351E-02  0.3422E-02  0.7417E-01  0.7346E-01
     22.069  0.5681E-03  0.1341E-02  0.7427E-01  0.7369E-01
     22.245  0.2926E-02  0.2449E-02  0.7479E-01  0.7412E-01
     22.420  0.1819E-02  0.2511E-02  0.7511E-01  0.7457E-01
     22.596  0.2849E-02  0.1088E-02  0.7561E-01  0.7476E-01
     22.771  0.2731E-02  0.1948E-02  0.7609E-01  0.7510E-01
     22.947  0.2089E-02  0.3465E-02  0.7645E-01  0.7571E-01
     23.122  0.1908E-02  0.2760E-02  0.7679E-01  0.7619E-01
     23.298  0.5006E-02  0.2066E-02  0.7767E-01  0.7655E-01
     23.473  0.1891E-02  0.1819E-02  0.7800E-01  0.7687E-01
     23.649  0.5758E-04  0.5000E-02  0.7801E-01  0.7775E-01
     23.825  0.2964E-02  0.1461E-02  0.7853E-01  0.7801E-01
     24.000  0.3081E-02  0.4340E-03  0.7907E-01  0.7808E-01
     24.176  0.1516E-02  0.3467E-02  0.7934E-01  0.7869E-01
     24.351  0.2670E-02  0.2298E-02  0.7980E-01  0.7910E-01
     24.527  0.5223E-03  0.1802E-02  0.7990E-01  0.7941E-01
     24.702  0.1357E-02  0.2384E-02  0.8013E-01  0.7983E-01
     24.878  0.2095E-02  0.9547E-03  0.8050E-01  0.8000E-01
     25.053  0.1629E-02  0.1592E-02  0.8079E-01  0.8028E-01
     25.229  0.2322E-02  0.1337E-02  0.8120E-01  0.8051E-01
     25.405  0.2743E-02  0.2679E-02  0.8168E-01  0.8098E-01
     25.580  0.1657E-02  0.2390E-02  0.8197E-01  0.8140E-01
     25.756  0.2361E-02  0.2426E-02  0.8238E-01  0.8183E-01
     25.931  0.1202E-04  0.2184E-02  0.8238E-01  0.8221E-01
     26.107  0.3338E-02  0.9768E-03  0.8297E-01  0.8238E-01
     26.282  0.6594E-03  0.1071E-02  0.8309E-01  0.8257E-01
     26.458  0.9819E-04  0.2735E-02  0.8310E-01  0.8305E-01
     26.633  0.4259E-02  0.2054E-03  0.8385E-01  0.8309E-01
     26.809  0.1113E-02  0.3287E-02  0.8405E-01  0.8366E-01
     26.985  0.2372E-02  0.2191E-02  0.8446E-01  0.8405E-01
     27.160  0.1498E-02  0.2369E-02  0.8473E-01  0.8446E-01
     27.336  0.1579E-02  0.2655E-03  0.8500E-01  0.8451E-01
     27.511  0.1803E-02  0.1737E-02  0.8532E-01  0.8482E-01
     27.687  0.1672E-02  0.2258E-02  0.8561E-01  0.8521E-01
     27.862  0.2199E-02  0.1780E-02  0.8600E-01  0.8553E-01
     28.038  0.1749E-02  0.2065E-02  0.8631E-01  0.8589E-01
     28.213  0.3549E-02  0.2593E-02  0.8693E-01  0.8634E-01
     28.389  0.2024E-02  0.2933E-02  0.8728E-01  0.8686E-01
     28.565  0.2677E-02  0.3066E-02  0.8775E-01  0.8740E-01
     28.740  0.1511E-02  0.2715E-02  0.8802E-01  0.8787E-01
     28.916  0.2784E-02  0.1668E-02  0.8851E-01  0.8817E-01
     29.091  0.1847E-02  0.1890E-02  0.8883E-01  0.8850E-01
     29.267  0.2067E-02  0.1485E-02  0.8920E-01  0.8876E-01
     29.442  0.5091E-02  0.3499E-02  0.9009E-01  0.8937E-01
     29.618  0.3461E-02  0.4850E-02  0.9070E-01  0.9022E-01
     29.793  0.6209E-03  0.3646E-02  0.9081E-01  0.9086E-01
     29.969  0.4714E-02  0.5966E-03  0.9163E-01  0.9097E-01
     30.145  0.2850E-02  0.3514E-02  0.9213E-01  0.9159E-01
     30.320  0.2243E-02  0.4019E-02  0.9253E-01  0.9229E-01
     30.496  0.2368E-02  0.3578E-03  0.9294E-01  0.9235E-01
     30.671  0.3707E-02  0.4997E-02  0.9359E-01  0.9323E-01
     30.847  0.3058E-02  0.3083E-02  0.9413E-01  0.9377E-01
     31.022  0.2082E-02  0.2088E-02  0.9450E-01  0.9414E-01
     31.198  0.2831E-02  0.1187E-02  0.9499E-01  0.9435E-01
     31.373  0.2326E-02  0.3272E-02  0.9540E-01  0.9492E-01
     31.549  0.3645E-02  0.2196E-02  0.9604E-01  0.9531E-01
     31.725  0.3405E-02  0.5483E-02  0.9664E-01  0.9627E-01
     31.900  0.1259E-02  0.1452E-02  0.9686E-01  0.9653E-01
     32.076  0.3335E-02  0.2035E-02  0.9745E-01  0.9688E-01
     32.251  0.3934E-02  0.3547E-02  0.9814E-01  0.9751E-01
     32.427  0.2724E-02  0.3367E-02  0.9861E-01  0.9810E-01
     32.602  0.2004E-02  0.2371E-02  0.9897E-01  0.9851E-01
     32.778  0.3632E-03  0.2841E-02  0.9903E-01  0.9901E-01
     32.953  0.1948E-02  0.5122E-03  0.9937E-01  0.9910E-01
     33.129  0.4614E-03  0.1905E-03  0.9945E-01  0.9913E-01
     33.305  0.2042E-02  0.1838E-02  0.9981E-01  0.9946E-01
     33.480  0.3349E-02  0.2951E-02  0.1004E+00  0.9998E-01
     33.656  0.1723E-02  0.2132E-02  0.1007E+00  0.1004E+00
     33.831  0.2121E-03  0.1382E-03  0.1007E+00  0.1004E+00
     34.007  0.4606E-03  0.1765E-02  0.1008E+00  0.1007E+00
     34.182  0.2318E-02  0.5611E-03  0.1012E+00  0.1008E+00
     34.358  0.2133E-02  0.3725E-02  0.1016E+00  0.1014E+00
     34.533  0.4981E-03  0.9384E-03  0.1017E+00  0.1016E+00
     34.709  0.1854E-02  0.7794E-03  0.1020E+00  0.1017E+00
     34.885  0.4117E-02  0.1569E-02  0.1027E+00  0.1020E+00
     35.060  0.3240E-02  0.1912E-02  0.1033E+00  0.1023E+00
     35.236  0.4639E-02  0.4191E-02  0.1041E+00  0.1031E+00
     35.411  0.1681E-02  0.4441E-02  0.1044E+00  0.1039E+00
     35.587  0.3919E-02  0.3150E-02  0.1051E+00  0.1044E+00
     35.762  0.3521E-02  0.3463E-02  0.1057E+00  0.1050E+00
     35.938  0.3560E-02  0.4078E-02  0.1063E+00  0.1057E+00
     36.113  0.3197E-02  0.2283E-02  0.1069E+00  0.1061E+00
     36.289  0.2223E-02  0.4079E-02  0.1073E+00  0.1069E+00
     36.465  0.1233E-02  0.3031E-02  0.1075E+00  0.1074E+00
     36.640  0.1440E-02  0.1189E-02  0.1078E+00  0.1076E+00
     36.816  0.2200E-02  0.4769E-03  0.1082E+00  0.1077E+00
     36.991  0.2427E-02  0.2895E-02  0.1086E+00  0.1082E+00
     37.167  0.2269E-02  0.2869E-02  0.1090E+00  0.1087E+00
     37.342  0.2927E-02  0.3018E-02  0.1095E+00  0.1092E+00
     37.518  0.2588E-02  0.2156E-02  0.1099E+00  0.1096E+00
     37.693  0.6215E-02  0.2069E-02  0.1110E+00  0.1100E+00
     37.869  0.8015E-03  0.4533E-02  0.1112E+00  0.1108E+00
     38.045  0.9460E-03  0.2528E-02  0.1113E+00  0.1112E+00
     38.220  0.1860E-02  0.2170E-02  0.1117E+00  0.1116E+00
     38.396  0.1941E-02  0.1072E-02  0.1120E+00  0.1118E+00
     38.571  0.1002E-02  0.1462E-03  0.1122E+00  0.1118E+00
     38.747  0.2659E-02  0.3033E-02  0.1127E+00  0.1123E+00
     38.922  0.4670E-03  0.1785E-02  0.1127E+00  0.1126E+00
     39.098  0.4027E-02  0.2023E-02  0.1134E+00  0.1130E+00
     39.273  0.3295E-02  0.3617E-02  0.1140E+00  0.1136E+00
     39.449  0.6801E-03  0.2447E-02  0.1141E+00  0.1141E+00
     39.625  0.2795E-02  0.4322E-03  0.1146E+00  0.1141E+00
     39.800  0.1844E-02  0.1384E-02  0.1150E+00  0.1144E+00
     39.976  0.3530E-04  0.3212E-02  0.1150E+00  0.1149E+00
     40.151  0.7850E-03  0.6562E-04  0.1151E+00  0.1150E+00
     40.327  0.2215E-02  0.8575E-05  0.1155E+00  0.1150E+00
     40.502  0.2335E-02  0.2680E-02  0.1159E+00  0.1154E+00
     40.678  0.1783E-02  0.2647E-02  0.1162E+00  0.1159E+00
     40.853  0.3198E-02  0.1800E-02  0.1168E+00  0.1162E+00
     41.029  0.3633E-03  0.3544E-02  0.1168E+00  0.1168E+00
     41.205  0.1696E-10  0.1336E-05  0.1168E+00  0.1168E+00
     41.380  0.1334E-03  0.1582E-11  0.1169E+00  0.1168E+00
     41.556  0.1351E-02  0.1367E-03  0.1171E+00  0.1169E+00
     41.731  0.3058E-02  0.3037E-02  0.1176E+00  0.1174E+00
     41.907  0.1672E-02  0.2061E-02  0.1179E+00  0.1178E+00
     42.082  0.1136E-02  0.7734E-03  0.1181E+00  0.1179E+00
     42.258  0.6573E-03  0.1531E-02  0.1182E+00  0.1182E+00
     42.433  0.1681E-03  0.4718E-03  0.1183E+00  0.1182E+00
     42.609  0.1836E-02  0.1337E-02  0.1186E+00  0.1185E+00
     42.785  0.7319E-06  0.6657E-03  0.1186E+00  0.1186E+00
     42.960  0.1038E-17  0.9156E-10  0.1186E+00  0.1186E+00
     43.136  0.1776E-05  0.1457E-05  0.1186E+00  0.1186E+00
     43.311  0.1300E-02  0.1295E-02  0.1188E+00  0.1188E+00
     43.487  0.3330E-04  0.3822E-04  0.1188E+00  0.1188E+00
     43.662  0.3706E-19  0.0000E+00  0.1188E+00  0.1188E+00
     43.838  0.3042E-06  0.5341E-12  0.1188E+00  0.1188E+00
     44.013  0.7467E-03  0.9530E-04  0.1190E+00  0.1188E+00
     44.189  0.1462E-02  0.1481E-02  0.1192E+00  0.1191E+00
     44.365  0.4612E-03  0.1094E-02  0.1193E+00  0.1193E+00
     44.540  0.2636E-08  0.1595E-07  0.1193E+00  0.1193E+00
     44.716  0.0000E+00  0.0000E+00  0.1193E+00  0.1193E+00
     44.891  0.0000E+00  0.2223E-17  0.1193E+00  0.1193E+00
     45.067  0.3832E-07  0.1576E-05  0.1193E+00  0.1193E+00
     45.242  0.1376E-02  0.6552E-03  0.1195E+00  0.1194E+00
     45.418  0.2091E-02  0.3979E-03  0.1199E+00  0.1195E+00
     45.593  0.5383E-03  0.9479E-03  0.1200E+00  0.1196E+00
     45.769  0.6262E-08  0.6839E-08  0.1200E+00  0.1196E+00
     45.945  0.0000E+00  0.0000E+00  0.1200E+00  0.1196E+00
     46.120  0.0000E+00  0.1555E-07  0.1200E+00  0.1196E+00
     46.296  0.0000E+00  0.5435E-03  0.1200E+00  0.1197E+00
     46.471  0.0000E+00  0.1240E-03  0.1200E+00  0.1198E+00
     46.647  0.0000E+00  0.1556E-11  0.1200E+00  0.1198E+00
     46.822  0.0000E+00  0.0000E+00  0.1200E+00  0.1198E+00
     46.998  0.0000E+00  0.0000E+00  0.1200E+00  0.1198E+00
     47.173  0.0000E+00  0.0000E+00  0.1200E+00  0.1198E+00
     47.349  0.0000E+00  0.5555E-16  0.1200E+00  0.1198E+00
     47.525  0.0000E+00  0.5355E-05  0.1200E+00  0.1198E+00
     47.700  0.0000E+00  0.6587E-03  0.1200E+00  0.1199E+00
     47.876  0.0000E+00  0.3518E-05  0.1200E+00  0.1199E+00
     48.051  0.0000E+00  0.4267E-14  0.1200E+00  0.1199E+00
     48.227  0.0000E+00  0.2369E-04  0.1200E+00  0.1199E+00
     48.402  0.0000E+00  0.6433E-03  0.1200E+00  0.1200E+00
     48.578  0.0000E+00  0.5269E-06  0.1200E+00  0.1200E+00
     48.753  0.0000E+00  0.0000E+00  0.1200E+00  0.1200E+00
     48.929  0.0000E+00  0.0000E+00  0.1200E+00  0.1200E+00
     49.105  0.0000E+00  0.0000E+00  0.1200E+00  0.1200E+00
     49.280  0.0000E+00  0.0000E+00  0.1200E+00  0.1200E+00
     49.456  0.0000E+00  0.0000E+00  0.1200E+00  0.1200E+00
     49.631  0.0000E+00  0.0000E+00  0.1200E+00  0.1200E+00
     49.807  0.0000E+00  0.0000E+00  0.1200E+00  0.1200E+00
     49.982  0.0000E+00  0.0000E+00  0.1200E+00  0.1200E+00
     50.158  0.0000E+00  0.0000E+00  0.1200E+00  0.1200E+00
     50.333  0.0000E+00  0.0000E+00  0.1200E+00  0.1200E+00
     50.509  0.0000E+00  0.0000E+00  0.1200E+00  0.1200E+00
     50.685  0.0000E+00  0.0000E+00  0.1200E+00  0.1200E+00
     50.68450785     -1.98205852  301      8.50760937      1.00000000
     -1.982  0.0000E+00  0.0000E+00  0.0000E+00  0.0000E+00  0.0000E+00  0.0000E+00  0.0000E+00  0.0000E+00  0.0000E+00  0.0000E+00  0.0000E+00  0.0000E+00  0.0000E+00  0.0000E+00  0.0000E+00  0.0000E+00  0.0000E+00  0.0000E+00
     -1.807  0.0000E+00  0.0000E+00  0.0000E+00  0.0000E+00  0.0000E+00  0.0000E+00  0.0000E+00  0.0000E+00  0.0000E+00  0.0000E+00  0.0000E+00  0.0000E+00  0.0000E+00  0.0000E+00  0.0000E+00  0.0000E+00  0.0000E+00  0.0000E+00
     -1.631  0.0000E+00  0.0000E+00  0.0000E+00  0.0000E+00  0.0000E+00  0.0000E+00  0.0000E+00  0.0000E+00  0.0000E+00  0.0000E+00  0.0000E+00  0.0000E+00  0.0000E+00  0.0000E+00  0.0000E+00  0.0000E+00  0.0000E+00  0.0000E+00
     -1.455  0.0000E+00  0.0000E+00  0.0000E+00  0.0000E+00  0.0000E+00  0.0000E+00  0.0000E+00  0.0000E+00  0.0000E+00  0.0000E+00  0.0000E+00  0.0000E+00  0.0000E+00  0.0000E+00  0.0000E+00  0.0000E+00  0.0000E+00  0.0000E+00
     -1.280  0.0000E+00  0.0000E+00  0.0000E+00  0.0000E+00  0.0000E+00  0.0000E+00  0.0000E+00  0.0000E+00  0.0000E+00  0.0000E+00  0.0000E+00  0.0000E+00  0.0000E+00  0.0000E+00  0.0000E+00  0.0000E+00  0.0000E+00  0.0000E+00
     -1.104  0.0000E+00  0.0000E+00  0.0000E+00  0.0000E+00  0.0000E+00  0.0000E+00  0.0000E+00  0.0000E+00  0.0000E+00  0.0000E+00  0.0000E+00  0.0000E+00  0.0000E+00  0.0000E+00  0.0000E+00  0.0000E+00  0.0000E+00  0.0000E+00
     -0.929  0.0000E+00  0.0000E+00  0.0000E+00  0.0000E+00  0.0000E+00  0.0000E+00  0.0000E+00  0.0000E+00  0.0000E+00  0.0000E+00  0.0000E+00  0.0000E+00  0.0000E+00  0.0000E+00  0.0000E+00  0.0000E+00  0.0000E+00  0.0000E+00
     -0.753  0.0000E+00  0.0000E+00  0.0000E+00  0.0000E+00  0.0000E+00  0.0000E+00  0.0000E+00  0.0000E+00  0.0000E+00  0.0000E+00  0.0000E+00  0.0000E+00  0.0000E+00  0.0000E+00  0.0000E+00  0.0000E+00  0.0000E+00  0.0000E+00
     -0.578  0.0000E+00  0.0000E+00  0.0000E+00  0.0000E+00  0.0000E+00  0.0000E+00  0.0000E+00  0.0000E+00  0.0000E+00  0.0000E+00  0.0000E+00  0.0000E+00  0.0000E+00  0.0000E+00  0.0000E+00  0.0000E+00  0.0000E+00  0.0000E+00
     -0.402  0.0000E+00  0.0000E+00  0.0000E+00  0.0000E+00  0.0000E+00  0.0000E+00  0.0000E+00  0.0000E+00  0.0000E+00  0.0000E+00  0.0000E+00  0.0000E+00  0.0000E+00  0.0000E+00  0.0000E+00  0.0000E+00  0.0000E+00  0.0000E+00
     -0.227  0.0000E+00  0.0000E+00  0.0000E+00  0.0000E+00  0.0000E+00  0.0000E+00  0.0000E+00  0.0000E+00  0.0000E+00  0.0000E+00  0.0000E+00  0.0000E+00  0.0000E+00  0.0000E+00  0.0000E+00  0.0000E+00  0.0000E+00  0.0000E+00
     -0.051  0.0000E+00  0.0000E+00  0.0000E+00  0.0000E+00  0.0000E+00  0.0000E+00  0.0000E+00  0.0000E+00  0.0000E+00  0.0000E+00  0.0000E+00  0.0000E+00  0.0000E+00  0.0000E+00  0.0000E+00  0.0000E+00  0.0000E+00  0.0000E+00
      0.125  0.7553E-18  0.2998E-17  0.3384E-20  0.1357E-19  0.3384E-20  0.1357E-19  0.3384E-20  0.1357E-19  0.5689E-22  0.1571E-21  0.5689E-22  0.1571E-21  0.5570E-36  0.8682E-35  0.5689E-22  0.1571E-21  0.5570E-36  0.8682E-35
      0.300  0.4589E-05  0.1066E-04  0.2055E-07  0.4825E-07  0.2055E-07  0.4825E-07  0.2055E-07  0.4825E-07  0.3456E-09  0.5583E-09  0.3456E-09  0.5583E-09  0.3384E-23  0.3086E-22  0.3456E-09  0.5583E-09  0.3384E-23  0.3086E-22
      0.476  0.1280E-01  0.1301E-01  0.5735E-04  0.5891E-04  0.5735E-04  0.5891E-04  0.5735E-04  0.5891E-04  0.9643E-06  0.6817E-06  0.9643E-06  0.6817E-06  0.9441E-20  0.3768E-19  0.9643E-06  0.6817E-06  0.9441E-20  0.3768E-19
      0.651  0.8013E-03  0.4842E-03  0.3620E-05  0.2255E-05  0.3620E-05  0.2255E-05  0.3620E-05  0.2255E-05  0.6146E-07  0.2690E-07  0.6146E-07  0.2690E-07  0.1735E-08  0.2413E-08  0.6146E-07  0.2690E-07  0.1735E-08  0.2413E-08
      0.827  0.3426E-01  0.3534E-01  0.5702E-03  0.5954E-03  0.5702E-03  0.5954E-03  0.5702E-03  0.5954E-03  0.1793E-04  0.1251E-04  0.1793E-04  0.1251E-04  0.2408E-04  0.1684E-04  0.1793E-04  0.1251E-04  0.2408E-04  0.1684E-04
      1.002  0.5084E-02  0.3696E-02  0.8463E-04  0.6230E-04  0.8463E-04  0.6230E-04  0.8463E-04  0.6230E-04  0.2664E-05  0.1312E-05  0.2664E-05  0.1312E-05  0.3573E-05  0.1761E-05  0.2664E-05  0.1312E-05  0.3573E-05  0.1761E-05
      1.178  0.3182E-01  0.3214E-01  0.9154E-03  0.9410E-03  0.9154E-03  0.9410E-03  0.9154E-03  0.9410E-03  0.9737E-04  0.6445E-04  0.9737E-04  0.6445E-04  0.2233E-04  0.1528E-04  0.9737E-04  0.6445E-04  0.2233E-04  0.1528E-04
      1.353  0.6041E-02  0.5443E-02  0.1738E-03  0.1594E-03  0.1738E-03  0.1594E-03  0.1738E-03  0.1594E-03  0.1849E-04  0.1092E-04  0.1849E-04  0.1092E-04  0.4254E-05  0.2592E-05  0.1849E-04  0.1092E-04  0.4254E-05  0.2592E-05
      1.529  0.4226E-01  0.4058E-01  0.1759E-02  0.1721E-02  0.1759E-02  0.1721E-02  0.1759E-02  0.1721E-02  0.1570E-03  0.9387E-04  0.1570E-03  0.9387E-04  0.2685E-03  0.1608E-03  0.1570E-03  0.9387E-04  0.2685E-03  0.1608E-03
      1.705  0.6104E-02  0.7516E-02  0.2552E-03  0.3194E-03  0.2552E-03  0.3194E-03  0.2552E-03  0.3194E-03  0.1961E-04  0.1575E-04  0.1961E-04  0.1575E-04  0.4232E-04  0.3163E-04  0.1961E-04  0.1575E-04  0.4232E-04  0.3163E-04
      1.880  0.6575E-01  0.6156E-01  0.3567E-02  0.3421E-02  0.3567E-02  0.3421E-02  0.3567E-02  0.3421E-02  0.6413E-03  0.3720E-03  0.6413E-03  0.3720E-03  0.4488E-03  0.2596E-03  0.6413E-03  0.3720E-03  0.4488E-03  0.2596E-03
      2.056  0.4334E-02  0.7706E-02  0.2417E-03  0.4287E-03  0.2417E-03  0.4287E-03  0.2417E-03  0.4287E-03  0.5470E-04  0.4697E-04  0.5470E-04  0.4697E-04  0.2783E-04  0.3243E-04  0.5470E-04  0.4697E-04  0.2783E-04  0.3243E-04
      2.231  0.3226E-01  0.3228E-01  0.2057E-02  0.2157E-02  0.2057E-02  0.2157E-02  0.2057E-02  0.2157E-02  0.8902E-03  0.5038E-03  0.8902E-03  0.5038E-03  0.1393E-03  0.8397E-04  0.8902E-03  0.5038E-03  0.1393E-03  0.8397E-04
      2.407  0.8594E-02  0.1252E-02  0.6982E-03  0.9035E-04  0.6982E-03  0.9035E-04  0.6982E-03  0.9035E-04  0.1335E-03  0.1751E-04  0.1335E-03  0.1751E-04  0.3287E-03  0.9524E-05  0.1335E-03  0.1751E-04  0.3287E-03  0.9524E-05
      2.582  0.5371E-01  0.6219E-01  0.4352E-02  0.5206E-02  0.4352E-02  0.5206E-02  0.4352E-02  0.5206E-02  0.1011E-02  0.6607E-03  0.1011E-02  0.6607E-03  0.1745E-02  0.1131E-02  0.1011E-02  0.6607E-03  0.1745E-02  0.1131E-02
      2.758  0.7144E-01  0.1191E-01  0.6438E-02  0.1107E-02  0.6438E-02  0.1107E-02  0.6438E-02  0.1107E-02  0.3330E-02  0.3561E-03  0.3330E-02  0.3561E-03  0.2409E-02  0.1468E-03  0.3330E-02  0.3561E-03  0.2409E-02  0.1468E-03
      2.933  0.1916E-01  0.7857E-01  0.1831E-02  0.7553E-02  0.1831E-02  0.7553E-02  0.1831E-02  0.7553E-02  0.6664E-03  0.1734E-02  0.6664E-03  0.1734E-02  0.9609E-03  0.1602E-02  0.6664E-03  0.1734E-02  0.9609E-03  0.1602E-02
      3.109  0.2897E-01  0.1832E-01  0.2844E-02  0.1985E-02  0.2844E-02  0.1985E-02  0.2844E-02  0.1985E-02  0.2776E-02  0.6792E-03  0.2776E-02  0.6792E-03  0.1098E-02  0.4303E-03  0.2776E-02  0.6792E-03  0.1098E-02  0.4303E-03
      3.285  0.3699E-01  0.1161E-01  0.4362E-02  0.1251E-02  0.4362E-02  0.1251E-02  0.4362E-02  0.1251E-02  0.3701E-02  0.5166E-03  0.3701E-02  0.5166E-03  0.1490E-02  0.2394E-03  0.3701E-02  0.5166E-03  0.1490E-02  0.2394E-03
      3.460  0.8328E-01  0.5855E-01  0.9792E-02  0.7317E-02  0.9792E-02  0.7317E-02  0.9792E-02  0.7317E-02  0.1141E-01  0.3119E-02  0.1141E-01  0.3119E-02  0.9855E-02  0.1211E-02  0.1141E-01  0.3119E-02  0.9855E-02  0.1211E-02
      3.636  0.3938E-01  0.4411E-01  0.4751E-02  0.5775E-02  0.4751E-02  0.5775E-02  0.4751E-02  0.5775E-02  0.9996E-02  0.3156E-02  0.9996E-02  0.3156E-02  0.8045E-02  0.2321E-02  0.9996E-02  0.3156E-02  0.8045E-02  0.2321E-02
      3.811  0.4570E-01  0.3416E-01  0.5632E-02  0.4548E-02  0.5632E-02  0.4548E-02  0.5632E-02  0.4548E-02  0.1676E-01  0.2119E-02  0.1676E-01  0.2119E-02  0.1211E-01  0.2448E-02  0.1676E-01  0.2119E-02  0.1211E-01  0.2448E-02
      3.987  0.7778E-01  0.4850E-01  0.8942E-02  0.7672E-02  0.8942E-02  0.7672E-02  0.8942E-02  0.7672E-02  0.4253E-01  0.2248E-02  0.4253E-01  0.2248E-02  0.7256E-01  0.6743E-02  0.4253E-01  0.2248E-02  0.7256E-01  0.6743E-02
      4.162  0.1200E+00  0.3656E-01  0.1682E-01  0.5283E-02  0.1682E-01  0.5283E-02  0.1682E-01  0.5283E-02  0.7411E-01  0.5873E-02  0.7411E-01  0.5873E-02  0.1540E+00  0.2253E-02  0.7411E-01  0.5873E-02  0.1540E+00  0.2253E-02
      4.338  0.4689E-01  0.4312E-01  0.6489E-02  0.7187E-02  0.6489E-02  0.7187E-02  0.6489E-02  0.7187E-02  0.6139E-01  0.6968E-02  0.6139E-01  0.6968E-02  0.8874E-01  0.2079E-02  0.6139E-01  0.6968E-02  0.8874E-01  0.2079E-02
      4.513  0.7267E-01  0.6200E-01  0.1598E-01  0.1077E-01  0.1598E-01  0.1077E-01  0.1598E-01  0.1077E-01  0.1310E+00  0.1299E-01  0.1310E+00  0.1299E-01  0.1967E+00  0.6051E-02  0.1310E+00  0.1299E-01  0.1967E+00  0.6051E-02
      4.689  0.3407E-01  0.5533E-01  0.9542E-02  0.9438E-02  0.9542E-02  0.9438E-02  0.9542E-02  0.9438E-02  0.1900E+00  0.1264E-01  0.1900E+00  0.1264E-01  0.1153E+00  0.1489E-01  0.1900E+00  0.1264E-01  0.1153E+00  0.1489E-01
      4.865  0.2438E-01  0.3521E-01  0.1632E-01  0.5883E-02  0.1632E-01  0.5883E-02  0.1632E-01  0.5883E-02  0.2222E+00  0.1256E-01  0.2222E+00  0.1256E-01  0.1650E+00  0.1386E-01  0.2222E+00  0.1256E-01  0.1650E+00  0.1386E-01
      5.040  0.9670E-02  0.9134E-01  0.1376E-01  0.1425E-01  0.1376E-01  0.1425E-01  0.1376E-01  0.1425E-01  0.1973E+00  0.5623E-01  0.1973E+00  0.5623E-01  0.1032E+00  0.2014E-01  0.1973E+00  0.5623E-01  0.1032E+00  0.2014E-01
      5.216  0.5529E-02  0.4992E-01  0.1768E-01  0.9022E-02  0.1768E-01  0.9022E-02  0.1768E-01  0.9022E-02  0.2171E+00  0.2403E-01  0.2171E+00  0.2403E-01  0.1717E+00  0.4653E-01  0.2171E+00  0.2403E-01  0.1717E+00  0.4653E-01
      5.391  0.2551E-02  0.7293E-01  0.9666E-02  0.1640E-01  0.9666E-02  0.1640E-01  0.9666E-02  0.1640E-01  0.1555E+00  0.3915E-01  0.1555E+00  0.3915E-01  0.1311E+00  0.1035E+00  0.1555E+00  0.3915E-01  0.1311E+00  0.1035E+00
      5.567  0.8209E-02  0.3745E-01  0.1420E-01  0.6399E-02  0.1420E-01  0.6399E-02  0.1420E-01  0.6399E-02  0.2435E+00  0.3837E-01  0.2435E+00  0.3837E-01  0.1673E+00  0.5364E-01  0.2435E+00  0.3837E-01  0.1673E+00  0.5364E-01
      5.742  0.1318E-01  0.4781E-01  0.2147E-01  0.1607E-01  0.2147E-01  0.1607E-01  0.2147E-01  0.1607E-01  0.3352E+00  0.4461E-01  0.3352E+00  0.4461E-01  0.1794E+00  0.1025E+00  0.3352E+00  0.4461E-01  0.1794E+00  0.1025E+00
      5.918  0.1902E-01  0.3625E-01  0.2143E-01  0.1079E-01  0.2143E-01  0.1079E-01  0.2143E-01  0.1079E-01  0.3154E+00  0.1100E+00  0.3154E+00  0.1100E+00  0.2612E+00  0.8554E-01  0.3154E+00  0.1100E+00  0.2612E+00  0.8554E-01
      6.093  0.1888E-01  0.2280E-01  0.2072E-01  0.1741E-01  0.2072E-01  0.1741E-01  0.2072E-01  0.1741E-01  0.4203E+00  0.1530E+00  0.4203E+00  0.1530E+00  0.3173E+00  0.1091E+00  0.4203E+00  0.1530E+00  0.3173E+00  0.1091E+00
      6.269  0.1530E-01  0.5686E-02  0.1867E-01  0.1759E-01  0.1867E-01  0.1759E-01  0.1867E-01  0.1759E-01  0.3241E+00  0.1981E+00  0.3241E+00  0.1981E+00  0.2941E+00  0.9262E-01  0.3241E+00  0.1981E+00  0.2941E+00  0.9262E-01
      6.445  0.5370E-02  0.4806E-02  0.8205E-02  0.1480E-01  0.8205E-02  0.1480E-01  0.8205E-02  0.1480E-01  0.1457E+00  0.1219E+00  0.1457E+00  0.1219E+00  0.3275E+00  0.7223E-01  0.1457E+00  0.1219E+00  0.3275E+00  0.7223E-01
      6.620  0.8214E-02  0.2584E-02  0.1579E-01  0.1978E-01  0.1579E-01  0.1978E-01  0.1579E-01  0.1978E-01  0.1521E+00  0.1957E+00  0.1521E+00  0.1957E+00  0.4742E+00  0.1029E+00  0.1521E+00  0.1957E+00  0.4742E+00  0.1029E+00
      6.796  0.1040E-01  0.9372E-03  0.8489E-02  0.2038E-01  0.8489E-02  0.2038E-01  0.8489E-02  0.2038E-01  0.1923E+00  0.1255E+00  0.1923E+00  0.1255E+00  0.5447E+00  0.7961E-01  0.1923E+00  0.1255E+00  0.5447E+00  0.7961E-01