    1    1  100    2
  0.1249929E+02  0.2604954E-09  0.2604954E-09  0.2604954E-09  0.5000000E-15
  1.000000000000000E-004
  CAR 
 Co-fcc                                  
      9     60     12
 
  0.6250000E-01  0.6250000E-01  0.6250000E-01  0.3906250E-02
      1          0.420359        0.411876   1.000000   1.000000
      2          5.868099        7.561565   1.000000   1.000000
      3          5.931380        7.640863   1.000000   1.000000
      4          5.931380        7.640863   1.000000   1.000000
      5          6.692187        8.785134   1.000000   0.000000
      6          6.692187        8.785134   1.000000   0.000000
      7         29.824876       29.576995   0.000000   0.000000
      8         32.025276       32.126387   0.000000   0.000000
      9         33.268711       33.497145   0.000000   0.000000
     10         33.268711       33.497145   0.000000   0.000000
     11         36.799161       37.025073   0.000000   0.000000
     12         36.799161       37.025083   0.000000   0.000000
 
  0.1875000E+00  0.6250000E-01  0.6250000E-01  0.1171875E-01
      1          1.142699        1.140489   1.000000   1.000000
      2          5.704321        7.338436   1.000000   1.000000
      3          6.055011        7.788473   1.000000   1.000000
      4          6.061651        7.793892   1.000000   1.000000
      5          6.574609        8.634627   1.000000   0.000164
      6          6.770826        8.847029   1.000000   0.000000
      7         26.611053       26.816193   0.000000   0.000000
      8         29.118783       29.239567   0.000000   0.000000
      9         32.533751       32.515089   0.000000   0.000000
     10         34.211368       34.445314   0.000000   0.000000
     11         36.088184       35.994987   0.000000   0.000000
     12         37.013183       37.182460   0.000000   0.000000
 
  0.3125000E+00  0.6250000E-01  0.6250000E-01  0.1171875E-01
      1          2.689191        2.783339   1.000000   1.000000
      2          5.632354        7.058751   1.000000   1.000000
      3          5.997531        7.791665   1.000000   1.000000
      4          6.053269        7.875881   1.000000   1.000000
      5          6.770381        8.749512   1.000000   0.000000
      6          7.116311        9.120582   1.000000   0.000000
      7         20.764787       21.200102   0.000000   0.000000
      8         28.120259       28.245457   0.000000   0.000000
      9         31.543022       31.495274   0.000000   0.000000
     10         33.486666       33.861797   0.000000   0.000000
     11         34.859409       35.065547   0.000000   0.000000
     12         35.956546       36.000675   0.000000   0.000000
 
  0.4375000E+00  0.6250000E-01  0.6250000E-01  0.1171875E-01
      1          3.792391        4.489552   1.000000   1.000000
      2          5.808073        7.368368   1.000000   1.000000
      3          5.882913        7.627145   1.000000   1.000000
      4          6.566914        7.719557   1.000000   1.000000
      5          7.218116        9.215746   1.000000   0.000000
      6          7.852515        9.600738   1.000000   0.000000
      7         15.693482       16.414482   0.000000   0.000000
      8         27.831282       27.848410   0.000000   0.000000
      9         30.238121       30.269474   0.000000   0.000000
     10         31.475394       31.815329   0.000000   0.000000
     11         34.060575       34.315945   0.000000   0.000000
     12         35.573571       35.751992   0.000000   0.000000
 
 -0.4375000E+00  0.6250000E-01  0.6250000E-01  0.1171875E-01
      1          3.922053        4.908851   1.000000   1.000000
      2          5.730263        7.506684   1.000000   1.000000
      3          5.840366        7.669541   1.000000   1.000000
      4          6.992722        7.937872   1.000000   1.000000
      5          7.439940        9.472191   1.000000   0.000000
      6          8.779554        9.844264   0.000000   0.000000
      7         13.576436       14.585426   0.000000   0.000000
      8         28.207302       28.027333   0.000000   0.000000
      9         29.828772       30.146805   0.000000   0.000000
     10         30.041248       30.282437   0.000000   0.000000
     11         34.793599       35.045186   0.000000   0.000000
     12         34.928763       35.110012   0.000000   0.000000
 
 -0.3125000E+00  0.6250000E-01  0.6250000E-01  0.1171875E-01
      1          3.577155        4.020371   1.000000   1.000000
      2          5.839429        7.129613   1.000000   1.000000
      3          5.957216        7.668552   1.000000   1.000000
      4          6.104062        7.782765   1.000000   1.000000
      5          7.272388        9.211538   1.000000   0.000000
      6          7.367351        9.303721   1.000000   0.000000
      7         17.238249       17.841059   0.000000   0.000000
      8         28.928353       28.703683   0.000000   0.000000
      9         29.343034       29.680422   0.000000   0.000000
     10         31.442649       31.800112   0.000000   0.000000
     11         34.850564       34.990188   0.000000   0.000000
     12         36.437213       36.638788   0.000000   0.000000
 
 -0.1875000E+00  0.6250000E-01  0.6250000E-01  0.1171875E-01
      1          2.127533        2.162413   1.000000   1.000000
      2          5.586007        7.114036   1.000000   1.000000
      3          6.049661        7.845192   1.000000   1.000000
      4          6.099897        7.882810   1.000000   1.000000
      5          6.711950        8.682484   1.000000   0.000000
      6          6.908237        8.960600   1.000000   0.000000
      7         22.667888       23.033553   0.000000   0.000000
      8         29.811315       29.657840   0.000000   0.000000
      9         29.876526       30.219856   0.000000   0.000000
     10         34.028693       34.312260   0.000000   0.000000
     11         34.763558       34.825619   0.000000   0.000000
     12         38.496043       38.646116   0.000000   0.000000
 
 -0.6250000E-01  0.6250000E-01  0.6250000E-01  0.1171875E-01
      1          0.786864        0.780414   1.000000   1.000000
      2          5.756790        7.421730   1.000000   1.000000
      3          6.019746        7.738335   1.000000   1.000000
      4          6.022887        7.742513   1.000000   1.000000
      5          6.588437        8.654402   1.000000   0.000016
      6          6.746117        8.843937   1.000000   0.000000
      7         28.497487       28.534190   0.000000   0.000000
      8         30.764176       30.733205   0.000000   0.000000
      9         31.246898       31.551963   0.000000   0.000000
     10         33.299354       33.388943   0.000000   0.000000
     11         36.783779       36.937002   0.000000   0.000000
     12         38.585498       38.704356   0.000000   0.000000
 
  0.1875000E+00  0.1875000E+00  0.6250000E-01  0.1171875E-01
      1          1.490144        1.494498   1.000000   1.000000
      2          5.540152        7.155711   1.000000   1.000000
      3          6.170575        7.926120   1.000000   1.000000
      4          6.200281        7.941722   1.000000   1.000000
      5          6.455697        8.442325   1.000000   0.967592
      6          6.846675        8.952729   1.000000   0.000000
      7         26.881017       27.095253   0.000000   0.000000
      8         29.079827       29.409667   0.000000   0.000000
      9         29.498561       29.464605   0.000000   0.000000
     10         31.598902       31.616375   0.000000   0.000000
     11         35.514081       36.163668   0.000000   0.000000
     12         39.160471       39.207336   0.000000   0.000000
 
  0.3125000E+00  0.1875000E+00  0.6250000E-01  0.2343750E-01
      1          2.735678        2.809422   1.000000   1.000000
      2          5.304302        6.836645   1.000000   1.000000
      3          5.981343        7.796449   1.000000   1.000000
      4          6.396574        8.203325   1.000000   1.000000
      5          6.692741        8.568311   1.000000   0.042998
      6          7.176684        9.202777   1.000000   0.000000
      7         23.188896       23.536854   0.000000   0.000000
      8         25.658127       25.922758   0.000000   0.000000
      9         29.338414       29.436924   0.000000   0.000000
     10         31.077793       31.231932   0.000000   0.000000
     11         34.716790       35.206833   0.000000   0.000000
     12         39.042216       39.045705   0.000000   0.000000
 
  0.4375000E+00  0.1875000E+00  0.6250000E-01  0.2343750E-01
      1          4.031559        4.556415   1.000000   1.000000
      2          5.404486        6.732285   1.000000   1.000000
      3          5.753551        7.440581   1.000000   1.000000
      4          6.258186        8.117580   1.000000   1.000000
      5          7.255712        9.220299   1.000000   0.000000
      6          8.252629        9.880464   1.000000   0.000000
      7         17.743846       18.286214   0.000000   0.000000
      8         25.163080       25.401859   0.000000   0.000000
      9         26.857054       27.114848   0.000000   0.000000
     10         30.636332       30.814963   0.000000   0.000000
     11         36.950701       37.056784   0.000000   0.000000
     12         39.016084       39.271904   0.000000   0.000000
 
 -0.4375000E+00  0.1875000E+00  0.6250000E-01  0.2343750E-01
      1          4.325767        5.393820   1.000000   1.000000
      2          5.407356        6.913951   1.000000   1.000000
      3          6.109396        7.476601   1.000000   1.000000
      4          6.184510        7.993601   1.000000   1.000000
      5          7.414816        9.425751   1.000000   0.000000
      6         10.368470       11.262613   0.000000   0.000000
      7         13.802948       14.711429   0.000000   0.000000
      8         24.668050       24.891622   0.000000   0.000000
      9         26.062680       26.385801   0.000000   0.000000
     10         30.580622       30.664378   0.000000   0.000000
     11         36.077203       36.268068   0.000000   0.000000
     12         39.643456       39.708799   0.000000   0.000000
 
 -0.3125000E+00  0.1875000E+00  0.6250000E-01  0.2343750E-01
      1          4.251825        5.013545   1.000000   1.000000
      2          5.527173        6.920914   1.000000   1.000000
      3          5.849393        7.339010   1.000000   1.000000
      4          6.167521        8.037081   1.000000   1.000000
      5          7.165793        9.118939   1.000000   0.000000
      6          9.024983       10.458141   0.000000   0.000000
      7         16.169330       16.817144   0.000000   0.000000
      8         23.789186       24.080402   0.000000   0.000000
      9         27.663489       27.895612   0.000000   0.000000
     10         31.585247       31.671985   0.000000   0.000000
     11         35.511534       35.697454   0.000000   0.000000
     12         39.036905       39.126316   0.000000   0.000000
 
 -0.1875000E+00  0.1875000E+00  0.6250000E-01  0.2343750E-01
      1          3.271097        3.403891   1.000000   1.000000
      2          5.366816        6.853326   1.000000   1.000000
      3          5.847166        7.625975   1.000000   1.000000
      4          6.326910        8.199799   1.000000   1.000000
      5          6.643896        8.538590   1.000000   0.190440
      6          7.601686        9.523791   1.000000   0.000000
      7         21.305822       21.718272   0.000000   0.000000
      8         23.894256       24.200346   0.000000   0.000000
      9         30.154369       30.277117   0.000000   0.000000
     10         33.405485       33.516873   0.000000   0.000000
     11         35.081353       35.179618   0.000000   0.000000
     12         37.570605       37.879692   0.000000   0.000000
 
 -0.6250000E-01  0.1875000E+00  0.6250000E-01  0.2343750E-01
      1          1.822808        1.836924   1.000000   1.000000
      2          5.541144        7.128445   1.000000   1.000000
      3          6.082347        7.855569   1.000000   1.000000
      4          6.199067        7.958499   1.000000   1.000000
      5          6.518835        8.511673   1.000000   0.454251
      6          6.930239        8.989949   1.000000   0.000000
      7         24.809744       25.103527   0.000000   0.000000
      8         27.319586       27.526302   0.000000   0.000000
      9         31.634745       31.652023   0.000000   0.000000
     10         33.291950       33.303332   0.000000   0.000000
     11         35.837466       36.286777   0.000000   0.000000
     12         37.522939       37.665165   0.000000   0.000000
 
  0.3125000E+00  0.3125000E+00  0.6250000E-01  0.1171875E-01
      1          3.384526        3.639800   1.000000   1.000000
      2          4.970219        6.466067   1.000000   1.000000
      3          6.250212        7.891686   1.000000   1.000000
      4          6.740452        8.577119   1.000000   0.024648
      5          7.026076        8.777569   1.000000   0.000000
      6          7.136890        9.251056   1.000000   0.000000
      7         23.768384       24.070655   0.000000   0.000000
      8         25.259636       25.548588   0.000000   0.000000
      9         25.537891       25.766924   0.000000   0.000000
     10         28.120839       28.331464   0.000000   0.000000
     11         31.493589       31.972241   0.000000   0.000000
     12         44.206555       44.143260   0.000000   0.000000
 
  0.4375000E+00  0.3125000E+00  0.6250000E-01  0.2343750E-01
      1          4.086535        4.856979   1.000000   1.000000
      2          4.804975        6.237758   1.000000   1.000000
      3          6.227297        7.681605   1.000000   1.000000
      4          6.917003        8.846788   1.000000   0.000000
      5          7.294104        9.270149   1.000000   0.000000
      6          8.506068        9.959630   0.517388   0.000000
      7         20.597832       20.962673   0.000000   0.000000
      8         22.461030       22.818514   0.000000   0.000000
      9         23.145779       23.481836   0.000000   0.000000
     10         29.227050       29.436068   0.000000   0.000000
     11         32.808338       33.166761   0.000000   0.000000
     12         42.493204       42.597867   0.000000   0.000000
 
 -0.4375000E+00  0.3125000E+00  0.6250000E-01  0.2343750E-01
      1          4.516844        5.791125   1.000000   1.000000
      2          4.910424        6.244599   1.000000   1.000000
      3          5.998229        7.392428   1.000000   1.000000
      4          6.683513        8.656386   1.000000   0.000013
      5          7.473017        9.459815   1.000000   0.000000
      6         11.410877       12.282209   0.000000   0.000000
      7         15.819018       16.373151   0.000000   0.000000
      8         20.286113       20.763145   0.000000   0.000000
      9         23.412606       23.716173   0.000000   0.000000
     10         29.587290       29.775213   0.000000   0.000000
     11         37.614074       37.859811   0.000000   0.000000
     12         40.686593       40.842988   0.000000   0.000000
 
 -0.3125000E+00  0.3125000E+00  0.6250000E-01  0.2343750E-01
      1          4.906749        6.021643   1.000000   1.000000
      2          5.041171        6.516019   1.000000   1.000000
      3          5.636680        7.022240   1.000000   1.000000
      4          6.518087        8.512173   1.000000   0.448653
      5          7.232228        9.137450   1.000000   0.000000
      6         11.662724       12.574799   0.000000   0.000000
      7         15.684804       16.277212   0.000000   0.000000
      8         19.030174       19.534592   0.000000   0.000000
      9         24.994740       25.308049   0.000000   0.000000
     10         30.444510       30.577140   0.000000   0.000000
     11         38.720120       38.760060   0.000000   0.000000
     12         43.241858       43.243967   0.000000   0.000000
 
 -0.1875000E+00  0.3125000E+00  0.6250000E-01  0.2343750E-01
      1          4.487780        5.041071   1.000000   1.000000
      2          5.382728        6.765420   1.000000   1.000000
      3          5.478831        7.163731   1.000000   1.000000
      4          6.381833        8.328124   1.000000   1.000000
      5          6.933007        8.807085   1.000000   0.000000
      6          9.063063       10.579648   0.000000   0.000000
      7         18.267175       18.782972   0.000000   0.000000
      8         21.066195       21.456281   0.000000   0.000000
      9         27.426621       27.680132   0.000000   0.000000
     10         32.069457       32.178624   0.000000   0.000000
     11         36.163630       36.210700   0.000000   0.000000
     12         40.201981       40.419192   0.000000   0.000000
 
 -0.6250000E-01  0.3125000E+00  0.6250000E-01  0.2343750E-01
      1          3.390484        3.627590   1.000000   1.000000
      2          5.602525        6.934102   1.000000   1.000000
      3          5.856168        7.656663   1.000000   1.000000
      4          6.104019        7.942320   1.000000   1.000000
      5          6.966066        8.895176   1.000000   0.000000
      6          7.499572        9.423400   1.000000   0.000000
      7         19.123725       19.621331   0.000000   0.000000
      8         26.556049       26.758847   0.000000   0.000000
      9         29.967841       30.008105   0.000000   0.000000
     10         31.951979       32.247513   0.000000   0.000000
     11         35.710226       35.837671   0.000000   0.000000
     12         37.036323       37.172507   0.000000   0.000000
 
  0.4375000E+00  0.4375000E+00  0.6250000E-01  0.1171875E-01
      1          3.929665        5.072078   1.000000   1.000000
      2          4.510207        5.918683   1.000000   1.000000
      3          7.201376        8.764480   1.000000   0.000000
      4          7.240366        9.262098   1.000000   0.000000
      5          7.492723        9.511361   1.000000   0.000000
      6          9.245349       10.043299   0.000000   0.000000
      7         19.261325       19.857578   0.000000   0.000000
      8         21.612050       21.859971   0.000000   0.000000
      9         22.745257       22.937249   0.000000   0.000000
     10         27.238934       27.555261   0.000000   0.000000
     11         30.313181       30.719114   0.000000   0.000000
     12         45.360551       47.609645   0.000000   0.000000
 
 -0.4375000E+00  0.4375000E+00  0.6250000E-01  0.2343750E-01
      1          4.062463        5.384865   1.000000   1.000000
      2          4.529194        5.911401   1.000000   1.000000
      3          6.915033        8.420709   1.000000   0.993013
      4          7.157276        9.277171   1.000000   0.000000
      5          7.612155        9.563126   1.000000   0.000000
      6         11.583787       12.067125   0.000000   0.000000
      7         17.200225       17.983464   0.000000   0.000000
      8         19.331159       19.646949   0.000000   0.000000
      9         21.638825       21.876971   0.000000   0.000000
     10         28.600130       28.858463   0.000000   0.000000
     11         32.187026       32.544406   0.000000   0.000000
     12         45.208987       45.437421   0.000000   0.000000
 
 -0.3125000E+00  0.4375000E+00  0.6250000E-01  0.2343750E-01
      1          4.480649        5.896792   1.000000   1.000000
      2          4.836098        6.145001   1.000000   1.000000
      3          6.145139        7.534118   1.000000   1.000000
      4          6.814358        8.864479   1.000000   0.000000
      5          7.473531        9.410030   1.000000   0.000000
      6         13.325470       13.920571   0.000000   0.000000
      7         15.290801       15.831372   0.000000   0.000000
      8         17.849502       18.498267   0.000000   0.000000
      9         22.995755       23.292027   0.000000   0.000000
     10         29.422912       29.627200   0.000000   0.000000
     11         37.534115       37.816431   0.000000   0.000000
     12         41.873016       41.913819   0.000000   0.000000
 
 -0.1875000E+00  0.4375000E+00  0.6250000E-01  0.2343750E-01
      1          4.640443        5.783687   1.000000   1.000000
      2          5.173731        6.609805   1.000000   1.000000
      3          5.886717        7.259989   1.000000   1.000000
      4          6.333569        8.258514   1.000000   1.000000
      5          7.342957        9.314575   1.000000   0.000000
      6         11.460285       12.284653   0.000000   0.000000
      7         14.089011       14.905038   0.000000   0.000000
      8         21.683902       22.061820   0.000000   0.000000
      9         25.328227       25.633902   0.000000   0.000000
     10         30.484532       30.592605   0.000000   0.000000
     11         37.407617       37.535542   0.000000   0.000000
     12         41.684331       41.725506   0.000000   0.000000
 
 -0.6250000E-01  0.4375000E+00  0.6250000E-01  0.2343750E-01
      1          4.038620        4.956271   1.000000   1.000000
      2          5.646328        7.263630   1.000000   1.000000
      3          5.952211        7.588140   1.000000   1.000000
      4          6.457924        7.801181   1.000000   1.000000
      5          7.369066        9.376334   1.000000   0.000000
      6          8.925208       10.178213   0.000000   0.000000
      7         14.514124       15.348946   0.000000   0.000000
      8         26.623727       26.722634   0.000000   0.000000
      9         28.217799       28.472315   0.000000   0.000000
     10         30.759276       30.889428   0.000000   0.000000
     11         35.051513       35.282319   0.000000   0.000000
     12         37.186919       37.313949   0.000000   0.000000
 
 -0.4375000E+00 -0.4375000E+00  0.6250000E-01  0.1171875E-01
      1          3.888216        5.180780   1.000000   1.000000
      2          4.405280        5.794819   1.000000   1.000000
      3          7.284578        9.181111   1.000000   0.000000
      4          7.459440        9.444590   1.000000   0.000000
      5          7.621638        9.580468   1.000000   0.000000
      6         10.759567       11.020751   0.000000   0.000000
      7         17.063468       17.890719   0.000000   0.000000
      8         21.102361       21.316234   0.000000   0.000000
      9         22.192720       22.351787   0.000000   0.000000
     10         27.087100       27.428815   0.000000   0.000000
     11         30.151372       30.559220   0.000000   0.000000
     12         45.442116       48.290573   0.000000   0.000000
 
 -0.3125000E+00 -0.4375000E+00  0.6250000E-01  0.2343750E-01
      1          4.117119        5.294638   1.000000   1.000000
      2          4.624804        6.024432   1.000000   1.000000
      3          6.640627        8.068258   1.000000   1.000000
      4          7.108882        9.140428   1.000000   0.000000
      5          7.487720        9.463888   1.000000   0.000000
      6         10.012015       10.930270   0.000000   0.000000
      7         19.401592       19.899286   0.000000   0.000000
      8         19.871891       20.278005   0.000000   0.000000
      9         22.124137       22.387225   0.000000   0.000000
     10         28.800827       29.041000   0.000000   0.000000
     11         32.376721       32.730423   0.000000   0.000000
     12         44.062073       44.215142   0.000000   0.000000
 
 -0.1875000E+00 -0.4375000E+00  0.6250000E-01  0.2343750E-01
      1          4.417402        5.349040   1.000000   1.000000
      2          5.115579        6.474674   1.000000   1.000000
      3          5.822179        7.318973   1.000000   1.000000
      4          6.472712        8.375643   1.000000   0.999905
      5          7.418786        9.427424   1.000000   0.000000
      6          9.597220       10.817555   0.000000   0.000000
      7         16.633449       17.194464   0.000000   0.000000
      8         23.287405       23.599101   0.000000   0.000000
      9         24.291690       24.628943   0.000000   0.000000
     10         29.958517       30.126340   0.000000   0.000000
     11         37.586908       37.745647   0.000000   0.000000
     12         39.587535       39.860660   0.000000   0.000000
 
 -0.3125000E+00 -0.3125000E+00  0.6250000E-01  0.1171875E-01
      1          3.872729        4.609649   1.000000   1.000000
      2          4.707027        6.151985   1.000000   1.000000
      3          6.778521        8.123991   1.000000   1.000000
      4          7.015692        8.945109   1.000000   0.000000
      5          7.308851        9.285723   1.000000   0.000000
      6          7.789936        9.396587   1.000000   0.000000
      7         22.155852       22.517138   0.000000   0.000000
      8         22.654102       22.991489   0.000000   0.000000
      9         23.795587       24.037133   0.000000   0.000000
     10         27.561924       27.830515   0.000000   0.000000
     11         30.709653       31.127705   0.000000   0.000000
     12         45.290688       46.264042   0.000000   0.000000
 
 -0.1875000E+00 -0.3125000E+00  0.6250000E-01  0.2343750E-01
      1          3.633312        3.918486   1.000000   1.000000
      2          5.044440        6.522607   1.000000   1.000000
      3          5.938951        7.633352   1.000000   1.000000
      4          6.648049        8.507204   1.000000   0.504569
      5          7.023048        8.904697   1.000000   0.000000
      6          7.596517        9.471401   1.000000   0.000000
      7         21.773412       22.144357   0.000000   0.000000
      8         24.160769       24.444290   0.000000   0.000000
      9         26.024144       26.299906   0.000000   0.000000
     10         29.935014       30.111609   0.000000   0.000000
     11         33.563949       33.958073   0.000000   0.000000
     12         40.831923       40.886120   0.000000   0.000000
 
 -0.1875000E+00 -0.1875000E+00  0.6250000E-01  0.1171875E-01
      1          2.441170        2.494831   1.000000   1.000000
      2          5.262636        6.818190   1.000000   1.000000
      3          6.152231        7.996085   1.000000   1.000000
      4          6.449380        8.227737   1.000000   1.000000
      5          6.612997        8.417879   1.000000   0.994425
      6          6.981366        9.095469   1.000000   0.000000
      7         25.269648       25.559709   0.000000   0.000000
      8         27.049603       27.370856   0.000000   0.000000
      9         28.194614       28.206254   0.000000   0.000000
     10         29.363761       29.502542   0.000000   0.000000
     11         32.969223       33.577032   0.000000   0.000000
     12         41.648528       41.587124   0.000000   0.000000
 
  0.1875000E+00  0.1875000E+00  0.1875000E+00  0.3906250E-02
      1          1.482918        1.489536   1.000000   1.000000
      2          5.686611        7.275572   1.000000   1.000000
      3          6.057817        7.812414   1.000000   1.000000
      4          6.057817        7.812414   1.000000   1.000000
      5          6.706995        8.759256   1.000000   0.000000
      6          6.706995        8.759256   1.000000   0.000000
      7         24.542541       24.839163   0.000000   0.000000
      8         30.846724       30.577470   0.000000   0.000000
      9         32.077027       32.401605   0.000000   0.000000
     10         32.077027       32.401605   0.000000   0.000000
     11         37.522817       37.375585   0.000000   0.000000
     12         37.906088       37.981034   0.000000   0.000000
 
  0.3125000E+00  0.1875000E+00  0.1875000E+00  0.1171875E-01
      1          2.450300        2.495188   1.000000   1.000000
      2          5.492631        7.031747   1.000000   1.000000
      3          6.008434        7.780226   1.000000   1.000000
      4          6.235877        8.044832   1.000000   1.000000
      5          6.492702        8.472263   1.000000   0.841285
      6          7.198447        9.197909   1.000000   0.000000
      7         22.941562       23.301173   0.000000   0.000000
      8         25.497444       25.756868   0.000000   0.000000
      9         32.879883       32.785610   0.000000   0.000000
     10         34.525146       34.626713   0.000000   0.000000
     11         34.699199       34.742040   0.000000   0.000000
     12         35.964908       36.340403   0.000000   0.000000
 
  0.4375000E+00  0.1875000E+00  0.1875000E+00  0.1171875E-01
      1          3.919184        4.196599   1.000000   1.000000
      2          5.409391        6.837026   1.000000   1.000000
      3          5.714952        7.444028   1.000000   1.000000
      4          6.259798        8.202160   1.000000   1.000000
      5          6.717198        8.583735   1.000000   0.015653
      6          8.185617        9.970689   1.000000   0.000000
      7         19.663519       20.135692   0.000000   0.000000
      8         22.341754       22.692776   0.000000   0.000000
      9         30.977478       30.941748   0.000000   0.000000
     10         31.035251       31.379467   0.000000   0.000000
     11         36.548110       36.465585   0.000000   0.000000
     12         37.753866       37.980425   0.000000   0.000000
 
 -0.4375000E+00  0.1875000E+00  0.1875000E+00  0.1171875E-01
      1          4.444992        5.426410   1.000000   1.000000
      2          5.404048        6.896460   1.000000   1.000000
      3          5.974024        7.301783   1.000000   1.000000
      4          6.173596        8.075650   1.000000   1.000000
      5          7.215459        9.177349   1.000000   0.000000
      6         10.102773       11.222739   0.000000   0.000000
      7         14.917398       15.665879   0.000000   0.000000
      8         22.593744       22.930313   0.000000   0.000000
      9         28.201770       28.534295   0.000000   0.000000
     10         29.399892       29.429443   0.000000   0.000000