 vasp.6.3.2 27Jun22 (build Aug 12 2022 00:53:59) complex                        
  
 executed on               tv2STD date 2024.12.03  02:19:59
 running   28 mpi-ranks, with    1 threads/rank
 distrk:  each k-point on   28 cores,    1 groups
 distr:  one band on NCORE=   7 cores,    4 groups


--------------------------------------------------------------------------------------------------------


 INCAR:
   SYSTEM = Co-fcc
   NWRITE = 2    write-flag
   ISTART = 0    job   : 0-new, 1-cont, 2-samecut
   ICHARG = 2    charge: 0-wave, 1-file, 2-atom, >10-const
   INIWAV = 1    electr: 0-lowe 1-rand  2-diag
   ENCUT = 400.0     energy cutoff in eV
   PREC = Accurate      normal | accurate
   ADDGRID = .FALSE.  (use fine grid)
   NELM = 100     number of ELM steps
   EDIFF = 1E-06    energy stopping-criterion for ELM
   LREAL = .FALSE.      real-space projection (.FALSE., .TRUE., On, Auto)
   ALGO = Normal     Normal, Fast, Very_Fast
   LWAVE = .TRUE.
   LCHARG = .TRUE.
   NSW = 100       max number of geometry steps
   IBRION = 2     ionic relax: 0-MD, 1-quasi-Newton, 2-CG, 3-Damped MD
   EDIFFG = -0.02  force (eV/A) stopping-criterion for geometry steps
   ISIF = 2     (1:force\=y stress\=trace only ions\=y shape\=n volume\=n)
   ISYM = 1     (1-use symmetry, 0-no symmetry)
   ISMEAR = 0     (-1-Fermi, 1-Methfessel/Paxton)
   SIGMA = 0.05   broadening in eV
   LORBIT = 11
   NPAR = 4
   ISPIN = 2
   MAGMOM = 1*3

 POTCAR:    PAW_PBE Co 02Aug2007                  
 POTCAR:    PAW_PBE Co 02Aug2007                  
   SHA256 =  0e690c60710354995174544f52f9f2c30879afabeffe3b3fbd4001cb294e56d4 Co/POTCAR             
   COPYR  = (c) Copyright 02Aug2007 Georg Kresse                                                    
   COPYR  = This file is part of the software VASP. Any use, copying, and all other rights are regul
   COPYR  = If you do not have a valid VASP license, you may not use, copy or distribute this file. 
   VRHFIN =Co: d8 s1                                                                                
   LEXCH  = PE                                                                                      
   EATOM  =   813.3670 eV,   59.7808 Ry                                                             
                                                                                                    
   TITEL  = PAW_PBE Co 02Aug2007                                                                    
   LULTRA =        F    use ultrasoft PP ?                                                          
   IUNSCR =        1    unscreen: 0-lin 1-nonlin 2-no                                               
   RPACOR =    2.000    partial core radius                                                         
   POMASS =   58.933; ZVAL   =    9.000    mass and valenz                                          
   RCORE  =    2.300    outmost cutoff radius                                                       
   RWIGS  =    2.460; RWIGS  =    1.302    wigner-seitz radius (au A)                               
   ENMAX  =  267.968; ENMIN  =  200.976 eV                                                          
   RCLOC  =    1.203    cutoff for local pot                                                        
   LCOR   =        T    correct aug charges                                                         
   LPAW   =        T    paw PP                                                                      
   EAUG   =  477.818                                                                                
   DEXC   =    0.000                                                                                
   RMAX   =    2.360    core radius for proj-oper                                                   
   RAUG   =    1.300    factor for augmentation sphere                                              
   RDEP   =    2.393    radius for radial grids                                                     
   RDEPT  =    1.864    core radius for aug-charge                                                  
                                                                                                    
   Atomic configuration                                                                             
    9 entries                                                                                       
     n  l   j            E        occ.                                                              
     1  0  0.50     -7587.6674   2.0000                                                             
     2  0  0.50      -893.6084   2.0000                                                             
     2  1  1.50      -764.5805   6.0000                                                             
     3  0  0.50       -97.5973   2.0000                                                             
     3  1  1.50       -60.9648   6.0000                                                             
     3  2  2.50        -4.2382   8.0000                                                             
     4  0  0.50        -4.3746   1.0000                                                             
     4  1  1.50        -4.0817   0.0000                                                             
     4  3  2.50        -1.3606   0.0000                                                             
   Description                                                                                      
     l       E           TYP  RCUT    TYP  RCUT                                                     
     2     -4.2382362     23  2.300                                                                 
     2     -5.5988188     23  2.300                                                                 
     0     -4.3745797     23  2.300                                                                 
     0      5.7660125     23  2.300                                                                 
     1     -2.7211652     23  2.300                                                                 
     1     16.9860234     23  2.300                                                                 
  local pseudopotential read in
  partial core-charges read in
  partial kinetic energy density read in
  atomic valenz-charges read in
  non local Contribution for L=           2  read in
    real space projection operators read in
  non local Contribution for L=           2  read in
    real space projection operators read in
  non local Contribution for L=           0  read in
    real space projection operators read in
  non local Contribution for L=           0  read in
    real space projection operators read in
  non local Contribution for L=           1  read in
    real space projection operators read in
  non local Contribution for L=           1  read in
    real space projection operators read in
    PAW grid and wavefunctions read in
 
   number of l-projection  operators is LMAX  =           6
   number of lm-projection operators is LMMAX =          18
 
  PAW_PBE Co 02Aug2007                  :
 energy of atom  1       EATOM= -813.3670
 kinetic energy error for atom=    0.0093 (will be added to EATOM!!)
 
 
 POSCAR: Co
  positions in cartesian coordinates
  No initial velocities read in
 exchange correlation table for  LEXCH =        8
   RHO(1)=    0.500       N(1)  =     2000
   RHO(2)=  100.500       N(2)  =     4000
 


--------------------------------------------------------------------------------------------------------


 ion  position               nearest neighbor table
   1  0.000  0.000  0.000-
 
  LATTYP: Found a face centered cubic cell.
 ALAT       =     3.6839618691
  
  Lattice vectors:
  
 A1 = (   0.0000000000,   1.8419809345,   1.8419809345)
 A2 = (   1.8419809345,   0.0000000000,   1.8419809345)
 A3 = (   1.8419809345,   1.8419809345,   0.0000000000)


Analysis of symmetry for initial positions (statically):
=====================================================================
 Subroutine PRICEL returns:
 Original cell was already a primitive cell.
 

 Routine SETGRP: Setting up the symmetry group for a 
 face centered cubic supercell.


 Subroutine GETGRP returns: Found 48 space group operations
 (whereof 48 operations were pure point group operations)
 out of a pool of 48 trial point group operations.


The static configuration has the point symmetry O_h .


Analysis of symmetry for dynamics (positions and initial velocities):
=====================================================================
 Subroutine PRICEL returns:
 Original cell was already a primitive cell.
 

 Routine SETGRP: Setting up the symmetry group for a 
 face centered cubic supercell.


 Subroutine GETGRP returns: Found 48 space group operations
 (whereof 48 operations were pure point group operations)
 out of a pool of 48 trial point group operations.


The dynamic configuration has the point symmetry O_h .


Analysis of structural, dynamic, and magnetic symmetry:
=====================================================================
 Subroutine PRICEL returns:
 Original cell was already a primitive cell.
 

 Routine SETGRP: Setting up the symmetry group for a 
 face centered cubic supercell.


 Subroutine GETGRP returns: Found 48 space group operations
 (whereof 48 operations were pure point group operations)
 out of a pool of 48 trial point group operations.


The overall configuration has the point symmetry O_h .


 Subroutine INISYM returns: Found 48 space group operations
 (whereof 48 operations are pure point group operations),
 and found     1 'primitive' translations


----------------------------------------------------------------------------------------

                                     Primitive cell                                     

  volume of cell :      12.4993

  direct lattice vectors                    reciprocal lattice vectors
     0.000000000  1.841980935  1.841980935    -0.271446892  0.271446892  0.271446892
     1.841980935  0.000000000  1.841980935     0.271446892 -0.271446892  0.271446892
     1.841980935  1.841980935  0.000000000     0.271446892  0.271446892 -0.271446892

  length of vectors
     2.604954419  2.604954419  2.604954419     0.470159809  0.470159809  0.470159809

  position of ions in fractional coordinates (direct lattice)
     0.000000000  0.000000000  0.000000000

  ion indices of the primitive-cell ions
   primitive index   ion index
                 1           1

----------------------------------------------------------------------------------------

 
 
 KPOINTS: Automatic mesh                          

Automatic generation of k-mesh.
 Grid dimensions read from file:
 generate k-points for:    8    8    8

 Generating k-lattice:

  Cartesian coordinates                     Fractional coordinates (reciprocal lattice)
    -0.033930862  0.033930862  0.033930862     0.125000000  0.000000000  0.000000000
     0.033930862 -0.033930862  0.033930862     0.000000000  0.125000000  0.000000000
     0.033930862  0.033930862 -0.033930862     0.000000000  0.000000000  0.125000000

  Length of vectors
     0.058769976  0.058769976  0.058769976

  Shift w.r.t. Gamma in fractional coordinates (k-lattice)
     0.500000000  0.500000000  0.500000000

 
 Subroutine IBZKPT returns following result:
 ===========================================
 
 Found     60 irreducible k-points:
 
 Following reciprocal coordinates:
            Coordinates               Weight
  0.062500  0.062500  0.062500      8.000000
  0.187500  0.062500  0.062500     24.000000
  0.312500  0.062500  0.062500     24.000000
  0.437500  0.062500  0.062500     24.000000
 -0.437500  0.062500  0.062500     24.000000
 -0.312500  0.062500  0.062500     24.000000
 -0.187500  0.062500  0.062500     24.000000
 -0.062500  0.062500  0.062500     24.000000
  0.187500  0.187500  0.062500     24.000000
  0.312500  0.187500  0.062500     48.000000
  0.437500  0.187500  0.062500     48.000000
 -0.437500  0.187500  0.062500     48.000000
 -0.312500  0.187500  0.062500     48.000000
 -0.187500  0.187500  0.062500     48.000000
 -0.062500  0.187500  0.062500     48.000000
  0.312500  0.312500  0.062500     24.000000
  0.437500  0.312500  0.062500     48.000000
 -0.437500  0.312500  0.062500     48.000000
 -0.312500  0.312500  0.062500     48.000000
 -0.187500  0.312500  0.062500     48.000000
 -0.062500  0.312500  0.062500     48.000000
  0.437500  0.437500  0.062500     24.000000
 -0.437500  0.437500  0.062500     48.000000
 -0.312500  0.437500  0.062500     48.000000
 -0.187500  0.437500  0.062500     48.000000
 -0.062500  0.437500  0.062500     48.000000
 -0.437500 -0.437500  0.062500     24.000000
 -0.312500 -0.437500  0.062500     48.000000
 -0.187500 -0.437500  0.062500     48.000000
 -0.312500 -0.312500  0.062500     24.000000
 -0.187500 -0.312500  0.062500     48.000000
 -0.187500 -0.187500  0.062500     24.000000
  0.187500  0.187500  0.187500      8.000000
  0.312500  0.187500  0.187500     24.000000
  0.437500  0.187500  0.187500     24.000000
 -0.437500  0.187500  0.187500     24.000000
 -0.312500  0.187500  0.187500     24.000000
 -0.187500  0.187500  0.187500     24.000000
  0.312500  0.312500  0.187500     24.000000
  0.437500  0.312500  0.187500     48.000000
 -0.437500  0.312500  0.187500     48.000000
 -0.312500  0.312500  0.187500     48.000000
 -0.187500  0.312500  0.187500     48.000000
  0.437500  0.437500  0.187500     24.000000
 -0.437500  0.437500  0.187500     48.000000
 -0.312500  0.437500  0.187500     48.000000
 -0.187500  0.437500  0.187500     48.000000
 -0.437500 -0.437500  0.187500     24.000000
 -0.312500 -0.437500  0.187500     48.000000
 -0.312500 -0.312500  0.187500     24.000000
  0.312500  0.312500  0.312500      8.000000
  0.437500  0.312500  0.312500     24.000000
 -0.437500  0.312500  0.312500     24.000000
 -0.312500  0.312500  0.312500     24.000000
  0.437500  0.437500  0.312500     24.000000
 -0.437500  0.437500  0.312500     48.000000
 -0.312500  0.437500  0.312500     48.000000
 -0.437500 -0.437500  0.312500     24.000000
  0.437500  0.437500  0.437500      8.000000
 -0.437500  0.437500  0.437500     24.000000
 
 Following cartesian coordinates:
            Coordinates               Weight
  0.016965  0.016965  0.016965      8.000000
 -0.016965  0.050896  0.050896     24.000000
 -0.050896  0.084827  0.084827     24.000000
 -0.084827  0.118758  0.118758     24.000000
  0.152689 -0.118758 -0.118758     24.000000
  0.118758 -0.084827 -0.084827     24.000000
  0.084827 -0.050896 -0.050896     24.000000
  0.050896 -0.016965 -0.016965     24.000000
  0.016965  0.016965  0.084827     24.000000
 -0.016965  0.050896  0.118758     48.000000
 -0.050896  0.084827  0.152689     48.000000
  0.186620 -0.152689 -0.084827     48.000000
  0.152689 -0.118758 -0.050896     48.000000
  0.118758 -0.084827 -0.016965     48.000000
  0.084827 -0.050896  0.016965     48.000000
  0.016965  0.016965  0.152689     24.000000
 -0.016965  0.050896  0.186620     48.000000
  0.220551 -0.186620 -0.050896     48.000000
  0.186620 -0.152689 -0.016965     48.000000
  0.152689 -0.118758  0.016965     48.000000
  0.118758 -0.084827  0.050896     48.000000
  0.016965  0.016965  0.220551     24.000000
  0.254481 -0.220551 -0.016965     48.000000
  0.220551 -0.186620  0.016965     48.000000
  0.186620 -0.152689  0.050896     48.000000
  0.152689 -0.118758  0.084827     48.000000
  0.016965  0.016965 -0.254481     24.000000
 -0.016965  0.050896 -0.220551     48.000000
 -0.050896  0.084827 -0.186620     48.000000
  0.016965  0.016965 -0.186620     24.000000
 -0.016965  0.050896 -0.152689     48.000000
  0.016965  0.016965 -0.118758     24.000000
  0.050896  0.050896  0.050896      8.000000
  0.016965  0.084827  0.084827     24.000000
 -0.016965  0.118758  0.118758     24.000000
  0.220551 -0.118758 -0.118758     24.000000
  0.186620 -0.084827 -0.084827     24.000000
  0.152689 -0.050896 -0.050896     24.000000
  0.050896  0.050896  0.118758     24.000000
  0.016965  0.084827  0.152689     48.000000
  0.254481 -0.152689 -0.084827     48.000000
  0.220551 -0.118758 -0.050896     48.000000
  0.186620 -0.084827 -0.016965     48.000000
  0.050896  0.050896  0.186620     24.000000
  0.288412 -0.186620 -0.050896     48.000000
  0.254481 -0.152689 -0.016965     48.000000
  0.220551 -0.118758  0.016965     48.000000
  0.050896  0.050896 -0.288412     24.000000
  0.016965  0.084827 -0.254481     48.000000
  0.050896  0.050896 -0.220551     24.000000
  0.084827  0.084827  0.084827      8.000000
  0.050896  0.118758  0.118758     24.000000
  0.288412 -0.118758 -0.118758     24.000000
  0.254481 -0.084827 -0.084827     24.000000
  0.084827  0.084827  0.152689     24.000000
  0.322343 -0.152689 -0.084827     48.000000
  0.288412 -0.118758 -0.050896     48.000000
  0.084827  0.084827 -0.322343     24.000000
  0.118758  0.118758  0.118758      8.000000
  0.356274 -0.118758 -0.118758     24.000000
 


--------------------------------------------------------------------------------------------------------




 Dimension of arrays:
   k-points           NKPTS =     60   k-points in BZ     NKDIM =     60   number of bands    NBANDS=     12
   number of dos      NEDOS =    301   number of ions     NIONS =      1
   non local maximal  LDIM  =      6   non local SUM 2l+1 LMDIM =     18
   total plane-waves  NPLWV =   5832
   max r-space proj   IRMAX =      1   max aug-charges    IRDMAX=  18599
   dimension x,y,z NGX =    18 NGY =   18 NGZ =   18
   dimension x,y,z NGXF=    36 NGYF=   36 NGZF=   36
   support grid    NGXF=    36 NGYF=   36 NGZF=   36
   ions per type =               1
   NGX,Y,Z   is equivalent  to a cutoff of  11.49, 11.49, 11.49 a.u.
   NGXF,Y,Z  is equivalent  to a cutoff of  22.97, 22.97, 22.97 a.u.

 SYSTEM =  Co-fcc                                  
 POSCAR =  Co                                      

 Startparameter for this run:
   NWRITE =      2    write-flag & timer
   PREC   = accura    normal or accurate (medium, high low for compatibility)
   ISTART =      0    job   : 0-new  1-cont  2-samecut
   ICHARG =      2    charge: 1-file 2-atom 10-const
   ISPIN  =      2    spin polarized calculation?
   LNONCOLLINEAR =      F non collinear calculations
   LSORBIT =      F    spin-orbit coupling
   INIWAV =      1    electr: 0-lowe 1-rand  2-diag
   LASPH  =      F    aspherical Exc in radial PAW
 Electronic Relaxation 1
   ENCUT  =  400.0 eV  29.40 Ry    5.42 a.u.   4.25  4.25  4.25*2*pi/ulx,y,z
   ENINI  =  400.0     initial cutoff
   ENAUG  =  477.8 eV  augmentation charge cutoff
   NELM   =    100;   NELMIN=  2; NELMDL= -5     # of ELM steps 
   EDIFF  = 0.1E-05   stopping-criterion for ELM
   LREAL  =      F    real-space projection
   NLSPLINE    = F    spline interpolate recip. space projectors
   LCOMPAT=      F    compatible to vasp.4.4
   GGA_COMPAT  = T    GGA compatible to vasp.4.4-vasp.4.6
   LMAXPAW     = -100 max onsite density
   LMAXMIX     =    2 max onsite mixed and CHGCAR
   VOSKOWN=      0    Vosko Wilk Nusair interpolation
   ROPT   =    0.00000
 Ionic relaxation
   EDIFFG = -.2E-01   stopping-criterion for IOM
   NSW    =    100    number of steps for IOM
   NBLOCK =      1;   KBLOCK =    100    inner block; outer block 
   IBRION =      2    ionic relax: 0-MD 1-quasi-New 2-CG
   NFREE  =      1    steps in history (QN), initial steepest desc. (CG)
   ISIF   =      2    stress and relaxation
   IWAVPR =     11    prediction:  0-non 1-charg 2-wave 3-comb
   ISYM   =      1    0-nonsym 1-usesym 2-fastsym
   LCORR  =      T    Harris-Foulkes like correction to forces

   POTIM  = 0.5000    time-step for ionic-motion
   TEIN   =    0.0    initial temperature
   TEBEG  =    0.0;   TEEND  =   0.0 temperature during run
   SMASS  =  -3.00    Nose mass-parameter (am)
   estimated Nose-frequenzy (Omega)   =  0.10E-29 period in steps = 0.13E+47 mass=  -0.155E-27a.u.
   SCALEE = 1.0000    scale energy and forces
   NPACO  =    256;   APACO  = 10.0  distance and # of slots for P.C.
   PSTRESS=    0.0 pullay stress

  Mass of Ions in am
   POMASS =  58.93
  Ionic Valenz
   ZVAL   =   9.00
  Atomic Wigner-Seitz radii
   RWIGS  =  -1.00
  virtual crystal weights 
   VCA    =   1.00
   NELECT =       9.0000    total number of electrons
   NUPDOWN=      -1.0000    fix difference up-down

 DOS related values:
   EMIN   =  10.00;   EMAX   =-10.00  energy-range for DOS
   EFERMI =   0.00
   ISMEAR =     0;   SIGMA  =   0.05  broadening in eV -4-tet -1-fermi 0-gaus

 Electronic relaxation 2 (details)
   IALGO  =     38    algorithm
   LDIAG  =      T    sub-space diagonalisation (order eigenvalues)
   LSUBROT=      F    optimize rotation matrix (better conditioning)
   TURBO    =      0    0=normal 1=particle mesh
   IRESTART =      0    0=no restart 2=restart with 2 vectors
   NREBOOT  =      0    no. of reboots
   NMIN     =      0    reboot dimension
   EREF     =   0.00    reference energy to select bands
   IMIX   =      4    mixing-type and parameters
     AMIX     =   0.40;   BMIX     =  1.00
     AMIX_MAG =   1.60;   BMIX_MAG =  1.00
     AMIN     =   0.10
     WC   =   100.;   INIMIX=   1;  MIXPRE=   1;  MAXMIX= -45

 Intra band minimization:
   WEIMIN = 0.0010     energy-eigenvalue tresh-hold
   EBREAK =  0.21E-07  absolut break condition
   DEPER  =   0.30     relativ break condition  

   TIME   =   0.40     timestep for ELM

  volume/ion in A,a.u.               =      12.50        84.35
  Fermi-wavevector in a.u.,A,eV,Ry     =   1.467328  2.772848 29.294044  2.153051
  Thomas-Fermi vector in A             =   2.582959
 
 Write flags
   LWAVE        =      T    write WAVECAR
   LDOWNSAMPLE  =      F    k-point downsampling of WAVECAR
   LCHARG       =      T    write CHGCAR
   LVTOT        =      F    write LOCPOT, total local potential
   LVHAR        =      F    write LOCPOT, Hartree potential only
   LELF         =      F    write electronic localiz. function (ELF)
   LORBIT       =     11    0 simple, 1 ext, 2 COOP (PROOUT), +10 PAW based schemes


 Dipole corrections
   LMONO  =      F    monopole corrections only (constant potential shift)
   LDIPOL =      F    correct potential (dipole corrections)
   IDIPOL =      0    1-x, 2-y, 3-z, 4-all directions 
   EPSILON=  1.0000000 bulk dielectric constant

 Exchange correlation treatment:
   GGA     =    --    GGA type
   LEXCH   =     8    internal setting for exchange type
   LIBXC   =     F    Libxc                    
   VOSKOWN =     0    Vosko Wilk Nusair interpolation
   LHFCALC =     F    Hartree Fock is set to
   LHFONE  =     F    Hartree Fock one center treatment
   AEXX    =    0.0000 exact exchange contribution

 Linear response parameters
   LEPSILON=     F    determine dielectric tensor
   LRPA    =     F    only Hartree local field effects (RPA)
   LNABLA  =     F    use nabla operator in PAW spheres
   LVEL    =     F    velocity operator in full k-point grid
   CSHIFT  =0.1000    complex shift for real part using Kramers Kronig
   OMEGAMAX=  -1.0    maximum frequency
   DEG_THRESHOLD= 0.2000000E-02 threshold for treating states as degnerate
   RTIME   =   -0.100 relaxation time in fs
  (WPLASMAI=    0.000 imaginary part of plasma frequency in eV, 0.658/RTIME)
   DFIELD  = 0.0000000 0.0000000 0.0000000 field for delta impulse in time
 
  Optional k-point grid parameters
   LKPOINTS_OPT  =     F    use optional k-point grid
   KPOINTS_OPT_MODE=     1    mode for optional k-point grid
 
 Orbital magnetization related:
   ORBITALMAG=     F  switch on orbital magnetization
   LCHIMAG   =     F  perturbation theory with respect to B field
   DQ        =  0.001000  dq finite difference perturbation B field
   LLRAUG    =     F  two centre corrections for induced B field



--------------------------------------------------------------------------------------------------------


 conjugate gradient relaxation of ions
 charge density and potential will be updated during run
 spin polarized calculation
 Variant of blocked Davidson
 Davidson routine will perform the subspace rotation
 perform sub-space diagonalisation
    after iterative eigenvector-optimisation
 modified Broyden-mixing scheme, WC =      100.0
 initial mixing is a Kerker type mixing with AMIX =  0.4000 and BMIX =      1.0000
 Hartree-type preconditioning will be used
 using additional bands            7
 reciprocal scheme for non local part
 use partial core corrections
 calculate Harris-corrections to forces 
   (improved forces if not selfconsistent)
 use gradient corrections 
 use of overlap-Matrix (Vanderbilt PP)
 Gauss-broadening in eV      SIGMA  =   0.05


--------------------------------------------------------------------------------------------------------


  energy-cutoff  :      400.00
  volume of cell :       12.50
      direct lattice vectors                 reciprocal lattice vectors
     0.000000000  1.841980935  1.841980935    -0.271446892  0.271446892  0.271446892
     1.841980935  0.000000000  1.841980935     0.271446892 -0.271446892  0.271446892
     1.841980935  1.841980935  0.000000000     0.271446892  0.271446892 -0.271446892

  length of vectors
     2.604954419  2.604954419  2.604954419     0.470159809  0.470159809  0.470159809


 
 k-points in units of 2pi/SCALE and weight: Automatic mesh                          
   0.01696543  0.01696543  0.01696543       0.004
  -0.01696543  0.05089629  0.05089629       0.012
  -0.05089629  0.08482715  0.08482715       0.012
  -0.08482715  0.11875802  0.11875802       0.012
   0.15268888 -0.11875802 -0.11875802       0.012
   0.11875802 -0.08482715 -0.08482715       0.012
   0.08482715 -0.05089629 -0.05089629       0.012
   0.05089629 -0.01696543 -0.01696543       0.012
   0.01696543  0.01696543  0.08482715       0.012
  -0.01696543  0.05089629  0.11875802       0.023
  -0.05089629  0.08482715  0.15268888       0.023
   0.18661974 -0.15268888 -0.08482715       0.023
   0.15268888 -0.11875802 -0.05089629       0.023
   0.11875802 -0.08482715 -0.01696543       0.023
   0.08482715 -0.05089629  0.01696543       0.023
   0.01696543  0.01696543  0.15268888       0.012
  -0.01696543  0.05089629  0.18661974       0.023
   0.22055060 -0.18661974 -0.05089629       0.023
   0.18661974 -0.15268888 -0.01696543       0.023
   0.15268888 -0.11875802  0.01696543       0.023
   0.11875802 -0.08482715  0.05089629       0.023
   0.01696543  0.01696543  0.22055060       0.012
   0.25448146 -0.22055060 -0.01696543       0.023
   0.22055060 -0.18661974  0.01696543       0.023
   0.18661974 -0.15268888  0.05089629       0.023
   0.15268888 -0.11875802  0.08482715       0.023
   0.01696543  0.01696543 -0.25448146       0.012
  -0.01696543  0.05089629 -0.22055060       0.023
  -0.05089629  0.08482715 -0.18661974       0.023
   0.01696543  0.01696543 -0.18661974       0.012
  -0.01696543  0.05089629 -0.15268888       0.023
   0.01696543  0.01696543 -0.11875802       0.012
   0.05089629  0.05089629  0.05089629       0.004
   0.01696543  0.08482715  0.08482715       0.012
  -0.01696543  0.11875802  0.11875802       0.012
   0.22055060 -0.11875802 -0.11875802       0.012
   0.18661974 -0.08482715 -0.08482715       0.012
   0.15268888 -0.05089629 -0.05089629       0.012
   0.05089629  0.05089629  0.11875802       0.012
   0.01696543  0.08482715  0.15268888       0.023
   0.25448146 -0.15268888 -0.08482715       0.023
   0.22055060 -0.11875802 -0.05089629       0.023
   0.18661974 -0.08482715 -0.01696543       0.023
   0.05089629  0.05089629  0.18661974       0.012
   0.28841232 -0.18661974 -0.05089629       0.023
   0.25448146 -0.15268888 -0.01696543       0.023
   0.22055060 -0.11875802  0.01696543       0.023
   0.05089629  0.05089629 -0.28841232       0.012
   0.01696543  0.08482715 -0.25448146       0.023
   0.05089629  0.05089629 -0.22055060       0.012
   0.08482715  0.08482715  0.08482715       0.004
   0.05089629  0.11875802  0.11875802       0.012
   0.28841232 -0.11875802 -0.11875802       0.012
   0.25448146 -0.08482715 -0.08482715       0.012
   0.08482715  0.08482715  0.15268888       0.012
   0.32234318 -0.15268888 -0.08482715       0.023
   0.28841232 -0.11875802 -0.05089629       0.023
   0.08482715  0.08482715 -0.32234318       0.012
   0.11875802  0.11875802  0.11875802       0.004
   0.35627405 -0.11875802 -0.11875802       0.012
 
 k-points in reciprocal lattice and weights: Automatic mesh                          
   0.06250000  0.06250000  0.06250000       0.004
   0.18750000  0.06250000  0.06250000       0.012
   0.31250000  0.06250000  0.06250000       0.012
   0.43750000  0.06250000  0.06250000       0.012
  -0.43750000  0.06250000  0.06250000       0.012
  -0.31250000  0.06250000  0.06250000       0.012
  -0.18750000  0.06250000  0.06250000       0.012
  -0.06250000  0.06250000  0.06250000       0.012
   0.18750000  0.18750000  0.06250000       0.012
   0.31250000  0.18750000  0.06250000       0.023
   0.43750000  0.18750000  0.06250000       0.023
  -0.43750000  0.18750000  0.06250000       0.023
  -0.31250000  0.18750000  0.06250000       0.023
  -0.18750000  0.18750000  0.06250000       0.023
  -0.06250000  0.18750000  0.06250000       0.023
   0.31250000  0.31250000  0.06250000       0.012
   0.43750000  0.31250000  0.06250000       0.023
  -0.43750000  0.31250000  0.06250000       0.023
  -0.31250000  0.31250000  0.06250000       0.023
  -0.18750000  0.31250000  0.06250000       0.023
  -0.06250000  0.31250000  0.06250000       0.023
   0.43750000  0.43750000  0.06250000       0.012
  -0.43750000  0.43750000  0.06250000       0.023
  -0.31250000  0.43750000  0.06250000       0.023
  -0.18750000  0.43750000  0.06250000       0.023
  -0.06250000  0.43750000  0.06250000       0.023
  -0.43750000 -0.43750000  0.06250000       0.012
  -0.31250000 -0.43750000  0.06250000       0.023
  -0.18750000 -0.43750000  0.06250000       0.023
  -0.31250000 -0.31250000  0.06250000       0.012
  -0.18750000 -0.31250000  0.06250000       0.023
  -0.18750000 -0.18750000  0.06250000       0.012
   0.18750000  0.18750000  0.18750000       0.004
   0.31250000  0.18750000  0.18750000       0.012
   0.43750000  0.18750000  0.18750000       0.012
  -0.43750000  0.18750000  0.18750000       0.012
  -0.31250000  0.18750000  0.18750000       0.012
  -0.18750000  0.18750000  0.18750000       0.012
   0.31250000  0.31250000  0.18750000       0.012
   0.43750000  0.31250000  0.18750000       0.023
  -0.43750000  0.31250000  0.18750000       0.023
  -0.31250000  0.31250000  0.18750000       0.023
  -0.18750000  0.31250000  0.18750000       0.023
   0.43750000  0.43750000  0.18750000       0.012
  -0.43750000  0.43750000  0.18750000       0.023
  -0.31250000  0.43750000  0.18750000       0.023
  -0.18750000  0.43750000  0.18750000       0.023
  -0.43750000 -0.43750000  0.18750000       0.012
  -0.31250000 -0.43750000  0.18750000       0.023
  -0.31250000 -0.31250000  0.18750000       0.012
   0.31250000  0.31250000  0.31250000       0.004
   0.43750000  0.31250000  0.31250000       0.012
  -0.43750000  0.31250000  0.31250000       0.012
  -0.31250000  0.31250000  0.31250000       0.012
   0.43750000  0.43750000  0.31250000       0.012
  -0.43750000  0.43750000  0.31250000       0.023
  -0.31250000  0.43750000  0.31250000       0.023
  -0.43750000 -0.43750000  0.31250000       0.012
   0.43750000  0.43750000  0.43750000       0.004
  -0.43750000  0.43750000  0.43750000       0.012
 
 position of ions in fractional coordinates (direct lattice) 
   0.00000000  0.00000000  0.00000000
 
 position of ions in cartesian coordinates  (Angst):
   0.00000000  0.00000000  0.00000000
 


--------------------------------------------------------------------------------------------------------


 k-point   1 :   0.0625 0.0625 0.0625  plane waves:     238
 k-point   2 :   0.1875 0.0625 0.0625  plane waves:     228
 k-point   3 :   0.3125 0.0625 0.0625  plane waves:     225
 k-point   4 :   0.4375 0.0625 0.0625  plane waves:     228
 k-point   5 :  -0.4375 0.0625 0.0625  plane waves:     232
 k-point   6 :  -0.3125 0.0625 0.0625  plane waves:     228
 k-point   7 :  -0.1875 0.0625 0.0625  plane waves:     226
 k-point   8 :  -0.0625 0.0625 0.0625  plane waves:     230
 k-point   9 :   0.1875 0.1875 0.0625  plane waves:     226
 k-point  10 :   0.3125 0.1875 0.0625  plane waves:     225
 k-point  11 :   0.4375 0.1875 0.0625  plane waves:     229
 k-point  12 :  -0.4375 0.1875 0.0625  plane waves:     230
 k-point  13 :  -0.3125 0.1875 0.0625  plane waves:     228
 k-point  14 :  -0.1875 0.1875 0.0625  plane waves:     225
 k-point  15 :  -0.0625 0.1875 0.0625  plane waves:     225
 k-point  16 :   0.3125 0.3125 0.0625  plane waves:     222
 k-point  17 :   0.4375 0.3125 0.0625  plane waves:     227
 k-point  18 :  -0.4375 0.3125 0.0625  plane waves:     226
 k-point  19 :  -0.3125 0.3125 0.0625  plane waves:     231
 k-point  20 :  -0.1875 0.3125 0.0625  plane waves:     227
 k-point  21 :  -0.0625 0.3125 0.0625  plane waves:     225
 k-point  22 :   0.4375 0.4375 0.0625  plane waves:     227
 k-point  23 :  -0.4375 0.4375 0.0625  plane waves:     226
 k-point  24 :  -0.3125 0.4375 0.0625  plane waves:     224
 k-point  25 :  -0.1875 0.4375 0.0625  plane waves:     230
 k-point  26 :  -0.0625 0.4375 0.0625  plane waves:     229
 k-point  27 :  -0.4375-0.4375 0.0625  plane waves:     222
 k-point  28 :  -0.3125-0.4375 0.0625  plane waves:     228
 k-point  29 :  -0.1875-0.4375 0.0625  plane waves:     228
 k-point  30 :  -0.3125-0.3125 0.0625  plane waves:     224
 k-point  31 :  -0.1875-0.3125 0.0625  plane waves:     224
 k-point  32 :  -0.1875-0.1875 0.0625  plane waves:     226
 k-point  33 :   0.1875 0.1875 0.1875  plane waves:     226
 k-point  34 :   0.3125 0.1875 0.1875  plane waves:     223
 k-point  35 :   0.4375 0.1875 0.1875  plane waves:     223
 k-point  36 :  -0.4375 0.1875 0.1875  plane waves:     232
 k-point  37 :  -0.3125 0.1875 0.1875  plane waves:     233
 k-point  38 :  -0.1875 0.1875 0.1875  plane waves:     227
 k-point  39 :   0.3125 0.3125 0.1875  plane waves:     226
 k-point  40 :   0.4375 0.3125 0.1875  plane waves:     225
 k-point  41 :  -0.4375 0.3125 0.1875  plane waves:     230
 k-point  42 :  -0.3125 0.3125 0.1875  plane waves:     229
 k-point  43 :  -0.1875 0.3125 0.1875  plane waves:     227
 k-point  44 :   0.4375 0.4375 0.1875  plane waves:     223
 k-point  45 :  -0.4375 0.4375 0.1875  plane waves:     224
 k-point  46 :  -0.3125 0.4375 0.1875  plane waves:     224
 k-point  47 :  -0.1875 0.4375 0.1875  plane waves:     225
 k-point  48 :  -0.4375-0.4375 0.1875  plane waves:     226
 k-point  49 :  -0.3125-0.4375 0.1875  plane waves:     224
 k-point  50 :  -0.3125-0.3125 0.1875  plane waves:     228
 k-point  51 :   0.3125 0.3125 0.3125  plane waves:     229
 k-point  52 :   0.4375 0.3125 0.3125  plane waves:     225
 k-point  53 :  -0.4375 0.3125 0.3125  plane waves:     227
 k-point  54 :  -0.3125 0.3125 0.3125  plane waves:     226
 k-point  55 :   0.4375 0.4375 0.3125  plane waves:     233
 k-point  56 :  -0.4375 0.4375 0.3125  plane waves:     231
 k-point  57 :  -0.3125 0.4375 0.3125  plane waves:     226
 k-point  58 :  -0.4375-0.4375 0.3125  plane waves:     229
 k-point  59 :   0.4375 0.4375 0.4375  plane waves:     229
 k-point  60 :  -0.4375 0.4375 0.4375  plane waves:     227

 maximum and minimum number of plane-waves per node :        45       26

 maximum number of plane-waves:       238
 maximum index in each direction: 
   IXMAX=    4   IYMAX=    4   IZMAX=    4
   IXMIN=   -4   IYMIN=   -4   IZMIN=   -4


 parallel 3D FFT for wavefunctions:
    minimum data exchange during FFTs selected (reduces bandwidth)
 parallel 3D FFT for charge:
    minimum data exchange during FFTs selected (reduces bandwidth)


 total amount of memory used by VASP MPI-rank0    31108. kBytes
=======================================================================

   base      :      30000. kBytes
   nonl-proj :        346. kBytes
   fftplans  :        112. kBytes
   grid      :        274. kBytes
   one-center:         31. kBytes
   wavefun   :        345. kBytes
 
     INWAV:  cpu time      0.0000: real time      0.0003
 Broyden mixing: mesh for mixing (old mesh)
   NGX =  9   NGY =  9   NGZ =  9
  (NGX  = 36   NGY  = 36   NGZ  = 36)
  gives a total of    729 points

 initial charge density was supplied:
 charge density of overlapping atoms calculated
 number of electron       9.0000000 magnetization       3.0000000
 keeping initial charge density in first step


--------------------------------------------------------------------------------------------------------


 Maximum index for augmentation-charges         1360 (set IRDMAX)


--------------------------------------------------------------------------------------------------------


 First call to EWALD:  gamma=   0.764
 Maximum number of real-space cells 3x 3x 3
 Maximum number of reciprocal cells 3x 3x 3

    FEWALD:  cpu time      0.0011: real time      0.0012


--------------------------------------- Iteration      1(   1)  ---------------------------------------


    POTLOK:  cpu time      0.0052: real time      0.0053
    SETDIJ:  cpu time      0.0052: real time      0.0052
     EDDAV:  cpu time      0.2784: real time      0.2804
       DOS:  cpu time      0.0013: real time      0.0013
    --------------------------------------------
      LOOP:  cpu time      0.2901: real time      0.2922

 eigenvalue-minimisations  :  2952
 total energy-change (2. order) : 0.2326678E+02  (-0.3562616E+03)
 number of electron       9.0000000 magnetization       3.0000000
 augmentation part        9.0000000 magnetization       3.0000000

 Free energy of the ion-electron system (eV)
  ---------------------------------------------------
  alpha Z        PSCENC =        33.88807418
  Ewald energy   TEWEN  =      -725.80882646
  -Hartree energ DENC   =      -165.21411806
  -exchange      EXHF   =         0.00000000
  -V(xc)+E(xc)   XCENC  =        17.38452280
  PAW double counting   =       719.99081943     -772.94345096
  entropy T*S    EENTRO =        -0.00063463
  eigenvalues    EBANDS =       102.61265576
  atomic energy  EATOM  =       813.35773410
  Solvation  Ediel_sol  =         0.00000000
  ---------------------------------------------------
  free energy    TOTEN  =        23.26677616 eV

  energy without entropy =       23.26741079  energy(sigma->0) =       23.26709348


--------------------------------------------------------------------------------------------------------




--------------------------------------- Iteration      1(   2)  ---------------------------------------


     EDDAV:  cpu time      0.2739: real time      0.2758
       DOS:  cpu time      0.0009: real time      0.0009
    --------------------------------------------
      LOOP:  cpu time      0.2747: real time      0.2767

 eigenvalue-minimisations  :  3104
 total energy-change (2. order) :-0.3019633E+02  (-0.2777187E+02)
 number of electron       9.0000000 magnetization       3.0000000
 augmentation part        9.0000000 magnetization       3.0000000

 Free energy of the ion-electron system (eV)
  ---------------------------------------------------
  alpha Z        PSCENC =        33.88807418
  Ewald energy   TEWEN  =      -725.80882646
  -Hartree energ DENC   =      -165.21411806
  -exchange      EXHF   =         0.00000000
  -V(xc)+E(xc)   XCENC  =        17.38452280
  PAW double counting   =       719.99081943     -772.94345096
  entropy T*S    EENTRO =        -0.00157628
  eigenvalues    EBANDS =        72.41726494
  atomic energy  EATOM  =       813.35773410
  Solvation  Ediel_sol  =         0.00000000
  ---------------------------------------------------
  free energy    TOTEN  =        -6.92955631 eV

  energy without entropy =       -6.92798003  energy(sigma->0) =       -6.92876817


--------------------------------------------------------------------------------------------------------




--------------------------------------- Iteration      1(   3)  ---------------------------------------


     EDDAV:  cpu time      0.2824: real time      0.2841
       DOS:  cpu time      0.0008: real time      0.0008
    --------------------------------------------
      LOOP:  cpu time      0.2833: real time      0.2849

 eigenvalue-minimisations  :  3332
 total energy-change (2. order) :-0.8483310E+00  (-0.8384527E+00)
 number of electron       9.0000000 magnetization       3.0000000
 augmentation part        9.0000000 magnetization       3.0000000

 Free energy of the ion-electron system (eV)
  ---------------------------------------------------
  alpha Z        PSCENC =        33.88807418
  Ewald energy   TEWEN  =      -725.80882646
  -Hartree energ DENC   =      -165.21411806
  -exchange      EXHF   =         0.00000000
  -V(xc)+E(xc)   XCENC  =        17.38452280
  PAW double counting   =       719.99081943     -772.94345096
  entropy T*S    EENTRO =        -0.00139910
  eigenvalues    EBANDS =        71.56875678
  atomic energy  EATOM  =       813.35773410
  Solvation  Ediel_sol  =         0.00000000
  ---------------------------------------------------
  free energy    TOTEN  =        -7.77788728 eV

  energy without entropy =       -7.77648818  energy(sigma->0) =       -7.77718773


--------------------------------------------------------------------------------------------------------




--------------------------------------- Iteration      1(   4)  ---------------------------------------


     EDDAV:  cpu time      0.3074: real time      0.3093
       DOS:  cpu time      0.0008: real time      0.0008
    --------------------------------------------
      LOOP:  cpu time      0.3082: real time      0.3102

 eigenvalue-minimisations  :  3532
 total energy-change (2. order) :-0.9391558E-02  (-0.9388851E-02)
 number of electron       9.0000000 magnetization       3.0000000
 augmentation part        9.0000000 magnetization       3.0000000

 Free energy of the ion-electron system (eV)
  ---------------------------------------------------
  alpha Z        PSCENC =        33.88807418
  Ewald energy   TEWEN  =      -725.80882646
  -Hartree energ DENC   =      -165.21411806
  -exchange      EXHF   =         0.00000000
  -V(xc)+E(xc)   XCENC  =        17.38452280
  PAW double counting   =       719.99081943     -772.94345096
  entropy T*S    EENTRO =        -0.00139007
  eigenvalues    EBANDS =        71.55935620
  atomic energy  EATOM  =       813.35773410
  Solvation  Ediel_sol  =         0.00000000
  ---------------------------------------------------
  free energy    TOTEN  =        -7.78727884 eV

  energy without entropy =       -7.78588877  energy(sigma->0) =       -7.78658380


--------------------------------------------------------------------------------------------------------




--------------------------------------- Iteration      1(   5)  ---------------------------------------


     EDDAV:  cpu time      0.3005: real time      0.3022
       DOS:  cpu time      0.0009: real time      0.0009
    CHARGE:  cpu time      0.0129: real time      0.0129
    MIXING:  cpu time      0.0002: real time      0.0002
    --------------------------------------------
      LOOP:  cpu time      0.3144: real time      0.3162

 eigenvalue-minimisations  :  3628
 total energy-change (2. order) :-0.2419639E-03  (-0.2419588E-03)
 number of electron       8.9999992 magnetization       1.6526300
 augmentation part        4.5611126 magnetization       1.2032314

 Broyden mixing:
  rms(total) = 0.99272E+00    rms(broyden)= 0.99271E+00
  rms(prec ) = 0.31987E+01
  weight for this iteration     100.00

 Free energy of the ion-electron system (eV)
  ---------------------------------------------------
  alpha Z        PSCENC =        33.88807418
  Ewald energy   TEWEN  =      -725.80882646
  -Hartree energ DENC   =      -165.21411806
  -exchange      EXHF   =         0.00000000
  -V(xc)+E(xc)   XCENC  =        17.38452280
  PAW double counting   =       719.99081943     -772.94345096
  entropy T*S    EENTRO =        -0.00138973
  eigenvalues    EBANDS =        71.55911389
  atomic energy  EATOM  =       813.35773410
  Solvation  Ediel_sol  =         0.00000000
  ---------------------------------------------------
  free energy    TOTEN  =        -7.78752081 eV

  energy without entropy =       -7.78613108  energy(sigma->0) =       -7.78682594


--------------------------------------------------------------------------------------------------------




--------------------------------------- Iteration      1(   6)  ---------------------------------------


    POTLOK:  cpu time      0.0036: real time      0.0038
    SETDIJ:  cpu time      0.0046: real time      0.0046
     EDDAV:  cpu time      0.3021: real time      0.3037
       DOS:  cpu time      0.0009: real time      0.0009
    CHARGE:  cpu time      0.0125: real time      0.0125
    MIXING:  cpu time      0.0002: real time      0.0002
    --------------------------------------------
      LOOP:  cpu time      0.3238: real time      0.3257

 eigenvalue-minimisations  :  3656
 total energy-change (2. order) : 0.5642032E+00  (-0.1492021E+01)
 number of electron       8.9999990 magnetization       1.6656655
 augmentation part        5.4508393 magnetization       1.5105103

 Broyden mixing:
  rms(total) = 0.58796E+00    rms(broyden)= 0.58794E+00
  rms(prec ) = 0.13455E+01
  weight for this iteration     100.00

 eigenvalues of (default mixing * dielectric matrix)
  average eigenvalue GAMMA=   0.7053
  0.7053

 Free energy of the ion-electron system (eV)
  ---------------------------------------------------
  alpha Z        PSCENC =        33.88807418
  Ewald energy   TEWEN  =      -725.80882646
  -Hartree energ DENC   =      -144.90924234
  -exchange      EXHF   =         0.00000000
  -V(xc)+E(xc)   XCENC  =        15.91616667
  PAW double counting   =       758.09711962     -805.31942471
  entropy T*S    EENTRO =        -0.00278276
  eigenvalues    EBANDS =        47.55786406
  atomic energy  EATOM  =       813.35773410
  Solvation  Ediel_sol  =         0.00000000
  ---------------------------------------------------
  free energy    TOTEN  =        -7.22331765 eV

  energy without entropy =       -7.22053489  energy(sigma->0) =       -7.22192627


--------------------------------------------------------------------------------------------------------




--------------------------------------- Iteration      1(   7)  ---------------------------------------


    POTLOK:  cpu time      0.0034: real time      0.0035
    SETDIJ:  cpu time      0.0041: real time      0.0041
     EDDAV:  cpu time      0.2988: real time      0.3005
       DOS:  cpu time      0.0009: real time      0.0009
    CHARGE:  cpu time      0.0123: real time      0.0123
    MIXING:  cpu time      0.0002: real time      0.0002
    --------------------------------------------
      LOOP:  cpu time      0.3196: real time      0.3215

 eigenvalue-minimisations  :  3596
 total energy-change (2. order) : 0.3120877E+00  (-0.2369510E+00)
 number of electron       8.9999991 magnetization       1.7611392
 augmentation part        5.1100056 magnetization       1.5700808

 Broyden mixing:
  rms(total) = 0.25352E+00    rms(broyden)= 0.25351E+00
  rms(prec ) = 0.40328E+00
  weight for this iteration     100.00

 eigenvalues of (default mixing * dielectric matrix)
  average eigenvalue GAMMA=   0.6970
  0.8916  0.5023

 Free energy of the ion-electron system (eV)
  ---------------------------------------------------
  alpha Z        PSCENC =        33.88807418
  Ewald energy   TEWEN  =      -725.80882646
  -Hartree energ DENC   =      -150.53905197
  -exchange      EXHF   =         0.00000000
  -V(xc)+E(xc)   XCENC  =        16.19178619
  PAW double counting   =       785.62142882     -836.55146079
  entropy T*S    EENTRO =        -0.00236598
  eigenvalues    EBANDS =        56.93145195
  atomic energy  EATOM  =       813.35773410
  Solvation  Ediel_sol  =         0.00000000
  ---------------------------------------------------
  free energy    TOTEN  =        -6.91122997 eV

  energy without entropy =       -6.90886399  energy(sigma->0) =       -6.91004698


--------------------------------------------------------------------------------------------------------




--------------------------------------- Iteration      1(   8)  ---------------------------------------


    POTLOK:  cpu time      0.0033: real time      0.0034
    SETDIJ:  cpu time      0.0043: real time      0.0043
     EDDAV:  cpu time      0.3101: real time      0.3118
       DOS:  cpu time      0.0009: real time      0.0009
    CHARGE:  cpu time      0.0122: real time      0.0122
    MIXING:  cpu time      0.0002: real time      0.0002
    --------------------------------------------
      LOOP:  cpu time      0.3309: real time      0.3328

 eigenvalue-minimisations  :  3784
 total energy-change (2. order) : 0.6974246E-02  (-0.1323054E-02)
 number of electron       8.9999991 magnetization       1.7948246
 augmentation part        5.1234285 magnetization       1.5980261

 Broyden mixing:
  rms(total) = 0.10367E+00    rms(broyden)= 0.10367E+00
  rms(prec ) = 0.22536E+00
  weight for this iteration     100.00

 eigenvalues of (default mixing * dielectric matrix)
  average eigenvalue GAMMA=   0.9565
  1.5815  0.7252  0.5629

 Free energy of the ion-electron system (eV)
  ---------------------------------------------------
  alpha Z        PSCENC =        33.88807418
  Ewald energy   TEWEN  =      -725.80882646
  -Hartree energ DENC   =      -149.36430120
  -exchange      EXHF   =         0.00000000
  -V(xc)+E(xc)   XCENC  =        16.18835065
  PAW double counting   =       802.70677931     -854.22138841
  entropy T*S    EENTRO =        -0.00231312
  eigenvalues    EBANDS =        56.35163523
  atomic energy  EATOM  =       813.35773410
  Solvation  Ediel_sol  =         0.00000000
  ---------------------------------------------------
  free energy    TOTEN  =        -6.90425573 eV

  energy without entropy =       -6.90194261  energy(sigma->0) =       -6.90309917


--------------------------------------------------------------------------------------------------------




--------------------------------------- Iteration      1(   9)  ---------------------------------------


    POTLOK:  cpu time      0.0033: real time      0.0035
    SETDIJ:  cpu time      0.0041: real time      0.0041
     EDDAV:  cpu time      0.3325: real time      0.3344
       DOS:  cpu time      0.0009: real time      0.0009
    CHARGE:  cpu time      0.0126: real time      0.0126
    MIXING:  cpu time      0.0003: real time      0.0003
    --------------------------------------------
      LOOP:  cpu time      0.3536: real time      0.3558

 eigenvalue-minimisations  :  4148
 total energy-change (2. order) : 0.6202393E-02  (-0.8866313E-03)
 number of electron       8.9999991 magnetization       1.7680372
 augmentation part        5.1413188 magnetization       1.5729640

 Broyden mixing:
  rms(total) = 0.30904E-01    rms(broyden)= 0.30903E-01
  rms(prec ) = 0.66846E-01
  weight for this iteration     100.00

 eigenvalues of (default mixing * dielectric matrix)
  average eigenvalue GAMMA=   1.0372
  2.1067  0.7235  0.6884  0.6302

 Free energy of the ion-electron system (eV)
  ---------------------------------------------------
  alpha Z        PSCENC =        33.88807418
  Ewald energy   TEWEN  =      -725.80882646
  -Hartree energ DENC   =      -148.00847724
  -exchange      EXHF   =         0.00000000
  -V(xc)+E(xc)   XCENC  =        16.15266629
  PAW double counting   =       824.07231711     -876.27449626
  entropy T*S    EENTRO =        -0.00226259
  eigenvalues    EBANDS =        55.72521754
  atomic energy  EATOM  =       813.35773410
  Solvation  Ediel_sol  =         0.00000000
  ---------------------------------------------------
  free energy    TOTEN  =        -6.89805333 eV

  energy without entropy =       -6.89579075  energy(sigma->0) =       -6.89692204


--------------------------------------------------------------------------------------------------------




--------------------------------------- Iteration      1(  10)  ---------------------------------------


    POTLOK:  cpu time      0.0034: real time      0.0036
    SETDIJ:  cpu time      0.0042: real time      0.0042
     EDDAV:  cpu time      0.3498: real time      0.3517
       DOS:  cpu time      0.0008: real time      0.0008
    CHARGE:  cpu time      0.0122: real time      0.0122
    MIXING:  cpu time      0.0003: real time      0.0003
    --------------------------------------------
      LOOP:  cpu time      0.3708: real time      0.3728

 eigenvalue-minimisations  :  4424
 total energy-change (2. order) : 0.6043737E-03  (-0.7563088E-04)
 number of electron       8.9999991 magnetization       1.7557519
 augmentation part        5.1473790 magnetization       1.5638506

 Broyden mixing:
  rms(total) = 0.64028E-02    rms(broyden)= 0.64023E-02
  rms(prec ) = 0.11805E-01
  weight for this iteration     100.00

 eigenvalues of (default mixing * dielectric matrix)
  average eigenvalue GAMMA=   1.2206
  2.4178  1.5231  0.8791  0.6416  0.6416

 Free energy of the ion-electron system (eV)
  ---------------------------------------------------
  alpha Z        PSCENC =        33.88807418
  Ewald energy   TEWEN  =      -725.80882646
  -Hartree energ DENC   =      -147.52029674
  -exchange      EXHF   =         0.00000000
  -V(xc)+E(xc)   XCENC  =        16.12040250
  PAW double counting   =       833.59506601     -886.11027751
  entropy T*S    EENTRO =        -0.00241107
  eigenvalues    EBANDS =        55.58308603
  atomic energy  EATOM  =       813.35773410
  Solvation  Ediel_sol  =         0.00000000
  ---------------------------------------------------
  free energy    TOTEN  =        -6.89744896 eV

  energy without entropy =       -6.89503789  energy(sigma->0) =       -6.89624343


--------------------------------------------------------------------------------------------------------




--------------------------------------- Iteration      1(  11)  ---------------------------------------


    POTLOK:  cpu time      0.0033: real time      0.0034
    SETDIJ:  cpu time      0.0041: real time      0.0041
     EDDAV:  cpu time      0.3201: real time      0.3217
       DOS:  cpu time      0.0009: real time      0.0009
    CHARGE:  cpu time      0.0126: real time      0.0127
    MIXING:  cpu time      0.0003: real time      0.0003
    --------------------------------------------
      LOOP:  cpu time      0.3412: real time      0.3431

 eigenvalue-minimisations  :  3816
 total energy-change (2. order) : 0.8949872E-05  (-0.1776333E-04)
 number of electron       8.9999991 magnetization       1.7558058
 augmentation part        5.1474344 magnetization       1.5636528

 Broyden mixing:
  rms(total) = 0.53451E-02    rms(broyden)= 0.53450E-02
  rms(prec ) = 0.54629E-02
  weight for this iteration     100.00

 eigenvalues of (default mixing * dielectric matrix)
  average eigenvalue GAMMA=   1.1131
  2.3471  1.5497  0.8518  0.6692  0.6692  0.5920

 Free energy of the ion-electron system (eV)
  ---------------------------------------------------
  alpha Z        PSCENC =        33.88807418
  Ewald energy   TEWEN  =      -725.80882646
  -Hartree energ DENC   =      -147.41967772
  -exchange      EXHF   =         0.00000000
  -V(xc)+E(xc)   XCENC  =        16.10518799
  PAW double counting   =       837.50396835     -890.13160837
  entropy T*S    EENTRO =        -0.00244876
  eigenvalues    EBANDS =        55.61015668
  atomic energy  EATOM  =       813.35773410
  Solvation  Ediel_sol  =         0.00000000
  ---------------------------------------------------
  free energy    TOTEN  =        -6.89744001 eV

  energy without entropy =       -6.89499125  energy(sigma->0) =       -6.89621563


--------------------------------------------------------------------------------------------------------




--------------------------------------- Iteration      1(  12)  ---------------------------------------


    POTLOK:  cpu time      0.0034: real time      0.0036
    SETDIJ:  cpu time      0.0043: real time      0.0043
     EDDAV:  cpu time      0.2834: real time      0.2851
       DOS:  cpu time      0.0009: real time      0.0009
    CHARGE:  cpu time      0.0122: real time      0.0123
    MIXING:  cpu time      0.0003: real time      0.0003
    --------------------------------------------
      LOOP:  cpu time      0.3044: real time      0.3064

 eigenvalue-minimisations  :  3356
 total energy-change (2. order) :-0.2080973E-05  (-0.5222517E-06)
 number of electron       8.9999991 magnetization       1.7580412
 augmentation part        5.1476463 magnetization       1.5660851

 Broyden mixing:
  rms(total) = 0.31076E-02    rms(broyden)= 0.31076E-02
  rms(prec ) = 0.31991E-02
  weight for this iteration     100.00

 eigenvalues of (default mixing * dielectric matrix)
  average eigenvalue GAMMA=   1.2764
  2.3958  2.3958  1.2022  0.9257  0.7317  0.6270  0.6566

 Free energy of the ion-electron system (eV)
  ---------------------------------------------------
  alpha Z        PSCENC =        33.88807418
  Ewald energy   TEWEN  =      -725.80882646
  -Hartree energ DENC   =      -147.42489113
  -exchange      EXHF   =         0.00000000
  -V(xc)+E(xc)   XCENC  =        16.10644546
  PAW double counting   =       837.50695486     -890.12314822
  entropy T*S    EENTRO =        -0.00244903
  eigenvalues    EBANDS =        55.60266415
  atomic energy  EATOM  =       813.35773410
  Solvation  Ediel_sol  =         0.00000000
  ---------------------------------------------------
  free energy    TOTEN  =        -6.89744209 eV

  energy without entropy =       -6.89499306  energy(sigma->0) =       -6.89621758


--------------------------------------------------------------------------------------------------------




--------------------------------------- Iteration      1(  13)  ---------------------------------------


    POTLOK:  cpu time      0.0033: real time      0.0035
    SETDIJ:  cpu time      0.0041: real time      0.0041
     EDDAV:  cpu time      0.2432: real time      0.2446
       DOS:  cpu time      0.0008: real time      0.0008
    --------------------------------------------
      LOOP:  cpu time      0.2515: real time      0.2530

 eigenvalue-minimisations  :  2632
 total energy-change (2. order) :-0.7143450E-06  (-0.7037517E-06)
 number of electron       8.9999991 magnetization       1.7580412
 augmentation part        5.1476463 magnetization       1.5660851

 Free energy of the ion-electron system (eV)
  ---------------------------------------------------
  alpha Z        PSCENC =        33.88807418
  Ewald energy   TEWEN  =      -725.80882646
  -Hartree energ DENC   =      -147.42900268
  -exchange      EXHF   =         0.00000000
  -V(xc)+E(xc)   XCENC  =        16.10853363
  PAW double counting   =       837.75646864     -890.35801237
  entropy T*S    EENTRO =        -0.00244543
  eigenvalues    EBANDS =        55.59003358
  atomic energy  EATOM  =       813.35773410
  Solvation  Ediel_sol  =         0.00000000
  ---------------------------------------------------
  free energy    TOTEN  =        -6.89744281 eV

  energy without entropy =       -6.89499738  energy(sigma->0) =       -6.89622009


--------------------------------------------------------------------------------------------------------




 average (electrostatic) potential at core
  the test charge radii are     1.0452
  (the norm of the test charge is              1.0000)
       1 -80.1117
 
 
 
 E-fermi :   8.5076     XC(G=0): -12.5963     alpha+bet :-15.3884

 Fermi energy:         8.5076093734

 spin component 1

 k-point     1 :       0.0625    0.0625    0.0625
  band No.  band energies     occupation 
      1       0.4204      1.00000
      2       5.8681      1.00000
      3       5.9314      1.00000
      4       5.9314      1.00000
      5       6.6922      1.00000
      6       6.6922      1.00000
      7      29.8249      0.00000
      8      32.0253      0.00000
      9      33.2687      0.00000
     10      33.2687      0.00000
     11      36.7992      0.00000
     12      36.7992      0.00000

 k-point     2 :       0.1875    0.0625    0.0625
  band No.  band energies     occupation 
      1       1.1427      1.00000
      2       5.7043      1.00000
      3       6.0550      1.00000
      4       6.0617      1.00000
      5       6.5746      1.00000
      6       6.7708      1.00000
      7      26.6111      0.00000
      8      29.1188      0.00000
      9      32.5338      0.00000
     10      34.2114      0.00000
     11      36.0882      0.00000
     12      37.0132      0.00000

 k-point     3 :       0.3125    0.0625    0.0625
  band No.  band energies     occupation 
      1       2.6892      1.00000
      2       5.6324      1.00000
      3       5.9975      1.00000
      4       6.0533      1.00000
      5       6.7704      1.00000
      6       7.1163      1.00000
      7      20.7648      0.00000
      8      28.1203      0.00000
      9      31.5430      0.00000
     10      33.4867      0.00000
     11      34.8594      0.00000
     12      35.9565      0.00000

 k-point     4 :       0.4375    0.0625    0.0625
  band No.  band energies     occupation 
      1       3.7924      1.00000
      2       5.8081      1.00000
      3       5.8829      1.00000
      4       6.5669      1.00000
      5       7.2181      1.00000
      6       7.8525      1.00000
      7      15.6935      0.00000
      8      27.8313      0.00000
      9      30.2381      0.00000
     10      31.4754      0.00000
     11      34.0606      0.00000
     12      35.5736      0.00000

 k-point     5 :      -0.4375    0.0625    0.0625
  band No.  band energies     occupation 
      1       3.9221      1.00000
      2       5.7303      1.00000
      3       5.8404      1.00000
      4       6.9927      1.00000
      5       7.4399      1.00000
      6       8.7796      0.00000
      7      13.5764      0.00000
      8      28.2073      0.00000
      9      29.8288      0.00000
     10      30.0412      0.00000
     11      34.7936      0.00000
     12      34.9288      0.00000

 k-point     6 :      -0.3125    0.0625    0.0625
  band No.  band energies     occupation 
      1       3.5772      1.00000
      2       5.8394      1.00000
      3       5.9572      1.00000
      4       6.1041      1.00000
      5       7.2724      1.00000
      6       7.3674      1.00000
      7      17.2382      0.00000
      8      28.9284      0.00000
      9      29.3430      0.00000
     10      31.4426      0.00000
     11      34.8506      0.00000
     12      36.4372      0.00000

 k-point     7 :      -0.1875    0.0625    0.0625
  band No.  band energies     occupation 
      1       2.1275      1.00000
      2       5.5860      1.00000
      3       6.0497      1.00000
      4       6.0999      1.00000
      5       6.7119      1.00000
      6       6.9082      1.00000
      7      22.6679      0.00000
      8      29.8113      0.00000
      9      29.8765      0.00000
     10      34.0287      0.00000
     11      34.7636      0.00000
     12      38.4960      0.00000

 k-point     8 :      -0.0625    0.0625    0.0625
  band No.  band energies     occupation 
      1       0.7869      1.00000
      2       5.7568      1.00000
      3       6.0197      1.00000
      4       6.0229      1.00000
      5       6.5884      1.00000
      6       6.7461      1.00000
      7      28.4975      0.00000
      8      30.7642      0.00000
      9      31.2469      0.00000
     10      33.2994      0.00000
     11      36.7838      0.00000
     12      38.5855      0.00000

 k-point     9 :       0.1875    0.1875    0.0625
  band No.  band energies     occupation 
      1       1.4901      1.00000
      2       5.5402      1.00000
      3       6.1706      1.00000
      4       6.2003      1.00000
      5       6.4557      1.00000
      6       6.8467      1.00000
      7      26.8810      0.00000
      8      29.0798      0.00000
      9      29.4986      0.00000
     10      31.5989      0.00000
     11      35.5141      0.00000
     12      39.1605      0.00000

 k-point    10 :       0.3125    0.1875    0.0625
  band No.  band energies     occupation 
      1       2.7357      1.00000
      2       5.3043      1.00000
      3       5.9813      1.00000
      4       6.3966      1.00000
      5       6.6927      1.00000
      6       7.1767      1.00000
      7      23.1889      0.00000
      8      25.6581      0.00000
      9      29.3384      0.00000
     10      31.0778      0.00000
     11      34.7168      0.00000
     12      39.0422      0.00000

 k-point    11 :       0.4375    0.1875    0.0625
  band No.  band energies     occupation 
      1       4.0316      1.00000
      2       5.4045      1.00000
      3       5.7536      1.00000
      4       6.2582      1.00000
      5       7.2557      1.00000
      6       8.2526      1.00000
      7      17.7438      0.00000
      8      25.1631      0.00000
      9      26.8571      0.00000
     10      30.6363      0.00000
     11      36.9507      0.00000
     12      39.0161      0.00000

 k-point    12 :      -0.4375    0.1875    0.0625
  band No.  band energies     occupation 
      1       4.3258      1.00000
      2       5.4074      1.00000
      3       6.1094      1.00000
      4       6.1845      1.00000
      5       7.4148      1.00000
      6      10.3685      0.00000
      7      13.8029      0.00000
      8      24.6680      0.00000
      9      26.0627      0.00000
     10      30.5806      0.00000
     11      36.0772      0.00000
     12      39.6435      0.00000

 k-point    13 :      -0.3125    0.1875    0.0625
  band No.  band energies     occupation 
      1       4.2518      1.00000
      2       5.5272      1.00000
      3       5.8494      1.00000
      4       6.1675      1.00000
      5       7.1658      1.00000
      6       9.0250      0.00000
      7      16.1693      0.00000
      8      23.7892      0.00000
      9      27.6635      0.00000
     10      31.5852      0.00000
     11      35.5115      0.00000
     12      39.0369      0.00000

 k-point    14 :      -0.1875    0.1875    0.0625
  band No.  band energies     occupation 
      1       3.2711      1.00000
      2       5.3668      1.00000
      3       5.8472      1.00000
      4       6.3269      1.00000
      5       6.6439      1.00000
      6       7.6017      1.00000
      7      21.3058      0.00000
      8      23.8943      0.00000
      9      30.1544      0.00000
     10      33.4055      0.00000
     11      35.0814      0.00000
     12      37.5706      0.00000

 k-point    15 :      -0.0625    0.1875    0.0625
  band No.  band energies     occupation 
      1       1.8228      1.00000
      2       5.5411      1.00000
      3       6.0823      1.00000
      4       6.1991      1.00000
      5       6.5188      1.00000
      6       6.9302      1.00000
      7      24.8097      0.00000
      8      27.3196      0.00000
      9      31.6347      0.00000
     10      33.2919      0.00000
     11      35.8375      0.00000
     12      37.5229      0.00000

 k-point    16 :       0.3125    0.3125    0.0625
  band No.  band energies     occupation 
      1       3.3845      1.00000
      2       4.9702      1.00000
      3       6.2502      1.00000
      4       6.7405      1.00000
      5       7.0261      1.00000
      6       7.1369      1.00000
      7      23.7684      0.00000
      8      25.2596      0.00000
      9      25.5379      0.00000
     10      28.1208      0.00000
     11      31.4936      0.00000
     12      44.2066      0.00000

 k-point    17 :       0.4375    0.3125    0.0625
  band No.  band energies     occupation 
      1       4.0865      1.00000
      2       4.8050      1.00000
      3       6.2273      1.00000
      4       6.9170      1.00000
      5       7.2941      1.00000
      6       8.5061      0.51739
      7      20.5978      0.00000
      8      22.4610      0.00000
      9      23.1458      0.00000
     10      29.2270      0.00000
     11      32.8083      0.00000
     12      42.4932      0.00000

 k-point    18 :      -0.4375    0.3125    0.0625
  band No.  band energies     occupation 
      1       4.5168      1.00000
      2       4.9104      1.00000
      3       5.9982      1.00000
      4       6.6835      1.00000
      5       7.4730      1.00000
      6      11.4109      0.00000
      7      15.8190      0.00000
      8      20.2861      0.00000
      9      23.4126      0.00000
     10      29.5873      0.00000
     11      37.6141      0.00000
     12      40.6866      0.00000

 k-point    19 :      -0.3125    0.3125    0.0625
  band No.  band energies     occupation 
      1       4.9067      1.00000
      2       5.0412      1.00000
      3       5.6367      1.00000
      4       6.5181      1.00000
      5       7.2322      1.00000
      6      11.6627      0.00000
      7      15.6848      0.00000
      8      19.0302      0.00000
      9      24.9947      0.00000
     10      30.4445      0.00000
     11      38.7201      0.00000
     12      43.2419      0.00000

 k-point    20 :      -0.1875    0.3125    0.0625
  band No.  band energies     occupation 
      1       4.4878      1.00000
      2       5.3827      1.00000
      3       5.4788      1.00000
      4       6.3818      1.00000
      5       6.9330      1.00000
      6       9.0631      0.00000
      7      18.2672      0.00000
      8      21.0662      0.00000
      9      27.4266      0.00000
     10      32.0695      0.00000
     11      36.1636      0.00000
     12      40.2020      0.00000

 k-point    21 :      -0.0625    0.3125    0.0625
  band No.  band energies     occupation 
      1       3.3905      1.00000
      2       5.6025      1.00000
      3       5.8562      1.00000
      4       6.1040      1.00000
      5       6.9661      1.00000
      6       7.4996      1.00000
      7      19.1237      0.00000
      8      26.5560      0.00000
      9      29.9678      0.00000
     10      31.9520      0.00000
     11      35.7102      0.00000
     12      37.0363      0.00000

 k-point    22 :       0.4375    0.4375    0.0625
  band No.  band energies     occupation 
      1       3.9297      1.00000
      2       4.5102      1.00000
      3       7.2014      1.00000
      4       7.2404      1.00000
      5       7.4927      1.00000
      6       9.2453      0.00000
      7      19.2613      0.00000
      8      21.6121      0.00000
      9      22.7453      0.00000
     10      27.2389      0.00000
     11      30.3132      0.00000
     12      45.3606      0.00000

 k-point    23 :      -0.4375    0.4375    0.0625
  band No.  band energies     occupation 
      1       4.0625      1.00000
      2       4.5292      1.00000
      3       6.9150      1.00000
      4       7.1573      1.00000
      5       7.6122      1.00000
      6      11.5838      0.00000
      7      17.2002      0.00000
      8      19.3312      0.00000
      9      21.6388      0.00000
     10      28.6001      0.00000
     11      32.1870      0.00000
     12      45.2090      0.00000

 k-point    24 :      -0.3125    0.4375    0.0625
  band No.  band energies     occupation 
      1       4.4806      1.00000
      2       4.8361      1.00000
      3       6.1451      1.00000
      4       6.8144      1.00000
      5       7.4735      1.00000
      6      13.3255      0.00000
      7      15.2908      0.00000
      8      17.8495      0.00000
      9      22.9958      0.00000
     10      29.4229      0.00000
     11      37.5341      0.00000
     12      41.8730      0.00000

 k-point    25 :      -0.1875    0.4375    0.0625
  band No.  band energies     occupation 
      1       4.6404      1.00000
      2       5.1737      1.00000
      3       5.8867      1.00000
      4       6.3336      1.00000
      5       7.3430      1.00000
      6      11.4603      0.00000
      7      14.0890      0.00000
      8      21.6839      0.00000
      9      25.3282      0.00000
     10      30.4845      0.00000
     11      37.4076      0.00000
     12      41.6843      0.00000

 k-point    26 :      -0.0625    0.4375    0.0625
  band No.  band energies     occupation 
      1       4.0386      1.00000
      2       5.6463      1.00000
      3       5.9522      1.00000
      4       6.4579      1.00000
      5       7.3691      1.00000
      6       8.9252      0.00000
      7      14.5141      0.00000
      8      26.6237      0.00000
      9      28.2178      0.00000
     10      30.7593      0.00000
     11      35.0515      0.00000
     12      37.1869      0.00000

 k-point    27 :      -0.4375   -0.4375    0.0625
  band No.  band energies     occupation 
      1       3.8882      1.00000
      2       4.4053      1.00000
      3       7.2846      1.00000
      4       7.4594      1.00000
      5       7.6216      1.00000
      6      10.7596      0.00000
      7      17.0635      0.00000
      8      21.1024      0.00000
      9      22.1927      0.00000
     10      27.0871      0.00000
     11      30.1514      0.00000
     12      45.4421      0.00000

 k-point    28 :      -0.3125   -0.4375    0.0625
  band No.  band energies     occupation 
      1       4.1171      1.00000
      2       4.6248      1.00000
      3       6.6406      1.00000
      4       7.1089      1.00000
      5       7.4877      1.00000
      6      10.0120      0.00000
      7      19.4016      0.00000
      8      19.8719      0.00000
      9      22.1241      0.00000
     10      28.8008      0.00000
     11      32.3767      0.00000
     12      44.0621      0.00000

 k-point    29 :      -0.1875   -0.4375    0.0625
  band No.  band energies     occupation 
      1       4.4174      1.00000
      2       5.1156      1.00000
      3       5.8222      1.00000
      4       6.4727      1.00000
      5       7.4188      1.00000
      6       9.5972      0.00000
      7      16.6334      0.00000
      8      23.2874      0.00000
      9      24.2917      0.00000
     10      29.9585      0.00000
     11      37.5869      0.00000
     12      39.5875      0.00000

 k-point    30 :      -0.3125   -0.3125    0.0625
  band No.  band energies     occupation 
      1       3.8727      1.00000
      2       4.7070      1.00000
      3       6.7785      1.00000
      4       7.0157      1.00000
      5       7.3089      1.00000
      6       7.7899      1.00000
      7      22.1559      0.00000
      8      22.6541      0.00000
      9      23.7956      0.00000
     10      27.5619      0.00000
     11      30.7097      0.00000
     12      45.2907      0.00000

 k-point    31 :      -0.1875   -0.3125    0.0625
  band No.  band energies     occupation 
      1       3.6333      1.00000
      2       5.0444      1.00000
      3       5.9390      1.00000
      4       6.6480      1.00000
      5       7.0230      1.00000
      6       7.5965      1.00000
      7      21.7734      0.00000
      8      24.1608      0.00000
      9      26.0241      0.00000
     10      29.9350      0.00000
     11      33.5639      0.00000
     12      40.8319      0.00000

 k-point    32 :      -0.1875   -0.1875    0.0625
  band No.  band energies     occupation 
      1       2.4412      1.00000
      2       5.2626      1.00000
      3       6.1522      1.00000
      4       6.4494      1.00000
      5       6.6130      1.00000
      6       6.9814      1.00000
      7      25.2696      0.00000
      8      27.0496      0.00000
      9      28.1946      0.00000
     10      29.3638      0.00000
     11      32.9692      0.00000
     12      41.6485      0.00000

 k-point    33 :       0.1875    0.1875    0.1875
  band No.  band energies     occupation 
      1       1.4829      1.00000
      2       5.6866      1.00000
      3       6.0578      1.00000
      4       6.0578      1.00000
      5       6.7070      1.00000
      6       6.7070      1.00000
      7      24.5425      0.00000
      8      30.8467      0.00000
      9      32.0770      0.00000
     10      32.0770      0.00000
     11      37.5228      0.00000
     12      37.9061      0.00000

 k-point    34 :       0.3125    0.1875    0.1875
  band No.  band energies     occupation 
      1       2.4503      1.00000
      2       5.4926      1.00000
      3       6.0084      1.00000
      4       6.2359      1.00000
      5       6.4927      1.00000
      6       7.1984      1.00000
      7      22.9416      0.00000
      8      25.4974      0.00000
      9      32.8799      0.00000
     10      34.5251      0.00000
     11      34.6992      0.00000
     12      35.9649      0.00000

 k-point    35 :       0.4375    0.1875    0.1875
  band No.  band energies     occupation 
      1       3.9192      1.00000
      2       5.4094      1.00000
      3       5.7150      1.00000
      4       6.2598      1.00000
      5       6.7172      1.00000
      6       8.1856      1.00000
      7      19.6635      0.00000
      8      22.3418      0.00000
      9      30.9775      0.00000
     10      31.0353      0.00000
     11      36.5481      0.00000
     12      37.7539      0.00000

 k-point    36 :      -0.4375    0.1875    0.1875
  band No.  band energies     occupation 
      1       4.4450      1.00000
      2       5.4040      1.00000
      3       5.9740      1.00000
      4       6.1736      1.00000
      5       7.2155      1.00000
      6      10.1028      0.00000
      7      14.9174      0.00000
      8      22.5937      0.00000
      9      28.2018      0.00000
     10      29.3999      0.00000
     11      37.9982      0.00000
     12      38.3497      0.00000

 k-point    37 :      -0.3125    0.1875    0.1875
  band No.  band energies     occupation 
      1       4.3641      1.00000
      2       5.2970      1.00000
      3       5.9919      1.00000
      4       6.2385      1.00000
      5       7.4682      1.00000
      6       9.9833      0.00000
      7      14.8878      0.00000
      8      23.8986      0.00000
      9      26.4958      0.00000
     10      28.8178      0.00000
     11      39.1260      0.00000
     12      39.1838      0.00000

 k-point    38 :      -0.1875    0.1875    0.1875
  band No.  band energies     occupation 
      1       3.7946      1.00000
      2       5.1647      1.00000
      3       5.8548      1.00000
      4       6.3963      1.00000
      5       7.3180      1.00000
      6       7.7192      1.00000
      7      19.6255      0.00000
      8      26.0320      0.00000
      9      26.1294      0.00000
     10      29.0287      0.00000
     11      35.9555      0.00000
     12      40.4555      0.00000

 k-point    39 :       0.3125    0.3125    0.1875
  band No.  band energies     occupation 
      1       2.9772      1.00000
      2       5.4021      1.00000
      3       5.9278      1.00000
      4       6.2136      1.00000
      5       7.0219      1.00000
      6       7.1251      1.00000
      7      21.0271      0.00000
      8      27.8646      0.00000
      9      28.4852      0.00000
     10      30.8923      0.00000
     11      36.5830      0.00000
     12      38.1711      0.00000

 k-point    40 :       0.4375    0.3125    0.1875
  band No.  band energies     occupation 
      1       4.0566      1.00000
      2       5.1896      1.00000
      3       5.6601      1.00000
      4       6.5337      1.00000
      5       6.9383      1.00000
      6       8.2487      1.00000
      7      19.9101      0.00000
      8      22.5353      0.00000
      9      26.6035      0.00000
     10      32.5484      0.00000
     11      35.2608      0.00000
     12      38.3337      0.00000

 k-point    41 :      -0.4375    0.3125    0.1875
  band No.  band energies     occupation 
      1       4.8128      1.00000
      2       5.1718      1.00000
      3       5.4224      1.00000
      4       6.5767      1.00000
[...]
      5       9.4809      0.00000
      6      12.8162      0.00000
      7      17.4737      0.00000
      8      18.2733      0.00000
      9      23.4796      0.00000
     10      28.1901      0.00000
     11      34.8790      0.00000
     12      45.1666      0.00000

 k-point    49 :      -0.3125   -0.4375    0.1875
  band No.  band energies     occupation 
      1       5.7237      1.00000
      2       6.1465      1.00000
      3       7.6560      1.00000
      4       8.9848      0.00000
      5       9.5556      0.00000
      6      13.3722      0.00000
      7      17.8163      0.00000
      8      18.3689      0.00000
      9      20.7064      0.00000
     10      31.3454      0.00000
     11      35.3534      0.00000
     12      41.6391      0.00000

 k-point    50 :      -0.3125   -0.3125    0.1875
  band No.  band energies     occupation 
      1       5.4852      1.00000
      2       6.1004      1.00000
      3       7.7906      1.00000
      4       8.8542      0.00000
      5       9.5379      0.00000
      6      11.4766      0.00000
      7      18.0662      0.00000
      8      20.3170      0.00000
      9      24.0042      0.00000
     10      28.3067      0.00000
     11      35.0871      0.00000
     12      44.0512      0.00000

 k-point    51 :       0.3125    0.3125    0.3125
  band No.  band energies     occupation 
      1       3.3203      1.00000
      2       7.1106      1.00000
      3       7.7749      1.00000
      4       7.7749      1.00000
      5       9.0505      0.00000
      6       9.0505      0.00000
      7      19.3741      0.00000
      8      29.5469      0.00000
      9      31.6292      0.00000
     10      31.6292      0.00000
     11      35.7014      0.00000
     12      35.7014      0.00000

 k-point    52 :       0.4375    0.3125    0.3125
  band No.  band energies     occupation 
      1       4.3116      1.00000
      2       6.9916      1.00000
      3       7.5307      1.00000
      4       7.9204      1.00000
      5       8.9204      0.00000
      6       9.8426      0.00000
      7      18.0827      0.00000
      8      25.3055      0.00000
      9      30.5660      0.00000
     10      31.5944      0.00000
     11      35.9235      0.00000
     12      36.3910      0.00000

 k-point    53 :      -0.4375    0.3125    0.3125
  band No.  band energies     occupation 
      1       5.6054      1.00000
      2       6.8068      1.00000
      3       6.9889      1.00000
      4       8.3466      1.00000
      5       8.9234      0.00000
      6      11.3870      0.00000
      7      17.4226      0.00000
      8      20.3357      0.00000
      9      28.2045      0.00000
     10      29.4706      0.00000
     11      39.2722      0.00000
     12      39.8795      0.00000

 k-point    54 :      -0.3125    0.3125    0.3125
  band No.  band energies     occupation 
      1       6.0955      1.00000
      2       6.2253      1.00000
      3       7.3016      1.00000
      4       8.6705      0.00000
      5       9.2477      0.00000
      6      13.8454      0.00000
      7      15.1362      0.00000
      8      18.8797      0.00000
      9      25.5119      0.00000
     10      28.6425      0.00000
     11      40.8113      0.00000
     12      42.2395      0.00000

 k-point    55 :       0.4375    0.4375    0.3125
  band No.  band energies     occupation 
      1       4.7538      1.00000
      2       6.9876      1.00000
      3       7.5140      1.00000
      4       7.9040      1.00000
      5       9.4631      0.00000
      6       9.8555      0.00000
      7      16.5883      0.00000
      8      27.0122      0.00000
      9      28.0572      0.00000
     10      29.7194      0.00000
     11      37.2811      0.00000
     12      37.8528      0.00000

 k-point    56 :      -0.4375    0.4375    0.3125
  band No.  band energies     occupation 
      1       5.6162      1.00000
      2       6.6502      1.00000
      3       7.2085      1.00000
      4       8.2608      1.00000
      5       9.3146      0.00000
      6      11.5296      0.00000
      7      15.8212      0.00000
      8      23.0997      0.00000
      9      24.6730      0.00000
     10      32.1409      0.00000
     11      35.9070      0.00000
     12      42.2284      0.00000

 k-point    57 :      -0.3125    0.4375    0.3125
  band No.  band energies     occupation 
      1       6.1836      1.00000
      2       6.3444      1.00000
      3       7.0354      1.00000
      4       8.6591      0.00001
      5       9.3783      0.00000
      6      14.1997      0.00000
      7      15.4397      0.00000
      8      19.0262      0.00000
      9      22.2505      0.00000
     10      32.3965      0.00000
     11      38.1403      0.00000
     12      40.9192      0.00000

 k-point    58 :      -0.4375   -0.4375    0.3125
  band No.  band energies     occupation 
      1       5.8549      1.00000
      2       6.3903      1.00000
      3       7.3400      1.00000
      4       8.4077      0.99765
      5       9.4078      0.00000
      6      12.6239      0.00000
      7      14.9824      0.00000
      8      21.2708      0.00000
      9      25.9448      0.00000
     10      28.7168      0.00000
     11      40.4282      0.00000
     12      40.8891      0.00000

 k-point    59 :       0.4375    0.4375    0.4375
  band No.  band energies     occupation 
      1       4.6877      1.00000
      2       7.6323      1.00000
      3       7.6323      1.00000
      4       7.8813      1.00000
      5       9.4118      0.00000
      6       9.4118      0.00000
      7      15.2276      0.00000
      8      28.7134      0.00000
      9      31.2541      0.00000
     10      31.2541      0.00000
     11      34.0897      0.00000
     12      34.0897      0.00000

 k-point    60 :      -0.4375    0.4375    0.4375
  band No.  band energies     occupation 
      1       5.1642      1.00000
      2       7.2061      1.00000
      3       7.6337      1.00000
      4       7.8263      1.00000
      5       9.3865      0.00000
      6      10.6875      0.00000
      7      14.6472      0.00000
      8      25.7640      0.00000
      9      29.1907      0.00000
     10      29.4956      0.00000
     11      36.4868      0.00000
     12      36.9952      0.00000


--------------------------------------------------------------------------------------------------------


 soft charge-density along one line, spin component           1
         0         1         2         3         4         5         6         7         8         9
 total charge-density along one line
 
 soft charge-density along one line, spin component           2
         0         1         2         3         4         5         6         7         8         9
 total charge-density along one line
 
 pseudopotential strength for first ion, spin component:           1
 -1.885  -0.000  -0.000  -0.000   0.000  -2.472  -0.000  -0.000
 -0.000  -1.885   0.000  -0.000  -0.000  -0.000  -2.472   0.000
 -0.000   0.000  -1.974   0.000  -0.000  -0.000   0.000  -2.559
 -0.000  -0.000   0.000  -1.885   0.000  -0.000  -0.000   0.000
  0.000  -0.000  -0.000   0.000  -1.974   0.000  -0.000  -0.000
 -2.472  -0.000  -0.000  -0.000   0.000  -3.002  -0.000  -0.000
 -0.000  -2.472   0.000  -0.000  -0.000  -0.000  -3.002   0.000
 -0.000   0.000  -2.559   0.000  -0.000  -0.000   0.000  -3.086
 -0.000  -0.000   0.000  -2.472   0.000  -0.000  -0.000   0.000
  0.000  -0.000  -0.000   0.000  -2.559   0.000  -0.000  -0.000
 -0.000  -0.000   0.000  -0.000  -0.000  -0.000  -0.000   0.000
 -0.000  -0.000   0.000  -0.000  -0.000  -0.000  -0.000   0.000
  0.000   0.000  -0.000  -0.000  -0.000   0.000  -0.000  -0.000
 -0.000   0.000   0.000   0.000   0.000   0.000   0.000   0.000
  0.000  -0.000  -0.000   0.000   0.000   0.000  -0.000  -0.000
 -0.000   0.000  -0.000  -0.000  -0.000  -0.000  -0.000  -0.000
 -0.000   0.000   0.000  -0.000   0.000  -0.000   0.000   0.000
  0.000  -0.000  -0.000   0.000   0.000   0.000  -0.000  -0.000
 pseudopotential strength for first ion, spin component:           2
 -0.506   0.000  -0.000   0.000   0.000  -1.153   0.000  -0.000
  0.000  -0.506   0.000   0.000  -0.000   0.000  -1.153   0.000
 -0.000   0.000  -0.430   0.000  -0.000  -0.000   0.000  -1.079
  0.000   0.000   0.000  -0.506   0.000   0.000   0.000   0.000
  0.000  -0.000  -0.000   0.000  -0.430   0.000  -0.000  -0.000
 -1.153   0.000  -0.000   0.000   0.000  -1.739   0.000  -0.000
  0.000  -1.153   0.000   0.000  -0.000   0.000  -1.739   0.000
 -0.000   0.000  -1.079   0.000  -0.000  -0.000   0.000  -1.668
  0.000   0.000   0.000  -1.153   0.000   0.000   0.000   0.000
  0.000  -0.000  -0.000   0.000  -1.079   0.000  -0.000  -0.000
 -0.000  -0.000   0.000  -0.000  -0.000  -0.000  -0.000   0.000
 -0.000  -0.000   0.000  -0.000  -0.000  -0.000  -0.000   0.000
  0.000   0.000  -0.000  -0.000  -0.000   0.000  -0.000  -0.000
 -0.000   0.000   0.000   0.000   0.000   0.000   0.000   0.000
  0.000  -0.000   0.000   0.000   0.000   0.000  -0.000  -0.000
 -0.000   0.000  -0.000  -0.000  -0.000  -0.000   0.000  -0.000
 -0.000   0.000   0.000  -0.000   0.000  -0.000   0.000   0.000
  0.000  -0.000   0.000   0.000  -0.000   0.000  -0.000   0.000
 total augmentation occupancy for first ion, spin component:           1
  2.721   0.000   0.000   0.000   0.000  -1.217  -0.000  -0.000  -0.000   0.000   0.000   0.000   0.000   0.000   0.000   0.000
  0.000   2.721  -0.000   0.000   0.000  -0.000  -1.217   0.000  -0.000  -0.000  -0.000  -0.000   0.000   0.000   0.000   0.000
 -0.000   0.000   2.984   0.000   0.000   0.000   0.000  -1.387   0.000   0.000   0.000   0.000   0.000   0.000   0.000   0.000
  0.000   0.000   0.000   2.721  -0.000   0.000   0.000  -0.000  -1.217   0.000  -0.000  -0.000   0.000   0.000   0.000   0.000
  0.000  -0.000  -0.000  -0.000   2.984  -0.000  -0.000   0.000  -0.000  -1.387   0.000   0.000   0.000   0.000   0.000   0.000
 -1.217   0.000   0.000  -0.000   0.000   1.290  -0.000   0.000   0.000   0.000  -0.000   0.000   0.000   0.000   0.000   0.000
 -0.000  -1.217  -0.000   0.000  -0.000   0.000   1.290  -0.000  -0.000  -0.000   0.000  -0.000   0.000   0.000   0.000   0.000
  0.000   0.000  -1.387  -0.000   0.000   0.000  -0.000   1.272   0.000   0.000  -0.000   0.000   0.000   0.000   0.000   0.000
  0.000  -0.000  -0.000  -1.217  -0.000   0.000   0.000  -0.000   1.290   0.000  -0.000  -0.000   0.000   0.000   0.000   0.000
  0.000  -0.000   0.000  -0.000  -1.387  -0.000   0.000   0.000   0.000   1.272   0.000   0.000   0.000   0.000   0.000   0.000
  0.000  -0.000   0.000  -0.000   0.000   0.000  -0.000  -0.000  -0.000   0.000   1.940  -0.200   0.000   0.000   0.000   0.000
  0.000  -0.000   0.000  -0.000   0.000   0.000   0.000   0.000  -0.000   0.000  -0.200   0.028   0.000   0.000   0.000   0.000
  0.000   0.000   0.000   0.000   0.000   0.000   0.000   0.000   0.000   0.000   0.000   0.000   0.248   0.000   0.000  -0.023
  0.000   0.000   0.000   0.000   0.000   0.000   0.000   0.000   0.000   0.000   0.000   0.000   0.000   0.248   0.000   0.000
  0.000   0.000   0.000   0.000   0.000   0.000   0.000   0.000   0.000   0.000   0.000   0.000   0.000   0.000   0.248   0.000
  0.000   0.000   0.000   0.000   0.000   0.000   0.000   0.000   0.000   0.000   0.000   0.000  -0.023   0.000   0.000   0.002
  0.000   0.000   0.000   0.000   0.000   0.000   0.000   0.000   0.000   0.000   0.000   0.000   0.000  -0.023  -0.000   0.000
  0.000   0.000   0.000   0.000   0.000   0.000   0.000   0.000   0.000   0.000   0.000   0.000  -0.000   0.000  -0.023   0.000
 total augmentation occupancy for first ion, spin component:           2
  2.015  -0.000  -0.000   0.000  -0.000  -0.966  -0.000   0.000   0.000   0.000  -0.000   0.000   0.000   0.000   0.000   0.000
  0.000   2.015  -0.000   0.000   0.000   0.000  -0.966   0.000  -0.000   0.000  -0.000  -0.000   0.000   0.000   0.000   0.000
  0.000   0.000   2.236   0.000   0.000  -0.000  -0.000  -1.026  -0.000   0.000  -0.000   0.000   0.000   0.000   0.000   0.000
  0.000   0.000   0.000   2.015  -0.000  -0.000   0.000  -0.000  -0.966   0.000   0.000   0.000   0.000   0.000   0.000   0.000
 -0.000   0.000  -0.000   0.000   2.236  -0.000   0.000   0.000   0.000  -1.026   0.000   0.000   0.000   0.000   0.000   0.000
 -0.966   0.000  -0.000   0.000  -0.000   0.272  -0.000  -0.000  -0.000  -0.000   0.000  -0.000   0.000   0.000   0.000   0.000
 -0.000  -0.966   0.000   0.000   0.000  -0.000   0.272   0.000   0.000   0.000   0.000   0.000   0.000   0.000   0.000   0.000
 -0.000   0.000  -1.026  -0.000   0.000   0.000  -0.000   0.307   0.000   0.000  -0.000   0.000   0.000   0.000   0.000   0.000
  0.000  -0.000   0.000  -0.966   0.000  -0.000   0.000   0.000   0.272  -0.000   0.000  -0.000   0.000   0.000   0.000   0.000
  0.000  -0.000   0.000   0.000  -1.026   0.000  -0.000   0.000   0.000   0.307  -0.000  -0.000   0.000   0.000   0.000   0.000
  0.000  -0.000  -0.000   0.000   0.000   0.000   0.000   0.000   0.000   0.000  -0.270   0.083   0.000   0.000   0.000   0.000
  0.000  -0.000   0.000   0.000   0.000  -0.000   0.000   0.000   0.000   0.000   0.083  -0.012   0.000   0.000   0.000   0.000
  0.000   0.000   0.000   0.000   0.000   0.000   0.000   0.000   0.000   0.000   0.000   0.000  -0.032   0.000   0.000   0.004
  0.000   0.000   0.000   0.000   0.000   0.000   0.000   0.000   0.000   0.000   0.000   0.000   0.000  -0.032   0.000   0.000
  0.000   0.000   0.000   0.000   0.000   0.000   0.000   0.000   0.000   0.000   0.000   0.000   0.000   0.000  -0.032  -0.000
  0.000   0.000   0.000   0.000   0.000   0.000   0.000   0.000   0.000   0.000   0.000   0.000   0.004   0.000   0.000  -0.001
  0.000   0.000   0.000   0.000   0.000   0.000   0.000   0.000   0.000   0.000   0.000   0.000   0.000   0.004  -0.000  -0.000
  0.000   0.000   0.000   0.000   0.000   0.000   0.000   0.000   0.000   0.000   0.000   0.000   0.000  -0.000   0.004  -0.000


------------------------ aborting loop because EDIFF is reached ----------------------------------------





 total charge

# of ion       s       p       d       tot
------------------------------------------
    1        0.438   0.415   7.173   8.027



 magnetization (x)

# of ion       s       p       d       tot
------------------------------------------
    1       -0.010  -0.047   1.858   1.802
 
    CHARGE:  cpu time      0.0121: real time      0.0121
    FORLOC:  cpu time      0.0001: real time      0.0001
    FORNL :  cpu time      0.0064: real time      0.0065
    STRESS:  cpu time      0.0253: real time      0.0254
    FORCOR:  cpu time      0.0031: real time      0.0031
    FORHAR:  cpu time      0.0003: real time      0.0003
    MIXING:  cpu time      0.0002: real time      0.0002
    OFIELD:  cpu time      0.0000: real time      0.0000

  FORCE on cell =-STRESS in cart. coord.  units (eV):
  Direction    XX          YY          ZZ          XY          YZ          ZX
  --------------------------------------------------------------------------------------
  Alpha Z    33.88807    33.88807    33.88807
  Ewald    -241.93628  -241.93628  -241.93628    -0.00000     0.00000    -0.00000
  Hartree    49.14264    49.14264    49.14264     0.00000     0.00000     0.00000
  E(xc)     -45.83422   -45.83422   -45.83422    -0.00000    -0.00000    -0.00000
  Local     -20.74950   -20.74950   -20.74950     0.00004     0.00004     0.00004
  n-local    -6.55608    -5.42326    -8.11923     1.68652    -1.44504    -0.02166
  augment   156.22375   156.22375   156.22375    -0.00003    -0.00003    -0.00003
  Kinetic    73.47312    72.82449    76.69585    -0.76023     1.07113    -0.12262
  Fock        0.00000     0.00000     0.00000     0.00000     0.00000     0.00000
  -------------------------------------------------------------------------------------
  Total      -1.63391    -1.63391    -1.63391     0.00000     0.00000     0.00000
  in kB    -209.43746  -209.43746  -209.43746     0.00000     0.00000     0.00000
  external pressure =     -209.44 kB  Pullay stress =        0.00 kB


 VOLUME and BASIS-vectors are now :
 -----------------------------------------------------------------------------
  energy-cutoff  :      400.00
  volume of cell :       12.50
      direct lattice vectors                 reciprocal lattice vectors
     0.000000000  1.841980935  1.841980935    -0.271446892  0.271446892  0.271446892
     1.841980935  0.000000000  1.841980935     0.271446892 -0.271446892  0.271446892
     1.841980935  1.841980935  0.000000000     0.271446892  0.271446892 -0.271446892

  length of vectors
     2.604954419  2.604954419  2.604954419     0.470159809  0.470159809  0.470159809


 FORCES acting on ions
    electron-ion (+dipol)            ewald-force                    non-local-force                 convergence-correction
 -----------------------------------------------------------------------------------------------
   -.365E-14 -.417E-14 0.269E-15   -.502E-15 -.365E-15 -.304E-14   0.000E+00 -.827E-23 0.000E+00   0.559E-15 -.198E-13 -.105E-14
 -----------------------------------------------------------------------------------------------
   -.365E-14 -.417E-14 0.269E-15   -.502E-15 -.365E-15 -.304E-14   0.000E+00 -.827E-23 0.000E+00   0.559E-15 -.198E-13 -.105E-14
 
 
 POSITION                                       TOTAL-FORCE (eV/Angst)
 -----------------------------------------------------------------------------------
      0.00000      0.00000      0.00000         0.000000      0.000000      0.000000
 -----------------------------------------------------------------------------------
    total drift:                               -0.000000     -0.000000     -0.000000


--------------------------------------------------------------------------------------------------------



  FREE ENERGIE OF THE ION-ELECTRON SYSTEM (eV)
  ---------------------------------------------------
  free  energy   TOTEN  =        -6.89744281 eV

  energy  without entropy=       -6.89499738  energy(sigma->0) =       -6.89622009
 


--------------------------------------------------------------------------------------------------------


    POTLOK:  cpu time      0.0077: real time      0.0078


--------------------------------------------------------------------------------------------------------




--------------------------------------------------------------------------------------------------------


  
 reached required accuracy - stopping structural energy minimisation
 writing wavefunctions
     LOOP+:  cpu time      4.2150: real time      4.2852
    4ORBIT:  cpu time      0.0000: real time      0.0000



 total charge

# of ion       s       p       d       tot
------------------------------------------
    1        0.438   0.415   7.173   8.027



 magnetization (x)

# of ion       s       p       d       tot
------------------------------------------
    1       -0.010  -0.047   1.858   1.802
 

 total amount of memory used by VASP MPI-rank0    31108. kBytes
=======================================================================

   base      :      30000. kBytes
   nonl-proj :        346. kBytes
   fftplans  :        112. kBytes
   grid      :        274. kBytes
   one-center:         31. kBytes
   wavefun   :        345. kBytes
 
  
  
 General timing and accounting informations for this job:
 ========================================================
  
                  Total CPU time used (sec):        5.149
                            User time (sec):        4.606
                          System time (sec):        0.543
                         Elapsed time (sec):        6.846
  
                   Maximum memory used (kb):      235064.
                   Average memory used (kb):          N/A
  
                          Minor page faults:        19706
                          Major page faults:           87
                 Voluntary context switches:         2216
