PROCAR lm decomposed
# of k-points:   60         # of bands:   12         # of ions:    1

 k-point     1 :    0.06250000 0.06250000 0.06250000     weight = 0.00390625

band     1 # energy    0.42035892 # occ.  1.00000000
 
ion      s     py     pz     px    dxy    dyz    dz2    dxz  x2-y2    tot
    1  0.612  0.003  0.003  0.003  0.000  0.000  0.000  0.000  0.000  0.620
 
band     2 # energy    5.86809883 # occ.  1.00000000
 
ion      s     py     pz     px    dxy    dyz    dz2    dxz  x2-y2    tot
    1  0.000  0.000  0.000  0.000  0.320  0.320  0.000  0.320  0.000  0.960
 
band     3 # energy    5.93137961 # occ.  1.00000000
 
ion      s     py     pz     px    dxy    dyz    dz2    dxz  x2-y2    tot
    1  0.000  0.000  0.000  0.000  0.140  0.440  0.000  0.380  0.001  0.962
 
band     4 # energy    5.93137961 # occ.  1.00000000
 
ion      s     py     pz     px    dxy    dyz    dz2    dxz  x2-y2    tot
    1  0.000  0.000  0.000  0.000  0.500  0.200  0.001  0.260  0.000  0.962
 
band     5 # energy    6.69218713 # occ.  1.00000000
 
ion      s     py     pz     px    dxy    dyz    dz2    dxz  x2-y2    tot
    1  0.000  0.000  0.000  0.000  0.001  0.000  0.724  0.000  0.254  0.980
 
band     6 # energy    6.69218713 # occ.  1.00000000
 
ion      s     py     pz     px    dxy    dyz    dz2    dxz  x2-y2    tot
    1  0.000  0.000  0.000  0.000  0.000  0.001  0.254  0.001  0.724  0.980
 
band     7 # energy   29.82487623 # occ.  0.00000000
 
ion      s     py     pz     px    dxy    dyz    dz2    dxz  x2-y2    tot
    1  0.002  0.014  0.014  0.014  0.054  0.054  0.000  0.054  0.000  0.203
 
band     8 # energy   32.02527625 # occ.  0.00000000
 
ion      s     py     pz     px    dxy    dyz    dz2    dxz  x2-y2    tot
    1  0.018  0.091  0.091  0.091  0.026  0.026  0.000  0.026  0.000  0.370
 
band     9 # energy   33.26871053 # occ.  0.00000000
 
ion      s     py     pz     px    dxy    dyz    dz2    dxz  x2-y2    tot
    1  0.000  0.101  0.099  0.140  0.041  0.057  0.005  0.041  0.006  0.491
 
band    10 # energy   33.26871054 # occ.  0.00000000
 
ion      s     py     pz     px    dxy    dyz    dz2    dxz  x2-y2    tot
    1  0.000  0.126  0.128  0.087  0.052  0.036  0.006  0.052  0.005  0.491
 
band    11 # energy   36.79916141 # occ.  0.00000000
 
ion      s     py     pz     px    dxy    dyz    dz2    dxz  x2-y2    tot
    1  0.000  0.006  0.006  0.006  0.332  0.302  0.003  0.292  0.002  0.948
 
band    12 # energy   36.79916144 # occ.  0.00000000
 
ion      s     py     pz     px    dxy    dyz    dz2    dxz  x2-y2    tot
    1  0.000  0.006  0.006  0.006  0.285  0.315  0.002  0.325  0.003  0.948
 

 k-point     2 :    0.18750000 0.06250000 0.06250000     weight = 0.01171875

band     1 # energy    1.14269929 # occ.  1.00000000
 
ion      s     py     pz     px    dxy    dyz    dz2    dxz  x2-y2    tot
    1  0.567  0.023  0.023  0.002  0.001  0.004  0.000  0.001  0.001  0.622
 
band     2 # energy    5.70432150 # occ.  1.00000000
 
ion      s     py     pz     px    dxy    dyz    dz2    dxz  x2-y2    tot
    1  0.000  0.001  0.001  0.005  0.455  0.033  0.000  0.455  0.000  0.949
 
band     3 # energy    6.05501067 # occ.  1.00000000
 
ion      s     py     pz     px    dxy    dyz    dz2    dxz  x2-y2    tot
    1  0.000  0.002  0.002  0.000  0.016  0.826  0.025  0.016  0.075  0.961
 
band     4 # energy    6.06165053 # occ.  1.00000000
 
ion      s     py     pz     px    dxy    dyz    dz2    dxz  x2-y2    tot
    1  0.000  0.000  0.000  0.000  0.469  0.000  0.020  0.469  0.007  0.964
 
band     5 # energy    6.57460930 # occ.  1.00000000
 
ion      s     py     pz     px    dxy    dyz    dz2    dxz  x2-y2    tot
    1  0.000  0.000  0.000  0.000  0.013  0.000  0.711  0.013  0.237  0.975
 
band     6 # energy    6.77082572 # occ.  1.00000000
 
ion      s     py     pz     px    dxy    dyz    dz2    dxz  x2-y2    tot
    1  0.001  0.000  0.000  0.000  0.002  0.096  0.219  0.002  0.658  0.979
 
band     7 # energy   26.61105349 # occ.  0.00000000
 
ion      s     py     pz     px    dxy    dyz    dz2    dxz  x2-y2    tot
    1  0.030  0.053  0.053  0.125  0.137  0.073  0.001  0.137  0.002  0.610
 
band     8 # energy   29.11878322 # occ.  0.00000000
 
ion      s     py     pz     px    dxy    dyz    dz2    dxz  x2-y2    tot
    1  0.036  0.086  0.086  0.054  0.060  0.117  0.005  0.060  0.014  0.518
 
band     9 # energy   32.53375118 # occ.  0.00000000
 
ion      s     py     pz     px    dxy    dyz    dz2    dxz  x2-y2    tot
    1  0.002  0.004  0.004  0.208  0.002  0.047  0.000  0.002  0.001  0.272
 
band    10 # energy   34.21136796 # occ.  0.00000000
 
ion      s     py     pz     px    dxy    dyz    dz2    dxz  x2-y2    tot
    1  0.000  0.139  0.139  0.000  0.094  0.000  0.074  0.094  0.025  0.563
 
band    11 # energy   36.08818438 # occ.  0.00000000
 
ion      s     py     pz     px    dxy    dyz    dz2    dxz  x2-y2    tot
    1  0.000  0.054  0.054  0.012  0.000  0.189  0.013  0.000  0.038  0.361
 
band    12 # energy   37.01318267 # occ.  0.00000000
 
ion      s     py     pz     px    dxy    dyz    dz2    dxz  x2-y2    tot
    1  0.000  0.000  0.000  0.000  0.357  0.000  0.086  0.357  0.029  0.830
 

 k-point     3 :    0.31250000 0.06250000 0.06250000     weight = 0.01171875

band     1 # energy    2.68919082 # occ.  1.00000000
 
ion      s     py     pz     px    dxy    dyz    dz2    dxz  x2-y2    tot
    1  0.438  0.047  0.047  0.014  0.027  0.050  0.001  0.027  0.003  0.654
 
band     2 # energy    5.63235370 # occ.  1.00000000
 
ion      s     py     pz     px    dxy    dyz    dz2    dxz  x2-y2    tot
    1  0.019  0.016  0.016  0.023  0.385  0.054  0.001  0.385  0.002  0.902
 
band     3 # energy    5.99753091 # occ.  1.00000000
 
ion      s     py     pz     px    dxy    dyz    dz2    dxz  x2-y2    tot
    1  0.000  0.002  0.002  0.000  0.029  0.454  0.110  0.029  0.329  0.957
 
band     4 # energy    6.05326888 # occ.  1.00000000
 
ion      s     py     pz     px    dxy    dyz    dz2    dxz  x2-y2    tot
    1  0.000  0.000  0.000  0.000  0.250  0.000  0.346  0.250  0.115  0.962
 
band     5 # energy    6.77038116 # occ.  1.00000000
 
ion      s     py     pz     px    dxy    dyz    dz2    dxz  x2-y2    tot
    1  0.000  0.001  0.001  0.000  0.234  0.000  0.379  0.234  0.126  0.975
 
band     6 # energy    7.11631097 # occ.  1.00000000
 
ion      s     py     pz     px    dxy    dyz    dz2    dxz  x2-y2    tot
    1  0.009  0.004  0.004  0.000  0.017  0.396  0.132  0.017  0.396  0.975
 
band     7 # energy   20.76478672 # occ.  0.00000000
 
ion      s     py     pz     px    dxy    dyz    dz2    dxz  x2-y2    tot
    1  0.120  0.077  0.077  0.128  0.108  0.084  0.001  0.108  0.002  0.704
 
band     8 # energy   28.12025873 # occ.  0.00000000
 
ion      s     py     pz     px    dxy    dyz    dz2    dxz  x2-y2    tot
    1  0.029  0.044  0.044  0.145  0.085  0.065  0.013  0.085  0.038  0.547
 
band     9 # energy   31.54302226 # occ.  0.00000000
 
ion      s     py     pz     px    dxy    dyz    dz2    dxz  x2-y2    tot
    1  0.000  0.054  0.054  0.105  0.000  0.077  0.000  0.000  0.000  0.289
 
band    10 # energy   33.48666552 # occ.  0.00000000
 
ion      s     py     pz     px    dxy    dyz    dz2    dxz  x2-y2    tot
    1  0.000  0.209  0.209  0.000  0.166  0.000  0.016  0.166  0.005  0.770
 
band    11 # energy   34.85940947 # occ.  0.00000000
 
ion      s     py     pz     px    dxy    dyz    dz2    dxz  x2-y2    tot
    1  0.000  0.055  0.055  0.000  0.014  0.000  0.441  0.014  0.147  0.726
 
band    12 # energy   35.95654647 # occ.  0.00000000
 
ion      s     py     pz     px    dxy    dyz    dz2    dxz  x2-y2    tot
    1  0.054  0.053  0.053  0.012  0.011  0.031  0.058  0.011  0.173  0.456
 

 k-point     4 :    0.43750000 0.06250000 0.06250000     weight = 0.01171875

band     1 # energy    3.79239106 # occ.  1.00000000
 
ion      s     py     pz     px    dxy    dyz    dz2    dxz  x2-y2    tot
    1  0.199  0.017  0.017  0.002  0.183  0.205  0.000  0.183  0.001  0.806
 
band     2 # energy    5.80807311 # occ.  1.00000000
 
ion      s     py     pz     px    dxy    dyz    dz2    dxz  x2-y2    tot
    1  0.000  0.001  0.001  0.000  0.045  0.272  0.147  0.045  0.440  0.952
 
band     3 # energy    5.88291319 # occ.  1.00000000
 
ion      s     py     pz     px    dxy    dyz    dz2    dxz  x2-y2    tot
    1  0.000  0.000  0.000  0.000  0.175  0.000  0.455  0.175  0.152  0.957
 
band     4 # energy    6.56691358 # occ.  1.00000000
 
ion      s     py     pz     px    dxy    dyz    dz2    dxz  x2-y2    tot
    1  0.049  0.067  0.067  0.068  0.200  0.041  0.028  0.200  0.084  0.805
 
band     5 # energy    7.21811557 # occ.  1.00000000
 
ion      s     py     pz     px    dxy    dyz    dz2    dxz  x2-y2    tot
    1  0.000  0.000  0.000  0.000  0.312  0.000  0.269  0.312  0.090  0.984
 
band     6 # energy    7.85251451 # occ.  1.00000000
 
ion      s     py     pz     px    dxy    dyz    dz2    dxz  x2-y2    tot
    1  0.052  0.050  0.050  0.032  0.003  0.421  0.067  0.003  0.200  0.878
 
band     7 # energy   15.69348236 # occ.  0.00000000
 
ion      s     py     pz     px    dxy    dyz    dz2    dxz  x2-y2    tot
    1  0.272  0.046  0.046  0.091  0.111  0.087  0.001  0.111  0.002  0.767
 
band     8 # energy   27.83128189 # occ.  0.00000000
 
ion      s     py     pz     px    dxy    dyz    dz2    dxz  x2-y2    tot
    1  0.019  0.019  0.019  0.169  0.051  0.036  0.023  0.051  0.070  0.457
 
band     9 # energy   30.23812114 # occ.  0.00000000
 
ion      s     py     pz     px    dxy    dyz    dz2    dxz  x2-y2    tot
    1  0.010  0.090  0.090  0.134  0.003  0.008  0.000  0.003  0.000  0.339
 
band    10 # energy   31.47539366 # occ.  0.00000000
 
ion      s     py     pz     px    dxy    dyz    dz2    dxz  x2-y2    tot
    1  0.000  0.273  0.273  0.000  0.001  0.000  0.087  0.001  0.029  0.666
 
band    11 # energy   34.06057476 # occ.  0.00000000
 
ion      s     py     pz     px    dxy    dyz    dz2    dxz  x2-y2    tot
    1  0.000  0.021  0.021  0.000  0.166  0.000  0.368  0.166  0.123  0.865
 
band    12 # energy   35.57357107 # occ.  0.00000000
 
ion      s     py     pz     px    dxy    dyz    dz2    dxz  x2-y2    tot
    1  0.046  0.014  0.014  0.011  0.000  0.201  0.111  0.000  0.332  0.728
 

 k-point     5 :   -0.43750000 0.06250000 0.06250000     weight = 0.01171875

band     1 # energy    3.92205306 # occ.  1.00000000
 
ion      s     py     pz     px    dxy    dyz    dz2    dxz  x2-y2    tot
    1  0.138  0.000  0.000  0.005  0.230  0.249  0.000  0.230  0.000  0.851
 
band     2 # energy    5.73026250 # occ.  1.00000000
 
ion      s     py     pz     px    dxy    dyz    dz2    dxz  x2-y2    tot
    1  0.000  0.001  0.001  0.000  0.060  0.191  0.159  0.060  0.476  0.949
 
band     3 # energy    5.84036648 # occ.  1.00000000
 
ion      s     py     pz     px    dxy    dyz    dz2    dxz  x2-y2    tot
    1  0.000  0.000  0.000  0.000  0.174  0.000  0.455  0.174  0.152  0.956
 
band     4 # energy    6.99272188 # occ.  1.00000000
 
ion      s     py     pz     px    dxy    dyz    dz2    dxz  x2-y2    tot
    1  0.002  0.040  0.040  0.039  0.076  0.398  0.055  0.076  0.166  0.893
 
band     5 # energy    7.43994048 # occ.  1.00000000
 
ion      s     py     pz     px    dxy    dyz    dz2    dxz  x2-y2    tot
    1  0.000  0.000  0.000  0.000  0.315  0.000  0.269  0.315  0.090  0.989
 
band     6 # energy    8.77955362 # occ.  0.00000000
 
ion      s     py     pz     px    dxy    dyz    dz2    dxz  x2-y2    tot
    1  0.009  0.139  0.139  0.154  0.043  0.047  0.027  0.043  0.082  0.682
 
band     7 # energy   13.57643602 # occ.  0.00000000
 
ion      s     py     pz     px    dxy    dyz    dz2    dxz  x2-y2    tot
    1  0.417  0.011  0.011  0.000  0.127  0.141  0.000  0.127  0.000  0.834
 
band     8 # energy   28.20730173 # occ.  0.00000000
 
ion      s     py     pz     px    dxy    dyz    dz2    dxz  x2-y2    tot
    1  0.002  0.000  0.000  0.083  0.011  0.034  0.029  0.011  0.088  0.259
 
band     9 # energy   29.82877240 # occ.  0.00000000
 
ion      s     py     pz     px    dxy    dyz    dz2    dxz  x2-y2    tot
    1  0.000  0.256  0.256  0.000  0.026  0.000  0.082  0.026  0.027  0.673
 
band    10 # energy   30.04124810 # occ.  0.00000000
 
ion      s     py     pz     px    dxy    dyz    dz2    dxz  x2-y2    tot
    1  0.036  0.093  0.093  0.277  0.008  0.011  0.005  0.008  0.014  0.544
 
band    11 # energy   34.79359871 # occ.  0.00000000
 
ion      s     py     pz     px    dxy    dyz    dz2    dxz  x2-y2    tot
    1  0.000  0.049  0.049  0.000  0.123  0.000  0.367  0.123  0.122  0.832
 
band    12 # energy   34.92876297 # occ.  0.00000000
 
ion      s     py     pz     px    dxy    dyz    dz2    dxz  x2-y2    tot
    1  0.010  0.002  0.002  0.025  0.021  0.218  0.117  0.021  0.350  0.767
 

 k-point     6 :   -0.31250000 0.06250000 0.06250000     weight = 0.01171875

band     1 # energy    3.57715488 # occ.  1.00000000
 
ion      s     py     pz     px    dxy    dyz    dz2    dxz  x2-y2    tot
    1  0.271  0.013  0.013  0.042  0.137  0.133  0.002  0.137  0.005  0.754
 
band     2 # energy    5.83942904 # occ.  1.00000000
 
ion      s     py     pz     px    dxy    dyz    dz2    dxz  x2-y2    tot
    1  0.000  0.002  0.002  0.001  0.103  0.111  0.156  0.103  0.468  0.948
 
band     3 # energy    5.95721641 # occ.  1.00000000
 
ion      s     py     pz     px    dxy    dyz    dz2    dxz  x2-y2    tot
    1  0.000  0.001  0.001  0.000  0.214  0.000  0.397  0.214  0.132  0.959
 
band     4 # energy    6.10406152 # occ.  1.00000000
 
ion      s     py     pz     px    dxy    dyz    dz2    dxz  x2-y2    tot
    1  0.059  0.053  0.053  0.054  0.014  0.557  0.005  0.014  0.014  0.823
 
band     5 # energy    7.27238776 # occ.  1.00000000
 
ion      s     py     pz     px    dxy    dyz    dz2    dxz  x2-y2    tot
    1  0.000  0.000  0.000  0.000  0.272  0.000  0.331  0.272  0.110  0.986
 
band     6 # energy    7.36735108 # occ.  1.00000000
 
ion      s     py     pz     px    dxy    dyz    dz2    dxz  x2-y2    tot
    1  0.034  0.014  0.014  0.030  0.201  0.122  0.079  0.201  0.236  0.931
 
band     7 # energy   17.23824940 # occ.  0.00000000
 
ion      s     py     pz     px    dxy    dyz    dz2    dxz  x2-y2    tot
    1  0.211  0.093  0.093  0.050  0.089  0.115  0.001  0.089  0.002  0.743
 
band     8 # energy   28.92835341 # occ.  0.00000000
 
ion      s     py     pz     px    dxy    dyz    dz2    dxz  x2-y2    tot
    1  0.008  0.006  0.006  0.001  0.000  0.095  0.021  0.000  0.064  0.202
 
band     9 # energy   29.34303417 # occ.  0.00000000
 
ion      s     py     pz     px    dxy    dyz    dz2    dxz  x2-y2    tot
    1  0.000  0.231  0.231  0.000  0.090  0.000  0.054  0.090  0.018  0.714
 
band    10 # energy   31.44264923 # occ.  0.00000000
 
ion      s     py     pz     px    dxy    dyz    dz2    dxz  x2-y2    tot
    1  0.045  0.049  0.049  0.401  0.000  0.063  0.019  0.000  0.058  0.684
 
band    11 # energy   34.85056414 # occ.  0.00000000
 
ion      s     py     pz     px    dxy    dyz    dz2    dxz  x2-y2    tot
    1  0.001  0.002  0.002  0.012  0.058  0.128  0.110  0.058  0.329  0.700
 
band    12 # energy   36.43721280 # occ.  0.00000000
 
ion      s     py     pz     px    dxy    dyz    dz2    dxz  x2-y2    tot
    1  0.000  0.062  0.062  0.000  0.046  0.000  0.385  0.046  0.128  0.728
 

 k-point     7 :   -0.18750000 0.06250000 0.06250000     weight = 0.01171875

band     1 # energy    2.12753332 # occ.  1.00000000
 
ion      s     py     pz     px    dxy    dyz    dz2    dxz  x2-y2    tot
    1  0.495  0.019  0.019  0.057  0.016  0.009  0.001  0.016  0.003  0.634
 
band     2 # energy    5.58600727 # occ.  1.00000000
 
ion      s     py     pz     px    dxy    dyz    dz2    dxz  x2-y2    tot
    1  0.007  0.010  0.010  0.006  0.133  0.626  0.000  0.133  0.001  0.926
 
band     3 # energy    6.04966147 # occ.  1.00000000
 
ion      s     py     pz     px    dxy    dyz    dz2    dxz  x2-y2    tot
    1  0.000  0.000  0.000  0.001  0.185  0.196  0.098  0.185  0.295  0.960
 
band     4 # energy    6.09989690 # occ.  1.00000000
 
ion      s     py     pz     px    dxy    dyz    dz2    dxz  x2-y2    tot
    1  0.000  0.001  0.001  0.000  0.340  0.000  0.210  0.340  0.070  0.963
 
band     5 # energy    6.71194962 # occ.  1.00000000
 
ion      s     py     pz     px    dxy    dyz    dz2    dxz  x2-y2    tot
    1  0.005  0.001  0.001  0.004  0.138  0.114  0.142  0.138  0.427  0.969
 
band     6 # energy    6.90823724 # occ.  1.00000000
 
ion      s     py     pz     px    dxy    dyz    dz2    dxz  x2-y2    tot
    1  0.000  0.000  0.000  0.000  0.142  0.000  0.522  0.142  0.174  0.980
 
band     7 # energy   22.66788835 # occ.  0.00000000
 
ion      s     py     pz     px    dxy    dyz    dz2    dxz  x2-y2    tot
    1  0.086  0.110  0.110  0.063  0.095  0.122  0.001  0.095  0.002  0.684
 
band     8 # energy   29.81131548 # occ.  0.00000000
 
ion      s     py     pz     px    dxy    dyz    dz2    dxz  x2-y2    tot
    1  0.030  0.001  0.001  0.024  0.000  0.169  0.012  0.000  0.036  0.273
 
band     9 # energy   29.87652593 # occ.  0.00000000
 
ion      s     py     pz     px    dxy    dyz    dz2    dxz  x2-y2    tot
    1  0.000  0.202  0.202  0.000  0.145  0.000  0.027  0.145  0.009  0.729
 
band    10 # energy   34.02869273 # occ.  0.00000000
 
ion      s     py     pz     px    dxy    dyz    dz2    dxz  x2-y2    tot
    1  0.021  0.012  0.012  0.370  0.027  0.129  0.019  0.027  0.057  0.675
 
band    11 # energy   34.76355839 # occ.  0.00000000
 
ion      s     py     pz     px    dxy    dyz    dz2    dxz  x2-y2    tot
    1  0.005  0.043  0.043  0.004  0.023  0.014  0.073  0.023  0.219  0.447
 
band    12 # energy   38.49604258 # occ.  0.00000000
 
ion      s     py     pz     px    dxy    dyz    dz2    dxz  x2-y2    tot
    1  0.002  0.115  0.119  0.052  0.033  0.086  0.043  0.033  0.117  0.599
 

 k-point     8 :   -0.06250000 0.06250000 0.06250000     weight = 0.01171875

band     1 # energy    0.78686377 # occ.  1.00000000
 
ion      s     py     pz     px    dxy    dyz    dz2    dxz  x2-y2    tot
    1  0.589  0.003  0.003  0.024  0.000  0.000  0.000  0.000  0.001  0.621
 
band     2 # energy    5.75679031 # occ.  1.00000000
 
ion      s     py     pz     px    dxy    dyz    dz2    dxz  x2-y2    tot
    1  0.000  0.001  0.001  0.000  0.056  0.840  0.000  0.056  0.000  0.955
 
band     3 # energy    6.01974568 # occ.  1.00000000
 
ion      s     py     pz     px    dxy    dyz    dz2    dxz  x2-y2    tot
    1  0.000  0.001  0.001  0.000  0.418  0.114  0.003  0.418  0.008  0.962
 
band     4 # energy    6.02288680 # occ.  1.00000000
 
ion      s     py     pz     px    dxy    dyz    dz2    dxz  x2-y2    tot
    1  0.000  0.001  0.001  0.000  0.474  0.000  0.010  0.474  0.003  0.963
 
band     5 # energy    6.58843749 # occ.  1.00000000
 
ion      s     py     pz     px    dxy    dyz    dz2    dxz  x2-y2    tot
    1  0.001  0.000  0.000  0.000  0.005  0.001  0.241  0.005  0.723  0.976
 
band     6 # energy    6.74611718 # occ.  1.00000000
 
ion      s     py     pz     px    dxy    dyz    dz2    dxz  x2-y2    tot
    1  0.000  0.000  0.000  0.000  0.007  0.000  0.725  0.007  0.242  0.981
 
band     7 # energy   28.49748742 # occ.  0.00000000
 
ion      s     py     pz     px    dxy    dyz    dz2    dxz  x2-y2    tot
    1  0.011  0.065  0.065  0.022  0.076  0.175  0.000  0.076  0.001  0.492
 
band     8 # energy   30.76417580 # occ.  0.00000000
 
ion      s     py     pz     px    dxy    dyz    dz2    dxz  x2-y2    tot
    1  0.030  0.038  0.038  0.076  0.026  0.065  0.004  0.026  0.011  0.314
 
band     9 # energy   31.24689801 # occ.  0.00000000
 
ion      s     py     pz     px    dxy    dyz    dz2    dxz  x2-y2    tot
    1  0.000  0.179  0.179  0.000  0.153  0.000  0.004  0.153  0.001  0.669
 
band    10 # energy   33.29935394 # occ.  0.00000000
 
ion      s     py     pz     px    dxy    dyz    dz2    dxz  x2-y2    tot
    1  0.011  0.081  0.081  0.087  0.019  0.001  0.017  0.019  0.052  0.368
 
band    11 # energy   36.78377901 # occ.  0.00000000
 
ion      s     py     pz     px    dxy    dyz    dz2    dxz  x2-y2    tot
    1  0.000  0.002  0.002  0.074  0.175  0.349  0.003  0.175  0.008  0.789
 
band    12 # energy   38.58549784 # occ.  0.00000000
 
ion      s     py     pz     px    dxy    dyz    dz2    dxz  x2-y2    tot
    1  0.002  0.000  0.000  0.207  0.003  0.406  0.006  0.001  0.018  0.645
 

 k-point     9 :    0.18750000 0.18750000 0.06250000     weight = 0.01171875

band     1 # energy    1.49014368 # occ.  1.00000000
 
ion      s     py     pz     px    dxy    dyz    dz2    dxz  x2-y2    tot
    1  0.543  0.002  0.064  0.002  0.000  0.001  0.009  0.001  0.000  0.623
 
band     2 # energy    5.54015248 # occ.  1.00000000
 
ion      s     py     pz     px    dxy    dyz    dz2    dxz  x2-y2    tot
    1  0.000  0.001  0.000  0.001  0.908  0.018  0.000  0.018  0.000  0.946
 
band     3 # energy    6.17057525 # occ.  1.00000000
 
ion      s     py     pz     px    dxy    dyz    dz2    dxz  x2-y2    tot
    1  0.000  0.002  0.000  0.002  0.033  0.373  0.181  0.373  0.000  0.962
 
band     4 # energy    6.20028111 # occ.  1.00000000
 
ion      s     py     pz     px    dxy    dyz    dz2    dxz  x2-y2    tot
    1  0.000  0.002  0.000  0.002  0.000  0.459  0.000  0.459  0.041  0.964
 
band     5 # energy    6.45569748 # occ.  1.00000000
 
ion      s     py     pz     px    dxy    dyz    dz2    dxz  x2-y2    tot
    1  0.006  0.000  0.003  0.000  0.007  0.086  0.777  0.086  0.000  0.966
 
band     6 # energy    6.84667487 # occ.  1.00000000
 
ion      s     py     pz     px    dxy    dyz    dz2    dxz  x2-y2    tot
    1  0.000  0.000  0.000  0.000  0.000  0.021  0.000  0.021  0.941  0.982
 
band     7 # energy   26.88101698 # occ.  0.00000000
 
ion      s     py     pz     px    dxy    dyz    dz2    dxz  x2-y2    tot
    1  0.022  0.113  0.020  0.113  0.175  0.087  0.007  0.087  0.000  0.625
 
band     8 # energy   29.07982691 # occ.  0.00000000
 
ion      s     py     pz     px    dxy    dyz    dz2    dxz  x2-y2    tot
    1  0.000  0.204  0.000  0.204  0.000  0.146  0.000  0.146  0.005  0.704
 
band     9 # energy   29.49856100 # occ.  0.00000000
 
ion      s     py     pz     px    dxy    dyz    dz2    dxz  x2-y2    tot
    1  0.031  0.017  0.026  0.017  0.226  0.013  0.054  0.013  0.000  0.396
 
band    10 # energy   31.59890212 # occ.  0.00000000
 
ion      s     py     pz     px    dxy    dyz    dz2    dxz  x2-y2    tot
    1  0.007  0.062  0.000  0.062  0.040  0.034  0.179  0.034  0.000  0.420
 
band    11 # energy   35.51408133 # occ.  0.00000000
 
ion      s     py     pz     px    dxy    dyz    dz2    dxz  x2-y2    tot
    1  0.124  0.019  0.570  0.019  0.001  0.001  0.125  0.001  0.000  0.858
 
band    12 # energy   39.16047057 # occ.  0.00000000
 
ion      s     py     pz     px    dxy    dyz    dz2    dxz  x2-y2    tot
    1  0.010  0.000  0.000  0.000  0.329  0.121  0.046  0.121  0.000  0.628
 

 k-point    10 :    0.31250000 0.18750000 0.06250000     weight = 0.02343750

band     1 # energy    2.73567822 # occ.  1.00000000
 
ion      s     py     pz     px    dxy    dyz    dz2    dxz  x2-y2    tot
    1  0.438  0.018  0.105  0.002  0.002  0.027  0.046  0.004  0.000  0.642
 
band     2 # energy    5.30430205 # occ.  1.00000000
 
ion      s     py     pz     px    dxy    dyz    dz2    dxz  x2-y2    tot
    1  0.001  0.001  0.001  0.008  0.837  0.006  0.003  0.074  0.000  0.932
 
band     3 # energy    5.98134343 # occ.  1.00000000
 
ion      s     py     pz     px    dxy    dyz    dz2    dxz  x2-y2    tot
    1  0.005  0.002  0.002  0.000  0.016  0.319  0.556  0.015  0.035  0.951
 
band     4 # energy    6.39657361 # occ.  1.00000000
 
ion      s     py     pz     px    dxy    dyz    dz2    dxz  x2-y2    tot
    1  0.002  0.002  0.001  0.003  0.038  0.130  0.056  0.510  0.223  0.965
 
band     5 # energy    6.69274115 # occ.  1.00000000
 
ion      s     py     pz     px    dxy    dyz    dz2    dxz  x2-y2    tot
    1  0.012  0.002  0.009  0.002  0.039  0.098  0.220  0.349  0.230  0.961
 
band     6 # energy    7.17668374 # occ.  1.00000000
 
ion      s     py     pz     px    dxy    dyz    dz2    dxz  x2-y2    tot
    1  0.013  0.004  0.007  0.000  0.001  0.381  0.075  0.002  0.490  0.974
 
band     7 # energy   23.18889565 # occ.  0.00000000
 
ion      s     py     pz     px    dxy    dyz    dz2    dxz  x2-y2    tot
    1  0.058  0.102  0.024  0.186  0.145  0.061  0.012  0.095  0.002  0.686
 
band     8 # energy   25.65812655 # occ.  0.00000000
 
ion      s     py     pz     px    dxy    dyz    dz2    dxz  x2-y2    tot
    1  0.043  0.155  0.017  0.140  0.080  0.093  0.031  0.063  0.015  0.637
 
band     9 # energy   29.33841402 # occ.  0.00000000
 
ion      s     py     pz     px    dxy    dyz    dz2    dxz  x2-y2    tot
    1  0.012  0.037  0.113  0.018  0.021  0.011  0.303  0.010  0.002  0.527
 
band    10 # energy   31.07779331 # occ.  0.00000000
 
ion      s     py     pz     px    dxy    dyz    dz2    dxz  x2-y2    tot
    1  0.035  0.010  0.091  0.091  0.283  0.003  0.032  0.045  0.001  0.591
 
band    11 # energy   34.71678996 # occ.  0.00000000
 
ion      s     py     pz     px    dxy    dyz    dz2    dxz  x2-y2    tot
    1  0.121  0.187  0.282  0.032  0.027  0.040  0.000  0.007  0.000  0.696
 
band    12 # energy   39.04221595 # occ.  0.00000000
 
ion      s     py     pz     px    dxy    dyz    dz2    dxz  x2-y2    tot
    1  0.014  0.025  0.017  0.002  0.045  0.004  0.153  0.026  0.149  0.435
 

 k-point    11 :    0.43750000 0.18750000 0.06250000     weight = 0.02343750

band     1 # energy    4.03155873 # occ.  1.00000000
 
ion      s     py     pz     px    dxy    dyz    dz2    dxz  x2-y2    tot
    1  0.213  0.015  0.074  0.001  0.147  0.143  0.091  0.083  0.001  0.767
 
band     2 # energy    5.40448645 # occ.  1.00000000
 
ion      s     py     pz     px    dxy    dyz    dz2    dxz  x2-y2    tot
    1  0.010  0.027  0.015  0.027  0.327  0.030  0.370  0.063  0.012  0.882
 
band     3 # energy    5.75355106 # occ.  1.00000000
 
ion      s     py     pz     px    dxy    dyz    dz2    dxz  x2-y2    tot
    1  0.023  0.001  0.018  0.006  0.350  0.264  0.221  0.004  0.042  0.928
 
band     4 # energy    6.25818591 # occ.  1.00000000
 
ion      s     py     pz     px    dxy    dyz    dz2    dxz  x2-y2    tot
    1  0.002  0.003  0.004  0.001  0.041  0.068  0.050  0.279  0.512  0.959
 
band     5 # energy    7.25571165 # occ.  1.00000000
 
ion      s     py     pz     px    dxy    dyz    dz2    dxz  x2-y2    tot
    1  0.002  0.001  0.005  0.003  0.034  0.074  0.045  0.479  0.337  0.979
 
band     6 # energy    8.25262870 # occ.  1.00000000
 
ion      s     py     pz     px    dxy    dyz    dz2    dxz  x2-y2    tot
    1  0.089  0.028  0.073  0.014  0.013  0.383  0.175  0.041  0.067  0.883
 
band     7 # energy   17.74384608 # occ.  0.00000000
 
ion      s     py     pz     px    dxy    dyz    dz2    dxz  x2-y2    tot
    1  0.177  0.096  0.022  0.158  0.131  0.056  0.011  0.073  0.003  0.729
 
band     8 # energy   25.16308008 # occ.  0.00000000
 
ion      s     py     pz     px    dxy    dyz    dz2    dxz  x2-y2    tot
    1  0.024  0.120  0.000  0.188  0.075  0.054  0.069  0.039  0.050  0.620
 
band     9 # energy   26.85705370 # occ.  0.00000000
 
ion      s     py     pz     px    dxy    dyz    dz2    dxz  x2-y2    tot
    1  0.071  0.004  0.242  0.050  0.000  0.001  0.231  0.022  0.008  0.630
 
band    10 # energy   30.63633190 # occ.  0.00000000
 
ion      s     py     pz     px    dxy    dyz    dz2    dxz  x2-y2    tot
    1  0.058  0.148  0.092  0.025  0.201  0.015  0.000  0.011  0.005  0.555
 
band    11 # energy   36.95070121 # occ.  0.00000000
 
ion      s     py     pz     px    dxy    dyz    dz2    dxz  x2-y2    tot
    1  0.011  0.123  0.004  0.004  0.167  0.022  0.059  0.033  0.183  0.604
 
band    12 # energy   39.01608430 # occ.  0.00000000
 
ion      s     py     pz     px    dxy    dyz    dz2    dxz  x2-y2    tot
    1  0.067  0.085  0.095  0.068  0.015  0.004  0.215  0.006  0.019  0.573
 

 k-point    12 :   -0.43750000 0.18750000 0.06250000     weight = 0.02343750

band     1 # energy    4.32576657 # occ.  1.00000000
 
ion      s     py     pz     px    dxy    dyz    dz2    dxz  x2-y2    tot
    1  0.100  0.000  0.018  0.007  0.328  0.234  0.010  0.165  0.000  0.863
 
band     2 # energy    5.40735628 # occ.  1.00000000
 
ion      s     py     pz     px    dxy    dyz    dz2    dxz  x2-y2    tot
    1  0.000  0.019  0.002  0.008  0.032  0.078  0.683  0.012  0.075  0.909
 
band     3 # energy    6.10939604 # occ.  1.00000000
 
ion      s     py     pz     px    dxy    dyz    dz2    dxz  x2-y2    tot
    1  0.000  0.002  0.002  0.013  0.021  0.167  0.097  0.157  0.491  0.950
 
band     4 # energy    6.18450993 # occ.  1.00000000
 
ion      s     py     pz     px    dxy    dyz    dz2    dxz  x2-y2    tot
    1  0.002  0.030  0.045  0.026  0.415  0.164  0.010  0.090  0.110  0.893
 
band     5 # energy    7.41481563 # occ.  1.00000000
 
ion      s     py     pz     px    dxy    dyz    dz2    dxz  x2-y2    tot
    1  0.000  0.000  0.000  0.000  0.037  0.176  0.028  0.475  0.272  0.988
 
band     6 # energy   10.36846993 # occ.  0.00000000
 
ion      s     py     pz     px    dxy    dyz    dz2    dxz  x2-y2    tot
    1  0.016  0.116  0.166  0.114  0.044  0.100  0.134  0.016  0.017  0.722
 
band     7 # energy   13.80294827 # occ.  0.00000000
 
ion      s     py     pz     px    dxy    dyz    dz2    dxz  x2-y2    tot
    1  0.389  0.015  0.006  0.051  0.147  0.100  0.001  0.100  0.001  0.811
 
band     8 # energy   24.66804973 # occ.  0.00000000
 
ion      s     py     pz     px    dxy    dyz    dz2    dxz  x2-y2    tot