Pt-fcc                                  
   1.00000000000000     
     0.000000    1.959060    1.959060
     1.959060    0.000000    1.959060
     1.959060    1.959060    0.000000
   Pt
     1
Direct
  0.000000  0.000000  0.000000
 
   40   40   40
  131.60      131.49      130.86      128.89      124.59      117.15      106.31      92.538      76.954      61.079    
  46.421      34.108      24.665      17.999      13.541      10.516      8.4481      7.1047      6.2876      5.8535    
  5.7180      5.8535      6.2876      7.1047      8.4481      10.516      13.541      17.999      24.665      34.108    
  46.421      61.079      76.954      92.538      106.31      117.15      124.59      128.89      130.86      131.49    
  131.49      131.12      129.80      126.63      120.67      111.40      98.935      84.096      68.247      52.931    
  39.478      28.707      20.806      15.411      11.805      9.3169      7.6568      6.6092      6.0041      5.7290    
  5.7290      6.0041      6.6093      7.6568      9.3169      11.805      15.411      20.806      28.707      39.478    
  52.931      68.247      84.096      98.935      111.40      120.67      126.63      129.80      131.12      131.49    
  130.86      129.80      127.24      122.31      114.33      103.17      89.337      73.967      58.516      44.394    
  32.627      23.662      17.355      13.126      10.230      8.2493      6.9619      6.1779      5.7609      5.6306    
  5.7609      6.1779      6.9619      8.2493      10.230      13.126      17.355      23.662      32.627      44.394    
  58.516      73.967      89.337      103.17      114.33      122.31      127.24      129.80      130.86      131.12    
  128.89      126.63      122.31      115.29      105.26      92.515      77.924      62.778      48.458      36.101    
  26.345      19.258      14.424      11.141      8.8570      7.3330      6.3693      5.8111      5.5567      5.5567    
  5.8111      6.3693      7.3330      8.8570      11.141      14.424      19.258      26.345      36.101      48.458    
  62.778      77.924      92.515      105.26      115.29      122.31      126.63      128.89      129.80      129.80    
  124.59      120.67      114.33      105.26      93.577      79.940      65.440      51.351      38.824      28.618    
  20.971      15.628      11.996      9.4470      7.7047      6.5693      5.8751      5.5041      5.3880      5.5041    
  5.8751      6.5693      7.7047      9.4470      11.996      15.628      20.971      28.618      38.824      51.351    
  65.440      79.940      93.577      105.26      114.33      120.67      124.59      126.63      127.24      126.63    
  117.15      111.40      103.17      92.515      79.940      66.344      52.853      40.559      30.267      22.334    
  16.649      12.737      9.9821      8.0552      6.7665      5.9471      5.4693      5.2503      5.2503      5.4693    
  5.9471      6.7665      8.0552      9.9821      12.737      16.649      22.334      30.267      40.559      52.853    
  66.344      79.940      92.515      103.17      111.40      117.15      120.67      122.31      122.31      120.67    
  106.31      98.935      89.337      77.924      65.440      52.853      41.154      31.134      23.213      17.393    
  13.315      10.424      8.3609      6.9475      6.0203      5.4481      5.1397      5.0426      5.1397      5.4481    
  6.0203      6.9475      8.3609      10.424      13.315      17.393      23.213      31.134      41.154      52.853    
  65.440      77.924      89.337      98.935      106.31      111.40      114.33      115.29      114.33      111.40    
  92.538      84.096      73.967      62.778      51.351      40.559      31.134      23.516      17.785      13.684    
  10.740      8.5988      7.0986      6.0874      5.4368      5.0526      4.8749      4.8749      5.0526      5.4368    
  6.0874      7.0986      8.5988      10.740      13.684      17.785      23.516      31.134      40.559      51.351    
  62.778      73.967      84.096      92.538      98.935      103.17      105.26      105.26      103.17      98.935    
  76.954      68.247      58.516      48.458      38.824      30.267      23.213      17.785      13.811      10.905    
  8.7500      7.2073      6.1413      5.4318      4.9867      4.7432      4.6659      4.7432      4.9867      5.4318    
  6.1413      7.2073      8.7500      10.905      13.811      17.785      23.213      30.267      38.824      48.458    
  58.516      68.247      76.954      84.096      89.337      92.515      93.577      92.515      89.337      84.096    
  61.079      52.931      44.394      36.101      28.618      22.334      17.393      13.684      10.905      8.8019    
  7.2643      6.1763      5.4303      4.9404      4.6452      4.5066      4.5066      4.6452      4.9404      5.4303    
  6.1763      7.2643      8.8019      10.905      13.684      17.393      22.334      28.618      36.101      44.394    
  52.931      61.079      68.247      73.967      77.924      79.940      79.940      77.924      73.967      68.247    
  46.421      39.478      32.627      26.345      20.971      16.649      13.315      10.740      8.7500      7.2643    
  6.1884      5.4301      4.9129      4.5799      4.3939      4.3341      4.3939      4.5799      4.9129      5.4301    
  6.1884      7.2643      8.7500      10.740      13.315      16.649      20.971      26.345      32.627      39.478    
  46.421      52.931      58.516      62.778      65.440      66.344      65.440      62.778      58.516      52.931    
  34.108      28.707      23.662      19.258      15.628      12.737      10.424      8.5988      7.2073      6.1763    
  5.4301      4.9038      4.5473      4.3265      4.2209      4.2209      4.3265      4.5473      4.9037      5.4301    
  6.1763      7.2073      8.5988      10.424      12.737      15.628      19.258      23.662      28.707      34.108    
  39.478      44.394      48.458      51.351      52.853      52.853      51.351      48.458      44.394      39.478    
  24.665      20.806      17.355      14.424      11.996      9.9821      8.3609      7.0986      6.1413      5.4303    
  4.9129      4.5473      4.3041      4.1647      4.1192      4.1647      4.3041      4.5473      4.9129      5.4303    
  6.1413      7.0986      8.3609      9.9821      11.996      14.424      17.355      20.806      24.665      28.707    
  32.627      36.101      38.824      40.559      41.154      40.559      38.824      36.101      32.627      28.707    
  17.999      15.411      13.126      11.141      9.4470      8.0552      6.9475      6.0874      5.4318      4.9404    
  4.5799      4.3265      4.1647      4.0856      4.0856      4.1647      4.3265      4.5799      4.9404      5.4318    
  6.0874      6.9475      8.0552      9.4470      11.141      13.126      15.411      17.999      20.806      23.662    
  26.345      28.618      30.267      31.134      31.134      30.267      28.618      26.345      23.662      20.806    
  13.541      11.805      10.230      8.8570      7.7047      6.7665      6.0203      5.4368      4.9867      4.6452    
  4.3939      4.2209      4.1192      4.0856      4.1192      4.2209      4.3939      4.6452      4.9867      5.4368    
  6.0203      6.7665      7.7047      8.8570      10.230      11.805      13.541      15.411      17.355      19.258    
  20.971      22.334      23.213      23.516      23.213      22.334      20.971      19.258      17.355      15.411    
  10.516      9.3169      8.2493      7.3330      6.5693      5.9471      5.4481      5.0526      4.7432      4.5066    
  4.3341      4.2209      4.1647      4.1647      4.2209      4.3341      4.5066      4.7432      5.0526      5.4481    
  5.9471      6.5693      7.3330      8.2493      9.3169      10.516      11.805      13.126      14.424      15.628    
  16.649      17.393      17.785      17.785      17.393      16.649      15.628      14.424      13.126      11.805    
  8.4481      7.6568      6.9619      6.3693      5.8751      5.4693      5.1397      4.8749      4.6659      4.5066    
  4.3939      4.3265      4.3041      4.3265      4.3939      4.5066      4.6659      4.8749      5.1397      5.4693    
  5.8751      6.3693      6.9619      7.6568      8.4481      9.3169      10.230      11.141      11.996      12.737    
  13.315      13.684      13.811      13.684      13.315      12.737      11.996      11.141      10.230      9.3169    
  7.1047      6.6092      6.1779      5.8111      5.5041      5.2503      5.0426      4.8749      4.7432      4.6452    
  4.5799      4.5473      4.5473      4.5799      4.6452      4.7432      4.8749      5.0426      5.2503      5.5041    
  5.8110      6.1779      6.6093      7.1047      7.6568      8.2493      8.8570      9.4470      9.9821      10.424    
  10.740      10.905      10.905      10.740      10.424      9.9821      9.4470      8.8570      8.2493      7.6568    
  6.2876      6.0041      5.7609      5.5567      5.3880      5.2503      5.1397      5.0526      4.9867      4.9404    
  4.9129      4.9037      4.9129      4.9404      4.9867      5.0526      5.1397      5.2503      5.3880      5.5567    
  5.7609      6.0041      6.2876      6.6093      6.9619      7.3330      7.7047      8.0552      8.3609      8.5988    
  8.7500      8.8019      8.7500      8.5988      8.3609      8.0552      7.7047      7.3330      6.9619      6.6093    
  5.8535      5.7290      5.6306      5.5567      5.5041      5.4693      5.4481      5.4368      5.4318      5.4303    
  5.4301      5.4301      5.4303      5.4318      5.4368      5.4481      5.4693      5.5041      5.5567      5.6306    
  5.7290      5.8535      6.0041      6.1779      6.3693      6.5693      6.7665      6.9475      7.0986      7.2073    
  7.2643      7.2643      7.2073      7.0986      6.9475      6.7665      6.5693      6.3693      6.1779      6.0041    
  5.7180      5.7290      5.7609      5.8111      5.8751      5.9471      6.0203      6.0874      6.1413      6.1763    
  6.1884      6.1763      6.1413      6.0874      6.0203      5.9471      5.8751      5.8110      5.7609      5.7290    
  5.7180      5.7290      5.7609      5.8110      5.8751      5.9471      6.0203      6.0874      6.1413      6.1763    
  6.1884      6.1763      6.1413      6.0874      6.0203      5.9471      5.8751      5.8111      5.7609      5.7290    
  5.8535      6.0041      6.1779      6.3693      6.5693      6.7665      6.9475      7.0986      7.2073      7.2643    
  7.2643      7.2073      7.0986      6.9475      6.7665      6.5693      6.3693      6.1779      6.0041      5.8535    
  5.7290      5.6306      5.5567      5.5041      5.4693      5.4481      5.4368      5.4318      5.4303      5.4301    
  5.4301      5.4303      5.4318      5.4368      5.4481      5.4693      5.5041      5.5567      5.6306      5.7290    
  6.2876      6.6093      6.9619      7.3330      7.7047      8.0552      8.3609      8.5988      8.7500      8.8019    
  8.7500      8.5988      8.3609      8.0552      7.7047      7.3330      6.9619      6.6093      6.2876      6.0041    
  5.7609      5.5567      5.3880      5.2503      5.1397      5.0526      4.9867      4.9404      4.9129      4.9037    
  4.9129      4.9404      4.9867      5.0526      5.1397      5.2503      5.3880      5.5567      5.7609      6.0041    
  7.1047      7.6568      8.2493      8.8570      9.4470      9.9821      10.424      10.740      10.905      10.905    
  10.740      10.424      9.9821      9.4470      8.8570      8.2493      7.6568      7.1047      6.6093      6.1779    
  5.8110      5.5041      5.2503      5.0426      4.8749      4.7432      4.6452      4.5799      4.5473      4.5473    
  4.5799      4.6452      4.7432      4.8749      5.0426      5.2503      5.5041      5.8111      6.1779      6.6092    
  8.4481      9.3169      10.230      11.141      11.996      12.737      13.315      13.684      13.811      13.684    
  13.315      12.737      11.996      11.141      10.230      9.3169      8.4481      7.6568      6.9619      6.3693    
  5.8751      5.4693      5.1397      4.8749      4.6659      4.5066      4.3939      4.3265      4.3041      4.3265    
  4.3939      4.5066      4.6659      4.8749      5.1397      5.4693      5.8751      6.3693      6.9619      7.6568    
  10.516      11.805      13.126      14.424      15.628      16.649      17.393      17.785      17.785      17.393    
  16.649      15.628      14.424      13.126      11.805      10.516      9.3169      8.2493      7.3330      6.5693    
  5.9471      5.4481      5.0526      4.7432      4.5066      4.3341      4.2209      4.1647      4.1647      4.2209    
  4.3341      4.5066      4.7432      5.0526      5.4481      5.9471      6.5693      7.3330      8.2493      9.3169    
  13.541      15.411      17.355      19.258      20.971      22.334      23.213      23.516      23.213      22.334    
  20.971      19.258      17.355      15.411      13.541      11.805      10.230      8.8570      7.7047      6.7665    
  6.0203      5.4368      4.9867      4.6452      4.3939      4.2209      4.1192      4.0856      4.1192      4.2209    
  4.3939      4.6452      4.9867      5.4368      6.0203      6.7665      7.7047      8.8570      10.230      11.805    
  17.999      20.806      23.662      26.345      28.618      30.267      31.134      31.134      30.267      28.618    
  26.345      23.662      20.806      17.999      15.411      13.126      11.141      9.4470      8.0552      6.9475    
  6.0874      5.4318      4.9404      4.5799      4.3265      4.1647      4.0856      4.0856      4.1647      4.3265    
  4.5799      4.9404      5.4318      6.0874      6.9475      8.0552      9.4470      11.141      13.126      15.411    
  24.665      28.707      32.627      36.101      38.824      40.559      41.154      40.559      38.824      36.101    
  32.627      28.707      24.665      20.806      17.355      14.424      11.996      9.9821      8.3609      7.0986    
  6.1413      5.4303      4.9129      4.5473      4.3041      4.1647      4.1192      4.1647      4.3041      4.5473    
  4.9129      5.4303      6.1413      7.0986      8.3609      9.9821      11.996      14.424      17.355      20.806    
  34.108      39.478      44.394      48.458      51.351      52.853      52.853      51.351      48.458      44.394    
  39.478      34.108      28.707      23.662      19.258      15.628      12.737      10.424      8.5988      7.2073    
  6.1763      5.4301      4.9037      4.5473      4.3265      4.2209      4.2209      4.3265      4.5473      4.9038    
  5.4301      6.1763      7.2073      8.5988      10.424      12.737      15.628      19.258      23.662      28.707    
  46.421      52.931      58.516      62.778      65.440      66.344      65.440      62.778      58.516      52.931    
  46.421      39.478      32.627      26.345      20.971      16.649      13.315      10.740      8.7500      7.2643    
  6.1884      5.4301      4.9129      4.5799      4.3939      4.3341      4.3939      4.5799      4.9129      5.4301    
  6.1884      7.2643      8.7500      10.740      13.315      16.649      20.971      26.345      32.627      39.478    
  61.079      68.247      73.967      77.924      79.940      79.940      77.924      73.967      68.247      61.079    
  52.931      44.394      36.101      28.618      22.334      17.393      13.684      10.905      8.8019      7.2643    
  6.1763      5.4303      4.9404      4.6452      4.5066      4.5066      4.6452      4.9404      5.4303      6.1763    
  7.2643      8.8019      10.905      13.684      17.393      22.334      28.618      36.101      44.394      52.931    
  76.954      84.096      89.337      92.515      93.577      92.515      89.337      84.096      76.954      68.247    
  58.516      48.458      38.824      30.267      23.213      17.785      13.811      10.905      8.7500      7.2073    
  6.1413      5.4318      4.9867      4.7432      4.6659      4.7432      4.9867      5.4318      6.1413      7.2073    
  8.7500      10.905      13.811      17.785      23.213      30.267      38.824      48.458      58.516      68.247    
  92.538      98.935      103.17      105.26      105.26      103.17      98.935      92.538      84.096      73.967    
  62.778      51.351      40.559      31.134      23.516      17.785      13.684      10.740      8.5988      7.0986    
  6.0874      5.4368      5.0526      4.8749      4.8749      5.0526      5.4368      6.0874      7.0986      8.5988    
  10.740      13.684      17.785      23.516      31.134      40.559      51.351      62.778      73.967      84.096    
  106.31      111.40      114.33      115.29      114.33      111.40      106.31      98.935      89.337      77.924    
  65.440      52.853      41.154      31.134      23.213      17.393      13.315      10.424      8.3609      6.9475    
  6.0203      5.4481      5.1397      5.0426      5.1397      5.4481      6.0203      6.9475      8.3609      10.424    
  13.315      17.393      23.213      31.134      41.154      52.853      65.440      77.924      89.337      98.935    
  117.15      120.67      122.31      122.31      120.67      117.15      111.40      103.17      92.515      79.940    
  66.344      52.853      40.559      30.267      22.334      16.649      12.737      9.9821      8.0552      6.7665    
  5.9471      5.4693      5.2503      5.2503      5.4693      5.9471      6.7665      8.0552      9.9821      12.737    
  16.649      22.334      30.267      40.559      52.853      66.344      79.940      92.515      103.17      111.40    
  124.59      126.63      127.24      126.63      124.59      120.67      114.33      105.26      93.577      79.940    
  65.440      51.351      38.824      28.618      20.971      15.628      11.996      9.4470      7.7047      6.5693    
  5.8751      5.5041      5.3880      5.5041      5.8751      6.5693      7.7047      9.4470      11.996      15.628    
  20.971      28.618      38.824      51.351      65.440      79.940      93.577      105.26      114.33      120.67    
  128.89      129.80      129.80      128.89      126.63      122.31      115.29      105.26      92.515      77.924    
  62.778      48.458      36.101      26.345      19.258      14.424      11.141      8.8570      7.3330      6.3693    
  5.8111      5.5567      5.5567      5.8111      6.3693      7.3330      8.8570      11.141      14.424      19.258    
  26.345      36.101      48.458      62.778      77.924      92.515      105.26      115.29      122.31      126.63    
  130.86      131.12      130.86      129.80      127.24      122.31      114.33      103.17      89.337      73.967    
  58.516      44.394      32.627      23.662      17.355      13.126      10.230      8.2493      6.9619      6.1779    
  5.7609      5.6306      5.7609      6.1779      6.9619      8.2493      10.230      13.126      17.355      23.662    
  32.627      44.394      58.516      73.967      89.337      103.17      114.33      122.31      127.24      129.80    
  131.49      131.49      131.12      129.80      126.63      120.67      111.40      98.935      84.096      68.247    
  52.931      39.478      28.707      20.806      15.411      11.805      9.3169      7.6568      6.6093      6.0041    
  5.7290      5.7290      6.0041      6.6092      7.6568      9.3169      11.805      15.411      20.806      28.707    
  39.478      52.931      68.247      84.096      98.935      111.40      120.67      126.63      129.80      131.12    
  131.49      131.12      129.80      126.63      120.67      111.40      98.935      84.096      68.247      52.931    
  39.478      28.707      20.806      15.411      11.805      9.3169      7.6568      6.6092      6.0041      5.7290    
  5.7290      6.0041      6.6093      7.6568      9.3169      11.805      15.411      20.806      28.707      39.478    
  52.931      68.247      84.096      98.935      111.40      120.67      126.63      129.80      131.12      131.49    
  131.12      130.15      127.72      122.93      115.08      104.00      90.188      74.773      59.220      44.961    
  33.050      23.953      17.544      13.251      10.318      8.3123      7.0089      6.2154      5.7934      5.6617    
  5.7935      6.2154      7.0089      8.3123      10.318      13.251      17.544      23.953      33.050      44.961    
  59.220      74.773      90.188      104.00      115.08      122.93      127.72      130.15      131.12      131.34    
  129.80      127.72      123.63      116.82      106.95      94.256      79.596      64.270      49.693      37.046    
  27.015      19.703      14.712      11.340      8.9984      7.4361      6.4488      5.8773      5.6171      5.6171    
  5.8773      6.4488      7.4361      8.9984      11.340      14.712      19.703      27.015      37.046      49.693    
  64.270      79.596      94.256      106.95      116.82      123.63      127.72      129.80      130.61      130.61    
  126.63      122.93      116.82      107.92      96.278      82.536      67.779      53.320      40.365      29.736    
  21.728      16.120      12.326      9.6814      7.8730      6.6954      5.9762      5.5926      5.4725      5.5926    
  5.9762      6.6954      7.8730      9.6814      12.326      16.120      21.728      29.736      40.365      53.320    
  67.779      82.536      96.278      107.92      116.82      122.93      126.63      128.50      129.05      128.50    
  120.67      115.08      106.95      96.278      83.521      69.573      55.593      42.734      31.876      23.444    
  17.377      13.217      10.321      8.2962      6.9430      6.0842      5.5844      5.3559      5.3559      5.5844    
  6.0842      6.9430      8.2962      10.321      13.217      17.377      23.444      31.876      42.734      55.593    
  69.573      83.521      96.278      106.95      115.08      120.67      124.03      125.58      125.58      124.03    
  111.40      104.00      94.256      82.536      69.573      56.366      43.966      33.242      24.691      18.374    
  13.959      10.875      8.6794      7.1768      6.1934      5.5884      5.2633      5.1611      5.2633      5.5884    
  6.1934      7.1768      8.6794      10.875      13.959      18.374      24.691      33.242      43.966      56.366    
  69.573      82.536      94.256      104.00      111.40      116.45      119.33      120.26      119.33      116.45    
  98.935      90.188      79.596      67.779      55.593      43.966      33.711      25.347      19.016      14.495    
  11.304      8.9959      7.3809      6.2954      5.6000      5.1911      5.0026      5.0026      5.1911      5.6000    
  6.2954      7.3809      8.9959      11.304      14.495      19.016      25.347      33.711      43.966      55.593    
  67.780      79.596      90.188      98.935      105.51      109.82      111.95      111.95      109.82      105.51    
  84.096      74.773      64.270      53.320      42.734      33.242      25.347      19.237      14.776      11.575    
  9.2219      7.5398      6.3815      5.6147      5.1363      4.8760      4.7936      4.8760      5.1363      5.6147    
  6.3815      7.5398      9.2219      11.575      14.776      19.237      25.347      33.242      42.734      53.320    
  64.270      74.773      84.096      91.692      97.234      100.58      101.70      100.58      97.234      91.692    
  68.247      59.220      49.693      40.365      31.876      24.691      19.016      14.776      11.668      9.3397    
  7.6408      6.4439      5.6285      5.0969      4.7788      4.6302      4.6302      4.7788      5.0969      5.6285    
  6.4439      7.6408      9.3397      11.668      14.776      19.016      24.691      31.876      40.365      49.693    
  59.220      68.247      76.141      82.411      86.733      88.931      88.931      86.733      82.411      76.141    
  52.931      44.961      37.046      29.736      23.444      18.374      14.495      11.575      9.3397      7.6754    
  6.4767      5.6382      5.0713      4.7096      4.5090      4.4448      4.5090      4.7096      5.0713      5.6382    
  6.4767      7.6754      9.3397      11.575      14.495      18.374      23.444      29.736      37.046      44.961    
  52.931      60.362      66.708      71.536      74.545      75.566      74.545      71.536      66.708      60.362    
  39.478      33.050      27.015      21.728      17.377      13.959      11.304      9.2219      7.6408      6.4767    
  5.6417      5.0588      4.6681      4.4285      4.3145      4.3145      4.4284      4.6681      5.0588      5.6417    
  6.4767      7.6408      9.2219      11.304      13.959      17.377      21.728      27.015      33.050      39.478    
  45.838      51.635      56.413      59.807      61.566      61.566      59.807      56.413      51.635      45.838    
  28.707      23.953      19.703      16.120      13.217      10.875      8.9959      7.5398      6.4439      5.6382    
  5.0588      4.6543      4.3882      4.2369      4.1878      4.2369      4.3882      4.6543      5.0588      5.6382    
  6.4439      7.5398      8.9959      10.875      13.217      16.120      19.703      23.953      28.707      33.671    
  38.472      42.713      46.031      48.142      48.866      48.142      46.031      42.713      38.472      33.671    
  20.806      17.544      14.712      12.326      10.321      8.6794      7.3809      6.3815      5.6285      5.0713    
  4.6681      4.3882      4.2111      4.1252      4.1252      4.2111      4.3882      4.6681      5.0713      5.6285    
  6.3815      7.3809      8.6794      10.321      12.326      14.712      17.544      20.806      24.363      27.986    
  31.386      34.263      36.348      37.443      37.443      36.348      34.263      31.386      27.986      24.363    
  15.411      13.251      11.340      9.6814      8.2962      7.1768      6.2954      5.6147      5.0969      4.7096    
  4.4285      4.2369      4.1252      4.0884      4.1252      4.2369      4.4284      4.7096      5.0969      5.6147    
  6.2954      7.1768      8.2962      9.6814      11.340      13.251      15.411      17.802      20.325      22.811    
  25.054      26.841      27.993      28.391      27.993      26.841      25.054      22.811      20.325      17.802    
  11.805      10.318      8.9984      7.8730      6.9430      6.1934      5.6000      5.1363      4.7788      4.5090    
  4.3145      4.1878      4.1252      4.1252      4.1878      4.3145      4.5090      4.7788      5.1363      5.6000    
  6.1934      6.9430      7.8730      8.9985      10.318      11.805      13.413      15.100      16.802      18.406    
  19.777      20.781      21.311      21.311      20.781      19.777      18.406      16.802      15.100      13.413    
  9.3169      8.3123      7.4361      6.6954      6.0842      5.5884      5.1911      4.8760      4.6302      4.4448    
  4.3145      4.2369      4.2111      4.2369      4.3145      4.4448      4.6302      4.8760      5.1911      5.5884    
  6.0842      6.6954      7.4361      8.3123      9.3169      10.425      11.594      12.763      13.871      14.854    
  15.633      16.136      16.309      16.136      15.633      14.854      13.871      12.763      11.594      10.425    
  7.6568      7.0089      6.4488      5.9762      5.5844      5.2633      5.0026      4.7936      4.6302      4.5090    
  4.4284      4.3882      4.3882      4.4284      4.5090      4.6302      4.7936      5.0026      5.2633      5.5844    
  5.9762      6.4488      7.0089      7.6568      8.3831      9.1661      9.9720      10.756      11.469      12.058    
  12.480      12.700      12.700      12.480      12.058      11.469      10.756      9.9720      9.1661      8.3831    
  6.6092      6.2154      5.8773      5.5926      5.3559      5.1611      5.0026      4.8760      4.7788      4.7096    
  4.6681      4.6543      4.6681      4.7096      4.7788      4.8760      5.0026      5.1611      5.3559      5.5926    
  5.8773      6.2154      6.6093      7.0563      7.5471      8.0644      8.5833      9.0733      9.5010      9.8341    
  10.046      10.118      10.046      9.8341      9.5010      9.0733      8.5833      8.0644      7.5471      7.0563    
  6.0041      5.7934      5.6171      5.4725      5.3559      5.2633      5.1911      5.1363      5.0969      5.0713    
  5.0588      5.0588      5.0713      5.0969      5.1363      5.1911      5.2633      5.3559      5.4725      5.6171    
  5.7934      6.0041      6.2491      6.5250      6.8239      7.1332      7.4362      7.7131      7.9438      8.1095    
  8.1962      8.1962      8.1095      7.9438      7.7131      7.4362      7.1332      6.8239      6.5250      6.2491    
  5.7290      5.6617      5.6171      5.5926      5.5844      5.5884      5.6000      5.6147      5.6285      5.6382    
  5.6417      5.6382      5.6285      5.6147      5.6000      5.5884      5.5844      5.5926      5.6171      5.6617    
  5.7290      5.8200      5.9340      6.0677      6.2150      6.3677      6.5153      6.6465      6.7499      6.8163    
  6.8391      6.8163      6.7499      6.6465      6.5153      6.3677      6.2150      6.0677      5.9340      5.8200    
  5.7290      5.7935      5.8773      5.9762      6.0842      6.1934      6.2954      6.3815      6.4439      6.4767    
  6.4767      6.4439      6.3815      6.2954      6.1934      6.0842      5.9762      5.8773      5.7934      5.7290    
  5.6861      5.6652      5.6649      5.6822      5.7127      5.7513      5.7920      5.8291      5.8573      5.8725    
  5.8725      5.8573      5.8291      5.7920      5.7513      5.7127      5.6822      5.6649      5.6652      5.6861    
  6.0041      6.2154      6.4488      6.6954      6.9430      7.1768      7.3809      7.5398      7.6408      7.6754    