Pt-fcc                                  
   1.00000000000000     
     0.000000    1.959060    1.959060
     1.959060    0.000000    1.959060
     1.959060    1.959060    0.000000
   Pt
     1
Direct
  0.000000  0.000000  0.000000
 
   40   40   40
 0.13159971008E+03 0.13149019150E+03 0.13085559597E+03 0.12889050006E+03 0.12459229930E+03
 0.11715419299E+03 0.10631473323E+03 0.92537842295E+02 0.76953672944E+02 0.61079157073E+02
 0.46421394691E+02 0.34107839759E+02 0.24665294841E+02 0.17998900996E+02 0.13541335198E+02
 0.10515847728E+02 0.84481173278E+01 0.71047058450E+01 0.62876175940E+01 0.58535056982E+01
 0.57180122299E+01 0.58535056982E+01 0.62876175940E+01 0.71047058450E+01 0.84481173278E+01
 0.10515847728E+02 0.13541335198E+02 0.17998900996E+02 0.24665294841E+02 0.34107839759E+02
 0.46421394691E+02 0.61079157073E+02 0.76953672944E+02 0.92537842295E+02 0.10631473323E+03
 0.11715419299E+03 0.12459229930E+03 0.12889050006E+03 0.13085559597E+03 0.13149019150E+03
 0.13149019150E+03 0.13111617832E+03 0.12980171998E+03 0.12662643192E+03 0.12067206627E+03
 0.11140268471E+03 0.98934747584E+02 0.84095985900E+02 0.68247178090E+02 0.52931125474E+02
 0.39478195218E+02 0.28706627702E+02 0.20805818628E+02 0.15410515563E+02 0.11805388998E+02
 0.93168634123E+01 0.76568034254E+01 0.66092484341E+01 0.60040745930E+01 0.57289602757E+01
 0.57289608816E+01 0.60040761087E+01 0.66092500905E+01 0.76568043542E+01 0.93168630601E+01
 0.11805387422E+02 0.15410513431E+02 0.20805816938E+02 0.28706627275E+02 0.39478196220E+02
 0.52931127123E+02 0.68247178776E+02 0.84095983619E+02 0.98934740702E+02 0.11140267264E+03
 0.12067204992E+03 0.12662641372E+03 0.12980170327E+03 0.13111616655E+03 0.13149018726E+03
 0.13085559597E+03 0.12980171998E+03 0.12724309457E+03 0.12230952751E+03 0.11433384647E+03
 0.10316805763E+03 0.89336920917E+02 0.73967310795E+02 0.58515678231E+02 0.44393694932E+02
 0.32627459836E+02 0.23661996793E+02 0.17354767341E+02 0.13126491119E+02 0.10229863763E+02
 0.82493069290E+01 0.69618790931E+01 0.61779211576E+01 0.57608817748E+01 0.56306114205E+01
 0.57608838034E+01 0.61779241981E+01 0.69618815857E+01 0.82493075128E+01 0.10229861946E+02
 0.13126487578E+02 0.17354763668E+02 0.23661994766E+02 0.32627460498E+02 0.44393697869E+02
 0.58515681353E+02 0.73967310848E+02 0.89336914526E+02 0.10316804264E+03 0.11433382299E+03
 0.12230949833E+03 0.12724306473E+03 0.12980169548E+03 0.13085558215E+03 0.13111616655E+03
 0.12889050006E+03 0.12662643192E+03 0.12230952751E+03 0.11528515688E+03 0.10526030490E+03
 0.92514893687E+02 0.77924165282E+02 0.62777543326E+02 0.48458226101E+02 0.36100673670E+02
 0.26344941072E+02 0.19258405409E+02 0.14424012927E+02 0.11141118935E+02 0.88569841478E+01
 0.73329522187E+01 0.63692896867E+01 0.58110500393E+01 0.55566852887E+01 0.55566866285E+01
 0.58110533960E+01 0.63692933728E+01 0.73329543122E+01 0.88569834079E+01 0.11141115447E+02
 0.14424008155E+02 0.19258401599E+02 0.26344940210E+02 0.36100676410E+02 0.48458231129E+02
 0.62777547477E+02 0.77924164478E+02 0.92514884366E+02 0.10526028551E+03 0.11528512883E+03
 0.12230949518E+03 0.12662640168E+03 0.12889047853E+03 0.12980169548E+03 0.12980170327E+03
 0.12459229930E+03 0.12067206627E+03 0.11433384647E+03 0.10526030490E+03 0.93577148568E+02
 0.79940167805E+02 0.65439558527E+02 0.51351089506E+02 0.38824072599E+02 0.28617707379E+02
 0.20970548621E+02 0.15628453462E+02 0.11995867393E+02 0.94470251273E+01 0.77046678951E+01
 0.65693349322E+01 0.58750657329E+01 0.55041398879E+01 0.53879588508E+01 0.55041423954E+01
 0.58750695204E+01 0.65693381041E+01 0.77046687641E+01 0.94470230332E+01 0.11995863090E+02
 0.15628448883E+02 0.20970546074E+02 0.28617708490E+02 0.38824077412E+02 0.51351096157E+02
 0.65439563665E+02 0.79940167682E+02 0.93577140452E+02 0.10526028823E+03 0.11433382343E+03
 0.12067204140E+03 0.12459227827E+03 0.12662640168E+03 0.12724306473E+03 0.12662641372E+03
 0.11715419299E+03 0.11140268471E+03 0.10316805763E+03 0.92514893687E+02 0.79940167805E+02
 0.66343762690E+02 0.52852612455E+02 0.40558983222E+02 0.30266995530E+02 0.22333860156E+02
 0.16648834142E+02 0.12737351671E+02 0.99820670565E+01 0.80552038068E+01 0.67665156128E+01
 0.59471028733E+01 0.54692543384E+01 0.52503469065E+01 0.52503480043E+01 0.54692571197E+01
 0.59471060182E+01 0.67665175894E+01 0.80552035577E+01 0.99820645309E+01 0.12737347920E+02
 0.16648830970E+02 0.22333859380E+02 0.30266998221E+02 0.40558989121E+02 0.52852619943E+02
 0.66343769236E+02 0.79940170841E+02 0.92514891580E+02 0.10316805032E+03 0.11140267391E+03
 0.11715418166E+03 0.12067204140E+03 0.12230949518E+03 0.12230949833E+03 0.12067204992E+03
 0.10631473323E+03 0.98934747584E+02 0.89336920917E+02 0.77924165282E+02 0.65439558527E+02
 0.52852612455E+02 0.41154432879E+02 0.31133827631E+02 0.23212807194E+02 0.17392573971E+02
 0.13315285392E+02 0.10424367648E+02 0.83608524059E+01 0.69475101248E+01 0.60203071162E+01
 0.54480826523E+01 0.51396867846E+01 0.50425750772E+01 0.51396880881E+01 0.54480847076E+01
 0.60203090410E+01 0.69475110742E+01 0.83608519272E+01 0.10424365909E+02 0.13315283161E+02
 0.17392572399E+02 0.23212807412E+02 0.31133830379E+02 0.41154438221E+02 0.52852619775E+02
 0.65439566723E+02 0.77924173086E+02 0.89336927330E+02 0.98934752102E+02 0.10631473589E+03
 0.11140267391E+03 0.11433382343E+03 0.11528512883E+03 0.11433382299E+03 0.11140267264E+03
 0.92537842295E+02 0.84095985900E+02 0.73967310795E+02 0.62777543326E+02 0.51351089506E+02
 0.40558983222E+02 0.31133827631E+02 0.23516439078E+02 0.17785123876E+02 0.13684265232E+02
 0.10740404960E+02 0.85987843141E+01 0.70985999346E+01 0.60873769771E+01 0.54367773118E+01
 0.50525960982E+01 0.48748942713E+01 0.48748944731E+01 0.50525966611E+01 0.54367781257E+01
 0.60873778481E+01 0.70986006251E+01 0.85987845817E+01 0.10740404667E+02 0.13684264422E+02
 0.17785122889E+02 0.23516438536E+02 0.31133828398E+02 0.40558986192E+02 0.51351095363E+02
 0.62777552324E+02 0.73967322512E+02 0.84095999237E+02 0.92537855619E+02 0.98934752102E+02
 0.10316805032E+03 0.10526028823E+03 0.10526028551E+03 0.10316804264E+03 0.98934740702E+02
 0.76953672944E+02 0.68247178090E+02 0.58515678231E+02 0.48458226101E+02 0.38824072599E+02
 0.30266995530E+02 0.23212807194E+02 0.17785123876E+02 0.13811269972E+02 0.10905118336E+02
 0.87499865009E+01 0.72073461578E+01 0.61413176435E+01 0.54318371705E+01 0.49866673902E+01
 0.47431967730E+01 0.46658592566E+01 0.47431962773E+01 0.49866667470E+01 0.54318368886E+01
 0.61413180915E+01 0.72073473217E+01 0.87499878923E+01 0.10905119174E+02 0.13811269510E+02
 0.17785121854E+02 0.23212804101E+02 0.30266992657E+02 0.38824071753E+02 0.48458228989E+02
 0.58515685904E+02 0.68247190356E+02 0.76953688225E+02 0.84095999237E+02 0.89336927330E+02
 0.92514891580E+02 0.93577140452E+02 0.92514884366E+02 0.89336914526E+02 0.84095983619E+02
 0.61079157073E+02 0.52931125474E+02 0.44393694932E+02 0.36100673670E+02 0.28617707379E+02
 0.22333860156E+02 0.17392573971E+02 0.13684265232E+02 0.10905118336E+02 0.88018576180E+01
 0.72642799666E+01 0.61762888395E+01 0.54303350963E+01 0.49403796096E+01 0.46451859840E+01
 0.45066149926E+01 0.45066143461E+01 0.46451843954E+01 0.49403779274E+01 0.54303342822E+01
 0.61762894385E+01 0.72642818048E+01 0.88018597304E+01 0.10905119350E+02 0.13684263888E+02
 0.17392569775E+02 0.22333853720E+02 0.28617700379E+02 0.36100668441E+02 0.44393693591E+02
 0.52931129231E+02 0.61079165657E+02 0.68247190356E+02 0.73967322512E+02 0.77924173086E+02
 0.79940170841E+02 0.79940167682E+02 0.77924164478E+02 0.73967310848E+02 0.68247178776E+02
 0.46421394691E+02 0.39478195218E+02 0.32627459836E+02 0.26344941072E+02 0.20970548621E+02
 0.16648834142E+02 0.13315285392E+02 0.10740404960E+02 0.87499865009E+01 0.72642799666E+01
 0.61884012303E+01 0.54301456288E+01 0.49128779754E+01 0.45799337122E+01 0.43939379842E+01
 0.43341374115E+01 0.43939363930E+01 0.45799312772E+01 0.49128758527E+01 0.54301448524E+01
 0.61884021916E+01 0.72642821708E+01 0.87499886456E+01 0.10740405413E+02 0.13315282811E+02
 0.16648828040E+02 0.20970539714E+02 0.26344931016E+02 0.32627450882E+02 0.39478189329E+02
 0.46421392917E+02 0.52931129231E+02 0.58515685904E+02 0.62777552324E+02 0.65439566723E+02
 0.66343769236E+02 0.65439563665E+02 0.62777547477E+02 0.58515681353E+02 0.52931127123E+02
 0.34107839759E+02 0.28706627702E+02 0.23661996793E+02 0.19258405409E+02 0.15628453462E+02
 0.12737351671E+02 0.10424367648E+02 0.85987843141E+01 0.72073461578E+01 0.61762888395E+01
 0.54301456288E+01 0.49037507493E+01 0.45472741819E+01 0.43265241429E+01 0.42208991460E+01
 0.42208983075E+01 0.43265219688E+01 0.45472716024E+01 0.49037488494E+01 0.54301452291E+01
 0.61762900668E+01 0.72073483696E+01 0.85987862266E+01 0.10424367783E+02 0.12737348880E+02
 0.15628447276E+02 0.19258396348E+02 0.23661986064E+02 0.28706616925E+02 0.34107830455E+02
 0.39478189329E+02 0.44393693591E+02 0.48458228989E+02 0.51351095363E+02 0.52852619775E+02
 0.52852619943E+02 0.51351096157E+02 0.48458231129E+02 0.44393697869E+02 0.39478196220E+02
 0.24665294841E+02 0.20805818628E+02 0.17354767341E+02 0.14424012927E+02 0.11995867393E+02
 0.99820670565E+01 0.83608524059E+01 0.70985999346E+01 0.61413176435E+01 0.54303350963E+01
 0.49128779754E+01 0.45472741819E+01 0.43040594645E+01 0.41646648902E+01 0.41192164175E+01
 0.41646636790E+01 0.43040575002E+01 0.45472722120E+01 0.49128767743E+01 0.54303351738E+01
 0.61413190516E+01 0.70986021856E+01 0.83608546292E+01 0.99820681449E+01 0.11995866445E+02
 0.14424009297E+02 0.17354761000E+02 0.20805810039E+02 0.24665284831E+02 0.28706616925E+02
 0.32627450882E+02 0.36100668441E+02 0.38824071753E+02 0.40558986192E+02 0.41154438221E+02
 0.40558989121E+02 0.38824077412E+02 0.36100676410E+02 0.32627460498E+02 0.28706627275E+02
 0.17998900996E+02 0.15410515563E+02 0.13126491119E+02 0.11141118935E+02 0.94470251273E+01
 0.80552038068E+01 0.69475101248E+01 0.60873769771E+01 0.54318371705E+01 0.49403796096E+01
 0.45799337122E+01 0.43265241429E+01 0.41646648902E+01 0.40856315763E+01 0.40856312942E+01
 0.41646641213E+01 0.43265231261E+01 0.45799328003E+01 0.49403792187E+01 0.54318376699E+01
 0.60873786082E+01 0.69475128449E+01 0.80552073057E+01 0.94470287006E+01 0.11141121728E+02
 0.13126492191E+02 0.15410514097E+02 0.17998896716E+02 0.20805810039E+02 0.23661986064E+02
 0.26344931016E+02 0.28617700379E+02 0.30266992657E+02 0.31133828398E+02 0.31133830379E+02
 0.30266998221E+02 0.28617708490E+02 0.26344940210E+02 0.23661994766E+02 0.20805816938E+02
 0.13541335198E+02 0.11805388998E+02 0.10229863763E+02 0.88569841478E+01 0.77046678951E+01
 0.67665156128E+01 0.60203071162E+01 0.54367773118E+01 0.49866673902E+01 0.46451859840E+01
 0.43939379842E+01 0.42208991460E+01 0.41192164175E+01 0.40856312942E+01 0.41192166273E+01
 0.42208994281E+01 0.43939381698E+01 0.46451860308E+01 0.49866675122E+01 0.54367779836E+01
 0.60203089666E+01 0.67665191357E+01 0.77046732478E+01 0.88569908981E+01 0.10229870890E+02
 0.11805395214E+02 0.13541339108E+02 0.15410514097E+02 0.17354761000E+02 0.19258396348E+02
 0.20970539714E+02 0.22333853720E+02 0.23212804101E+02 0.23516438536E+02 0.23212807412E+02
 0.22333859380E+02 0.20970546074E+02 0.19258401599E+02 0.17354763668E+02 0.15410513431E+02
 0.10515847728E+02 0.93168634123E+01 0.82493069290E+01 0.73329522187E+01 0.65693349322E+01
 0.59471028733E+01 0.54480826523E+01 0.50525960982E+01 0.47431967730E+01 0.45066149926E+01
 0.43341374115E+01 0.42208983075E+01 0.41646636790E+01 0.41646641213E+01 0.42208994281E+01
 0.43341387069E+01 0.45066159170E+01 0.47431970684E+01 0.50525960014E+01 0.54480829014E+01
 0.59471045072E+01 0.65693388622E+01 0.73329588630E+01 0.82493159505E+01 0.93168736370E+01
 0.10515857530E+02 0.11805395214E+02 0.13126492191E+02 0.14424009297E+02 0.15628447276E+02
 0.16648828040E+02 0.17392569775E+02 0.17785121854E+02 0.17785122889E+02 0.17392572399E+02
 0.16648830970E+02 0.15628448883E+02 0.14424008155E+02 0.13126487578E+02 0.11805387422E+02
 0.84481173278E+01 0.76568034254E+01 0.69618790931E+01 0.63692896867E+01 0.58750657329E+01
 0.54692543384E+01 0.51396867846E+01 0.48748942713E+01 0.46658592566E+01 0.45066143461E+01
 0.43939363930E+01 0.43265219688E+01 0.43040575002E+01 0.43265231261E+01 0.43939381698E+01
 0.45066159170E+01 0.46658598967E+01 0.48748937193E+01 0.51396854619E+01 0.54692532441E+01
 0.58750661764E+01 0.63692927693E+01 0.69618852988E+01 0.76568124152E+01 0.84481279435E+01
 0.93168736370E+01 0.10229870890E+02 0.11141121728E+02 0.11995866445E+02 0.12737348880E+02
 0.13315282811E+02 0.13684263888E+02 0.13811269510E+02 0.13684264422E+02 0.13315283161E+02
 0.12737347920E+02 0.11995863090E+02 0.11141115447E+02 0.10229861946E+02 0.93168630601E+01
 0.71047058450E+01 0.66092484341E+01 0.61779211576E+01 0.58110500393E+01 0.55041398879E+01
 0.52503469065E+01 0.50425750772E+01 0.48748944731E+01 0.47431962773E+01 0.46451843954E+01
 0.45799312772E+01 0.45472716024E+01 0.45472722120E+01 0.45799328003E+01 0.46451860308E+01
 0.47431970684E+01 0.48748937193E+01 0.50425726620E+01 0.52503434337E+01 0.55041365021E+01
 0.58110480980E+01 0.61779217737E+01 0.66092520614E+01 0.71047121767E+01 0.76568124152E+01
 0.82493159505E+01 0.88569908981E+01 0.94470287006E+01 0.99820681449E+01 0.10424367783E+02
 0.10740405413E+02 0.10905119350E+02 0.10905119174E+02 0.10740404667E+02 0.10424365909E+02
 0.99820645309E+01 0.94470230332E+01 0.88569834079E+01 0.82493075128E+01 0.76568043542E+01
 0.62876175940E+01 0.60040745930E+01 0.57608817748E+01 0.55566852887E+01 0.53879588508E+01
 0.52503480043E+01 0.51396880881E+01 0.50525966611E+01 0.49866667470E+01 0.49403779274E+01
 0.49128758527E+01 0.49037488494E+01 0.49128767743E+01 0.49403792187E+01 0.49866675122E+01
 0.50525960014E+01 0.51396854619E+01 0.52503434337E+01 0.53879530023E+01 0.55566792557E+01
 0.57608767790E+01 0.60040716455E+01 0.62876171803E+01 0.66092520614E+01 0.69618852988E+01
 0.73329588630E+01 0.77046732478E+01 0.80552073057E+01 0.83608546292E+01 0.85987862266E+01
 0.87499886456E+01 0.88018597304E+01 0.87499878923E+01 0.85987845817E+01 0.83608519272E+01
 0.80552035577E+01 0.77046687641E+01 0.73329543122E+01 0.69618815857E+01 0.66092500905E+01
 0.58535056982E+01 0.57289602757E+01 0.56306114205E+01 0.55566866285E+01 0.55041423954E+01
 0.54692571197E+01 0.54480847076E+01 0.54367781257E+01 0.54318368886E+01 0.54303342822E+01
 0.54301448524E+01 0.54301452291E+01 0.54303351738E+01 0.54318376699E+01 0.54367779836E+01
 0.54480829014E+01 0.54692532441E+01 0.55041365021E+01 0.55566792557E+01 0.56306034511E+01
 0.57289526885E+01 0.58534993765E+01 0.60040716455E+01 0.61779217737E+01 0.63692927693E+01
 0.65693388622E+01 0.67665191357E+01 0.69475128449E+01 0.70986021856E+01 0.72073483696E+01
 0.72642821708E+01 0.72642818048E+01 0.72073473217E+01 0.70986006251E+01 0.69475110742E+01
 0.67665175894E+01 0.65693381041E+01 0.63692933728E+01 0.61779241981E+01 0.60040761087E+01
 0.57180122299E+01 0.57289608816E+01 0.57608838034E+01 0.58110533960E+01 0.58750695204E+01
 0.59471060182E+01 0.60203090410E+01 0.60873778481E+01 0.61413180915E+01 0.61762894385E+01
 0.61884021916E+01 0.61762900668E+01 0.61413190516E+01 0.60873786082E+01 0.60203089666E+01
 0.59471045072E+01 0.58750661764E+01 0.58110480980E+01 0.57608767790E+01 0.57289526885E+01
 0.57180036286E+01 0.57289526885E+01 0.57608767790E+01 0.58110480980E+01 0.58750661764E+01
 0.59471045072E+01 0.60203089666E+01 0.60873786082E+01 0.61413190516E+01 0.61762900668E+01
 0.61884021916E+01 0.61762894385E+01 0.61413180915E+01 0.60873778481E+01 0.60203090410E+01
 0.59471060182E+01 0.58750695204E+01 0.58110533960E+01 0.57608838034E+01 0.57289608816E+01
 0.58535056982E+01 0.60040761087E+01 0.61779241981E+01 0.63692933728E+01 0.65693381041E+01
 0.67665175894E+01 0.69475110742E+01 0.70986006251E+01 0.72073473217E+01 0.72642818048E+01
 0.72642821708E+01 0.72073483696E+01 0.70986021856E+01 0.69475128449E+01 0.67665191357E+01
 0.65693388622E+01 0.63692927693E+01 0.61779217737E+01 0.60040716455E+01 0.58534993765E+01
 0.57289526885E+01 0.56306034511E+01 0.55566792557E+01 0.55041365021E+01 0.54692532441E+01
 0.54480829014E+01 0.54367779836E+01 0.54318376699E+01 0.54303351738E+01 0.54301452291E+01
 0.54301448524E+01 0.54303342822E+01 0.54318368886E+01 0.54367781257E+01 0.54480847076E+01
 0.54692571197E+01 0.55041423954E+01 0.55566866285E+01 0.56306114205E+01 0.57289602757E+01
 0.62876175940E+01 0.66092500905E+01 0.69618815857E+01 0.73329543122E+01 0.77046687641E+01
 0.80552035577E+01 0.83608519272E+01 0.85987845817E+01 0.87499878923E+01 0.88018597304E+01
 0.87499886456E+01 0.85987862266E+01 0.83608546292E+01 0.80552073057E+01 0.77046732478E+01
 0.73329588630E+01 0.69618852988E+01 0.66092520614E+01 0.62876171803E+01 0.60040716455E+01
 0.57608767790E+01 0.55566792557E+01 0.53879530023E+01 0.52503434337E+01 0.51396854619E+01
 0.50525960014E+01 0.49866675122E+01 0.49403792187E+01 0.49128767743E+01 0.49037488494E+01
 0.49128758527E+01 0.49403779274E+01 0.49866667470E+01 0.50525966611E+01 0.51396880881E+01
 0.52503480043E+01 0.53879588508E+01 0.55566852887E+01 0.57608817748E+01 0.60040745930E+01
 0.71047058450E+01 0.76568043542E+01 0.82493075128E+01 0.88569834079E+01 0.94470230332E+01
 0.99820645309E+01 0.10424365909E+02 0.10740404667E+02 0.10905119174E+02 0.10905119350E+02
 0.10740405413E+02 0.10424367783E+02 0.99820681449E+01 0.94470287006E+01 0.88569908981E+01
 0.82493159505E+01 0.76568124152E+01 0.71047121767E+01 0.66092520614E+01 0.61779217737E+01
 0.58110480980E+01 0.55041365021E+01 0.52503434337E+01 0.50425726620E+01 0.48748937193E+01
 0.47431970684E+01 0.46451860308E+01 0.45799328003E+01 0.45472722120E+01 0.45472716024E+01
 0.45799312772E+01 0.46451843954E+01 0.47431962773E+01 0.48748944731E+01 0.50425750772E+01
 0.52503469065E+01 0.55041398879E+01 0.58110500393E+01 0.61779211576E+01 0.66092484341E+01
 0.84481173278E+01 0.93168630601E+01 0.10229861946E+02 0.11141115447E+02 0.11995863090E+02
 0.12737347920E+02 0.13315283161E+02 0.13684264422E+02 0.13811269510E+02 0.13684263888E+02
 0.13315282811E+02 0.12737348880E+02 0.11995866445E+02 0.11141121728E+02 0.10229870890E+02
 0.93168736370E+01 0.84481279435E+01 0.76568124152E+01 0.69618852988E+01 0.63692927693E+01
 0.58750661764E+01 0.54692532441E+01 0.51396854619E+01 0.48748937193E+01 0.46658598967E+01
 0.45066159170E+01 0.43939381698E+01 0.43265231261E+01 0.43040575002E+01 0.43265219688E+01
 0.43939363930E+01 0.45066143461E+01 0.46658592566E+01 0.48748942713E+01 0.51396867846E+01
 0.54692543384E+01 0.58750657329E+01 0.63692896867E+01 0.69618790931E+01 0.76568034254E+01
 0.10515847728E+02 0.11805387422E+02 0.13126487578E+02 0.14424008155E+02 0.15628448883E+02
 0.16648830970E+02 0.17392572399E+02 0.17785122889E+02 0.17785121854E+02 0.17392569775E+02
 0.16648828040E+02 0.15628447276E+02 0.14424009297E+02 0.13126492191E+02 0.11805395214E+02
 0.10515857530E+02 0.93168736370E+01 0.82493159505E+01 0.73329588630E+01 0.65693388622E+01
 0.59471045072E+01 0.54480829014E+01 0.50525960014E+01 0.47431970684E+01 0.45066159170E+01
 0.43341387069E+01 0.42208994281E+01 0.41646641213E+01 0.41646636790E+01 0.42208983075E+01
 0.43341374115E+01 0.45066149926E+01 0.47431967730E+01 0.50525960982E+01 0.54480826523E+01
 0.59471028733E+01 0.65693349322E+01 0.73329522187E+01 0.82493069290E+01 0.93168634123E+01
 0.13541335198E+02 0.15410513431E+02 0.17354763668E+02 0.19258401599E+02 0.20970546074E+02
 0.22333859380E+02 0.23212807412E+02 0.23516438536E+02 0.23212804101E+02 0.22333853720E+02
 0.20970539714E+02 0.19258396348E+02 0.17354761000E+02 0.15410514097E+02 0.13541339108E+02
 0.11805395214E+02 0.10229870890E+02 0.88569908981E+01 0.77046732478E+01 0.67665191357E+01
 0.60203089666E+01 0.54367779836E+01 0.49866675122E+01 0.46451860308E+01 0.43939381698E+01
 0.42208994281E+01 0.41192166273E+01 0.40856312942E+01 0.41192164175E+01 0.42208991460E+01
 0.43939379842E+01 0.46451859840E+01 0.49866673902E+01 0.54367773118E+01 0.60203071162E+01
 0.67665156128E+01 0.77046678951E+01 0.88569841478E+01 0.10229863763E+02 0.11805388998E+02
 0.17998900996E+02 0.20805816938E+02 0.23661994766E+02 0.26344940210E+02 0.28617708490E+02
 0.30266998221E+02 0.31133830379E+02 0.31133828398E+02 0.30266992657E+02 0.28617700379E+02
 0.26344931016E+02 0.23661986064E+02 0.20805810039E+02 0.17998896716E+02 0.15410514097E+02
 0.13126492191E+02 0.11141121728E+02 0.94470287006E+01 0.80552073057E+01 0.69475128449E+01
 0.60873786082E+01 0.54318376699E+01 0.49403792187E+01 0.45799328003E+01 0.43265231261E+01
 0.41646641213E+01 0.40856312942E+01 0.40856315763E+01 0.41646648902E+01 0.43265241429E+01
 0.45799337122E+01 0.49403796096E+01 0.54318371705E+01 0.60873769771E+01 0.69475101248E+01
 0.80552038068E+01 0.94470251273E+01 0.11141118935E+02 0.13126491119E+02 0.15410515563E+02
 0.24665294841E+02 0.28706627275E+02 0.32627460498E+02 0.36100676410E+02 0.38824077412E+02
 0.40558989121E+02 0.41154438221E+02 0.40558986192E+02 0.38824071753E+02 0.36100668441E+02
 0.32627450882E+02 0.28706616925E+02 0.24665284831E+02 0.20805810039E+02 0.17354761000E+02
 0.14424009297E+02 0.11995866445E+02 0.99820681449E+01 0.83608546292E+01 0.70986021856E+01
 0.61413190516E+01 0.54303351738E+01 0.49128767743E+01 0.45472722120E+01 0.43040575002E+01
 0.41646636790E+01 0.41192164175E+01 0.41646648902E+01 0.43040594645E+01 0.45472741819E+01
 0.49128779754E+01 0.54303350963E+01 0.61413176435E+01 0.70985999346E+01 0.83608524059E+01
 0.99820670565E+01 0.11995867393E+02 0.14424012927E+02 0.17354767341E+02 0.20805818628E+02
 0.34107839759E+02 0.39478196220E+02 0.44393697869E+02 0.48458231129E+02 0.51351096157E+02
 0.52852619943E+02 0.52852619775E+02 0.51351095363E+02 0.48458228989E+02 0.44393693591E+02
 0.39478189329E+02 0.34107830455E+02 0.28706616925E+02 0.23661986064E+02 0.19258396348E+02
 0.15628447276E+02 0.12737348880E+02 0.10424367783E+02 0.85987862266E+01 0.72073483696E+01
 0.61762900668E+01 0.54301452291E+01 0.49037488494E+01 0.45472716024E+01 0.43265219688E+01
 0.42208983075E+01 0.42208991460E+01 0.43265241429E+01 0.45472741819E+01 0.49037507493E+01
 0.54301456288E+01 0.61762888395E+01 0.72073461578E+01 0.85987843141E+01 0.10424367648E+02
 0.12737351671E+02 0.15628453462E+02 0.19258405409E+02 0.23661996793E+02 0.28706627702E+02
 0.46421394691E+02 0.52931127123E+02 0.58515681353E+02 0.62777547477E+02 0.65439563665E+02
 0.66343769236E+02 0.65439566723E+02 0.62777552324E+02 0.58515685904E+02 0.52931129231E+02
 0.46421392917E+02 0.39478189329E+02 0.32627450882E+02 0.26344931016E+02 0.20970539714E+02
 0.16648828040E+02 0.13315282811E+02 0.10740405413E+02 0.87499886456E+01 0.72642821708E+01
 0.61884021916E+01 0.54301448524E+01 0.49128758527E+01 0.45799312772E+01 0.43939363930E+01
 0.43341374115E+01 0.43939379842E+01 0.45799337122E+01 0.49128779754E+01 0.54301456288E+01
 0.61884012303E+01 0.72642799666E+01 0.87499865009E+01 0.10740404960E+02 0.13315285392E+02
 0.16648834142E+02 0.20970548621E+02 0.26344941072E+02 0.32627459836E+02 0.39478195218E+02
 0.61079157073E+02 0.68247178776E+02 0.73967310848E+02 0.77924164478E+02 0.79940167682E+02
 0.79940170841E+02 0.77924173086E+02 0.73967322512E+02 0.68247190356E+02 0.61079165657E+02
 0.52931129231E+02 0.44393693591E+02 0.36100668441E+02 0.28617700379E+02 0.22333853720E+02
 0.17392569775E+02 0.13684263888E+02 0.10905119350E+02 0.88018597304E+01 0.72642818048E+01
 0.61762894385E+01 0.54303342822E+01 0.49403779274E+01 0.46451843954E+01 0.45066143461E+01
 0.45066149926E+01 0.46451859840E+01 0.49403796096E+01 0.54303350963E+01 0.61762888395E+01
 0.72642799666E+01 0.88018576180E+01 0.10905118336E+02 0.13684265232E+02 0.17392573971E+02
 0.22333860156E+02 0.28617707379E+02 0.36100673670E+02 0.44393694932E+02 0.52931125474E+02
 0.76953672944E+02 0.84095983619E+02 0.89336914526E+02 0.92514884366E+02 0.93577140452E+02
 0.92514891580E+02 0.89336927330E+02 0.84095999237E+02 0.76953688225E+02 0.68247190356E+02
 0.58515685904E+02 0.48458228989E+02 0.38824071753E+02 0.30266992657E+02 0.23212804101E+02
 0.17785121854E+02 0.13811269510E+02 0.10905119174E+02 0.87499878923E+01 0.72073473217E+01
 0.61413180915E+01 0.54318368886E+01 0.49866667470E+01 0.47431962773E+01 0.46658592566E+01
 0.47431967730E+01 0.49866673902E+01 0.54318371705E+01 0.61413176435E+01 0.72073461578E+01
 0.87499865009E+01 0.10905118336E+02 0.13811269972E+02 0.17785123876E+02 0.23212807194E+02
 0.30266995530E+02 0.38824072599E+02 0.48458226101E+02 0.58515678231E+02 0.68247178090E+02
 0.92537842295E+02 0.98934740702E+02 0.10316804264E+03 0.10526028551E+03 0.10526028823E+03
 0.10316805032E+03 0.98934752102E+02 0.92537855619E+02 0.84095999237E+02 0.73967322512E+02
 0.62777552324E+02 0.51351095363E+02 0.40558986192E+02 0.31133828398E+02 0.23516438536E+02
 0.17785122889E+02 0.13684264422E+02 0.10740404667E+02 0.85987845817E+01 0.70986006251E+01
 0.60873778481E+01 0.54367781257E+01 0.50525966611E+01 0.48748944731E+01 0.48748942713E+01
 0.50525960982E+01 0.54367773118E+01 0.60873769771E+01 0.70985999346E+01 0.85987843141E+01
 0.10740404960E+02 0.13684265232E+02 0.17785123876E+02 0.23516439078E+02 0.31133827631E+02
 0.40558983222E+02 0.51351089506E+02 0.62777543326E+02 0.73967310795E+02 0.84095985900E+02
 0.10631473323E+03 0.11140267264E+03 0.11433382299E+03 0.11528512883E+03 0.11433382343E+03
 0.11140267391E+03 0.10631473589E+03 0.98934752102E+02 0.89336927330E+02 0.77924173086E+02
 0.65439566723E+02 0.52852619775E+02 0.41154438221E+02 0.31133830379E+02 0.23212807412E+02
 0.17392572399E+02 0.13315283161E+02 0.10424365909E+02 0.83608519272E+01 0.69475110742E+01
 0.60203090410E+01 0.54480847076E+01 0.51396880881E+01 0.50425750772E+01 0.51396867846E+01
 0.54480826523E+01 0.60203071162E+01 0.69475101248E+01 0.83608524059E+01 0.10424367648E+02
 0.13315285392E+02 0.17392573971E+02 0.23212807194E+02 0.31133827631E+02 0.41154432879E+02
 0.52852612455E+02 0.65439558527E+02 0.77924165282E+02 0.89336920917E+02 0.98934747584E+02
 0.11715419299E+03 0.12067204992E+03 0.12230949833E+03 0.12230949518E+03 0.12067204140E+03
 0.11715418166E+03 0.11140267391E+03 0.10316805032E+03 0.92514891580E+02 0.79940170841E+02
 0.66343769236E+02 0.52852619943E+02 0.40558989121E+02 0.30266998221E+02 0.22333859380E+02
 0.16648830970E+02 0.12737347920E+02 0.99820645309E+01 0.80552035577E+01 0.67665175894E+01
 0.59471060182E+01 0.54692571197E+01 0.52503480043E+01 0.52503469065E+01 0.54692543384E+01
 0.59471028733E+01 0.67665156128E+01 0.80552038068E+01 0.99820670565E+01 0.12737351671E+02
 0.16648834142E+02 0.22333860156E+02 0.30266995530E+02 0.40558983222E+02 0.52852612455E+02
 0.66343762690E+02 0.79940167805E+02 0.92514893687E+02 0.10316805763E+03 0.11140268471E+03
 0.12459229930E+03 0.12662641372E+03 0.12724306473E+03 0.12662640168E+03 0.12459227827E+03
 0.12067204140E+03 0.11433382343E+03 0.10526028823E+03 0.93577140452E+02 0.79940167682E+02
 0.65439563665E+02 0.51351096157E+02 0.38824077412E+02 0.28617708490E+02 0.20970546074E+02
 0.15628448883E+02 0.11995863090E+02 0.94470230332E+01 0.77046687641E+01 0.65693381041E+01
 0.58750695204E+01 0.55041423954E+01 0.53879588508E+01 0.55041398879E+01 0.58750657329E+01
 0.65693349322E+01 0.77046678951E+01 0.94470251273E+01 0.11995867393E+02 0.15628453462E+02
 0.20970548621E+02 0.28617707379E+02 0.38824072599E+02 0.51351089506E+02 0.65439558527E+02
 0.79940167805E+02 0.93577148568E+02 0.10526030490E+03 0.11433384647E+03 0.12067206627E+03
 0.12889050006E+03 0.12980170327E+03 0.12980169548E+03 0.12889047853E+03 0.12662640168E+03
 0.12230949518E+03 0.11528512883E+03 0.10526028551E+03 0.92514884366E+02 0.77924164478E+02
 0.62777547477E+02 0.48458231129E+02 0.36100676410E+02 0.26344940210E+02 0.19258401599E+02
 0.14424008155E+02 0.11141115447E+02 0.88569834079E+01 0.73329543122E+01 0.63692933728E+01
 0.58110533960E+01 0.55566866285E+01 0.55566852887E+01 0.58110500393E+01 0.63692896867E+01
 0.73329522187E+01 0.88569841478E+01 0.11141118935E+02 0.14424012927E+02 0.19258405409E+02
 0.26344941072E+02 0.36100673670E+02 0.48458226101E+02 0.62777543326E+02 0.77924165282E+02
 0.92514893687E+02 0.10526030490E+03 0.11528515688E+03 0.12230952751E+03 0.12662643192E+03
 0.13085559597E+03 0.13111616655E+03 0.13085558215E+03 0.12980169548E+03 0.12724306473E+03
 0.12230949833E+03 0.11433382299E+03 0.10316804264E+03 0.89336914526E+02 0.73967310848E+02
 0.58515681353E+02 0.44393697869E+02 0.32627460498E+02 0.23661994766E+02 0.17354763668E+02
 0.13126487578E+02 0.10229861946E+02 0.82493075128E+01 0.69618815857E+01 0.61779241981E+01
 0.57608838034E+01 0.56306114205E+01 0.57608817748E+01 0.61779211576E+01 0.69618790931E+01
 0.82493069290E+01 0.10229863763E+02 0.13126491119E+02 0.17354767341E+02 0.23661996793E+02
 0.32627459836E+02 0.44393694932E+02 0.58515678231E+02 0.73967310795E+02 0.89336920917E+02
 0.10316805763E+03 0.11433384647E+03 0.12230952751E+03 0.12724309457E+03 0.12980171998E+03
 0.13149019150E+03 0.13149018726E+03 0.13111616655E+03 0.12980170327E+03 0.12662641372E+03
 0.12067204992E+03 0.11140267264E+03 0.98934740702E+02 0.84095983619E+02 0.68247178776E+02
 0.52931127123E+02 0.39478196220E+02 0.28706627275E+02 0.20805816938E+02 0.15410513431E+02
 0.11805387422E+02 0.93168630601E+01 0.76568043542E+01 0.66092500905E+01 0.60040761087E+01
 0.57289608816E+01 0.57289602757E+01 0.60040745930E+01 0.66092484341E+01 0.76568034254E+01
 0.93168634123E+01 0.11805388998E+02 0.15410515563E+02 0.20805818628E+02 0.28706627702E+02
 0.39478195218E+02 0.52931125474E+02 0.68247178090E+02 0.84095985900E+02 0.98934747584E+02
 0.11140268471E+03 0.12067206627E+03 0.12662643192E+03 0.12980171998E+03 0.13111617832E+03
 0.13149019150E+03 0.13111617832E+03 0.12980171998E+03 0.12662643192E+03 0.12067206627E+03
 0.11140268471E+03 0.98934747584E+02 0.84095985900E+02 0.68247178090E+02 0.52931125474E+02
 0.39478195218E+02 0.28706627702E+02 0.20805818628E+02 0.15410515563E+02 0.11805388998E+02
 0.93168634123E+01 0.76568034254E+01 0.66092484341E+01 0.60040745930E+01 0.57289602757E+01
 0.57289608816E+01 0.60040761087E+01 0.66092500905E+01 0.76568043542E+01 0.93168630601E+01
 0.11805387422E+02 0.15410513431E+02 0.20805816938E+02 0.28706627275E+02 0.39478196220E+02