   1   1   1   0
  0.1503742E+02  0.2770529E-09  0.2770529E-09  0.2770529E-09  0.5000000E-15
  1.000000000000000E-004
  CAR 
 Pt-fcc                                  
     70.29577071    -46.18648397  301     12.14405184      1.00000000
    -46.186  0.0000E+00  0.0000E+00
    -45.798  0.0000E+00  0.0000E+00
    -45.410  0.0000E+00  0.0000E+00
    -45.022  0.0000E+00  0.0000E+00
    -44.633  0.0000E+00  0.0000E+00
    -44.245  0.0000E+00  0.0000E+00
    -43.857  0.0000E+00  0.0000E+00
    -43.469  0.0000E+00  0.0000E+00
    -43.080  0.0000E+00  0.0000E+00
    -42.692  0.0000E+00  0.0000E+00
    -42.304  0.0000E+00  0.0000E+00
    -41.915  0.0000E+00  0.0000E+00
    -41.527  0.0000E+00  0.0000E+00
    -41.139  0.5471E-15  0.2124E-15
    -40.751  0.3657E-01  0.1420E-01
    -40.362  0.1146E+00  0.5996E-01
    -39.974  0.0000E+00  0.6000E-01
    -39.586  0.0000E+00  0.6000E-01
    -39.198  0.0000E+00  0.6000E-01
    -38.809  0.0000E+00  0.6000E-01
    -38.421  0.0000E+00  0.6000E-01
    -38.033  0.0000E+00  0.6000E-01
    -37.644  0.0000E+00  0.6000E-01
    -37.256  0.0000E+00  0.6000E-01
    -36.868  0.0000E+00  0.6000E-01
    -36.480  0.0000E+00  0.6000E-01
    -36.091  0.0000E+00  0.6000E-01
    -35.703  0.0000E+00  0.6000E-01
    -35.315  0.0000E+00  0.6000E-01
    -34.927  0.0000E+00  0.6000E-01
    -34.538  0.0000E+00  0.6000E-01
    -34.150  0.0000E+00  0.6000E-01
    -33.762  0.0000E+00  0.6000E-01
    -33.373  0.0000E+00  0.6000E-01
    -32.985  0.0000E+00  0.6000E-01
    -32.597  0.0000E+00  0.6000E-01
    -32.209  0.0000E+00  0.6000E-01
    -31.820  0.0000E+00  0.6000E-01
    -31.432  0.0000E+00  0.6000E-01
    -31.044  0.0000E+00  0.6000E-01
    -30.656  0.0000E+00  0.6000E-01
    -30.267  0.0000E+00  0.6000E-01
    -29.879  0.0000E+00  0.6000E-01
    -29.491  0.0000E+00  0.6000E-01
    -29.102  0.0000E+00  0.6000E-01
    -28.714  0.0000E+00  0.6000E-01
    -28.326  0.0000E+00  0.6000E-01
    -27.938  0.0000E+00  0.6000E-01
    -27.549  0.0000E+00  0.6000E-01
    -27.161  0.0000E+00  0.6000E-01
    -26.773  0.0000E+00  0.6000E-01
    -26.385  0.0000E+00  0.6000E-01
    -25.996  0.0000E+00  0.6000E-01
    -25.608  0.0000E+00  0.6000E-01
    -25.220  0.0000E+00  0.6000E-01
    -24.831  0.0000E+00  0.6000E-01
    -24.443  0.0000E+00  0.6000E-01
    -24.055  0.0000E+00  0.6000E-01
    -23.667  0.0000E+00  0.6000E-01
    -23.278  0.0000E+00  0.6000E-01
    -22.890  0.0000E+00  0.6000E-01
    -22.502  0.0000E+00  0.6000E-01
    -22.113  0.0000E+00  0.6000E-01
    -21.725  0.0000E+00  0.6000E-01
    -21.337  0.0000E+00  0.6000E-01
    -20.949  0.0000E+00  0.6000E-01
    -20.560  0.0000E+00  0.6000E-01
    -20.172  0.0000E+00  0.6000E-01
    -19.784  0.0000E+00  0.6000E-01
    -19.396  0.0000E+00  0.6000E-01
    -19.007  0.0000E+00  0.6000E-01
    -18.619  0.0000E+00  0.6000E-01
    -18.231  0.0000E+00  0.6000E-01
    -17.842  0.0000E+00  0.6000E-01
    -17.454  0.0000E+00  0.6000E-01
    -17.066  0.0000E+00  0.6000E-01
    -16.678  0.0000E+00  0.6000E-01
    -16.289  0.0000E+00  0.6000E-01
    -15.901  0.0000E+00  0.6000E-01
    -15.513  0.0000E+00  0.6000E-01
    -15.125  0.0000E+00  0.6000E-01
    -14.736  0.0000E+00  0.6000E-01
    -14.348  0.0000E+00  0.6000E-01
    -13.960  0.0000E+00  0.6000E-01
    -13.571  0.0000E+00  0.6000E-01
    -13.183  0.0000E+00  0.6000E-01
    -12.795  0.0000E+00  0.6000E-01
    -12.407  0.0000E+00  0.6000E-01
    -12.018  0.0000E+00  0.6000E-01
    -11.630  0.0000E+00  0.6000E-01
    -11.242  0.0000E+00  0.6000E-01
    -10.854  0.0000E+00  0.6000E-01
    -10.465  0.0000E+00  0.6000E-01
    -10.077  0.0000E+00  0.6000E-01
     -9.689  0.0000E+00  0.6000E-01
     -9.300  0.0000E+00  0.6000E-01
     -8.912  0.0000E+00  0.6000E-01
     -8.524  0.0000E+00  0.6000E-01
     -8.136  0.0000E+00  0.6000E-01
     -7.747  0.0000E+00  0.6000E-01
     -7.359  0.0000E+00  0.6000E-01
     -6.971  0.0000E+00  0.6000E-01
     -6.583  0.0000E+00  0.6000E-01
     -6.194  0.0000E+00  0.6000E-01
     -5.806  0.0000E+00  0.6000E-01
     -5.418  0.0000E+00  0.6000E-01
     -5.029  0.0000E+00  0.6000E-01
     -4.641  0.0000E+00  0.6000E-01
     -4.253  0.0000E+00  0.6000E-01
     -3.865  0.0000E+00  0.6000E-01
     -3.476  0.0000E+00  0.6000E-01
     -3.088  0.0000E+00  0.6000E-01
     -2.700  0.0000E+00  0.6000E-01
     -2.312  0.0000E+00  0.6000E-01
     -1.923  0.0000E+00  0.6000E-01
     -1.535  0.0000E+00  0.6000E-01
     -1.147  0.0000E+00  0.6000E-01
     -0.758  0.0000E+00  0.6000E-01
     -0.370  0.0000E+00  0.6000E-01
      0.018  0.0000E+00  0.6000E-01
      0.406  0.0000E+00  0.6000E-01
      0.795  0.0000E+00  0.6000E-01
      1.183  0.0000E+00  0.6000E-01
      1.571  0.0000E+00  0.6000E-01
      1.960  0.7220E-04  0.6003E-01
      2.348  0.3092E-03  0.6016E-01
      2.736  0.5789E-03  0.6038E-01
      3.124  0.7581E-03  0.6069E-01
      3.513  0.9002E-03  0.6104E-01
      3.901  0.1277E-02  0.6154E-01
      4.289  0.1540E-02  0.6214E-01
      4.677  0.2192E-02  0.6303E-01
      5.066  0.5047E-02  0.6500E-01
      5.454  0.8496E-02  0.6839E-01
      5.842  0.1322E-01  0.7355E-01
      6.231  0.1342E-01  0.7888E-01
      6.619  0.1217E-01  0.8372E-01
      7.007  0.7839E-02  0.8699E-01
      7.395  0.1322E-01  0.9226E-01
      7.784  0.1275E-01  0.9740E-01
      8.172  0.1547E-01  0.1036E+00
      8.560  0.1867E-01  0.1109E+00
      8.948  0.2035E-01  0.1189E+00
      9.337  0.1231E-01  0.1238E+00
      9.725  0.1142E-01  0.1283E+00
     10.113  0.1302E-01  0.1335E+00
     10.502  0.1182E-01  0.1384E+00
     10.890  0.1293E-01  0.1435E+00
     11.278  0.1177E-01  0.1481E+00
     11.666  0.8298E-02  0.1517E+00
     12.055  0.1733E-01  0.1585E+00
     12.443  0.1574E-01  0.1648E+00
     12.831  0.4003E-02  0.1664E+00
     13.219  0.3386E-02  0.1677E+00
     13.608  0.2673E-02  0.1688E+00
     13.996  0.2111E-02  0.1697E+00
     14.384  0.3412E-02  0.1710E+00
     14.773  0.2745E-02  0.1721E+00
     15.161  0.2294E-02  0.1730E+00
     15.549  0.2693E-02  0.1740E+00
     15.937  0.2313E-02  0.1750E+00
     16.326  0.2542E-02  0.1760E+00
     16.714  0.2165E-02  0.1769E+00
     17.102  0.2186E-02  0.1777E+00
     17.490  0.1628E-02  0.1784E+00
     17.879  0.3915E-02  0.1800E+00
     18.267  0.2858E-02  0.1811E+00
     18.655  0.4464E-02  0.1828E+00
     19.044  0.2163E-02  0.1837E+00
     19.432  0.1634E-02  0.1844E+00
     19.820  0.4236E-02  0.1860E+00
     20.208  0.3315E-02  0.1874E+00
     20.597  0.2685E-02  0.1884E+00
     20.985  0.3130E-02  0.1897E+00
     21.373  0.2894E-02  0.1908E+00
     21.761  0.2062E-02  0.1916E+00
     22.150  0.2939E-02  0.1928E+00
     22.538  0.5012E-02  0.1948E+00
     22.926  0.2914E-02  0.1959E+00
     23.315  0.2971E-02  0.1971E+00
     23.703  0.4623E-02  0.1990E+00
     24.091  0.2033E-02  0.1998E+00
     24.479  0.6728E-02  0.2025E+00
     24.868  0.4492E-02  0.2043E+00
     25.256  0.2371E-02  0.2053E+00
     25.644  0.6194E-02  0.2077E+00
     26.033  0.4932E-02  0.2097E+00
     26.421  0.4891E-02  0.2116E+00
     26.809  0.6518E-02  0.2142E+00
     27.197  0.6369E-02  0.2168E+00
     27.586  0.7207E-02  0.2196E+00
     27.974  0.9101E-02  0.2233E+00
     28.362  0.5311E-02  0.2255E+00
     28.750  0.6786E-02  0.2282E+00
     29.139  0.5198E-02  0.2302E+00
     29.527  0.8297E-02  0.2335E+00
     29.915  0.2215E-02  0.2344E+00
     30.304  0.3704E-02  0.2358E+00
     30.692  0.2420E-02  0.2368E+00
     31.080  0.5641E-02  0.2391E+00
     31.468  0.5269E-02  0.2412E+00
     31.857  0.6972E-02  0.2439E+00
     32.245  0.9927E-02  0.2478E+00
     32.633  0.5351E-02  0.2499E+00
     33.021  0.7211E-02  0.2528E+00
     33.410  0.5260E-02  0.2550E+00
     33.798  0.5823E-02  0.2572E+00
     34.186  0.3436E-02  0.2586E+00
     34.575  0.2527E-02  0.2596E+00
     34.963  0.3643E-02  0.2610E+00
     35.351  0.5008E-02  0.2630E+00
     35.739  0.4213E-02  0.2647E+00
     36.128  0.3909E-02  0.2663E+00
     36.516  0.5600E-02  0.2686E+00
     36.904  0.3041E-02  0.2699E+00
     37.292  0.8982E-02  0.2735E+00
     37.681  0.2798E-02  0.2747E+00
     38.069  0.6080E-02  0.2770E+00
     38.457  0.3914E-02  0.2786E+00
     38.846  0.8183E-02  0.2818E+00
     39.234  0.6949E-02  0.2846E+00
     39.622  0.7955E-02  0.2878E+00
     40.010  0.1252E-01  0.2927E+00
     40.399  0.1149E-01  0.2973E+00
     40.787  0.1000E-01  0.3012E+00
     41.175  0.9399E-02  0.3049E+00
     41.563  0.5868E-02  0.3073E+00
     41.952  0.7370E-02  0.3102E+00
     42.340  0.2223E-02  0.3111E+00
     42.728  0.7683E-02  0.3140E+00
     43.117  0.6835E-02  0.3168E+00
     43.505  0.8147E-02  0.3201E+00
     43.893  0.8593E-02  0.3235E+00
     44.281  0.8008E-02  0.3266E+00
     44.670  0.8118E-02  0.3298E+00
     45.058  0.5818E-02  0.3321E+00
     45.446  0.6695E-02  0.3348E+00
     45.834  0.3773E-02  0.3363E+00
     46.223  0.5937E-02  0.3386E+00
     46.611  0.5953E-02  0.3410E+00
     46.999  0.6289E-02  0.3437E+00
     47.388  0.6289E-02  0.3461E+00
     47.776  0.9501E-02  0.3498E+00
     48.164  0.7904E-02  0.3530E+00
     48.552  0.1242E-01  0.3580E+00
     48.941  0.9914E-02  0.3619E+00
     49.329  0.1148E-01  0.3665E+00
     49.717  0.7795E-02  0.3696E+00
     50.106  0.1002E-01  0.3736E+00
     50.494  0.9168E-02  0.3772E+00
     50.882  0.9428E-02  0.3810E+00
     51.270  0.5973E-02  0.3834E+00
     51.659  0.5562E-02  0.3856E+00
     52.047  0.5419E-02  0.3878E+00
     52.435  0.7863E-02  0.3909E+00
     52.823  0.5433E-01  0.4121E+00
     53.212  0.8810E-02  0.4181E+00
     53.600  0.4858E-02  0.4201E+00
     53.988  0.9829E-02  0.4240E+00
     54.377  0.9145E-02  0.4276E+00
     54.765  0.6957E-02  0.4303E+00
     55.153  0.8639E-02  0.4338E+00
     55.541  0.6592E-02  0.4363E+00
     55.930  0.8782E-02  0.4398E+00
     56.318  0.6400E-02  0.4425E+00
     56.706  0.8841E-02  0.4459E+00
     57.094  0.9280E-02  0.4496E+00
     57.483  0.8340E-02  0.4530E+00
     57.871  0.8269E-02  0.4562E+00
     58.259  0.8526E-02  0.4597E+00
     58.648  0.7134E-02  0.4624E+00
     59.036  0.8565E-02  0.4658E+00
     59.424  0.6080E-02  0.4683E+00
     59.812  0.5723E-02  0.4705E+00
     60.201  0.7381E-02  0.4734E+00
     60.589  0.3082E-02  0.4747E+00
     60.977  0.3756E-02  0.4762E+00
     61.365  0.1420E-02  0.4768E+00
     61.754  0.1860E-02  0.4775E+00
     62.142  0.2743E-02  0.4785E+00
     62.530  0.1304E-02  0.4791E+00
     62.919  0.4307E-03  0.4792E+00
     63.307  0.1047E-02  0.4796E+00
     63.695  0.3103E-15  0.4796E+00
     64.083  0.5866E-03  0.4799E+00
     64.472  0.0000E+00  0.4799E+00
     64.860  0.1006E-07  0.4799E+00
     65.248  0.3090E-03  0.4800E+00
     65.636  0.0000E+00  0.4800E+00
     66.025  0.0000E+00  0.4800E+00
     66.413  0.0000E+00  0.4800E+00
     66.801  0.0000E+00  0.4800E+00
     67.190  0.0000E+00  0.4800E+00
     67.578  0.0000E+00  0.4800E+00
     67.966  0.0000E+00  0.4800E+00
     68.354  0.0000E+00  0.4800E+00
     68.743  0.0000E+00  0.4800E+00
     69.131  0.0000E+00  0.4800E+00
     69.519  0.0000E+00  0.4800E+00
     69.907  0.0000E+00  0.4800E+00
     70.296  0.0000E+00  0.4800E+00
     70.29577071    -46.18648397  301     12.14405184      1.00000000
    -46.186  0.0000E+00  0.0000E+00  0.0000E+00  0.0000E+00  0.0000E+00  0.0000E+00  0.0000E+00  0.0000E+00  0.0000E+00
    -45.798  0.0000E+00  0.0000E+00  0.0000E+00  0.0000E+00  0.0000E+00  0.0000E+00  0.0000E+00  0.0000E+00  0.0000E+00
    -45.410  0.0000E+00  0.0000E+00  0.0000E+00  0.0000E+00  0.0000E+00  0.0000E+00  0.0000E+00  0.0000E+00  0.0000E+00
    -45.022  0.0000E+00  0.0000E+00  0.0000E+00  0.0000E+00  0.0000E+00  0.0000E+00  0.0000E+00  0.0000E+00  0.0000E+00
    -44.633  0.0000E+00  0.0000E+00  0.0000E+00  0.0000E+00  0.0000E+00  0.0000E+00  0.0000E+00  0.0000E+00  0.0000E+00
    -44.245  0.0000E+00  0.0000E+00  0.0000E+00  0.0000E+00  0.0000E+00  0.0000E+00  0.0000E+00  0.0000E+00  0.0000E+00
    -43.857  0.0000E+00  0.0000E+00  0.0000E+00  0.0000E+00  0.0000E+00  0.0000E+00  0.0000E+00  0.0000E+00  0.0000E+00
    -43.469  0.0000E+00  0.0000E+00  0.0000E+00  0.0000E+00  0.0000E+00  0.0000E+00  0.0000E+00  0.0000E+00  0.0000E+00
    -43.080  0.0000E+00  0.0000E+00  0.0000E+00  0.0000E+00  0.0000E+00  0.0000E+00  0.0000E+00  0.0000E+00  0.0000E+00
    -42.692  0.0000E+00  0.0000E+00  0.0000E+00  0.0000E+00  0.0000E+00  0.0000E+00  0.0000E+00  0.0000E+00  0.0000E+00
    -42.304  0.0000E+00  0.0000E+00  0.0000E+00  0.0000E+00  0.0000E+00  0.0000E+00  0.0000E+00  0.0000E+00  0.0000E+00
    -41.915  0.0000E+00  0.0000E+00  0.0000E+00  0.0000E+00  0.0000E+00  0.0000E+00  0.0000E+00  0.0000E+00  0.0000E+00
    -41.527  0.0000E+00  0.0000E+00  0.0000E+00  0.0000E+00  0.0000E+00  0.0000E+00  0.0000E+00  0.0000E+00  0.0000E+00
    -41.139  0.1218E-18  0.1790E-13  0.1790E-13  0.1790E-13  0.6814E-19  0.6814E-19  0.5327E-19  0.6814E-19  0.5327E-19
    -40.751  0.1135E-03  0.1200E+01  0.1200E+01  0.1200E+01  0.3476E-04  0.3476E-04  0.1594E-04  0.3476E-04  0.1594E-04
    -40.362  0.1652E-03  0.3790E+01  0.3790E+01  0.3790E+01  0.1195E-03  0.1195E-03  0.6510E-04  0.1195E-03  0.6510E-04
    -39.974  0.0000E+00  0.0000E+00  0.0000E+00  0.0000E+00  0.0000E+00  0.0000E+00  0.0000E+00  0.0000E+00  0.0000E+00
    -39.586  0.0000E+00  0.0000E+00  0.0000E+00  0.0000E+00  0.0000E+00  0.0000E+00  0.0000E+00  0.0000E+00  0.0000E+00
    -39.198  0.0000E+00  0.0000E+00  0.0000E+00  0.0000E+00  0.0000E+00  0.0000E+00  0.0000E+00  0.0000E+00  0.0000E+00
    -38.809  0.0000E+00  0.0000E+00  0.0000E+00  0.0000E+00  0.0000E+00  0.0000E+00  0.0000E+00  0.0000E+00  0.0000E+00
    -38.421  0.0000E+00  0.0000E+00  0.0000E+00  0.0000E+00  0.0000E+00  0.0000E+00  0.0000E+00  0.0000E+00  0.0000E+00
    -38.033  0.0000E+00  0.0000E+00  0.0000E+00  0.0000E+00  0.0000E+00  0.0000E+00  0.0000E+00  0.0000E+00  0.0000E+00
    -37.644  0.0000E+00  0.0000E+00  0.0000E+00  0.0000E+00  0.0000E+00  0.0000E+00  0.0000E+00  0.0000E+00  0.0000E+00
    -37.256  0.0000E+00  0.0000E+00  0.0000E+00  0.0000E+00  0.0000E+00  0.0000E+00  0.0000E+00  0.0000E+00  0.0000E+00
    -36.868  0.0000E+00  0.0000E+00  0.0000E+00  0.0000E+00  0.0000E+00  0.0000E+00  0.0000E+00  0.0000E+00  0.0000E+00
    -36.480  0.0000E+00  0.0000E+00  0.0000E+00  0.0000E+00  0.0000E+00  0.0000E+00  0.0000E+00  0.0000E+00  0.0000E+00
    -36.091  0.0000E+00  0.0000E+00  0.0000E+00  0.0000E+00  0.0000E+00  0.0000E+00  0.0000E+00  0.0000E+00  0.0000E+00
    -35.703  0.0000E+00  0.0000E+00  0.0000E+00  0.0000E+00  0.0000E+00  0.0000E+00  0.0000E+00  0.0000E+00  0.0000E+00
    -35.315  0.0000E+00  0.0000E+00  0.0000E+00  0.0000E+00  0.0000E+00  0.0000E+00  0.0000E+00  0.0000E+00  0.0000E+00
    -34.927  0.0000E+00  0.0000E+00  0.0000E+00  0.0000E+00  0.0000E+00  0.0000E+00  0.0000E+00  0.0000E+00  0.0000E+00
    -34.538  0.0000E+00  0.0000E+00  0.0000E+00  0.0000E+00  0.0000E+00  0.0000E+00  0.0000E+00  0.0000E+00  0.0000E+00
    -34.150  0.0000E+00  0.0000E+00  0.0000E+00  0.0000E+00  0.0000E+00  0.0000E+00  0.0000E+00  0.0000E+00  0.0000E+00
    -33.762  0.0000E+00  0.0000E+00  0.0000E+00  0.0000E+00  0.0000E+00  0.0000E+00  0.0000E+00  0.0000E+00  0.0000E+00
    -33.373  0.0000E+00  0.0000E+00  0.0000E+00  0.0000E+00  0.0000E+00  0.0000E+00  0.0000E+00  0.0000E+00  0.0000E+00
    -32.985  0.0000E+00  0.0000E+00  0.0000E+00  0.0000E+00  0.0000E+00  0.0000E+00  0.0000E+00  0.0000E+00  0.0000E+00
    -32.597  0.0000E+00  0.0000E+00  0.0000E+00  0.0000E+00  0.0000E+00  0.0000E+00  0.0000E+00  0.0000E+00  0.0000E+00
    -32.209  0.0000E+00  0.0000E+00  0.0000E+00  0.0000E+00  0.0000E+00  0.0000E+00  0.0000E+00  0.0000E+00  0.0000E+00
    -31.820  0.0000E+00  0.0000E+00  0.0000E+00  0.0000E+00  0.0000E+00  0.0000E+00  0.0000E+00  0.0000E+00  0.0000E+00
    -31.432  0.0000E+00  0.0000E+00  0.0000E+00  0.0000E+00  0.0000E+00  0.0000E+00  0.0000E+00  0.0000E+00  0.0000E+00
    -31.044  0.0000E+00  0.0000E+00  0.0000E+00  0.0000E+00  0.0000E+00  0.0000E+00  0.0000E+00  0.0000E+00  0.0000E+00
    -30.656  0.0000E+00  0.0000E+00  0.0000E+00  0.0000E+00  0.0000E+00  0.0000E+00  0.0000E+00  0.0000E+00  0.0000E+00
    -30.267  0.0000E+00  0.0000E+00  0.0000E+00  0.0000E+00  0.0000E+00  0.0000E+00  0.0000E+00  0.0000E+00  0.0000E+00
    -29.879  0.0000E+00  0.0000E+00  0.0000E+00  0.0000E+00  0.0000E+00  0.0000E+00  0.0000E+00  0.0000E+00  0.0000E+00
    -29.491  0.0000E+00  0.0000E+00  0.0000E+00  0.0000E+00  0.0000E+00  0.0000E+00  0.0000E+00  0.0000E+00  0.0000E+00
    -29.102  0.0000E+00  0.0000E+00  0.0000E+00  0.0000E+00  0.0000E+00  0.0000E+00  0.0000E+00  0.0000E+00  0.0000E+00
    -28.714  0.0000E+00  0.0000E+00  0.0000E+00  0.0000E+00  0.0000E+00  0.0000E+00  0.0000E+00  0.0000E+00  0.0000E+00
    -28.326  0.0000E+00  0.0000E+00  0.0000E+00  0.0000E+00  0.0000E+00  0.0000E+00  0.0000E+00  0.0000E+00  0.0000E+00
    -27.938  0.0000E+00  0.0000E+00  0.0000E+00  0.0000E+00  0.0000E+00  0.0000E+00  0.0000E+00  0.0000E+00  0.0000E+00
    -27.549  0.0000E+00  0.0000E+00  0.0000E+00  0.0000E+00  0.0000E+00  0.0000E+00  0.0000E+00  0.0000E+00  0.0000E+00
    -27.161  0.0000E+00  0.0000E+00  0.0000E+00  0.0000E+00  0.0000E+00  0.0000E+00  0.0000E+00  0.0000E+00  0.0000E+00
    -26.773  0.0000E+00  0.0000E+00  0.0000E+00  0.0000E+00  0.0000E+00  0.0000E+00  0.0000E+00  0.0000E+00  0.0000E+00
    -26.385  0.0000E+00  0.0000E+00  0.0000E+00  0.0000E+00  0.0000E+00  0.0000E+00  0.0000E+00  0.0000E+00  0.0000E+00
    -25.996  0.0000E+00  0.0000E+00  0.0000E+00  0.0000E+00  0.0000E+00  0.0000E+00  0.0000E+00  0.0000E+00  0.0000E+00
    -25.608  0.0000E+00  0.0000E+00  0.0000E+00  0.0000E+00  0.0000E+00  0.0000E+00  0.0000E+00  0.0000E+00  0.0000E+00
    -25.220  0.0000E+00  0.0000E+00  0.0000E+00  0.0000E+00  0.0000E+00  0.0000E+00  0.0000E+00  0.0000E+00  0.0000E+00
    -24.831  0.0000E+00  0.0000E+00  0.0000E+00  0.0000E+00  0.0000E+00  0.0000E+00  0.0000E+00  0.0000E+00  0.0000E+00
    -24.443  0.0000E+00  0.0000E+00  0.0000E+00  0.0000E+00  0.0000E+00  0.0000E+00  0.0000E+00  0.0000E+00  0.0000E+00
    -24.055  0.0000E+00  0.0000E+00  0.0000E+00  0.0000E+00  0.0000E+00  0.0000E+00  0.0000E+00  0.0000E+00  0.0000E+00
    -23.667  0.0000E+00  0.0000E+00  0.0000E+00  0.0000E+00  0.0000E+00  0.0000E+00  0.0000E+00  0.0000E+00  0.0000E+00
    -23.278  0.0000E+00  0.0000E+00  0.0000E+00  0.0000E+00  0.0000E+00  0.0000E+00  0.0000E+00  0.0000E+00  0.0000E+00
    -22.890  0.0000E+00  0.0000E+00  0.0000E+00  0.0000E+00  0.0000E+00  0.0000E+00  0.0000E+00  0.0000E+00  0.0000E+00
    -22.502  0.0000E+00  0.0000E+00  0.0000E+00  0.0000E+00  0.0000E+00  0.0000E+00  0.0000E+00  0.0000E+00  0.0000E+00
    -22.113  0.0000E+00  0.0000E+00  0.0000E+00  0.0000E+00  0.0000E+00  0.0000E+00  0.0000E+00  0.0000E+00  0.0000E+00
    -21.725  0.0000E+00  0.0000E+00  0.0000E+00  0.0000E+00  0.0000E+00  0.0000E+00  0.0000E+00  0.0000E+00  0.0000E+00
    -21.337  0.0000E+00  0.0000E+00  0.0000E+00  0.0000E+00  0.0000E+00  0.0000E+00  0.0000E+00  0.0000E+00  0.0000E+00
    -20.949  0.0000E+00  0.0000E+00  0.0000E+00  0.0000E+00  0.0000E+00  0.0000E+00  0.0000E+00  0.0000E+00  0.0000E+00
    -20.560  0.0000E+00  0.0000E+00  0.0000E+00  0.0000E+00  0.0000E+00  0.0000E+00  0.0000E+00  0.0000E+00  0.0000E+00
    -20.172  0.0000E+00  0.0000E+00  0.0000E+00  0.0000E+00  0.0000E+00  0.0000E+00  0.0000E+00  0.0000E+00  0.0000E+00
    -19.784  0.0000E+00  0.0000E+00  0.0000E+00  0.0000E+00  0.0000E+00  0.0000E+00  0.0000E+00  0.0000E+00  0.0000E+00
    -19.396  0.0000E+00  0.0000E+00  0.0000E+00  0.0000E+00  0.0000E+00  0.0000E+00  0.0000E+00  0.0000E+00  0.0000E+00
    -19.007  0.0000E+00  0.0000E+00  0.0000E+00  0.0000E+00  0.0000E+00  0.0000E+00  0.0000E+00  0.0000E+00  0.0000E+00
    -18.619  0.0000E+00  0.0000E+00  0.0000E+00  0.0000E+00  0.0000E+00  0.0000E+00  0.0000E+00  0.0000E+00  0.0000E+00
    -18.231  0.0000E+00  0.0000E+00  0.0000E+00  0.0000E+00  0.0000E+00  0.0000E+00  0.0000E+00  0.0000E+00  0.0000E+00
    -17.842  0.0000E+00  0.0000E+00  0.0000E+00  0.0000E+00  0.0000E+00  0.0000E+00  0.0000E+00  0.0000E+00  0.0000E+00
    -17.454  0.0000E+00  0.0000E+00  0.0000E+00  0.0000E+00  0.0000E+00  0.0000E+00  0.0000E+00  0.0000E+00  0.0000E+00
    -17.066  0.0000E+00  0.0000E+00  0.0000E+00  0.0000E+00  0.0000E+00  0.0000E+00  0.0000E+00  0.0000E+00  0.0000E+00
    -16.678  0.0000E+00  0.0000E+00  0.0000E+00  0.0000E+00  0.0000E+00  0.0000E+00  0.0000E+00  0.0000E+00  0.0000E+00
    -16.289  0.0000E+00  0.0000E+00  0.0000E+00  0.0000E+00  0.0000E+00  0.0000E+00  0.0000E+00  0.0000E+00  0.0000E+00
    -15.901  0.0000E+00  0.0000E+00  0.0000E+00  0.0000E+00  0.0000E+00  0.0000E+00  0.0000E+00  0.0000E+00  0.0000E+00
    -15.513  0.0000E+00  0.0000E+00  0.0000E+00  0.0000E+00  0.0000E+00  0.0000E+00  0.0000E+00  0.0000E+00  0.0000E+00
    -15.125  0.0000E+00  0.0000E+00  0.0000E+00  0.0000E+00  0.0000E+00  0.0000E+00  0.0000E+00  0.0000E+00  0.0000E+00
    -14.736  0.0000E+00  0.0000E+00  0.0000E+00  0.0000E+00  0.0000E+00  0.0000E+00  0.0000E+00  0.0000E+00  0.0000E+00
    -14.348  0.0000E+00  0.0000E+00  0.0000E+00  0.0000E+00  0.0000E+00  0.0000E+00  0.0000E+00  0.0000E+00  0.0000E+00
    -13.960  0.0000E+00  0.0000E+00  0.0000E+00  0.0000E+00  0.0000E+00  0.0000E+00  0.0000E+00  0.0000E+00  0.0000E+00
    -13.571  0.0000E+00  0.0000E+00  0.0000E+00  0.0000E+00  0.0000E+00  0.0000E+00  0.0000E+00  0.0000E+00  0.0000E+00
    -13.183  0.0000E+00  0.0000E+00  0.0000E+00  0.0000E+00  0.0000E+00  0.0000E+00  0.0000E+00  0.0000E+00  0.0000E+00
    -12.795  0.0000E+00  0.0000E+00  0.0000E+00  0.0000E+00  0.0000E+00  0.0000E+00  0.0000E+00  0.0000E+00  0.0000E+00
    -12.407  0.0000E+00  0.0000E+00  0.0000E+00  0.0000E+00  0.0000E+00  0.0000E+00  0.0000E+00  0.0000E+00  0.0000E+00
    -12.018  0.0000E+00  0.0000E+00  0.0000E+00  0.0000E+00  0.0000E+00  0.0000E+00  0.0000E+00  0.0000E+00  0.0000E+00
    -11.630  0.0000E+00  0.0000E+00  0.0000E+00  0.0000E+00  0.0000E+00  0.0000E+00  0.0000E+00  0.0000E+00  0.0000E+00
    -11.242  0.0000E+00  0.0000E+00  0.0000E+00  0.0000E+00  0.0000E+00  0.0000E+00  0.0000E+00  0.0000E+00  0.0000E+00
    -10.854  0.0000E+00  0.0000E+00  0.0000E+00  0.0000E+00  0.0000E+00  0.0000E+00  0.0000E+00  0.0000E+00  0.0000E+00
    -10.465  0.0000E+00  0.0000E+00  0.0000E+00  0.0000E+00  0.0000E+00  0.0000E+00  0.0000E+00  0.0000E+00  0.0000E+00
    -10.077  0.0000E+00  0.0000E+00  0.0000E+00  0.0000E+00  0.0000E+00  0.0000E+00  0.0000E+00  0.0000E+00  0.0000E+00
     -9.689  0.0000E+00  0.0000E+00  0.0000E+00  0.0000E+00  0.0000E+00  0.0000E+00  0.0000E+00  0.0000E+00  0.0000E+00
     -9.300  0.0000E+00  0.0000E+00  0.0000E+00  0.0000E+00  0.0000E+00  0.0000E+00  0.0000E+00  0.0000E+00  0.0000E+00
     -8.912  0.0000E+00  0.0000E+00  0.0000E+00  0.0000E+00  0.0000E+00  0.0000E+00  0.0000E+00  0.0000E+00  0.0000E+00
     -8.524  0.0000E+00  0.0000E+00  0.0000E+00  0.0000E+00  0.0000E+00  0.0000E+00  0.0000E+00  0.0000E+00  0.0000E+00
     -8.136  0.0000E+00  0.0000E+00  0.0000E+00  0.0000E+00  0.0000E+00  0.0000E+00  0.0000E+00  0.0000E+00  0.0000E+00
     -7.747  0.0000E+00  0.0000E+00  0.0000E+00  0.0000E+00  0.0000E+00  0.0000E+00  0.0000E+00  0.0000E+00  0.0000E+00
     -7.359  0.0000E+00  0.0000E+00  0.0000E+00  0.0000E+00  0.0000E+00  0.0000E+00  0.0000E+00  0.0000E+00  0.0000E+00
     -6.971  0.0000E+00  0.0000E+00  0.0000E+00  0.0000E+00  0.0000E+00  0.0000E+00  0.0000E+00  0.0000E+00  0.0000E+00
     -6.583  0.0000E+00  0.0000E+00  0.0000E+00  0.0000E+00  0.0000E+00  0.0000E+00  0.0000E+00  0.0000E+00  0.0000E+00
     -6.194  0.0000E+00  0.0000E+00  0.0000E+00  0.0000E+00  0.0000E+00  0.0000E+00  0.0000E+00  0.0000E+00  0.0000E+00
     -5.806  0.0000E+00  0.0000E+00  0.0000E+00  0.0000E+00  0.0000E+00  0.0000E+00  0.0000E+00  0.0000E+00  0.0000E+00
     -5.418  0.0000E+00  0.0000E+00  0.0000E+00  0.0000E+00  0.0000E+00  0.0000E+00  0.0000E+00  0.0000E+00  0.0000E+00
     -5.029  0.0000E+00  0.0000E+00  0.0000E+00  0.0000E+00  0.0000E+00  0.0000E+00  0.0000E+00  0.0000E+00  0.0000E+00
     -4.641  0.0000E+00  0.0000E+00  0.0000E+00  0.0000E+00  0.0000E+00  0.0000E+00  0.0000E+00  0.0000E+00  0.0000E+00
     -4.253  0.0000E+00  0.0000E+00  0.0000E+00  0.0000E+00  0.0000E+00  0.0000E+00  0.0000E+00  0.0000E+00  0.0000E+00
     -3.865  0.0000E+00  0.0000E+00  0.0000E+00  0.0000E+00  0.0000E+00  0.0000E+00  0.0000E+00  0.0000E+00  0.0000E+00
     -3.476  0.0000E+00  0.0000E+00  0.0000E+00  0.0000E+00  0.0000E+00  0.0000E+00  0.0000E+00  0.0000E+00  0.0000E+00
     -3.088  0.0000E+00  0.0000E+00  0.0000E+00  0.0000E+00  0.0000E+00  0.0000E+00  0.0000E+00  0.0000E+00  0.0000E+00
     -2.700  0.0000E+00  0.0000E+00  0.0000E+00  0.0000E+00  0.0000E+00  0.0000E+00  0.0000E+00  0.0000E+00  0.0000E+00
     -2.312  0.0000E+00  0.0000E+00  0.0000E+00  0.0000E+00  0.0000E+00  0.0000E+00  0.0000E+00  0.0000E+00  0.0000E+00
     -1.923  0.0000E+00  0.0000E+00  0.0000E+00  0.0000E+00  0.0000E+00  0.0000E+00  0.0000E+00  0.0000E+00  0.0000E+00
     -1.535  0.0000E+00  0.0000E+00  0.0000E+00  0.0000E+00  0.0000E+00  0.0000E+00  0.0000E+00  0.0000E+00  0.0000E+00
     -1.147  0.0000E+00  0.0000E+00  0.0000E+00  0.0000E+00  0.0000E+00  0.0000E+00  0.0000E+00  0.0000E+00  0.0000E+00
     -0.758  0.0000E+00  0.0000E+00  0.0000E+00  0.0000E+00  0.0000E+00  0.0000E+00  0.0000E+00  0.0000E+00  0.0000E+00
     -0.370  0.0000E+00  0.0000E+00  0.0000E+00  0.0000E+00  0.0000E+00  0.0000E+00  0.0000E+00  0.0000E+00  0.0000E+00
      0.018  0.0000E+00  0.0000E+00  0.0000E+00  0.0000E+00  0.0000E+00  0.0000E+00  0.0000E+00  0.0000E+00  0.0000E+00
      0.406  0.0000E+00  0.0000E+00  0.0000E+00  0.0000E+00  0.0000E+00  0.0000E+00  0.0000E+00  0.0000E+00  0.0000E+00
      0.795  0.0000E+00  0.0000E+00  0.0000E+00  0.0000E+00  0.0000E+00  0.0000E+00  0.0000E+00  0.0000E+00  0.0000E+00
      1.183  0.0000E+00  0.0000E+00  0.0000E+00  0.0000E+00  0.0000E+00  0.0000E+00  0.0000E+00  0.0000E+00  0.0000E+00
      1.571  0.0000E+00  0.0000E+00  0.0000E+00  0.0000E+00  0.0000E+00  0.0000E+00  0.0000E+00  0.0000E+00  0.0000E+00
      1.960  0.2891E-02  0.3293E-05  0.3293E-05  0.3293E-05  0.1926E-06  0.1926E-06  0.4167E-17  0.1926E-06  0.4167E-17
      2.348  0.1219E-01  0.5086E-04  0.5086E-04  0.5086E-04  0.5348E-05  0.5348E-05  0.4409E-05  0.5348E-05  0.4409E-05
      2.736  0.2228E-01  0.1883E-03  0.1883E-03  0.1883E-03  0.6004E-04  0.6004E-04  0.3231E-04  0.6004E-04  0.3231E-04
      3.124  0.2844E-01  0.3557E-03  0.3557E-03  0.3557E-03  0.1756E-03  0.1756E-03  0.8426E-04  0.1756E-03  0.8426E-04
      3.513  0.3247E-01  0.5688E-03  0.5688E-03  0.5688E-03  0.4374E-03  0.4374E-03  0.2767E-03  0.4374E-03  0.2767E-03
      3.901  0.4414E-01  0.9365E-03  0.9365E-03  0.9365E-03  0.1330E-02  0.1330E-02  0.5340E-03  0.1330E-02  0.5340E-03
      4.289  0.4962E-01  0.1294E-02  0.1294E-02  0.1294E-02  0.3096E-02  0.3096E-02  0.1013E-02  0.3096E-02  0.1013E-02
      4.677  0.6255E-01  0.1832E-02  0.1832E-02  0.1832E-02  0.8856E-02  0.8856E-02  0.2354E-02  0.8856E-02  0.2354E-02
      5.066  0.9905E-01  0.2469E-02  0.2469E-02  0.2469E-02  0.5063E-01  0.5063E-01  0.1033E-01  0.5063E-01  0.1033E-01
      5.454  0.1208E+00  0.4191E-02  0.4191E-02  0.4191E-02  0.6238E-01  0.6238E-01  0.8729E-01  0.6238E-01  0.8729E-01
      5.842  0.1111E+00  0.5061E-02  0.5061E-02  0.5061E-02  0.1476E+00  0.1476E+00  0.1392E+00  0.1476E+00  0.1392E+00
      6.231  0.7770E-01  0.5395E-02  0.5395E-02  0.5395E-02  0.1873E+00  0.1873E+00  0.1218E+00  0.1873E+00  0.1218E+00
      6.619  0.3506E-01  0.5700E-02  0.5700E-02  0.5700E-02  0.1773E+00  0.1773E+00  0.1289E+00  0.1773E+00  0.1289E+00
      7.007  0.9168E-02  0.5140E-02  0.5140E-02  0.5140E-02  0.1206E+00  0.1206E+00  0.7960E-01  0.1206E+00  0.7960E-01
      7.395  0.9157E-02  0.8844E-02  0.8844E-02  0.8844E-02  0.1670E+00  0.1670E+00  0.1968E+00  0.1670E+00  0.1968E+00
      7.784  0.1310E-01  0.6778E-02  0.6778E-02  0.6778E-02  0.2076E+00  0.2076E+00  0.1411E+00  0.2076E+00  0.1411E+00
      8.172  0.1920E-01  0.9587E-02  0.9587E-02  0.9587E-02  0.2568E+00  0.2568E+00  0.1655E+00  0.2568E+00  0.1655E+00
      8.560  0.2720E-01  0.1270E-01  0.1270E-01  0.1270E-01  0.2866E+00  0.2866E+00  0.2379E+00  0.2866E+00  0.2379E+00
      8.948  0.2194E-01  0.1026E-01  0.1026E-01  0.1026E-01  0.3487E+00  0.3487E+00  0.2500E+00  0.3487E+00  0.2500E+00
      9.337  0.1407E-01  0.8655E-02  0.8655E-02  0.8655E-02  0.1851E+00  0.1851E+00  0.1782E+00  0.1851E+00  0.1782E+00
      9.725  0.1406E-01  0.7938E-02  0.7938E-02  0.7938E-02  0.1421E+00  0.1421E+00  0.2154E+00  0.1421E+00  0.2154E+00
     10.113  0.6501E-02  0.5479E-02  0.5479E-02  0.5479E-02  0.1206E+00  0.1206E+00  0.3479E+00  0.1206E+00  0.3479E+00
     10.502  0.9623E-02  0.4835E-02  0.4835E-02  0.4835E-02  0.8695E-01  0.8695E-01  0.3520E+00  0.8695E-01  0.3520E+00
     10.890  0.1023E-01  0.4056E-02  0.4056E-02  0.4056E-02  0.1409E+00  0.1409E+00  0.3348E+00  0.1409E+00  0.3348E+00
     11.278  0.4507E-02  0.4494E-02  0.4494E-02  0.4494E-02  0.1601E+00  0.1601E+00  0.2640E+00  0.1601E+00  0.2640E+00
     11.666  0.5799E-02  0.2191E-02  0.2191E-02  0.2191E-02  0.1289E+00  0.1289E+00  0.1718E+00  0.1289E+00  0.1718E+00
     12.055  0.6754E-02  0.2232E-02  0.2232E-02  0.2232E-02  0.3314E+00  0.3314E+00  0.2954E+00  0.3314E+00  0.2954E+00
     12.443  0.1456E-01  0.3395E-02  0.3395E-02  0.3395E-02  0.3563E+00  0.3563E+00  0.1782E+00  0.3563E+00  0.1782E+00
     12.831  0.4418E-02  0.8045E-03  0.8045E-03  0.8045E-03  0.1057E+00  0.1057E+00  0.2422E-01  0.1057E+00  0.2422E-01
     13.219  0.1803E-01  0.4293E-02  0.4293E-02  0.4293E-02  0.4967E-01  0.4967E-01  0.4496E-01  0.4967E-01  0.4496E-01
     13.608  0.1572E-01  0.4445E-02  0.4445E-02  0.4445E-02  0.3754E-01  0.3754E-01  0.3026E-01  0.3754E-01  0.3026E-01
     13.996  0.1519E-01  0.3605E-02  0.3605E-02  0.3605E-02  0.2831E-01  0.2831E-01  0.2371E-01  0.2831E-01  0.2371E-01
     14.384  0.2929E-01  0.7194E-02  0.7194E-02  0.7194E-02  0.4520E-01  0.4520E-01  0.2851E-01  0.4520E-01  0.2851E-01