PROCAR lm decomposed
# of k-points:  110         # of bands:   24         # of ions:    1

 k-point     1 :    0.05000000 0.05000000 0.05000000     weight = 0.00200000

band     1 # energy  -40.43277604 # occ.  2.00000000
 
ion      s     py     pz     px    dxy    dyz    dz2    dxz  x2-y2    tot
    1  0.000  0.332  0.332  0.332  0.000  0.000  0.000  0.000  0.000  0.996
 
band     2 # energy  -40.42232574 # occ.  2.00000000
 
ion      s     py     pz     px    dxy    dyz    dz2    dxz  x2-y2    tot
    1  0.000  0.006  0.501  0.490  0.000  0.000  0.000  0.000  0.000  0.997
 
band     3 # energy  -40.42232574 # occ.  2.00000000
 
ion      s     py     pz     px    dxy    dyz    dz2    dxz  x2-y2    tot
    1  0.000  0.659  0.163  0.175  0.000  0.000  0.000  0.000  0.000  0.997
 
band     4 # energy    1.94088741 # occ.  2.00000000
 
ion      s     py     pz     px    dxy    dyz    dz2    dxz  x2-y2    tot
    1  0.400  0.000  0.000  0.000  0.000  0.000  0.000  0.000  0.000  0.402
 
band     5 # energy    8.25917304 # occ.  2.00000000
 
ion      s     py     pz     px    dxy    dyz    dz2    dxz  x2-y2    tot
    1  0.000  0.000  0.000  0.000  0.281  0.281  0.000  0.281  0.000  0.843
 
band     6 # energy    8.34652414 # occ.  2.00000000
 
ion      s     py     pz     px    dxy    dyz    dz2    dxz  x2-y2    tot
    1  0.000  0.000  0.000  0.000  0.000  0.425  0.000  0.423  0.000  0.848
 
band     7 # energy    8.34652414 # occ.  2.00000000
 
ion      s     py     pz     px    dxy    dyz    dz2    dxz  x2-y2    tot
    1  0.000  0.000  0.000  0.000  0.565  0.140  0.000  0.142  0.000  0.848
 
band     8 # energy   10.46054130 # occ.  2.00000000
 
ion      s     py     pz     px    dxy    dyz    dz2    dxz  x2-y2    tot
    1  0.000  0.000  0.000  0.000  0.000  0.000  0.000  0.000  0.911  0.912
 
band     9 # energy   10.46054131 # occ.  2.00000000
 
ion      s     py     pz     px    dxy    dyz    dz2    dxz  x2-y2    tot
    1  0.000  0.000  0.000  0.000  0.000  0.000  0.911  0.000  0.000  0.912
 
band    10 # energy   26.88283031 # occ.  0.00000000
 
ion      s     py     pz     px    dxy    dyz    dz2    dxz  x2-y2    tot
    1  0.000  0.000  0.000  0.000  0.002  0.002  0.000  0.002  0.000  0.007
 
band    11 # energy   31.15304800 # occ.  0.00000000
 
ion      s     py     pz     px    dxy    dyz    dz2    dxz  x2-y2    tot
    1  0.009  0.021  0.021  0.021  0.002  0.002  0.000  0.002  0.000  0.078
 
band    12 # energy   31.86097243 # occ.  0.00000000
 
ion      s     py     pz     px    dxy    dyz    dz2    dxz  x2-y2    tot
    1  0.000  0.039  0.001  0.030  0.000  0.001  0.000  0.001  0.003  0.074
 
band    13 # energy   31.86097243 # occ.  0.00000000
 
ion      s     py     pz     px    dxy    dyz    dz2    dxz  x2-y2    tot
    1  0.000  0.007  0.045  0.017  0.001  0.000  0.003  0.000  0.000  0.074
 
band    14 # energy   37.69437993 # occ.  0.00000000
 
ion      s     py     pz     px    dxy    dyz    dz2    dxz  x2-y2    tot
    1  0.045  0.005  0.005  0.005  0.001  0.001  0.000  0.001  0.000  0.063
 
band    15 # energy   42.73876918 # occ.  0.00000000
 
ion      s     py     pz     px    dxy    dyz    dz2    dxz  x2-y2    tot
    1  0.008  0.055  0.055  0.055  0.107  0.107  0.000  0.107  0.000  0.493
 
band    16 # energy   43.48507233 # occ.  0.00000000
 
ion      s     py     pz     px    dxy    dyz    dz2    dxz  x2-y2    tot
    1  0.000  0.045  0.000  0.041  0.000  0.196  0.000  0.215  0.002  0.499
 
band    17 # energy   43.48507233 # occ.  0.00000000
 
ion      s     py     pz     px    dxy    dyz    dz2    dxz  x2-y2    tot
    1  0.000  0.013  0.057  0.016  0.274  0.078  0.002  0.060  0.000  0.499
 
band    18 # energy   46.82197468 # occ.  0.00000000
 
ion      s     py     pz     px    dxy    dyz    dz2    dxz  x2-y2    tot
    1  0.000  0.295  0.001  0.263  0.000  0.040  0.000  0.045  0.017  0.660
 
band    19 # energy   46.82197468 # occ.  0.00000000
 
ion      s     py     pz     px    dxy    dyz    dz2    dxz  x2-y2    tot
    1  0.000  0.078  0.371  0.110  0.056  0.017  0.017  0.012  0.000  0.660
 
band    20 # energy   47.75408549 # occ.  0.00000000
 
ion      s     py     pz     px    dxy    dyz    dz2    dxz  x2-y2    tot
    1  0.026  0.152  0.152  0.152  0.060  0.060  0.000  0.060  0.000  0.664
 
band    21 # energy   52.78886816 # occ.  0.00000000
 
ion      s     py     pz     px    dxy    dyz    dz2    dxz  x2-y2    tot
    1  6.303  0.000  0.000  0.000  0.000  0.000  0.000  0.000  0.000  6.303
 
band    22 # energy   53.55027068 # occ.  0.00000000
 
ion      s     py     pz     px    dxy    dyz    dz2    dxz  x2-y2    tot
    1  0.000  0.013  0.000  0.013  0.000  0.000  0.000  0.000  0.458  0.485
 
band    23 # energy   53.55027068 # occ.  0.00000000
 
ion      s     py     pz     px    dxy    dyz    dz2    dxz  x2-y2    tot
    1  0.000  0.004  0.018  0.005  0.000  0.000  0.458  0.000  0.000  0.485
 
band    24 # energy   60.93882808 # occ.  0.00000000
 
ion      s     py     pz     px    dxy    dyz    dz2    dxz  x2-y2    tot
    1  0.000  0.000  0.000  0.000  0.000  0.000  0.000  0.000  0.000  0.000
 

 k-point     2 :    0.15000000 0.05000000 0.05000000     weight = 0.00600000

band     1 # energy  -40.48964415 # occ.  2.00000000
 
ion      s     py     pz     px    dxy    dyz    dz2    dxz  x2-y2    tot
    1  0.000  0.455  0.455  0.084  0.000  0.000  0.000  0.000  0.000  0.994
 
band     2 # energy  -40.43918627 # occ.  2.00000000
 
ion      s     py     pz     px    dxy    dyz    dz2    dxz  x2-y2    tot
    1  0.000  0.042  0.042  0.912  0.000  0.000  0.000  0.000  0.000  0.996
 
band     3 # energy  -40.42804858 # occ.  2.00000000
 
ion      s     py     pz     px    dxy    dyz    dz2    dxz  x2-y2    tot
    1  0.000  0.498  0.498  0.000  0.000  0.000  0.000  0.000  0.000  0.997
 
band     4 # energy    2.46599177 # occ.  2.00000000
 
ion      s     py     pz     px    dxy    dyz    dz2    dxz  x2-y2    tot
    1  0.388  0.004  0.004  0.000  0.000  0.002  0.000  0.000  0.000  0.399
 
band     5 # energy    8.02432886 # occ.  2.00000000
 
ion      s     py     pz     px    dxy    dyz    dz2    dxz  x2-y2    tot
    1  0.000  0.000  0.000  0.002  0.396  0.029  0.000  0.396  0.000  0.823
 
band     6 # energy    8.52917558 # occ.  2.00000000
 
ion      s     py     pz     px    dxy    dyz    dz2    dxz  x2-y2    tot
    1  0.000  0.000  0.000  0.000  0.423  0.000  0.003  0.423  0.001  0.852
 
band     7 # energy    8.56881321 # occ.  2.00000000
 
ion      s     py     pz     px    dxy    dyz    dz2    dxz  x2-y2    tot
    1  0.000  0.001  0.001  0.000  0.015  0.791  0.006  0.015  0.018  0.847
 
band     8 # energy   10.23068396 # occ.  2.00000000
 
ion      s     py     pz     px    dxy    dyz    dz2    dxz  x2-y2    tot
    1  0.000  0.000  0.000  0.000  0.002  0.000  0.670  0.002  0.223  0.898
 
band     9 # energy   10.51808257 # occ.  2.00000000
 
ion      s     py     pz     px    dxy    dyz    dz2    dxz  x2-y2    tot
    1  0.000  0.000  0.000  0.000  0.001  0.024  0.221  0.001  0.662  0.909
 
band    10 # energy   27.64596259 # occ.  0.00000000
 
ion      s     py     pz     px    dxy    dyz    dz2    dxz  x2-y2    tot
    1  0.000  0.000  0.000  0.001  0.021  0.002  0.000  0.021  0.000  0.045
 
band    11 # energy   29.44541508 # occ.  0.00000000
 
ion      s     py     pz     px    dxy    dyz    dz2    dxz  x2-y2    tot
    1  0.033  0.025  0.025  0.007  0.003  0.017  0.001  0.003  0.004  0.118
 
band    12 # energy   31.99873918 # occ.  0.00000000
 
ion      s     py     pz     px    dxy    dyz    dz2    dxz  x2-y2    tot
    1  0.000  0.003  0.003  0.089  0.011  0.002  0.001  0.011  0.004  0.124
 
band    13 # energy   32.99334404 # occ.  0.00000000
 
ion      s     py     pz     px    dxy    dyz    dz2    dxz  x2-y2    tot
    1  0.000  0.033  0.033  0.000  0.001  0.000  0.022  0.001  0.007  0.096
 
band    14 # energy   38.35561089 # occ.  0.00000000
 
ion      s     py     pz     px    dxy    dyz    dz2    dxz  x2-y2    tot
    1  0.003  0.103  0.103  0.009  0.006  0.113  0.000  0.006  0.001  0.344
 
band    15 # energy   40.78212067 # occ.  0.00000000
 
ion      s     py     pz     px    dxy    dyz    dz2    dxz  x2-y2    tot
    1  0.017  0.009  0.009  0.116  0.056  0.054  0.003  0.056  0.008  0.327
 
band    16 # energy   41.18167212 # occ.  0.00000000
 
ion      s     py     pz     px    dxy    dyz    dz2    dxz  x2-y2    tot
    1  0.050  0.003  0.003  0.065  0.041  0.005  0.000  0.041  0.001  0.209
 
band    17 # energy   42.52995137 # occ.  0.00000000
 
ion      s     py     pz     px    dxy    dyz    dz2    dxz  x2-y2    tot
    1  0.000  0.078  0.078  0.000  0.147  0.000  0.015  0.147  0.005  0.469
 
band    18 # energy   45.12230768 # occ.  0.00000000
 
ion      s     py     pz     px    dxy    dyz    dz2    dxz  x2-y2    tot
    1  0.000  0.194  0.194  0.000  0.076  0.000  0.045  0.076  0.015  0.599
 
band    19 # energy   48.24573312 # occ.  0.00000000
 
ion      s     py     pz     px    dxy    dyz    dz2    dxz  x2-y2    tot
    1  0.076  0.119  0.119  0.031  0.000  0.260  0.007  0.000  0.020  0.633
 
band    20 # energy   50.52280317 # occ.  0.00000000
 
ion      s     py     pz     px    dxy    dyz    dz2    dxz  x2-y2    tot
    1  0.036  0.005  0.005  0.330  0.129  0.003  0.008  0.129  0.025  0.671
 
band    21 # energy   52.34649505 # occ.  0.00000000
 
ion      s     py     pz     px    dxy    dyz    dz2    dxz  x2-y2    tot
    1  0.008  0.007  0.007  0.076  0.007  0.010  0.067  0.007  0.202  0.392
 
band    22 # energy   52.77645004 # occ.  0.00000000
 
ion      s     py     pz     px    dxy    dyz    dz2    dxz  x2-y2    tot
    1  6.282  0.000  0.000  0.000  0.000  0.000  0.000  0.000  0.000  6.283
 
band    23 # energy   54.72354788 # occ.  0.00000000
 
ion      s     py     pz     px    dxy    dyz    dz2    dxz  x2-y2    tot
    1  0.000  0.060  0.060  0.000  0.001  0.000  0.238  0.001  0.079  0.439
 
band    24 # energy   61.54228096 # occ.  0.00000000
 
ion      s     py     pz     px    dxy    dyz    dz2    dxz  x2-y2    tot
    1  0.000  0.000  0.000  0.000  0.007  0.000  0.032  0.007  0.011  0.056
 

 k-point     3 :    0.25000000 0.05000000 0.05000000     weight = 0.00600000

band     1 # energy  -40.61511026 # occ.  2.00000000
 
ion      s     py     pz     px    dxy    dyz    dz2    dxz  x2-y2    tot
    1  0.000  0.389  0.389  0.212  0.000  0.000  0.000  0.000  0.000  0.990
 
band     2 # energy  -40.46189811 # occ.  2.00000000
 
ion      s     py     pz     px    dxy    dyz    dz2    dxz  x2-y2    tot
    1  0.000  0.106  0.106  0.783  0.000  0.000  0.000  0.000  0.000  0.996
 
band     3 # energy  -40.44447876 # occ.  2.00000000
 
ion      s     py     pz     px    dxy    dyz    dz2    dxz  x2-y2    tot
    1  0.000  0.498  0.498  0.000  0.000  0.000  0.000  0.000  0.000  0.996
 
band     4 # energy    3.58681694 # occ.  2.00000000
 
ion      s     py     pz     px    dxy    dyz    dz2    dxz  x2-y2    tot
    1  0.347  0.009  0.009  0.003  0.012  0.022  0.000  0.012  0.001  0.413
 
band     5 # energy    7.79935655 # occ.  2.00000000
 
ion      s     py     pz     px    dxy    dyz    dz2    dxz  x2-y2    tot
    1  0.010  0.003  0.003  0.007  0.337  0.064  0.000  0.337  0.000  0.761
 
band     6 # energy    8.72008503 # occ.  2.00000000
 
ion      s     py     pz     px    dxy    dyz    dz2    dxz  x2-y2    tot
    1  0.001  0.001  0.001  0.000  0.035  0.573  0.049  0.035  0.147  0.842
 
band     7 # energy    8.75965410 # occ.  2.00000000
 
ion      s     py     pz     px    dxy    dyz    dz2    dxz  x2-y2    tot
    1  0.000  0.000  0.000  0.000  0.347  0.000  0.119  0.347  0.040  0.853
 
band     8 # energy   10.21462999 # occ.  2.00000000
 
ion      s     py     pz     px    dxy    dyz    dz2    dxz  x2-y2    tot
    1  0.000  0.000  0.000  0.000  0.083  0.000  0.541  0.083  0.180  0.887
 
band     9 # energy   10.78616709 # occ.  2.00000000
 
ion      s     py     pz     px    dxy    dyz    dz2    dxz  x2-y2    tot
    1  0.002  0.001  0.001  0.000  0.011  0.181  0.174  0.011  0.523  0.904
 
band    10 # energy   26.57230588 # occ.  0.00000000
 
ion      s     py     pz     px    dxy    dyz    dz2    dxz  x2-y2    tot
    1  0.081  0.029  0.029  0.025  0.026  0.042  0.001  0.026  0.003  0.263
 
band    11 # energy   28.63428711 # occ.  0.00000000
 
ion      s     py     pz     px    dxy    dyz    dz2    dxz  x2-y2    tot
    1  0.001  0.002  0.002  0.009  0.047  0.013  0.000  0.047  0.001  0.122
 
band    12 # energy   33.13043707 # occ.  0.00000000
 
ion      s     py     pz     px    dxy    dyz    dz2    dxz  x2-y2    tot
    1  0.001  0.013  0.013  0.124  0.017  0.027  0.006  0.017  0.018  0.236
 
band    13 # energy   35.08500546 # occ.  0.00000000
 
ion      s     py     pz     px    dxy    dyz    dz2    dxz  x2-y2    tot
    1  0.038  0.082  0.082  0.003  0.000  0.043  0.002  0.000  0.006  0.257
 
band    14 # energy   35.11058346 # occ.  0.00000000
 
ion      s     py     pz     px    dxy    dyz    dz2    dxz  x2-y2    tot
    1  0.000  0.034  0.034  0.000  0.008  0.000  0.056  0.008  0.019  0.160
 
band    15 # energy   38.44214361 # occ.  0.00000000
 
ion      s     py     pz     px    dxy    dyz    dz2    dxz  x2-y2    tot
    1  0.003  0.000  0.000  0.118  0.024  0.014  0.008  0.024  0.023  0.214
 
band    16 # energy   38.53301419 # occ.  0.00000000
 
ion      s     py     pz     px    dxy    dyz    dz2    dxz  x2-y2    tot
    1  0.000  0.109  0.109  0.000  0.060  0.000  0.033  0.060  0.011  0.381
 
band    17 # energy   45.08479695 # occ.  0.00000000
 
ion      s     py     pz     px    dxy    dyz    dz2    dxz  x2-y2    tot
    1  0.079  0.000  0.000  0.000  0.000  0.008  0.002  0.000  0.007  0.096
 
band    18 # energy   45.54041100 # occ.  0.00000000
 
ion      s     py     pz     px    dxy    dyz    dz2    dxz  x2-y2    tot
    1  0.000  0.128  0.128  0.000  0.116  0.000  0.049  0.116  0.016  0.553
 
band    19 # energy   48.85629300 # occ.  0.00000000
 
ion      s     py     pz     px    dxy    dyz    dz2    dxz  x2-y2    tot
    1  0.057  0.064  0.064  0.089  0.001  0.249  0.015  0.001  0.046  0.587
 
band    20 # energy   50.89284807 # occ.  0.00000000
 
ion      s     py     pz     px    dxy    dyz    dz2    dxz  x2-y2    tot
    1  0.108  0.007  0.007  0.015  0.096  0.000  0.030  0.096  0.090  0.451
 
band    21 # energy   52.77332808 # occ.  0.00000000
 
ion      s     py     pz     px    dxy    dyz    dz2    dxz  x2-y2    tot
    1  6.273  0.000  0.000  0.000  0.000  0.000  0.000  0.000  0.000  6.273
 
band    22 # energy   53.57290331 # occ.  0.00000000
 
ion      s     py     pz     px    dxy    dyz    dz2    dxz  x2-y2    tot
    1  0.025  0.012  0.012  0.249  0.062  0.039  0.010  0.062  0.029  0.500
 
band    23 # energy   55.36076845 # occ.  0.00000000
 
ion      s     py     pz     px    dxy    dyz    dz2    dxz  x2-y2    tot
    1  0.000  0.085  0.085  0.000  0.007  0.000  0.125  0.007  0.042  0.351
 
band    24 # energy   61.85322785 # occ.  0.00000000
 
ion      s     py     pz     px    dxy    dyz    dz2    dxz  x2-y2    tot
    1  0.000  0.000  0.000  0.000  0.002  0.000  0.041  0.002  0.014  0.058
 

 k-point     4 :    0.35000000 0.05000000 0.05000000     weight = 0.00600000

band     1 # energy  -40.75771228 # occ.  2.00000000
 
ion      s     py     pz     px    dxy    dyz    dz2    dxz  x2-y2    tot
    1  0.000  0.359  0.359  0.268  0.000  0.000  0.000  0.000  0.000  0.986
 
band     2 # energy  -40.48333713 # occ.  2.00000000
 
ion      s     py     pz     px    dxy    dyz    dz2    dxz  x2-y2    tot
    1  0.000  0.135  0.135  0.725  0.000  0.000  0.000  0.000  0.000  0.995
 
band     3 # energy  -40.46573627 # occ.  2.00000000
 
ion      s     py     pz     px    dxy    dyz    dz2    dxz  x2-y2    tot
    1  0.000  0.498  0.498  0.000  0.000  0.000  0.000  0.000  0.000  0.996
 
band     4 # energy    4.57637646 # occ.  2.00000000
 
ion      s     py     pz     px    dxy    dyz    dz2    dxz  x2-y2    tot
    1  0.242  0.007  0.007  0.002  0.083  0.094  0.000  0.083  0.001  0.518
 
band     5 # energy    8.37959641 # occ.  2.00000000
 
ion      s     py     pz     px    dxy    dyz    dz2    dxz  x2-y2    tot
    1  0.044  0.011  0.011  0.017  0.265  0.010  0.011  0.265  0.033  0.665
 
band     6 # energy    8.56572491 # occ.  2.00000000
 
ion      s     py     pz     px    dxy    dyz    dz2    dxz  x2-y2    tot
    1  0.015  0.008  0.008  0.003  0.000  0.366  0.090  0.000  0.270  0.760
 
band     7 # energy    8.59871491 # occ.  2.00000000
 
ion      s     py     pz     px    dxy    dyz    dz2    dxz  x2-y2    tot
    1  0.000  0.000  0.000  0.000  0.217  0.000  0.308  0.217  0.103  0.844
 
band     8 # energy   10.88592025 # occ.  2.00000000
 
ion      s     py     pz     px    dxy    dyz    dz2    dxz  x2-y2    tot
    1  0.000  0.001  0.001  0.000  0.222  0.000  0.344  0.222  0.115  0.902
 
band     9 # energy   11.54419228 # occ.  2.00000000
 
ion      s     py     pz     px    dxy    dyz    dz2    dxz  x2-y2    tot
    1  0.007  0.002  0.002  0.000  0.027  0.364  0.119  0.027  0.358  0.908
 
band    10 # energy   23.11748362 # occ.  0.00000000
 
ion      s     py     pz     px    dxy    dyz    dz2    dxz  x2-y2    tot
    1  0.173  0.032  0.032  0.034  0.064  0.071  0.001  0.064  0.002  0.473
 
band    11 # energy   27.84168924 # occ.  0.00000000
 
ion      s     py     pz     px    dxy    dyz    dz2    dxz  x2-y2    tot
    1  0.004  0.006  0.006  0.012  0.030  0.007  0.001  0.030  0.003  0.099
 
band    12 # energy   32.53492652 # occ.  0.00000000
 
ion      s     py     pz     px    dxy    dyz    dz2    dxz  x2-y2    tot
    1  0.010  0.049  0.049  0.137  0.028  0.033  0.000  0.028  0.001  0.335
 
band    13 # energy   34.76871420 # occ.  0.00000000
 
ion      s     py     pz     px    dxy    dyz    dz2    dxz  x2-y2    tot
    1  0.000  0.118  0.118  0.000  0.031  0.000  0.017  0.031  0.006  0.320
 
band    14 # energy   35.93636223 # occ.  0.00000000
 
ion      s     py     pz     px    dxy    dyz    dz2    dxz  x2-y2    tot
    1  0.017  0.006  0.006  0.042  0.001  0.017  0.014  0.001  0.042  0.146
 
band    15 # energy   37.79359889 # occ.  0.00000000
 
ion      s     py     pz     px    dxy    dyz    dz2    dxz  x2-y2    tot
    1  0.000  0.013  0.013  0.000  0.017  0.000  0.127  0.017  0.042  0.230
 
band    16 # energy   38.36150156 # occ.  0.00000000
 
ion      s     py     pz     px    dxy    dyz    dz2    dxz  x2-y2    tot
    1  0.022  0.007  0.007  0.024  0.004  0.000  0.017  0.004  0.052  0.137
 
band    17 # energy   45.96092339 # occ.  0.00000000
 
ion      s     py     pz     px    dxy    dyz    dz2    dxz  x2-y2    tot
    1  0.000  0.131  0.131  0.000  0.091  0.000  0.038  0.091  0.013  0.494
 
band    18 # energy   48.20029937 # occ.  0.00000000
 
ion      s     py     pz     px    dxy    dyz    dz2    dxz  x2-y2    tot
    1  0.144  0.012  0.012  0.074  0.000  0.184  0.016  0.000  0.049  0.492
 
band    19 # energy   50.31534143 # occ.  0.00000000
 
ion      s     py     pz     px    dxy    dyz    dz2    dxz  x2-y2    tot
    1  0.067  0.032  0.032  0.058  0.061  0.015  0.014  0.061  0.043  0.383
 
band    20 # energy   51.49791744 # occ.  0.00000000
 
ion      s     py     pz     px    dxy    dyz    dz2    dxz  x2-y2    tot
    1  0.037  0.017  0.017  0.021  0.043  0.004  0.007  0.043  0.021  0.208
 
band    21 # energy   52.78133897 # occ.  0.00000000
 
ion      s     py     pz     px    dxy    dyz    dz2    dxz  x2-y2    tot
    1  6.275  0.000  0.000  0.000  0.000  0.000  0.000  0.000  0.000  6.275
 
band    22 # energy   54.22624195 # occ.  0.00000000
 
ion      s     py     pz     px    dxy    dyz    dz2    dxz  x2-y2    tot
    1  0.009  0.029  0.029  0.131  0.022  0.076  0.002  0.022  0.007  0.328
 
band    23 # energy   56.05366457 # occ.  0.00000000
 
ion      s     py     pz     px    dxy    dyz    dz2    dxz  x2-y2    tot
    1  0.000  0.092  0.092  0.000  0.015  0.000  0.061  0.015  0.020  0.295
 
band    24 # energy   60.85035309 # occ.  0.00000000
 
ion      s     py     pz     px    dxy    dyz    dz2    dxz  x2-y2    tot
    1  0.000  0.002  0.002  0.000  0.041  0.000  0.069  0.041  0.023  0.179
 

 k-point     5 :    0.45000000 0.05000000 0.05000000     weight = 0.00600000

band     1 # energy  -40.86256278 # occ.  2.00000000
 
ion      s     py     pz     px    dxy    dyz    dz2    dxz  x2-y2    tot
    1  0.000  0.339  0.339  0.304  0.000  0.000  0.000  0.000  0.000  0.982
 
band     2 # energy  -40.49702268 # occ.  2.00000000
 
ion      s     py     pz     px    dxy    dyz    dz2    dxz  x2-y2    tot
    1  0.000  0.154  0.154  0.686  0.000  0.000  0.000  0.000  0.000  0.995
 
band     3 # energy  -40.48412926 # occ.  2.00000000
 
ion      s     py     pz     px    dxy    dyz    dz2    dxz  x2-y2    tot
    1  0.000  0.497  0.497  0.000  0.000  0.000  0.000  0.000  0.000  0.995
 
band     4 # energy    4.82329108 # occ.  2.00000000
 
ion      s     py     pz     px    dxy    dyz    dz2    dxz  x2-y2    tot
    1  0.153  0.002  0.002  0.000  0.153  0.157  0.000  0.153  0.000  0.620
 
band     5 # energy    8.26777002 # occ.  2.00000000
 
ion      s     py     pz     px    dxy    dyz    dz2    dxz  x2-y2    tot
    1  0.000  0.000  0.000  0.000  0.055  0.246  0.118  0.055  0.354  0.829
 
band     6 # energy    8.36880929 # occ.  2.00000000
 
ion      s     py     pz     px    dxy    dyz    dz2    dxz  x2-y2    tot
    1  0.000  0.000  0.000  0.000  0.173  0.000  0.366  0.173  0.122  0.836
 
band     7 # energy   10.16786385 # occ.  2.00000000
 
ion      s     py     pz     px    dxy    dyz    dz2    dxz  x2-y2    tot
    1  0.046  0.036  0.036  0.037  0.107  0.008  0.015  0.107  0.045  0.438
 
band     8 # energy   11.74792993 # occ.  2.00000000
 
ion      s     py     pz     px    dxy    dyz    dz2    dxz  x2-y2    tot
    1  0.000  0.000  0.000  0.000  0.276  0.000  0.284  0.276  0.095  0.932
 
band     9 # energy   12.43779217 # occ.  0.00000000
 
ion      s     py     pz     px    dxy    dyz    dz2    dxz  x2-y2    tot
    1  0.018  0.010  0.010  0.006  0.026  0.407  0.086  0.026  0.257  0.846
 
band    10 # energy   19.51329945 # occ.  0.00000000
 
ion      s     py     pz     px    dxy    dyz    dz2    dxz  x2-y2    tot
    1  0.293  0.016  0.016  0.020  0.110  0.098  0.001  0.110  0.002  0.667
 
band    11 # energy   26.74736317 # occ.  0.00000000
 
ion      s     py     pz     px    dxy    dyz    dz2    dxz  x2-y2    tot
    1  0.001  0.004  0.004  0.006  0.008  0.000  0.001  0.008  0.003  0.035
 
band    12 # energy   31.04327777 # occ.  0.00000000
 
ion      s     py     pz     px    dxy    dyz    dz2    dxz  x2-y2    tot
    1  0.005  0.039  0.039  0.145  0.015  0.003  0.000  0.015  0.001  0.261
 
band    13 # energy   32.07883159 # occ.  0.00000000
 
ion      s     py     pz     px    dxy    dyz    dz2    dxz  x2-y2    tot
    1  0.000  0.110  0.110  0.000  0.006  0.000  0.012  0.006  0.004  0.248
 
band    14 # energy   38.90041519 # occ.  0.00000000
 
ion      s     py     pz     px    dxy    dyz    dz2    dxz  x2-y2    tot
    1  0.008  0.000  0.000  0.022  0.000  0.071  0.041  0.000  0.123  0.264
 
band    15 # energy   39.98226503 # occ.  0.00000000
 
ion      s     py     pz     px    dxy    dyz    dz2    dxz  x2-y2    tot
    1  0.000  0.003  0.003  0.000  0.049  0.000  0.196  0.049  0.065  0.367
 
band    16 # energy   40.56125770 # occ.  0.00000000
 
ion      s     py     pz     px    dxy    dyz    dz2    dxz  x2-y2    tot
    1  0.069  0.008  0.008  0.010  0.051  0.007  0.011  0.051  0.033  0.248
 
band    17 # energy   46.59614564 # occ.  0.00000000
 
ion      s     py     pz     px    dxy    dyz    dz2    dxz  x2-y2    tot
    1  0.000  0.158  0.158  0.000  0.030  0.000  0.005  0.030  0.002  0.382
 
band    18 # energy   47.99517040 # occ.  0.00000000
 
ion      s     py     pz     px    dxy    dyz    dz2    dxz  x2-y2    tot
    1  0.085  0.009  0.009  0.160  0.001  0.110  0.013  0.001  0.040  0.429
 
band    19 # energy   49.29710294 # occ.  0.00000000
 
ion      s     py     pz     px    dxy    dyz    dz2    dxz  x2-y2    tot
    1  0.033  0.064  0.064  0.027  0.043  0.005  0.006  0.043  0.018  0.301
 
band    20 # energy   52.78796562 # occ.  0.00000000
 
ion      s     py     pz     px    dxy    dyz    dz2    dxz  x2-y2    tot
    1  6.294  0.000  0.000  0.000  0.000  0.000  0.000  0.000  0.000  6.294
 
band    21 # energy   53.79319372 # occ.  0.00000000
 
ion      s     py     pz     px    dxy    dyz    dz2    dxz  x2-y2    tot
    1  0.004  0.034  0.034  0.071  0.011  0.063  0.002  0.011  0.005  0.234
 
band    22 # energy   56.59509679 # occ.  0.00000000
 
ion      s     py     pz     px    dxy    dyz    dz2    dxz  x2-y2    tot
    1  0.000  0.072  0.072  0.000  0.000  0.000  0.025  0.000  0.008  0.179
 
band    23 # energy   56.77948048 # occ.  0.00000000
 
ion      s     py     pz     px    dxy    dyz    dz2    dxz  x2-y2    tot
    1  0.056  0.001  0.001  0.001  0.001  0.001  0.000  0.001  0.000  0.063
 
band    24 # energy   57.94633475 # occ.  0.00000000
 
ion      s     py     pz     px    dxy    dyz    dz2    dxz  x2-y2    tot
    1  0.000  0.015  0.015  0.000  0.117  0.000  0.005  0.117  0.002  0.272
 

 k-point     6 :   -0.45000000 0.05000000 0.05000000     weight = 0.00600000

band     1 # energy  -40.89183603 # occ.  2.00000000
 
ion      s     py     pz     px    dxy    dyz    dz2    dxz  x2-y2    tot
    1  0.000  0.323  0.323  0.335  0.000  0.000  0.000  0.000  0.000  0.981
 
band     2 # energy  -40.49716838 # occ.  2.00000000
 
ion      s     py     pz     px    dxy    dyz    dz2    dxz  x2-y2    tot
    1  0.000  0.170  0.170  0.655  0.000  0.000  0.000  0.000  0.000  0.995
 
band     3 # energy  -40.49300557 # occ.  2.00000000
 
ion      s     py     pz     px    dxy    dyz    dz2    dxz  x2-y2    tot
    1  0.000  0.497  0.497  0.000  0.000  0.000  0.000  0.000  0.000  0.995
 
band     4 # energy    4.82654401 # occ.  2.00000000
 
ion      s     py     pz     px    dxy    dyz    dz2    dxz  x2-y2    tot
    1  0.135  0.000  0.000  0.001  0.164  0.175  0.000  0.164  0.000  0.640
 
band     5 # energy    8.17616648 # occ.  2.00000000
 
ion      s     py     pz     px    dxy    dyz    dz2    dxz  x2-y2    tot
    1  0.000  0.000  0.000  0.000  0.058  0.208  0.125  0.058  0.375  0.825
 
band     6 # energy    8.31542768 # occ.  2.00000000
 
ion      s     py     pz     px    dxy    dyz    dz2    dxz  x2-y2    tot
    1  0.000  0.000  0.000  0.000  0.170  0.000  0.370  0.170  0.123  0.833
 
band     7 # energy   10.89913243 # occ.  2.00000000
 
ion      s     py     pz     px    dxy    dyz    dz2    dxz  x2-y2    tot
    1  0.003  0.037  0.037  0.036  0.029  0.200  0.030  0.029  0.090  0.490
 
band     8 # energy   12.17223580 # occ.  0.42535640
 
ion      s     py     pz     px    dxy    dyz    dz2    dxz  x2-y2    tot
    1  0.000  0.000  0.000  0.000  0.285  0.000  0.285  0.285  0.095  0.951
 
band     9 # energy   12.87124878 # occ.  0.00000000
 
ion      s     py     pz     px    dxy    dyz    dz2    dxz  x2-y2    tot
    1  0.002  0.025  0.025  0.029  0.073  0.185  0.062  0.073  0.187  0.662
 
band    10 # energy   18.01706177 # occ.  0.00000000
 
ion      s     py     pz     px    dxy    dyz    dz2    dxz  x2-y2    tot
    1  0.378  0.002  0.002  0.000  0.135  0.140  0.000  0.135  0.000  0.793
 
band    11 # energy   26.45572247 # occ.  0.00000000
 
ion      s     py     pz     px    dxy    dyz    dz2    dxz  x2-y2    tot
    1  0.000  0.003  0.003  0.005  0.000  0.004  0.001  0.000  0.004  0.021
 
band    12 # energy   30.92991915 # occ.  0.00000000
 
ion      s     py     pz     px    dxy    dyz    dz2    dxz  x2-y2    tot
    1  0.004  0.036  0.036  0.143  0.003  0.006  0.002  0.003  0.006  0.239
 
band    13 # energy   30.97528450 # occ.  0.00000000
 
ion      s     py     pz     px    dxy    dyz    dz2    dxz  x2-y2    tot
    1  0.000  0.110  0.110  0.000  0.001  0.000  0.004  0.001  0.001  0.227
 
band    14 # energy   40.21399843 # occ.  0.00000000
 
ion      s     py     pz     px    dxy    dyz    dz2    dxz  x2-y2    tot
    1  0.000  0.002  0.002  0.000  0.053  0.000  0.200  0.053  0.067  0.376
 
band    15 # energy   40.43881125 # occ.  0.00000000
 
ion      s     py     pz     px    dxy    dyz    dz2    dxz  x2-y2    tot
    1  0.000  0.000  0.000  0.001  0.015  0.081  0.070  0.015  0.209  0.391
 
band    16 # energy   41.93415591 # occ.  0.00000000
 
ion      s     py     pz     px    dxy    dyz    dz2    dxz  x2-y2    tot
    1  0.121  0.003  0.003  0.000  0.072  0.069  0.000  0.072  0.000  0.339
 
band    17 # energy   46.84456253 # occ.  0.00000000
 
ion      s     py     pz     px    dxy    dyz    dz2    dxz  x2-y2    tot
    1  0.024  0.081  0.081  0.116  0.004  0.001  0.001  0.004  0.002  0.313
 
band    18 # energy   47.71466504 # occ.  0.00000000
 
ion      s     py     pz     px    dxy    dyz    dz2    dxz  x2-y2    tot
    1  0.000  0.005  0.005  0.126  0.005  0.000  0.002  0.005  0.005  0.153
 
band    19 # energy   47.93559292 # occ.  0.00000000
 
ion      s     py     pz     px    dxy    dyz    dz2    dxz  x2-y2    tot
    1  0.000  0.168  0.168  0.000  0.002  0.000  0.018  0.002  0.006  0.364
 
band    20 # energy   52.78872830 # occ.  0.00000000
 
ion      s     py     pz     px    dxy    dyz    dz2    dxz  x2-y2    tot
    1  6.301  0.000  0.000  0.000  0.000  0.000  0.000  0.000  0.000  6.301
 
band    21 # energy   54.89419921 # occ.  0.00000000
 
ion      s     py     pz     px    dxy    dyz    dz2    dxz  x2-y2    tot
    1  0.000  0.046  0.046  0.000  0.053  0.000  0.000  0.053  0.000  0.197
 
band    22 # energy   55.50483593 # occ.  0.00000000
 
ion      s     py     pz     px    dxy    dyz    dz2    dxz  x2-y2    tot
    1  0.007  0.012  0.012  0.046  0.009  0.049  0.001  0.009  0.002  0.147
 