   2   2   0   0
  0.2137190E+02  0.2470000E-09  0.2470000E-09  0.8090000E-09  0.5000000E-15
  1.000000000000000E-004
  CAR 
 Co fcc                                  
     21.97608854     -5.00548976  301      3.02039490      1.00000000
     -5.005  0.0000E+00  0.0000E+00  0.0000E+00  0.0000E+00
     -4.916  0.0000E+00  0.0000E+00  0.0000E+00  0.0000E+00
     -4.826  0.0000E+00  0.0000E+00  0.0000E+00  0.0000E+00
     -4.736  0.0000E+00  0.0000E+00  0.0000E+00  0.0000E+00
     -4.646 -0.1100E-29  0.0000E+00 -0.9890E-31  0.0000E+00
     -4.556 -0.1372E-26  0.0000E+00 -0.1235E-27  0.0000E+00
     -4.466 -0.1130E-23  0.0000E+00 -0.1017E-24  0.0000E+00
     -4.376 -0.6191E-21 -0.2687E-28 -0.5578E-22 -0.2417E-29
     -4.286 -0.2258E-18 -0.2769E-25 -0.2036E-19 -0.2493E-26
     -4.196 -0.5480E-16 -0.1899E-22 -0.4949E-17 -0.1711E-23
     -4.106 -0.8556E-14 -0.8662E-20 -0.7744E-15 -0.7807E-21
     -4.016 -0.9137E-12 -0.2626E-17 -0.8295E-13 -0.2370E-18
     -3.926 -0.6471E-10 -0.5121E-15 -0.5902E-11 -0.4629E-16
     -3.836 -0.3036E-08 -0.6836E-13 -0.2789E-09 -0.6194E-14
     -3.746 -0.9411E-07 -0.6033E-11 -0.8743E-08 -0.5488E-12
     -3.656 -0.1919E-05 -0.3524E-09 -0.1813E-06 -0.3225E-10
     -3.566 -0.2550E-04 -0.1361E-07 -0.2475E-05 -0.1256E-08
     -3.477 -0.2173E-03 -0.3460E-06 -0.2202E-04 -0.3237E-07
     -3.387 -0.1145E-02 -0.5765E-05 -0.1250E-03 -0.5509E-06
     -3.297 -0.3370E-02 -0.6231E-04 -0.4281E-03 -0.6155E-05
     -3.207 -0.3283E-02 -0.4274E-03 -0.7233E-03 -0.4459E-04
     -3.117  0.1143E-01 -0.1764E-02  0.3047E-03 -0.2033E-03
     -3.027  0.4799E-01 -0.3652E-02  0.4621E-02 -0.5317E-03
     -2.937  0.8598E-01  0.5924E-03  0.1235E-01 -0.4784E-03
     -2.847  0.9927E-01  0.2310E-01  0.2128E-01  0.1600E-02
     -2.757  0.9550E-01  0.6004E-01  0.2987E-01  0.6999E-02
     -2.667  0.9585E-01  0.8277E-01  0.3849E-01  0.1444E-01
     -2.577  0.9417E-01  0.7877E-01  0.4696E-01  0.2153E-01
     -2.487  0.6777E-01  0.6664E-01  0.5306E-01  0.2752E-01
     -2.397  0.1935E-01  0.5859E-01  0.5480E-01  0.3279E-01
     -2.307 -0.2283E-01  0.6045E-01  0.5274E-01  0.3823E-01
     -2.217 -0.1419E-01  0.7050E-01  0.5147E-01  0.4457E-01
     -2.127  0.1180E+00  0.6042E-01  0.6208E-01  0.5000E-01
     -2.038  0.3760E+00  0.2070E-01  0.9589E-01  0.5186E-01
     -1.948  0.6035E+00  0.1233E-01  0.1502E+00  0.5297E-01
     -1.858  0.6880E+00  0.1279E+00  0.2120E+00  0.6448E-01
     -1.768  0.6975E+00  0.3485E+00  0.2748E+00  0.9582E-01
     -1.678  0.6514E+00  0.4958E+00  0.3334E+00  0.1404E+00
     -1.588  0.4615E+00  0.4798E+00  0.3749E+00  0.1836E+00
     -1.498  0.1845E+00  0.4062E+00  0.3915E+00  0.2201E+00
     -1.408 -0.9001E-02  0.3562E+00  0.3907E+00  0.2521E+00
     -1.318 -0.7679E-01  0.3690E+00  0.3837E+00  0.2853E+00
     -1.228 -0.3104E-01  0.4398E+00  0.3810E+00  0.3249E+00
     -1.138  0.2264E+00  0.4224E+00  0.4013E+00  0.3629E+00
     -1.048  0.7550E+00  0.2527E+00  0.4692E+00  0.3856E+00
     -0.958  0.1353E+01  0.7109E-01  0.5909E+00  0.3920E+00
     -0.868  0.1554E+01 -0.1000E-01  0.7307E+00  0.3911E+00
     -0.778  0.1039E+01 -0.1640E-01  0.8241E+00  0.3896E+00
     -0.688  0.4247E+00 -0.6460E-02  0.8623E+00  0.3890E+00
     -0.598  0.1056E+01 -0.1529E-02  0.9573E+00  0.3889E+00
     -0.509  0.3056E+01 -0.1391E-02  0.1232E+01  0.3888E+00
     -0.419  0.4487E+01 -0.6525E-02  0.1636E+01  0.3882E+00
     -0.329  0.4239E+01 -0.2016E-01  0.2017E+01  0.3864E+00
     -0.239  0.3719E+01 -0.2546E-01  0.2351E+01  0.3841E+00
     -0.149  0.3705E+01  0.4076E-01  0.2685E+01  0.3877E+00
     -0.059  0.3524E+01  0.2268E+00  0.3002E+01  0.4081E+00
      0.031  0.3405E+01  0.4859E+00  0.3308E+01  0.4518E+00
      0.121  0.3627E+01  0.8164E+00  0.3634E+01  0.5253E+00
      0.211  0.3322E+01  0.1337E+01  0.3933E+01  0.6456E+00
      0.301  0.2388E+01  0.1951E+01  0.4148E+01  0.8210E+00
      0.391  0.2073E+01  0.2165E+01  0.4334E+01  0.1016E+01
      0.481  0.2573E+01  0.1617E+01  0.4565E+01  0.1161E+01
      0.571  0.2747E+01  0.6616E+00  0.4812E+01  0.1221E+01
      0.661  0.2963E+01 -0.3494E-01  0.5079E+01  0.1218E+01
      0.751  0.4833E+01 -0.1013E+00  0.5514E+01  0.1208E+01
      0.841  0.7463E+01  0.7042E+00  0.6185E+01  0.1272E+01
      0.930  0.7933E+01  0.2094E+01  0.6898E+01  0.1460E+01
      1.020  0.6369E+01  0.2710E+01  0.7471E+01  0.1704E+01
      1.110  0.5448E+01  0.1797E+01  0.7961E+01  0.1865E+01
      1.200  0.5320E+01  0.4635E+00  0.8439E+01  0.1907E+01
      1.290  0.4809E+01 -0.1557E+00  0.8872E+01  0.1893E+01
      1.380  0.4292E+01 -0.1203E+00  0.9258E+01  0.1882E+01
      1.470  0.3750E+01  0.2315E+00  0.9595E+01  0.1903E+01
      1.560  0.2474E+01  0.9642E+00  0.9818E+01  0.1990E+01
      1.650  0.9595E+00  0.2463E+01  0.9904E+01  0.2211E+01
      1.740  0.1956E+00  0.4654E+01  0.9922E+01  0.2630E+01
      1.830  0.2877E+00  0.6260E+01  0.9948E+01  0.3193E+01
      1.920  0.8391E+00  0.5904E+01  0.1002E+02  0.3724E+01
      2.010  0.1500E+01  0.3869E+01  0.1016E+02  0.4072E+01
      2.100  0.1834E+01  0.1943E+01  0.1032E+02  0.4247E+01
      2.190  0.1612E+01  0.1545E+01  0.1047E+02  0.4385E+01
      2.280  0.1139E+01  0.2157E+01  0.1057E+02  0.4579E+01
      2.369  0.9306E+00  0.2271E+01  0.1065E+02  0.4784E+01
      2.459  0.1201E+01  0.1737E+01  0.1076E+02  0.4940E+01
      2.549  0.1483E+01  0.1790E+01  0.1090E+02  0.5101E+01
      2.639  0.1211E+01  0.2916E+01  0.1100E+02  0.5363E+01
      2.729  0.6086E+00  0.4031E+01  0.1106E+02  0.5726E+01
      2.819  0.1909E+00  0.4104E+01  0.1108E+02  0.6095E+01
      2.909  0.3416E-01  0.3773E+01  0.1108E+02  0.6434E+01
      2.999 -0.8561E-02  0.4250E+01  0.1108E+02  0.6816E+01
      3.089 -0.1389E-01  0.5343E+01  0.1108E+02  0.7297E+01
      3.179 -0.7696E-02  0.5724E+01  0.1108E+02  0.7812E+01
      3.269 -0.3451E-02  0.4951E+01  0.1108E+02  0.8257E+01
      3.359 -0.5118E-02  0.4193E+01  0.1108E+02  0.8634E+01
      3.449 -0.8942E-02  0.4262E+01  0.1108E+02  0.9017E+01
      3.539  0.6451E-02  0.4304E+01  0.1108E+02  0.9404E+01
      3.629  0.7015E-01  0.3456E+01  0.1108E+02  0.9715E+01
      3.719  0.1510E+00  0.2331E+01  0.1110E+02  0.9925E+01
      3.808  0.1555E+00  0.1724E+01  0.1111E+02  0.1008E+02
      3.898  0.7222E-01  0.1695E+01  0.1112E+02  0.1023E+02
      3.988  0.1483E-01  0.2210E+01  0.1112E+02  0.1043E+02
      4.078  0.8793E-01  0.2639E+01  0.1113E+02  0.1067E+02
      4.168  0.2675E+00  0.2032E+01  0.1115E+02  0.1085E+02
      4.258  0.3778E+00  0.7828E+00  0.1118E+02  0.1092E+02
      4.348  0.2855E+00 -0.1354E-01  0.1121E+02  0.1092E+02
      4.438  0.1010E+00 -0.7844E-01  0.1122E+02  0.1091E+02
      4.528 -0.3919E-02  0.3157E+00  0.1122E+02  0.1094E+02
      4.618 -0.1836E-01  0.7790E+00  0.1122E+02  0.1101E+02
      4.708 -0.1100E-01  0.8384E+00  0.1122E+02  0.1109E+02
      4.798 -0.1930E-01  0.4534E+00  0.1121E+02  0.1113E+02
      4.888 -0.4729E-01  0.1098E+00  0.1121E+02  0.1114E+02
      4.978 -0.3380E-01  0.1089E+00  0.1121E+02  0.1115E+02
      5.068  0.1877E+00  0.2773E+00  0.1122E+02  0.1117E+02
      5.158  0.6889E+00  0.3567E+00  0.1128E+02  0.1120E+02
      5.248  0.1188E+01  0.3482E+00  0.1139E+02  0.1124E+02
      5.337  0.1409E+01  0.3546E+00  0.1152E+02  0.1127E+02
      5.427  0.1466E+01  0.3574E+00  0.1165E+02  0.1130E+02
      5.517  0.1369E+01  0.3325E+00  0.1177E+02  0.1133E+02
      5.607  0.9909E+00  0.2887E+00  0.1186E+02  0.1136E+02
      5.697  0.6842E+00  0.1917E+00  0.1192E+02  0.1137E+02
      5.787  0.7729E+00  0.5230E-01  0.1199E+02  0.1138E+02
      5.877  0.9036E+00 -0.1293E-01  0.1207E+02  0.1138E+02
      5.967  0.7257E+00  0.1750E+00  0.1214E+02  0.1139E+02
      6.057  0.3987E+00  0.7029E+00  0.1218E+02  0.1146E+02
      6.147  0.2078E+00  0.1262E+01  0.1219E+02  0.1157E+02
      6.237  0.2430E+00  0.1407E+01  0.1222E+02  0.1170E+02
      6.327  0.3267E+00  0.1196E+01  0.1225E+02  0.1180E+02
      6.417  0.2548E+00  0.9053E+00  0.1227E+02  0.1188E+02
      6.507  0.1029E+00  0.6778E+00  0.1228E+02  0.1195E+02
      6.597  0.5512E-01  0.6756E+00  0.1228E+02  0.1201E+02
      6.687  0.1247E+00  0.8308E+00  0.1229E+02  0.1208E+02
      6.776  0.2246E+00  0.8856E+00  0.1231E+02  0.1216E+02
      6.866  0.3156E+00  0.7438E+00  0.1234E+02  0.1223E+02
      6.956  0.3561E+00  0.4525E+00  0.1237E+02  0.1227E+02
      7.046  0.3360E+00  0.1907E+00  0.1241E+02  0.1229E+02
      7.136  0.3313E+00  0.1096E+00  0.1243E+02  0.1230E+02
      7.226  0.3144E+00  0.1181E+00  0.1246E+02  0.1231E+02
      7.316  0.2399E+00  0.1183E+00  0.1248E+02  0.1232E+02
      7.406  0.2362E+00  0.2000E+00  0.1251E+02  0.1233E+02
      7.496  0.3105E+00  0.3902E+00  0.1253E+02  0.1237E+02
      7.586  0.2746E+00  0.5242E+00  0.1256E+02  0.1242E+02
      7.676  0.1400E+00  0.4614E+00  0.1257E+02  0.1246E+02
      7.766  0.9520E-01  0.2484E+00  0.1258E+02  0.1248E+02
      7.856  0.1439E+00  0.9279E-01  0.1259E+02  0.1249E+02
      7.946  0.1378E+00  0.1492E+00  0.1261E+02  0.1250E+02
      8.036  0.5205E-01  0.2971E+00  0.1261E+02  0.1253E+02
      8.126 -0.1328E-02  0.2961E+00  0.1261E+02  0.1256E+02
      8.215  0.7326E-01  0.1597E+00  0.1262E+02  0.1257E+02
      8.305  0.2476E+00  0.9705E-01  0.1264E+02  0.1258E+02
      8.395  0.3416E+00  0.1370E+00  0.1267E+02  0.1259E+02
      8.485  0.2394E+00  0.1323E+00  0.1269E+02  0.1260E+02
      8.575  0.6967E-01  0.6151E-01  0.1270E+02  0.1261E+02
      8.665 -0.1912E-01  0.6943E-01  0.1270E+02  0.1262E+02
      8.755 -0.3464E-01  0.2163E+00  0.1269E+02  0.1263E+02
      8.845 -0.2635E-02  0.3363E+00  0.1269E+02  0.1266E+02
      8.935  0.1144E+00  0.2646E+00  0.1270E+02  0.1269E+02
      9.025  0.2893E+00  0.9426E-01  0.1273E+02  0.1270E+02
      9.115  0.4066E+00 -0.5667E-02  0.1276E+02  0.1270E+02
      9.205  0.4626E+00 -0.2496E-01  0.1281E+02  0.1269E+02
      9.295  0.5389E+00 -0.2612E-01  0.1285E+02  0.1269E+02
      9.385  0.5706E+00 -0.5572E-02  0.1291E+02  0.1269E+02
      9.475  0.4446E+00  0.1012E+00  0.1295E+02  0.1270E+02
      9.565  0.2608E+00  0.2956E+00  0.1297E+02  0.1273E+02
      9.655  0.2660E+00  0.4579E+00  0.1299E+02  0.1277E+02
      9.744  0.6040E+00  0.4761E+00  0.1305E+02  0.1281E+02
      9.834  0.1137E+01  0.3326E+00  0.1315E+02  0.1284E+02
      9.924  0.1436E+01  0.1531E+00  0.1328E+02  0.1285E+02
     10.014  0.1238E+01  0.2127E+00  0.1339E+02  0.1287E+02
     10.104  0.7649E+00  0.6226E+00  0.1346E+02  0.1293E+02
     10.194  0.3567E+00  0.1073E+01  0.1349E+02  0.1303E+02
     10.284  0.1494E+00  0.1199E+01  0.1350E+02  0.1313E+02
     10.374  0.1304E+00  0.1058E+01  0.1352E+02  0.1323E+02
     10.464  0.1721E+00  0.8915E+00  0.1353E+02  0.1331E+02
     10.554  0.1447E+00  0.7367E+00  0.1355E+02  0.1338E+02
     10.644  0.1258E+00  0.5507E+00  0.1356E+02  0.1343E+02
     10.734  0.3079E+00  0.3859E+00  0.1358E+02  0.1346E+02
     10.824  0.6152E+00  0.2849E+00  0.1364E+02  0.1349E+02
     10.914  0.7080E+00  0.2202E+00  0.1370E+02  0.1351E+02
     11.004  0.5308E+00  0.2010E+00  0.1375E+02  0.1352E+02
     11.094  0.3481E+00  0.3173E+00  0.1378E+02  0.1355E+02
     11.183  0.3478E+00  0.5938E+00  0.1381E+02  0.1361E+02
     11.273  0.6338E+00  0.7576E+00  0.1387E+02  0.1367E+02
     11.363  0.1020E+01  0.5538E+00  0.1396E+02  0.1372E+02
     11.453  0.1035E+01  0.2354E+00  0.1406E+02  0.1374E+02
     11.543  0.6660E+00  0.1522E+00  0.1412E+02  0.1376E+02
     11.633  0.3826E+00  0.2560E+00  0.1415E+02  0.1378E+02
     11.723  0.4275E+00  0.3768E+00  0.1419E+02  0.1382E+02
     11.813  0.6666E+00  0.5753E+00  0.1425E+02  0.1387E+02
     11.903  0.9460E+00  0.9521E+00  0.1433E+02  0.1395E+02
     11.993  0.1199E+01  0.1220E+01  0.1444E+02  0.1406E+02
     12.083  0.1249E+01  0.1030E+01  0.1455E+02  0.1415E+02
     12.173  0.9614E+00  0.5839E+00  0.1464E+02  0.1421E+02
     12.263  0.5603E+00  0.2645E+00  0.1469E+02  0.1423E+02
     12.353  0.3203E+00  0.1610E+00  0.1472E+02  0.1425E+02
     12.443  0.2223E+00  0.3121E+00  0.1474E+02  0.1427E+02
     12.533  0.3157E+00  0.7564E+00  0.1477E+02  0.1434E+02
     12.622  0.7317E+00  0.1217E+01  0.1483E+02  0.1445E+02
     12.712  0.1100E+01  0.1272E+01  0.1493E+02  0.1457E+02
     12.802  0.9289E+00  0.9689E+00  0.1502E+02  0.1465E+02
     12.892  0.4507E+00  0.7711E+00  0.1506E+02  0.1472E+02
     12.982  0.1704E+00  0.8008E+00  0.1507E+02  0.1479E+02
     13.072  0.1078E+00  0.8308E+00  0.1508E+02  0.1487E+02
     13.162  0.6612E-01  0.8665E+00  0.1509E+02  0.1495E+02
     13.252  0.7119E-01  0.8698E+00  0.1509E+02  0.1503E+02
     13.342  0.2044E+00  0.6037E+00  0.1511E+02  0.1508E+02
     13.432  0.3305E+00  0.1996E+00  0.1514E+02  0.1510E+02
     13.522  0.2682E+00 -0.2099E-01  0.1517E+02  0.1510E+02
     13.612  0.8860E-01 -0.5150E-01  0.1517E+02  0.1509E+02
     13.702 -0.8663E-02 -0.3346E-01  0.1517E+02  0.1509E+02
     13.792  0.5940E-01  0.1632E-01  0.1518E+02  0.1509E+02
     13.882  0.2236E+00  0.1537E+00  0.1520E+02  0.1510E+02
     13.972  0.3322E+00  0.3059E+00  0.1523E+02  0.1513E+02
     14.061  0.3721E+00  0.2882E+00  0.1526E+02  0.1516E+02
     14.151  0.4814E+00  0.1293E+00  0.1531E+02  0.1517E+02
     14.241  0.6567E+00  0.1293E+00  0.1536E+02  0.1518E+02
     14.331  0.7915E+00  0.4289E+00  0.1544E+02  0.1522E+02
     14.421  0.7791E+00  0.7043E+00  0.1551E+02  0.1528E+02
     14.511  0.5231E+00  0.5896E+00  0.1555E+02  0.1533E+02
     14.601  0.1730E+00  0.2669E+00  0.1557E+02  0.1536E+02
     14.691 -0.2339E-01  0.1505E+00  0.1557E+02  0.1537E+02
     14.781 -0.5256E-01  0.3250E+00  0.1556E+02  0.1540E+02
     14.871  0.1041E-01  0.5903E+00  0.1556E+02  0.1545E+02
     14.961  0.1627E+00  0.6577E+00  0.1558E+02  0.1551E+02
     15.051  0.3203E+00  0.4330E+00  0.1561E+02  0.1555E+02
     15.141  0.3113E+00  0.2063E+00  0.1563E+02  0.1557E+02
     15.231  0.1496E+00  0.2242E+00  0.1565E+02  0.1559E+02
     15.321  0.1684E-01  0.3143E+00  0.1565E+02  0.1562E+02
     15.411 -0.1772E-01  0.2415E+00  0.1565E+02  0.1564E+02
     15.501 -0.9873E-02  0.7997E-01  0.1565E+02  0.1565E+02
     15.590 -0.2448E-02 -0.7637E-02  0.1565E+02  0.1565E+02
     15.680 -0.3500E-03 -0.1598E-01  0.1565E+02  0.1565E+02
     15.770 -0.3157E-04 -0.5943E-02  0.1565E+02  0.1565E+02
     15.860 -0.1416E-04 -0.1154E-02  0.1565E+02  0.1565E+02
     15.950 -0.1636E-03 -0.1343E-03  0.1565E+02  0.1565E+02
     16.040 -0.1350E-02 -0.1018E-04  0.1565E+02  0.1565E+02
     16.130 -0.6633E-02 -0.8270E-05  0.1565E+02  0.1565E+02
     16.220 -0.1663E-01 -0.1108E-03  0.1564E+02  0.1565E+02
     16.310 -0.3973E-02 -0.9901E-03  0.1564E+02  0.1565E+02
     16.400  0.9400E-01 -0.5338E-02  0.1565E+02  0.1565E+02
     16.490  0.2640E+00 -0.1539E-01  0.1568E+02  0.1564E+02
     16.580  0.3384E+00 -0.1105E-01  0.1571E+02  0.1564E+02
     16.670  0.2286E+00  0.6837E-01  0.1573E+02  0.1565E+02
     16.760  0.8649E-01  0.2371E+00  0.1573E+02  0.1567E+02
     16.850  0.3997E-01  0.3547E+00  0.1574E+02  0.1570E+02
     16.940  0.3860E-01  0.2933E+00  0.1574E+02  0.1573E+02
     17.029  0.2213E-01  0.1402E+00  0.1574E+02  0.1574E+02
     17.119  0.2860E-02  0.3495E-01  0.1574E+02  0.1574E+02
     17.209 -0.3289E-02 -0.2307E-02  0.1574E+02  0.1574E+02
     17.299 -0.3842E-02 -0.7245E-02  0.1574E+02  0.1574E+02
     17.389 -0.9320E-02 -0.4144E-02  0.1574E+02  0.1574E+02
     17.479 -0.1781E-01 -0.3379E-02  0.1574E+02  0.1574E+02
     17.569  0.9593E-02 -0.9560E-02  0.1574E+02  0.1574E+02
     17.659  0.1328E+00 -0.1779E-01  0.1575E+02  0.1574E+02
     17.749  0.2993E+00  0.1305E-01  0.1578E+02  0.1574E+02
     17.839  0.3262E+00  0.1411E+00  0.1581E+02  0.1575E+02
     17.929  0.1718E+00  0.3056E+00  0.1582E+02  0.1578E+02
     18.019  0.1142E-01  0.3250E+00  0.1583E+02  0.1581E+02
     18.109 -0.7137E-02  0.1737E+00  0.1583E+02  0.1583E+02
     18.199  0.1500E+00  0.2492E-01  0.1584E+02  0.1583E+02
     18.289  0.3919E+00 -0.3050E-01  0.1587E+02  0.1583E+02
     18.379  0.4849E+00 -0.2998E-01  0.1592E+02  0.1582E+02
     18.468  0.3215E+00  0.2890E-01  0.1595E+02  0.1583E+02
     18.558  0.9322E-01  0.1977E+00  0.1595E+02  0.1584E+02
     18.648 -0.8857E-02  0.4148E+00  0.1595E+02  0.1588E+02
     18.738 -0.2669E-02  0.4797E+00  0.1595E+02  0.1592E+02
     18.828  0.2086E-01  0.3165E+00  0.1596E+02  0.1595E+02
     18.918  0.2152E-01  0.9942E-01  0.1596E+02  0.1596E+02
     19.008  0.8514E-02 -0.7612E-02  0.1596E+02  0.1596E+02
     19.098 -0.8428E-04 -0.1928E-01  0.1596E+02  0.1596E+02
     19.188 -0.1422E-02 -0.7838E-02  0.1596E+02  0.1596E+02
     19.278 -0.6053E-03 -0.1726E-02  0.1596E+02  0.1596E+02
     19.368 -0.2073E-03 -0.2687E-03  0.1596E+02  0.1596E+02
     19.458 -0.6851E-03 -0.3401E-03  0.1596E+02  0.1596E+02
     19.548 -0.3298E-02 -0.1930E-02  0.1596E+02  0.1596E+02
     19.638 -0.8297E-02 -0.6473E-02  0.1596E+02  0.1596E+02
     19.728 -0.2055E-02 -0.7651E-02  0.1596E+02  0.1596E+02
     19.818  0.4688E-01  0.2190E-01  0.1596E+02  0.1596E+02
     19.908  0.1325E+00  0.1001E+00  0.1597E+02  0.1597E+02
     19.997  0.1707E+00  0.1677E+00  0.1599E+02  0.1598E+02
     20.087  0.1131E+00  0.1435E+00  0.1600E+02  0.1600E+02
     20.177  0.3072E-01  0.5848E-01  0.1600E+02  0.1600E+02
     20.267 -0.6112E-02  0.1768E-02  0.1600E+02  0.1600E+02
     20.357 -0.7255E-02 -0.8733E-02  0.1600E+02  0.1600E+02
     20.447 -0.2401E-02 -0.3966E-02  0.1600E+02  0.1600E+02
     20.537 -0.4292E-03 -0.8760E-03  0.1600E+02  0.1600E+02
     20.627 -0.4644E-04 -0.1138E-03  0.1600E+02  0.1600E+02
     20.717 -0.3170E-05 -0.9218E-05  0.1600E+02  0.1600E+02
     20.807 -0.1394E-06 -0.4778E-06  0.1600E+02  0.1600E+02
     20.897 -0.3988E-08 -0.1606E-07  0.1600E+02  0.1600E+02
     20.987 -0.7480E-10 -0.3533E-09  0.1600E+02  0.1600E+02
     21.077 -0.9238E-12 -0.5108E-11  0.1600E+02  0.1600E+02
     21.167 -0.7612E-14 -0.4876E-13  0.1600E+02  0.1600E+02
     21.257  0.0000E+00 -0.3086E-15  0.1600E+02  0.1600E+02
     21.347  0.0000E+00  0.0000E+00  0.1600E+02  0.1600E+02
     21.436  0.0000E+00  0.0000E+00  0.1600E+02  0.1600E+02
     21.526  0.0000E+00  0.0000E+00  0.1600E+02  0.1600E+02
     21.616  0.0000E+00  0.0000E+00  0.1600E+02  0.1600E+02
     21.706  0.0000E+00  0.0000E+00  0.1600E+02  0.1600E+02
     21.796  0.0000E+00  0.0000E+00  0.1600E+02  0.1600E+02
     21.886  0.0000E+00  0.0000E+00  0.1600E+02  0.1600E+02
     21.976  0.0000E+00  0.0000E+00  0.1600E+02  0.1600E+02
