   2   2   0   0
  0.1064014E+02  0.2472000E-09  0.2472000E-09  0.4021144E-09  0.5000000E-15
  1.000000000000000E-004
  CAR 
 Co fcc                                  
     37.85592851     -0.49892558  301     10.49183289      1.00000000
     -0.499  0.0000E+00  0.0000E+00  0.0000E+00  0.0000E+00
     -0.371  0.0000E+00  0.0000E+00  0.0000E+00  0.0000E+00
     -0.243  0.0000E+00  0.0000E+00  0.0000E+00  0.0000E+00
     -0.115 -0.9523E-30 -0.2215E-30 -0.1218E-30 -0.2831E-31
      0.012 -0.1791E-25 -0.4680E-26 -0.2290E-26 -0.5984E-27
      0.140 -0.1477E-21 -0.4336E-22 -0.1888E-22 -0.5545E-23
      0.268 -0.5329E-18 -0.1759E-18 -0.6816E-19 -0.2250E-19
      0.396 -0.8130E-15 -0.3021E-15 -0.1040E-15 -0.3864E-16
      0.524 -0.5533E-12 -0.2314E-12 -0.7084E-13 -0.2962E-13
      0.652 -0.1626E-09 -0.7661E-10 -0.2086E-10 -0.9825E-11
      0.780 -0.2045E-07 -0.1087E-07 -0.2636E-08 -0.1400E-08
      0.907 -0.1082E-05 -0.6512E-06 -0.1410E-06 -0.8466E-07
      1.035 -0.2329E-04 -0.1596E-04 -0.3118E-05 -0.2125E-05
      1.163 -0.1860E-03 -0.1482E-03 -0.2690E-04 -0.2107E-04
      1.291 -0.3434E-03 -0.3687E-03 -0.7081E-04 -0.6821E-04
      1.419  0.1389E-02  0.9418E-03  0.1068E-03  0.5219E-04
      1.547  0.5986E-02  0.5276E-02  0.8720E-03  0.7268E-03
      1.675  0.1092E-01  0.1008E-01  0.2268E-02  0.2015E-02
      1.802  0.2369E-01  0.2038E-01  0.5296E-02  0.4621E-02
      1.930  0.5614E-01  0.5002E-01  0.1247E-01  0.1102E-01
      2.058  0.7682E-01  0.7667E-01  0.2229E-01  0.2082E-01
      2.186  0.4272E-01  0.5095E-01  0.2776E-01  0.2733E-01
      2.314  0.1055E-01  0.1093E-01  0.2910E-01  0.2873E-01
      2.442  0.4832E-01  0.3614E-01  0.3528E-01  0.3335E-01
      2.569  0.9610E-01  0.8971E-01  0.4757E-01  0.4482E-01
      2.697  0.9251E-01  0.9493E-01  0.5940E-01  0.5696E-01
      2.825  0.7313E-01  0.7427E-01  0.6875E-01  0.6645E-01
      2.953  0.8324E-01  0.7209E-01  0.7939E-01  0.7567E-01
      3.081  0.1306E+00  0.1133E+00  0.9609E-01  0.9015E-01
      3.209  0.1386E+00  0.1436E+00  0.1138E+00  0.1085E+00
      3.337  0.8758E-01  0.1013E+00  0.1250E+00  0.1215E+00
      3.464  0.5406E-01  0.6168E-01  0.1319E+00  0.1293E+00
      3.592  0.2608E-01  0.3701E-01  0.1353E+00  0.1341E+00
      3.720  0.7577E-01  0.2872E-01  0.1449E+00  0.1377E+00
      3.848  0.1994E+00  0.1270E+00  0.1704E+00  0.1540E+00
      3.976  0.2276E+00  0.2159E+00  0.1995E+00  0.1816E+00
      4.104  0.1923E+00  0.1952E+00  0.2241E+00  0.2065E+00
      4.232  0.1958E+00  0.1609E+00  0.2491E+00  0.2271E+00
      4.359  0.1710E+00  0.1714E+00  0.2710E+00  0.2490E+00
      4.487  0.1017E+00  0.1592E+00  0.2840E+00  0.2694E+00
      4.615  0.1471E+00  0.8794E-01  0.3028E+00  0.2806E+00
      4.743  0.2349E+00  0.8714E-01  0.3328E+00  0.2918E+00
      4.871  0.2220E+00  0.1849E+00  0.3612E+00  0.3154E+00
      4.999  0.1883E+00  0.2276E+00  0.3853E+00  0.3445E+00
      5.126  0.3301E+00  0.1517E+00  0.4275E+00  0.3639E+00
      5.254  0.6700E+00  0.1401E+00  0.5132E+00  0.3818E+00
      5.382  0.1007E+01  0.2182E+00  0.6420E+00  0.4097E+00
      5.510  0.1046E+01  0.2742E+00  0.7757E+00  0.4448E+00
      5.638  0.8338E+00  0.3444E+00  0.8823E+00  0.4888E+00
      5.766  0.9949E+00  0.3600E+00  0.1010E+01  0.5348E+00
      5.894  0.1709E+01  0.3599E+00  0.1228E+01  0.5808E+00
      6.021  0.1805E+01  0.4568E+00  0.1459E+01  0.6392E+00
      6.149  0.1506E+01  0.2989E+00  0.1651E+01  0.6775E+00
      6.277  0.1720E+01  0.1576E+00  0.1871E+01  0.6976E+00
      6.405  0.1788E+01  0.5805E+00  0.2100E+01  0.7718E+00
      6.533  0.1481E+01  0.1084E+01  0.2289E+01  0.9104E+00
      6.661  0.1535E+01  0.1013E+01  0.2485E+01  0.1040E+01
      6.788  0.1854E+01  0.7709E+00  0.2722E+01  0.1138E+01
      6.916  0.2055E+01  0.8137E+00  0.2985E+01  0.1243E+01
      7.044  0.2113E+01  0.1087E+01  0.3255E+01  0.1381E+01
      7.172  0.1976E+01  0.1130E+01  0.3508E+01  0.1526E+01
      7.300  0.1581E+01  0.9899E+00  0.3710E+01  0.1652E+01
      7.428  0.1270E+01  0.1371E+01  0.3872E+01  0.1828E+01
      7.556  0.1693E+01  0.1635E+01  0.4089E+01  0.2037E+01
      7.683  0.2539E+01  0.1245E+01  0.4414E+01  0.2196E+01
      7.811  0.2801E+01  0.1046E+01  0.4772E+01  0.2330E+01
      7.939  0.2779E+01  0.1301E+01  0.5127E+01  0.2496E+01
      8.067  0.2860E+01  0.1618E+01  0.5493E+01  0.2703E+01
      8.195  0.2924E+01  0.1719E+01  0.5866E+01  0.2923E+01
      8.323  0.3057E+01  0.1893E+01  0.6257E+01  0.3165E+01
      8.451  0.2876E+01  0.2005E+01  0.6625E+01  0.3421E+01
      8.578  0.2390E+01  0.1620E+01  0.6931E+01  0.3628E+01
      8.706  0.1961E+01  0.1036E+01  0.7181E+01  0.3761E+01
      8.834  0.1780E+01  0.7807E+00  0.7409E+01  0.3861E+01
      8.962  0.1583E+01  0.9954E+00  0.7611E+01  0.3988E+01
      9.090  0.1554E+01  0.1489E+01  0.7810E+01  0.4178E+01
      9.218  0.2079E+01  0.2104E+01  0.8076E+01  0.4447E+01
      9.345  0.2162E+01  0.2558E+01  0.8352E+01  0.4774E+01
      9.473  0.1908E+01  0.2521E+01  0.8596E+01  0.5097E+01
      9.601  0.2554E+01  0.2299E+01  0.8923E+01  0.5391E+01
      9.729  0.3876E+01  0.2470E+01  0.9418E+01  0.5706E+01
      9.857  0.4266E+01  0.2732E+01  0.9964E+01  0.6056E+01
      9.985  0.2741E+01  0.2710E+01  0.1031E+02  0.6402E+01
     10.113  0.9458E+00  0.2318E+01  0.1043E+02  0.6698E+01
     10.240  0.5441E+00  0.1847E+01  0.1050E+02  0.6935E+01
     10.368  0.7087E+00  0.1634E+01  0.1060E+02  0.7144E+01
     10.496  0.5280E+00  0.1578E+01  0.1066E+02  0.7345E+01
     10.624  0.2212E+00  0.1344E+01  0.1069E+02  0.7517E+01
     10.752  0.4142E-01  0.1262E+01  0.1070E+02  0.7678E+01
     10.880 -0.2503E-01  0.1294E+01  0.1069E+02  0.7844E+01
     11.008  0.3326E-01  0.1683E+01  0.1070E+02  0.8059E+01
     11.135  0.2688E+00  0.1839E+01  0.1073E+02  0.8294E+01
     11.263  0.4088E+00  0.1485E+01  0.1078E+02  0.8484E+01
     11.391  0.2580E+00  0.1659E+01  0.1082E+02  0.8696E+01
     11.519  0.2154E+00  0.2434E+01  0.1084E+02  0.9007E+01
     11.647  0.4670E+00  0.3507E+01  0.1090E+02  0.9456E+01
     11.775  0.5789E+00  0.4005E+01  0.1098E+02  0.9968E+01
     11.902  0.4065E+00  0.3164E+01  0.1103E+02  0.1037E+02
     12.030  0.1966E+00  0.1740E+01  0.1106E+02  0.1059E+02
     12.158  0.9197E-01  0.6753E+00  0.1107E+02  0.1068E+02
     12.286  0.2370E+00  0.1993E+00  0.1110E+02  0.1071E+02
     12.414  0.3871E+00  0.2114E+00  0.1115E+02  0.1073E+02
     12.542  0.3992E+00  0.3128E+00  0.1120E+02  0.1077E+02
     12.670  0.2305E+00  0.2740E+00  0.1123E+02  0.1081E+02
     12.797  0.7129E-01  0.3200E+00  0.1124E+02  0.1085E+02
     12.925  0.1856E+00  0.4907E+00  0.1126E+02  0.1091E+02
     13.053  0.2345E+00  0.5213E+00  0.1129E+02  0.1098E+02
     13.181  0.8282E-01  0.3727E+00  0.1130E+02  0.1103E+02
     13.309  0.7218E-01  0.3181E+00  0.1131E+02  0.1107E+02
     13.437  0.1972E+00  0.4590E+00  0.1134E+02  0.1113E+02
     13.565  0.1921E+00  0.4552E+00  0.1136E+02  0.1118E+02
     13.692  0.1287E+00  0.2674E+00  0.1138E+02  0.1122E+02
     13.820  0.2547E+00  0.1422E+00  0.1141E+02  0.1124E+02
     13.948  0.4222E+00  0.1637E+00  0.1146E+02  0.1126E+02
     14.076  0.4560E+00  0.2611E+00  0.1152E+02  0.1129E+02
     14.204  0.3458E+00  0.2326E+00  0.1157E+02  0.1132E+02
     14.332  0.2233E+00  0.1612E+00  0.1159E+02  0.1134E+02
     14.459  0.1374E+00  0.1233E+00  0.1161E+02  0.1136E+02
     14.587  0.1181E+00  0.1063E+00  0.1163E+02  0.1137E+02
     14.715  0.2735E+00  0.2334E+00  0.1166E+02  0.1140E+02
     14.843  0.3478E+00  0.4776E+00  0.1171E+02  0.1146E+02
     14.971  0.2125E+00  0.4994E+00  0.1173E+02  0.1153E+02
     15.099  0.7119E-01  0.3911E+00  0.1174E+02  0.1158E+02
     15.227  0.5533E-01  0.2555E+00  0.1175E+02  0.1161E+02
     15.354  0.1849E+00  0.9330E-01  0.1177E+02  0.1162E+02
     15.482  0.2575E+00  0.9653E-01  0.1181E+02  0.1163E+02
     15.610  0.2120E+00  0.2483E+00  0.1183E+02  0.1166E+02
     15.738  0.1776E+00  0.3286E+00  0.1186E+02  0.1171E+02
     15.866  0.7690E-01  0.2054E+00  0.1187E+02  0.1173E+02
     15.994  0.3471E-01  0.1375E+00  0.1187E+02  0.1175E+02
     16.122  0.9444E-01  0.2557E+00  0.1188E+02  0.1178E+02
     16.249  0.8392E-01  0.2438E+00  0.1189E+02  0.1181E+02
     16.377  0.1497E-01  0.1475E+00  0.1189E+02  0.1183E+02
     16.505  0.8813E-02  0.1640E+00  0.1190E+02  0.1185E+02
     16.633  0.1053E+00  0.1093E+00  0.1191E+02  0.1187E+02
     16.761  0.2343E+00  0.7124E-01  0.1194E+02  0.1188E+02
     16.889  0.2390E+00  0.8014E-01  0.1197E+02  0.1189E+02
     17.016  0.1415E+00  0.4801E-01  0.1199E+02  0.1189E+02
     17.144  0.1003E+00  0.2709E-01  0.1200E+02  0.1190E+02
     17.272  0.1398E+00  0.9662E-01  0.1202E+02  0.1191E+02
     17.400  0.1514E+00  0.1998E+00  0.1204E+02  0.1193E+02
     17.528  0.1627E+00  0.2064E+00  0.1206E+02  0.1196E+02
     17.656  0.1946E+00  0.1245E+00  0.1208E+02  0.1198E+02
     17.784  0.1109E+00  0.6404E-01  0.1210E+02  0.1198E+02
     17.911  0.5129E-01  0.7084E-01  0.1210E+02  0.1199E+02
     18.039  0.1449E+00  0.1413E+00  0.1212E+02  0.1201E+02
     18.167  0.3112E+00  0.2115E+00  0.1216E+02  0.1204E+02
     18.295  0.4364E+00  0.2382E+00  0.1222E+02  0.1207E+02
     18.423  0.4026E+00  0.1834E+00  0.1227E+02  0.1209E+02
     18.551  0.3667E+00  0.4902E-01  0.1232E+02  0.1210E+02
     18.679  0.2845E+00  0.1386E-01  0.1235E+02  0.1210E+02
     18.806  0.2080E+00  0.9608E-01  0.1238E+02  0.1211E+02
     18.934  0.3758E+00  0.1778E+00  0.1243E+02  0.1214E+02
     19.062  0.4909E+00  0.3561E+00  0.1249E+02  0.1218E+02
     19.190  0.4340E+00  0.5336E+00  0.1255E+02  0.1225E+02
     19.318  0.4102E+00  0.4164E+00  0.1260E+02  0.1230E+02
     19.446  0.3242E+00  0.3251E+00  0.1264E+02  0.1234E+02
     19.573  0.2002E+00  0.3844E+00  0.1267E+02  0.1239E+02
     19.701  0.1885E+00  0.4952E+00  0.1269E+02  0.1246E+02
     19.829  0.2618E+00  0.5396E+00  0.1272E+02  0.1253E+02
     19.957  0.3520E+00  0.4218E+00  0.1277E+02  0.1258E+02
     20.085  0.3929E+00  0.2919E+00  0.1282E+02  0.1262E+02
     20.213  0.3656E+00  0.2694E+00  0.1287E+02  0.1265E+02
     20.341  0.3466E+00  0.3020E+00  0.1291E+02  0.1269E+02
     20.468  0.2051E+00  0.3574E+00  0.1294E+02  0.1274E+02
     20.596  0.1443E+00  0.3772E+00  0.1295E+02  0.1278E+02
     20.724  0.3665E+00  0.3396E+00  0.1300E+02  0.1283E+02
     20.852  0.5474E+00  0.3039E+00  0.1307E+02  0.1287E+02
     20.980  0.4701E+00  0.3238E+00  0.1313E+02  0.1291E+02
     21.108  0.3091E+00  0.2099E+00  0.1317E+02  0.1293E+02
     21.235  0.4505E+00  0.2119E+00  0.1323E+02  0.1296E+02
     21.363  0.5837E+00  0.5399E+00  0.1330E+02  0.1303E+02
     21.491  0.5071E+00  0.6621E+00  0.1337E+02  0.1312E+02
     21.619  0.4236E+00  0.4591E+00  0.1342E+02  0.1317E+02
     21.747  0.2404E+00  0.4005E+00  0.1345E+02  0.1323E+02
     21.875  0.1242E+00  0.4708E+00  0.1347E+02  0.1329E+02
     22.003  0.1706E+00  0.4385E+00  0.1349E+02  0.1334E+02
     22.130  0.2563E+00  0.4427E+00  0.1352E+02  0.1340E+02
     22.258  0.3240E+00  0.3588E+00  0.1356E+02  0.1344E+02
     22.386  0.4183E+00  0.2198E+00  0.1362E+02  0.1347E+02
     22.514  0.5408E+00  0.2233E+00  0.1369E+02  0.1350E+02
     22.642  0.4443E+00  0.2348E+00  0.1374E+02  0.1353E+02
     22.770  0.1989E+00  0.2770E+00  0.1377E+02  0.1357E+02
     22.898  0.1808E+00  0.4561E+00  0.1379E+02  0.1362E+02
     23.025  0.1919E+00  0.5676E+00  0.1382E+02  0.1370E+02
     23.153  0.1323E+00  0.3790E+00  0.1383E+02  0.1375E+02
     23.281  0.2407E+00  0.1759E+00  0.1386E+02  0.1377E+02
     23.409  0.3203E+00  0.2074E+00  0.1391E+02  0.1379E+02
     23.537  0.3444E+00  0.2028E+00  0.1395E+02  0.1382E+02
     23.665  0.4111E+00  0.1330E+00  0.1400E+02  0.1384E+02
     23.792  0.2681E+00  0.2362E+00  0.1404E+02  0.1387E+02
     23.920  0.1335E+00  0.3960E+00  0.1405E+02  0.1392E+02
     24.048  0.2808E+00  0.4402E+00  0.1409E+02  0.1397E+02
     24.176  0.3661E+00  0.3551E+00  0.1414E+02  0.1402E+02
     24.304  0.2533E+00  0.1658E+00  0.1417E+02  0.1404E+02
     24.432  0.3785E+00  0.1365E+00  0.1422E+02  0.1406E+02
     24.560  0.5535E+00  0.3287E+00  0.1429E+02  0.1410E+02
     24.687  0.4822E+00  0.3979E+00  0.1435E+02  0.1415E+02
     24.815  0.3574E+00  0.3720E+00  0.1439E+02  0.1420E+02
     24.943  0.2182E+00  0.4739E+00  0.1442E+02  0.1426E+02
     25.071  0.1120E+00  0.4996E+00  0.1444E+02  0.1432E+02
     25.199  0.2179E+00  0.3892E+00  0.1447E+02  0.1437E+02
     25.327  0.4019E+00  0.2857E+00  0.1452E+02  0.1441E+02
     25.455  0.4073E+00  0.1559E+00  0.1457E+02  0.1443E+02
     25.582  0.3176E+00  0.1510E+00  0.1461E+02  0.1445E+02
     25.710  0.3627E+00  0.3637E+00  0.1466E+02  0.1450E+02
     25.838  0.3806E+00  0.4448E+00  0.1470E+02  0.1455E+02
     25.966  0.2411E+00  0.3589E+00  0.1473E+02  0.1460E+02
     26.094  0.2753E+00  0.3574E+00  0.1477E+02  0.1464E+02
     26.222  0.4821E+00  0.3742E+00  0.1483E+02  0.1469E+02
     26.349  0.4880E+00  0.3202E+00  0.1489E+02  0.1473E+02
     26.477  0.3453E+00  0.3343E+00  0.1494E+02  0.1478E+02
     26.605  0.2989E+00  0.4763E+00  0.1498E+02  0.1484E+02
     26.733  0.4345E+00  0.5087E+00  0.1503E+02  0.1490E+02
     26.861  0.4228E+00  0.3724E+00  0.1509E+02  0.1495E+02
     26.989  0.1948E+00  0.2997E+00  0.1511E+02  0.1499E+02
     27.117  0.1651E+00  0.4280E+00  0.1513E+02  0.1504E+02
     27.244  0.2419E+00  0.4157E+00  0.1516E+02  0.1510E+02
     27.372  0.2130E+00  0.2060E+00  0.1519E+02  0.1512E+02
     27.500  0.1048E+00  0.1761E+00  0.1520E+02  0.1514E+02
     27.628  0.9157E-01  0.2237E+00  0.1522E+02  0.1517E+02
     27.756  0.2793E+00  0.1747E+00  0.1525E+02  0.1520E+02
     27.884  0.4293E+00  0.8941E-01  0.1531E+02  0.1521E+02
     28.012  0.3387E+00  0.1617E+00  0.1535E+02  0.1523E+02
     28.139  0.1780E+00  0.3703E+00  0.1537E+02  0.1527E+02
     28.267  0.1825E+00  0.4414E+00  0.1540E+02  0.1533E+02
     28.395  0.2155E+00  0.3065E+00  0.1542E+02  0.1537E+02
     28.523  0.2161E+00  0.1903E+00  0.1545E+02  0.1539E+02
     28.651  0.2243E+00  0.1572E+00  0.1548E+02  0.1541E+02
     28.779  0.1986E+00  0.1750E+00  0.1550E+02  0.1544E+02
     28.906  0.1771E+00  0.2501E+00  0.1553E+02  0.1547E+02
     29.034  0.1430E+00  0.2776E+00  0.1555E+02  0.1550E+02
     29.162  0.8515E-01  0.1766E+00  0.1556E+02  0.1553E+02
     29.290  0.1105E+00  0.9929E-01  0.1557E+02  0.1554E+02
     29.418  0.1806E+00  0.1142E+00  0.1559E+02  0.1555E+02
     29.546  0.1759E+00  0.1594E+00  0.1562E+02  0.1557E+02
     29.674  0.1524E+00  0.1777E+00  0.1564E+02  0.1560E+02
     29.801  0.1802E+00  0.1231E+00  0.1566E+02  0.1561E+02
     29.929  0.2212E+00  0.1336E+00  0.1569E+02  0.1563E+02
     30.057  0.1527E+00  0.2384E+00  0.1571E+02  0.1566E+02
     30.185  0.9801E-01  0.2299E+00  0.1572E+02  0.1569E+02
     30.313  0.1309E+00  0.1270E+00  0.1574E+02  0.1571E+02
     30.441  0.9637E-01  0.1114E+00  0.1575E+02  0.1572E+02
     30.569  0.5213E-01  0.1551E+00  0.1575E+02  0.1574E+02
     30.696  0.6459E-01  0.1294E+00  0.1576E+02  0.1576E+02
     30.824  0.9446E-01  0.5065E-01  0.1578E+02  0.1576E+02
     30.952  0.1045E+00  0.2930E-01  0.1579E+02  0.1577E+02
     31.080  0.9077E-01  0.8782E-01  0.1580E+02  0.1578E+02
     31.208  0.1083E+00  0.1330E+00  0.1581E+02  0.1580E+02
     31.336  0.7177E-01  0.1298E+00  0.1582E+02  0.1581E+02
     31.463  0.9105E-02  0.8242E-01  0.1582E+02  0.1582E+02
     31.591  0.3961E-02  0.2652E-01  0.1582E+02  0.1583E+02
     31.719  0.4177E-01  0.2588E-01  0.1583E+02  0.1583E+02
     31.847  0.9927E-01  0.5188E-01  0.1584E+02  0.1584E+02
     31.975  0.1473E+00  0.5505E-01  0.1586E+02  0.1584E+02
     32.103  0.1133E+00  0.1046E+00  0.1588E+02  0.1586E+02
     32.231  0.2517E-01  0.1260E+00  0.1588E+02  0.1587E+02
     32.358  0.1219E-02  0.6668E-01  0.1588E+02  0.1588E+02
     32.486  0.4189E-01  0.5817E-01  0.1588E+02  0.1589E+02
     32.614  0.5835E-01  0.5860E-01  0.1589E+02  0.1590E+02
     32.742  0.2920E-01  0.1395E-01  0.1590E+02  0.1590E+02
     32.870  0.3744E-01 -0.2524E-02  0.1590E+02  0.1590E+02
     32.998  0.1263E+00  0.3683E-01  0.1592E+02  0.1590E+02
     33.125  0.2041E+00  0.1176E+00  0.1594E+02  0.1592E+02
     33.253  0.1332E+00  0.1707E+00  0.1596E+02  0.1594E+02
     33.381  0.4021E-01  0.1496E+00  0.1597E+02  0.1596E+02
     33.509  0.5414E-01  0.1053E+00  0.1597E+02  0.1597E+02
     33.637  0.5466E-01  0.5966E-01  0.1598E+02  0.1598E+02
     33.765  0.1094E-01  0.1604E-01  0.1598E+02  0.1598E+02
     33.893 -0.3345E-02  0.6120E-02  0.1598E+02  0.1598E+02
     34.020  0.4076E-02  0.4751E-02  0.1598E+02  0.1598E+02
     34.148  0.9747E-02 -0.2352E-03  0.1598E+02  0.1598E+02
     34.276  0.4010E-02 -0.2190E-02  0.1598E+02  0.1598E+02
     34.404 -0.7081E-03  0.4631E-02  0.1598E+02  0.1598E+02
     34.532  0.1229E-01  0.2773E-01  0.1598E+02  0.1599E+02
     34.660  0.3322E-01  0.3788E-01  0.1599E+02  0.1599E+02
     34.788  0.3284E-01  0.2258E-01  0.1599E+02  0.1599E+02
     34.915  0.1804E-01  0.7613E-02  0.1599E+02  0.1600E+02
     35.043  0.4242E-02  0.1501E-03  0.1600E+02  0.1600E+02
     35.171 -0.1180E-02 -0.1044E-02  0.1600E+02  0.1599E+02
     35.299 -0.1450E-02  0.3026E-02  0.1599E+02  0.1600E+02
     35.427  0.3730E-02  0.9278E-02  0.1600E+02  0.1600E+02
     35.555  0.1698E-01  0.6971E-02  0.1600E+02  0.1600E+02
     35.682  0.1713E-01  0.3684E-02  0.1600E+02  0.1600E+02
     35.810  0.3929E-02  0.7631E-02  0.1600E+02  0.1600E+02
     35.938 -0.9555E-03  0.7425E-02  0.1600E+02  0.1600E+02
     36.066 -0.3747E-03  0.2098E-02  0.1600E+02  0.1600E+02
     36.194 -0.3486E-04 -0.2978E-03  0.1600E+02  0.1600E+02
     36.322 -0.1208E-05 -0.1946E-03  0.1600E+02  0.1600E+02
     36.450 -0.1712E-07 -0.2418E-04  0.1600E+02  0.1600E+02
     36.577 -0.1026E-09 -0.1107E-05  0.1600E+02  0.1600E+02
     36.705 -0.2643E-12 -0.2072E-07  0.1600E+02  0.1600E+02
     36.833 -0.2931E-15 -0.1637E-09  0.1600E+02  0.1600E+02
     36.961  0.0000E+00 -0.5553E-12  0.1600E+02  0.1600E+02
     37.089  0.0000E+00 -0.8163E-15  0.1600E+02  0.1600E+02
     37.217  0.0000E+00  0.0000E+00  0.1600E+02  0.1600E+02
     37.345  0.0000E+00  0.0000E+00  0.1600E+02  0.1600E+02
     37.472  0.0000E+00  0.0000E+00  0.1600E+02  0.1600E+02
     37.600  0.0000E+00  0.0000E+00  0.1600E+02  0.1600E+02
     37.728  0.0000E+00  0.0000E+00  0.1600E+02  0.1600E+02
     37.856  0.0000E+00  0.0000E+00  0.1600E+02  0.1600E+02
