    2    2    1    2
  0.1064014E+02  0.2472000E-09  0.2472000E-09  0.4021144E-09  0.5000000E-15
  1.000000000000000E-004
  CAR 
 Co fcc                                  
     18     70     16
 
  0.0000000E+00  0.0000000E+00  0.0000000E+00  0.1250000E-02
      1          1.501074        1.519159   1.000000   1.000000
      2          5.282173        6.255445   1.000000   1.000000
      3          7.828861        9.499879   1.000000   1.000000
      4          7.886801        9.569990   1.000000   1.000000
      5          7.886802        9.569990   1.000000   1.000000
      6          8.200882        9.938398   1.000000   1.000323
      7          8.200883        9.938399   1.000000   1.000323
      8          8.577189       10.331117   1.000000   0.990958
      9          8.577189       10.396196   1.000000   0.857883
     10          9.684855       10.396197   1.000000   0.857879
     11          9.684855       11.622103   1.000000  -0.000000
     12         10.373723       11.622104   0.915729  -0.000000
     13         16.950163       18.008642   0.000000   0.000000
     14         32.751504       32.490168   0.000000   0.000000
     15         35.547881       35.747122   0.000000   0.000000
     16         35.548449       35.855929   0.000000   0.000000
 
  0.1000000E+00 -0.6938894E-17  0.0000000E+00  0.7500000E-02
      1          1.856601        1.876291   1.000000   1.000000
      2          5.493865        6.497170   1.000000   1.000000
      3          7.582972        9.203675   1.000000   1.000000
      4          8.053882        9.474194   1.000000   1.000000
      5          8.063093        9.753805   1.000000   1.000001
      6          8.152118        9.765952   1.000000   1.000002
      7          8.307084        9.867468   1.000000   1.000047
      8          8.349525       10.101964   1.000000   1.009384
      9          8.475074       10.276837   1.000000   1.031260
     10          8.762009       10.301340   1.000000   1.019465
     11          9.726600       11.671792   1.000000  -0.000000
     12         11.804103       12.787954  -0.000000  -0.000000
     13         17.011739       18.036298   0.000000   0.000000
     14         30.228919       30.409459   0.000000   0.000000
     15         32.870659       33.152817   0.000000   0.000000
     16         33.090216       33.222877   0.000000   0.000000
 
  0.2000000E+00 -0.1387779E-16  0.0000000E+00  0.7500000E-02
      1          2.862994        2.898479   1.000000   1.000000
      2          5.952329        7.058625   1.000000   1.000000
      3          7.270969        8.483023   1.000000   1.000000
      4          7.349480        8.776439   1.000000   1.000000
      5          7.910034        9.552093   1.000000   1.000000
      6          8.240425       10.004881   1.000000   1.001542
      7          8.433078       10.066433   1.000000   1.005192
      8          8.507453       10.242200   1.000000   1.035376
      9          8.512801       10.262847   1.000000   1.034366
     10          8.752501       10.546820   1.000000   0.276795
     11          9.804860       11.763590   1.000007  -0.000000
     12         13.825568       14.683037  -0.000000  -0.000000
     13         17.237988       18.154692   0.000000   0.000000
     14         25.588021       26.001202   0.000000   0.000000
     15         30.053683       30.374279   0.000000   0.000000
     16         31.934979       32.087128   0.000000   0.000000
 
  0.3000000E+00  0.2775558E-16  0.0000000E+00  0.7500000E-02
      1          4.262243        4.400065   1.000000   1.000000
      2          6.078158        7.348171   1.000000   1.000000
      3          6.576609        7.769454   1.000000   1.000000
      4          7.250900        8.532113   1.000000   1.000000
      5          7.917474        9.495992   1.000000   1.000000
      6          7.988868        9.715536   1.000000   1.000000
      7          8.192174        9.782289   1.000000   1.000003
      8          9.124724       10.916624   1.000000  -0.005249
      9          9.185676       10.953070   1.000000  -0.002634
     10          9.288231       11.141863   1.000000  -0.000022
     11          9.865322       11.833299   1.000044  -0.000000
     12         16.116473       16.856413   0.000000   0.000000
     13         17.593296       18.322678   0.000000   0.000000
     14         21.422808       22.009356   0.000000   0.000000
     15         27.764539       28.028885   0.000000   0.000000
     16         28.872962       29.110222   0.000000   0.000000
 
  0.4000000E+00  0.5551115E-16  0.0000000E+00  0.7500000E-02
      1          5.347424        5.899962   1.000000   1.000000
      2          5.856709        7.133910   1.000000   1.000000
      3          6.111817        7.350073   1.000000   1.000000
      4          7.633331        8.552131   1.000000   1.000000
      5          7.804639        9.504664   1.000000   1.000000
      6          8.009291        9.556453   1.000000   1.000000
      7          8.173554        9.763952   1.000000   1.000002
      8          9.645735       11.551773   1.000000  -0.000000
      9          9.778864       11.694802   1.000003  -0.000000
     10          9.896994       11.869254   1.000108  -0.000000
     11         10.400468       11.982756   0.845470  -0.000000
     12         16.187469       16.930027   0.000000   0.000000
     13         18.576378       19.176641   0.000000   0.000000
     14         20.127745       20.704416   0.000000   0.000000
     15         25.455654       25.868350   0.000000   0.000000
     16         26.218436       26.415804   0.000000   0.000000
 
  0.5000000E+00  0.5551115E-16  0.0000000E+00  0.3750000E-02
      1          5.663199        6.609166   1.000000   1.000000
      2          5.706135        6.899238   1.000000   1.000000
      3          5.957390        7.212483   1.000000   1.000000
      4          7.738038        8.684205   1.000000   1.000000
      5          7.941162        9.428682   1.000000   1.000000
      6          7.982210        9.471319   1.000000   1.000000
      7          8.285279        9.893557   1.000000   1.000098
      8          9.843100       11.777705   1.000022  -0.000000
      9          9.906150       11.879524   1.000139  -0.000000
     10          9.991507       11.941944   1.001150  -0.000000
     11         11.878144       13.150926  -0.000000  -0.000000
     12         13.946831       14.954211  -0.000000  -0.000000
     13         20.322767       20.769668   0.000000   0.000000
     14         21.002595       21.418944   0.000000   0.000000
     15         23.395773       23.975682   0.000000   0.000000
     16         24.697447       25.291379   0.000000   0.000000
 
  0.1000000E+00  0.1000000E+00  0.0000000E+00  0.7500000E-02
      1          2.540584        2.567701   1.000000   1.000000
      2          5.848288        6.913395   1.000000   1.000000
      3          7.306675        8.739952   1.000000   1.000000
      4          7.636528        8.860072   1.000000   1.000000
      5          7.993214        9.658612   1.000000   1.000000
      6          8.192161        9.936645   1.000000   1.000309
      7          8.276471       10.004458   1.000000   1.001528
      8          8.395184       10.127159   1.000000   1.013549
      9          8.597205       10.281825   1.000000   1.029571
     10          8.684119       10.461125   1.000000   0.628253
     11          9.767430       11.719400   1.000002  -0.000000
     12         13.259474       14.150999  -0.000000  -0.000000
     13         17.162055       18.115993   0.000000   0.000000
     14         27.759080       28.053368   0.000000   0.000000
     15         28.445291       28.829901   0.000000   0.000000
     16         34.607990       34.535326   0.000000   0.000000
 
  0.2000000E+00  0.1000000E+00  0.0000000E+00  0.1500000E-01
      1          3.775411        3.846306   1.000000   1.000000
      2          6.227699        7.425258   1.000000   1.000000
      3          6.860767        8.027461   1.000000   1.000000
      4          7.026628        8.445744   1.000000   1.000000
      5          7.895814        9.495326   1.000000   1.000000
      6          7.917123        9.599511   1.000000   1.000000
      7          8.402091       10.069886   1.000000   1.005519
      8          8.629594       10.389980   1.000000   0.875144
      9          8.980541       10.774247   1.000000  -0.031322
     10          9.298902       11.098951   1.000000  -0.000076
     11          9.808861       11.767486   1.000008  -0.000000
     12         15.298141       16.088850  -0.000000   0.000000
     13         17.544712       18.352025   0.000000   0.000000
     14         23.508805       23.988027   0.000000   0.000000
     15         26.149667       26.523341   0.000000   0.000000
     16         30.900957       31.018855   0.000000   0.000000
 
  0.3000000E+00  0.1000000E+00  0.0000000E+00  0.1500000E-01
      1          5.115017        5.412428   1.000000   1.000000
      2          6.107035        7.405842   1.000000   1.000000
      3          6.309207        7.537695   1.000000   1.000000
      4          7.178522        8.344902   1.000000   1.000000
      5          7.739502        9.380412   1.000000   1.000000
      6          8.062111        9.643294   1.000000   1.000000
      7          8.144967        9.762567   1.000000   1.000002
      8          9.195626       10.999931   1.000000  -0.000964
      9          9.554315       11.425674   1.000000  -0.000000
     10          9.836729       11.799398   1.000018  -0.000000
     11         10.184752       11.915950   1.026049  -0.000000
     12         17.610809       18.253261   0.000000   0.000000
     13         17.651667       18.326180   0.000000   0.000000
     14         20.236751       20.862451   0.000000   0.000000
     15         24.554732       24.900524   0.000000   0.000000
     16         27.273738       27.582996   0.000000   0.000000
 
  0.4000000E+00  0.1000000E+00  0.0000000E+00  0.1500000E-01
      1          5.749585        6.581225   1.000000   1.000000
      2          5.898844        7.133471   1.000000   1.000000
      3          6.030818        7.295995   1.000000   1.000000
      4          7.635469        8.465238   1.000000   1.000000
      5          7.684095        9.330675   1.000000   1.000000
      6          7.941079        9.495573   1.000000   1.000000
      7          8.280141        9.893690   1.000000   1.000098
      8          9.726585       11.620311   1.000000  -0.000000
      9          9.848232       11.775527   1.000026  -0.000000
     10          9.854544       11.812267   1.000032  -0.000000
     11         11.673695       13.033759  -0.000000  -0.000000
     12         15.021706       15.907810  -0.000000  -0.000000
     13         20.053474       20.575582   0.000000   0.000000
     14         20.863972       21.333016   0.000000   0.000000
     15         23.520180       23.856684   0.000000   0.000000
     16         24.237796       24.736359   0.000000   0.000000
 
  0.2000000E+00  0.2000000E+00  0.0000000E+00  0.7500000E-02
      1          5.048171        5.238756   1.000000   1.000000
      2          6.436834        7.661189   1.000000   1.000000
      3          6.508676        7.764446   1.000000   1.000000
      4          6.676653        8.013281   1.000000   1.000000
      5          7.638886        9.263402   1.000000   1.000000
      6          8.026552        9.605935   1.000000   1.000000
      7          8.241948        9.877299   1.000000   1.000062
      8          8.833776       10.628793   1.000000   0.045546
      9          9.557479       11.419327   1.000000  -0.000000
     10          9.778041       11.731833   1.000003  -0.000000
     11         10.221615       11.954638   1.033399  -0.000000
     12         17.344274       18.051800   0.000000   0.000000
     13         18.190518       18.838696   0.000000   0.000000
     14         21.601176       22.115786   0.000000   0.000000
     15         22.215413       22.697898   0.000000   0.000000
     16         29.297475       29.385697   0.000000   0.000000
 
  0.3000000E+00  0.2000000E+00  0.0000000E+00  0.1500000E-01
      1          6.018735        6.614766   1.000000   1.000000
      2          6.168680        7.453034   1.000000   1.000000
      3          6.304310        7.572568   1.000000   1.000000
      4          6.932761        8.026585   1.000000   1.000000
      5          7.545293        9.132306   1.000000   1.000000
      6          7.977454        9.556869   1.000000   1.000000
      7          8.279782        9.893887   1.000000   1.000099
      8          9.233518       11.069158   1.000000  -0.000174
      9          9.751326       11.701053   1.000001  -0.000000
     10          9.852745       11.765971   1.000030  -0.000000
     11         11.633553       13.089564  -0.000000  -0.000000
     12         17.227146       17.895240   0.000000   0.000000
     13         19.746192       20.348164   0.000000   0.000000
     14         19.952755       20.489639   0.000000   0.000000
     15         21.303122       21.767454   0.000000   0.000000
     16         26.184482       26.554996   0.000000   0.000000
 
  0.4000000E+00  0.2000000E+00  0.0000000E+00  0.7500000E-02
      1          6.078706        7.181940   1.000000   1.000000
      2          6.186471        7.388777   1.000000   1.000000
      3          6.215267        7.416396   1.000000   1.000000
      4          7.240338        8.143534   1.000000   1.000000
      5          7.581379        9.183373   1.000000   1.000000
      6          7.804032        9.329017   1.000000   1.000000
      7          8.406061       10.047303   1.000000   1.003650
      8          9.590003       11.465824   1.000000  -0.000000
      9          9.741360       11.689467   1.000001  -0.000000
     10          9.792834       11.705237   1.000005  -0.000000
     11         13.341084       14.366718  -0.000000  -0.000000
     12         14.773608       15.759093  -0.000000  -0.000000
     13         19.972139       20.451518   0.000000   0.000000
     14         21.677223       22.152891   0.000000   0.000000
     15         21.997930       22.405434   0.000000   0.000000
     16         23.925382       24.454040   0.000000   0.000000
 
  0.3000000E+00  0.3000000E+00  0.0000000E+00  0.7500000E-02
      1          6.130540        7.442536   1.000000   1.000000
      2          6.419571        7.469219   1.000000   1.000000
      3          6.578162        7.754684   1.000000   1.000000
      4          6.811305        7.797179   1.000000   1.000000
      5          7.533907        9.080085   1.000000   1.000000
      6          7.730666        9.268803   1.000000   1.000000
      7          8.501736       10.149497   1.000000   1.018041
      8          9.417883       11.284357   1.000000  -0.000000
      9          9.688014       11.628752   1.000000  -0.000000
     10          9.746573       11.651267   1.000001  -0.000000
     11         13.765412       14.806998  -0.000000  -0.000000
     12         16.791898       17.503735   0.000000   0.000000
     13         16.826436       17.519564   0.000000   0.000000
     14         22.225419       22.742571   0.000000   0.000000
     15         22.484849       22.905653   0.000000   0.000000
     16         25.106551       25.561487   0.000000   0.000000
 
  0.0000000E+00  0.0000000E+00  0.1250000E+00  0.2500000E-02
      1          1.659761        1.678458   1.000000   1.000000
      2          5.251042        6.140017   1.000000   1.000000
      3          7.788275        9.447277   1.000000   1.000000
      4          7.846648        9.528495   1.000000   1.000000
      5          7.846649        9.528495   1.000000   1.000000
      6          8.158472        9.889911   1.000000   1.000089
      7          8.158473        9.889912   1.000000   1.000089
      8          8.673492        9.939662   1.000000   1.000334
      9          8.673492       10.501173   1.000000   0.460524
     10          9.675879       10.501174   1.000000   0.460520
     11          9.675879       11.613822   1.000000  -0.000000
     12          9.763933       11.613823   1.000002  -0.000000
     13         17.871281       18.795710   0.000000   0.000000
     14         32.678641       32.389610   0.000000   0.000000
     15         34.759672       34.776447   0.000000   0.000000
     16         35.562761       35.398545   0.000000   0.000000
 
  0.1000000E+00 -0.6938894E-17  0.1250000E+00  0.1500000E-01
      1          2.011625        2.032419   1.000000   1.000000
      2          5.474871        6.393875   1.000000   1.000000
      3          7.587113        9.207515   1.000000   1.000000
      4          7.949946        9.212793   1.000000   1.000000
      5          7.983192        9.640792   1.000000   1.000000
      6          7.995288        9.694174   1.000000   1.000000
      7          8.299301        9.892593   1.000000   1.000095
      8          8.436478       10.043653   1.000000   1.003404
      9          8.601225       10.413938   1.000000   0.803521
     10          8.742434       10.438007   1.000000   0.718869
     11          9.711663       11.656255   1.000000  -0.000000
     12         11.243095       12.492567  -0.000001  -0.000000
     13         18.005553       18.890806   0.000000   0.000000
     14         30.324968       30.486152   0.000000   0.000000
     15         33.028186       33.065532   0.000000   0.000000
     16         33.031402       33.377865   0.000000   0.000000
 
  0.2000000E+00 -0.1387779E-16  0.1250000E+00  0.1500000E-01
      1          3.002435        3.042501   1.000000   1.000000
      2          5.968318        6.996203   1.000000   1.000000
      3          7.212419        8.343800   1.000000   1.000000
      4          7.305548        8.806065   1.000000   1.000000
      5          7.840631        9.497249   1.000000   1.000000
      6          8.201472        9.893948   1.000000   1.000099
      7          8.297218        9.949107   1.000000   1.000423
      8          8.591171       10.354435   1.000000   0.955250
      9          8.706684       10.465679   1.000000   0.609625
     10          8.734731       10.534754   1.000000   0.322942
     11          9.777873       11.733294   1.000003  -0.000000
     12         12.932776       14.003912  -0.000000  -0.000000
     13         18.472689       19.243306   0.000000   0.000000
     14         25.723344       26.132127   0.000000   0.000000
     15         30.244977       30.568333   0.000000   0.000000
     16         31.210006       31.371558   0.000000   0.000000
 
  0.3000000E+00  0.2775558E-16  0.1250000E+00  0.1500000E-01
      1          4.349800        4.511069   1.000000   1.000000
      2          6.111210        7.323040   1.000000   1.000000
      3          6.549588        7.732129   1.000000   1.000000
      4          7.228301        8.561308   1.000000   1.000000
      5          7.826042        9.383589   1.000000   1.000000
      6          8.033395        9.763132   1.000000   1.000002
      7          8.332286        9.850109   1.000000   1.000028
      8          9.143859       10.944862   1.000000  -0.003098
      9          9.179892       10.971376   1.000000  -0.001807
     10          9.242693       11.095496   1.000000  -0.000084
     11          9.831546       11.793330   1.000016  -0.000000
     12         14.650699       15.545294  -0.000000  -0.000000
     13         19.267179       19.887873   0.000000   0.000000
     14         21.596105       22.170995   0.000000   0.000000
     15         27.647625       27.993655   0.000000   0.000000
     16         27.984001       28.256351   0.000000   0.000000
 
  0.4000000E+00  0.5551115E-16  0.1250000E+00  0.1500000E-01
      1          5.292663        5.920146   1.000000   1.000000
      2          5.849661        7.090384   1.000000   1.000000
      3          6.295323        7.474531   1.000000   1.000000
      4          7.223105        8.405069   1.000000   1.000000
      5          7.868051        9.574045   1.000000   1.000000
      6          8.168197        9.704900   1.000000   1.000000
      7          8.539069        9.860040   1.000000   1.000037
      8          9.645255       11.556522   1.000000  -0.000000
      9          9.694910       11.603920   1.000000  -0.000000
     10          9.891452       11.850271   1.000092  -0.000000
     11         10.315536       11.903975   1.008058  -0.000000
     12         15.474446       16.177685  -0.000000   0.000000
     13         18.368417       19.143131   0.000000   0.000000
     14         21.084786       21.536114   0.000000   0.000000
     15         24.535588       25.057395   0.000000   0.000000
     16         26.458422       26.668937   0.000000   0.000000
 
  0.5000000E+00  0.5551115E-16  0.1250000E+00  0.7500000E-02
      1          5.482613        6.477194   1.000000   1.000000
      2          5.695148        6.913836   1.000000   1.000000
      3          6.283351        7.472891   1.000000   1.000000
      4          7.248790        8.328077   1.000000   1.000000
      5          7.805742        9.502812   1.000000   1.000000
      6          8.289560        9.866113   1.000000   1.000045
      7          8.781013        9.978464   1.000000   1.000855
      8          9.768116       11.710847   1.000002  -0.000000
      9          9.885856       11.833617   1.000079  -0.000000
     10          9.987107       11.937028   1.001041  -0.000000
     11         11.760853       12.969418  -0.000000  -0.000000
     12         13.848376       14.820081  -0.000000  -0.000000
     13         19.760666       20.312518   0.000000   0.000000
     14         20.136558       20.712043   0.000000   0.000000
     15         24.555480       24.997843   0.000000   0.000000
     16         25.583373       26.089965   0.000000   0.000000
 
  0.1000000E+00  0.1000000E+00  0.1250000E+00  0.1500000E-01
      1          2.686339        2.716345   1.000000   1.000000
      2          5.854385        6.837269   1.000000   1.000000
      3          7.326962        8.566974   1.000000   1.000000
      4          7.455976        8.884599   1.000000   1.000000
      5          7.976148        9.666157   1.000000   1.000000
      6          8.062370        9.704702   1.000000   1.000000
      7          8.290343        9.985237   1.000000   1.000998
      8          8.447764       10.201856   1.000000   1.029817
      9          8.701404       10.452256   1.000000   0.663882
     10          8.711671       10.493242   1.000000   0.494039
     11          9.747561       11.696464   1.000001  -0.000000
     12         12.477111       13.591467  -0.000000  -0.000000
     13         18.312381       19.120840   0.000000   0.000000
     14         27.877975       28.164826   0.000000   0.000000
     15         28.593426       28.975711   0.000000   0.000000
     16         33.505158       33.527691   0.000000   0.000000
 
  0.2000000E+00  0.1000000E+00  0.1250000E+00  0.3000000E-01
      1          3.891776        3.974403   1.000000   1.000000
      2          6.272342        7.405269   1.000000   1.000000
      3          6.764343        7.928198   1.000000   1.000000
      4          7.065928        8.485040   1.000000   1.000000
      5          7.775019        9.404581   1.000000   1.000000
      6          8.021145        9.647520   1.000000   1.000000
      7          8.320301        9.993637   1.000000   1.001205
      8          8.684629       10.454835   1.000000   0.653618
      9          9.058084       10.855714   1.000000  -0.013697
     10          9.247525       11.058007   1.000000  -0.000233
     11          9.799378       11.746201   1.000006  -0.000000
     12         14.087580       15.060186  -0.000000  -0.000000
     13         19.038852       19.712233   0.000000   0.000000
     14         23.654921       24.131438   0.000000   0.000000
     15         26.306657       26.682758   0.000000   0.000000
     16         29.821834       30.046004   0.000000   0.000000
 
  0.3000000E+00  0.1000000E+00  0.1250000E+00  0.3000000E-01
      1          5.138647        5.486709   1.000000   1.000000
      2          6.138583        7.370942   1.000000   1.000000
      3          6.347871        7.568714   1.000000   1.000000
      4          7.104560        8.368105   1.000000   1.000000
      5          7.774367        9.347154   1.000000   1.000000
      6          8.093486        9.720268   1.000000   1.000000
      7          8.236645        9.758664   1.000000   1.000001
      8          9.181098       10.994070   1.000000  -0.001101
      9          9.597845       11.472253   1.000000  -0.000000
     10          9.705140       11.610717   1.000000  -0.000000
     11         10.219878       11.996023   1.033136  -0.000000
     12         15.680477       16.438001  -0.000000   0.000000
     13         19.221556       19.891762   0.000000   0.000000
     14         20.900913       21.431764   0.000000   0.000000
     15         24.694317       25.059599   0.000000   0.000000
     16         26.212381       26.609350   0.000000   0.000000
 
  0.4000000E+00  0.1000000E+00  0.1250000E+00  0.3000000E-01
      1          5.592738        6.515186   1.000000   1.000000
      2          5.887389        7.118190   1.000000   1.000000
      3          6.339066        7.508168   1.000000   1.000000
      4          7.175781        8.274639   1.000000   1.000000
      5          7.717652        9.362287   1.000000   1.000000
      6          8.313005        9.727933   1.000000   1.000000
      7          8.417546        9.926232   1.000000   1.000237
      8          9.678677       11.583179   1.000000  -0.000000
      9          9.772983       11.700132   1.000002  -0.000000
     10          9.880994       11.807301   1.000069  -0.000000
     11         11.656802       12.983116  -0.000000  -0.000000
     12         14.859200       15.697130  -0.000000  -0.000000
     13         19.086252       19.759403   0.000000   0.000000
     14         21.205705       21.662770   0.000000   0.000000
     15         23.632290       24.022072   0.000000   0.000000
     16         24.505960       24.947429   0.000000   0.000000
 
  0.2000000E+00  0.2000000E+00  0.1250000E+00  0.1500000E-01
      1          5.109923        5.332249   1.000000   1.000000
      2          6.353332        7.574007   1.000000   1.000000
      3          6.623814        7.836803   1.000000   1.000000
      4          6.705219        8.053755   1.000000   1.000000
      5          7.680809        9.260098   1.000000   1.000000
      6          8.009559        9.597547   1.000000   1.000000
      7          8.175963        9.808265   1.000000   1.000007
      8          8.866885       10.664216   1.000000  -0.004236
      9          9.615620       11.485870   1.000000  -0.000000
     10          9.636106       11.544922   1.000000  -0.000000
     11         10.290585       12.054020   1.025763  -0.000000
     12         15.645460       16.457443  -0.000000   0.000000
     13         20.076142       20.651344   0.000000   0.000000
     14         21.753502       22.268873   0.000000   0.000000
     15         22.410555       22.889677   0.000000   0.000000
     16         28.205769       28.428539   0.000000   0.000000
 
  0.3000000E+00  0.2000000E+00  0.1250000E+00  0.3000000E-01
      1          5.917775        6.636010   1.000000   1.000000
      2          6.286492        7.440151   1.000000   1.000000
      3          6.360465        7.629016   1.000000   1.000000
      4          6.893231        8.085699   1.000000   1.000000
      5          7.626802        9.158943   1.000000   1.000000
      6          7.951178        9.482787   1.000000   1.000000
      7          8.300103        9.914748   1.000000   1.000175
      8          9.242339       11.081135   1.000000  -0.000126
      9          9.628484       11.554058   1.000000  -0.000000
     10          9.892376       11.814261   1.000095  -0.000000
     11         11.698014       13.141734  -0.000000  -0.000000
     12         16.721117       17.364896   0.000000   0.000000
     13         18.890801       19.590331   0.000000   0.000000
     14         20.767976       21.285183   0.000000   0.000000
     15         22.111485       22.542588   0.000000   0.000000
     16         25.236974       25.690384   0.000000   0.000000
 
  0.4000000E+00  0.2000000E+00  0.1250000E+00  0.1500000E-01
      1          5.924231        7.049807   1.000000   1.000000
      2          6.234833        7.456967   1.000000   1.000000
      3          6.474841        7.641192   1.000000   1.000000
      4          7.026698        8.052367   1.000000   1.000000
      5          7.552222        9.137195   1.000000   1.000000
      6          7.968549        9.386865   1.000000   1.000000
      7          8.441180       10.080815   1.000000   1.006664
      8          9.593758       11.471670   1.000000  -0.000000
      9          9.607253       11.530284   1.000000  -0.000000
     10          9.825109       11.743876   1.000013  -0.000000
     11         13.434741       14.433025  -0.000000  -0.000000
     12         14.768975       15.729946  -0.000000  -0.000000
     13         19.889630       20.407441   0.000000   0.000000
     14         20.956512       21.493354   0.000000   0.000000
     15         21.243777       21.757233   0.000000   0.000000
     16         25.138631       25.575283   0.000000   0.000000
 
  0.3000000E+00  0.3000000E+00  0.1250000E+00  0.1500000E-01
      1          6.157863        7.471697   1.000000   1.000000
      2          6.438322        7.475737   1.000000   1.000000
      3          6.629745        7.811193   1.000000   1.000000
      4          6.777768        7.840422   1.000000   1.000000
      5          7.585805        9.080022   1.000000   1.000000
      6          7.677843        9.186575   1.000000   1.000000