 vasp.6.3.2 27Jun22 (build Aug 12 2022 00:53:59) complex                        
  
 executed on               tv2STD date 2024.12.02  16:48:44
 running   24 mpi-ranks, with    1 threads/rank
 distrk:  each k-point on   24 cores,    1 groups
 distr:  one band on NCORE=   6 cores,    4 groups


--------------------------------------------------------------------------------------------------------


 INCAR:
   SYSTEM = Co fcc
   NWRITE = 2    write-flag
   ISTART = 0    job   : 0-new, 1-cont, 2-samecut
   ICHARG = 2    charge: 0-wave, 1-file, 2-atom, >10-const
   INIWAV = 1    electr: 0-lowe 1-rand  2-diag
   ENCUT = 400     energy cutoff in eV
   PREC = Accurate      normal | accurate
   ADDGRID = .FALSE.  (use fine grid)
   NELM = 100     number of ELM steps
   EDIFF = 1E-06    energy stopping-criterion for ELM
   LREAL = .FALSE.      real-space projection (.FALSE., .TRUE., On, Auto)
   ALGO = Normal     Normal, Fast, Very_Fast
   LWAVE = .FALSE.
   LCHARG = .FALSE.
   NSW = 0       max number of geometry steps
   IBRION = -1     ionic relax: 0-MD, 1-quasi-Newton, 2-CG, 3-Damped MD
   EDIFFG = -0.02  force (eV/A) stopping-criterion for geometry steps
   ISIF = 2     (1:force\=y stress\=trace only ions\=y shape\=n volume\=n)
   ISYM = 1     (1-use symmetry, 0-no symmetry)
   ISMEAR = 1     (-1-Fermi, 1-Methfessel/Paxton)
   SIGMA = 0.2   broadening in eV
   NPAR = 4
   ISPIN = 2
   MAGMOM = 2*3

 POTCAR:    PAW_PBE Co 02Aug2007                  
 POTCAR:    PAW_PBE Co 02Aug2007                  
   SHA256 =  0e690c60710354995174544f52f9f2c30879afabeffe3b3fbd4001cb294e56d4 Co/POTCAR             
   COPYR  = (c) Copyright 02Aug2007 Georg Kresse                                                    
   COPYR  = This file is part of the software VASP. Any use, copying, and all other rights are regul
   COPYR  = If you do not have a valid VASP license, you may not use, copy or distribute this file. 
   VRHFIN =Co: d8 s1                                                                                
   LEXCH  = PE                                                                                      
   EATOM  =   813.3670 eV,   59.7808 Ry                                                             
                                                                                                    
   TITEL  = PAW_PBE Co 02Aug2007                                                                    
   LULTRA =        F    use ultrasoft PP ?                                                          
   IUNSCR =        1    unscreen: 0-lin 1-nonlin 2-no                                               
   RPACOR =    2.000    partial core radius                                                         
   POMASS =   58.933; ZVAL   =    9.000    mass and valenz                                          
   RCORE  =    2.300    outmost cutoff radius                                                       
   RWIGS  =    2.460; RWIGS  =    1.302    wigner-seitz radius (au A)                               
   ENMAX  =  267.968; ENMIN  =  200.976 eV                                                          
   RCLOC  =    1.203    cutoff for local pot                                                        
   LCOR   =        T    correct aug charges                                                         
   LPAW   =        T    paw PP                                                                      
   EAUG   =  477.818                                                                                
   DEXC   =    0.000                                                                                
   RMAX   =    2.360    core radius for proj-oper                                                   
   RAUG   =    1.300    factor for augmentation sphere                                              
   RDEP   =    2.393    radius for radial grids                                                     
   RDEPT  =    1.864    core radius for aug-charge                                                  
                                                                                                    
   Atomic configuration                                                                             
    9 entries                                                                                       
     n  l   j            E        occ.                                                              
     1  0  0.50     -7587.6674   2.0000                                                             
     2  0  0.50      -893.6084   2.0000                                                             
     2  1  1.50      -764.5805   6.0000                                                             
     3  0  0.50       -97.5973   2.0000                                                             
     3  1  1.50       -60.9648   6.0000                                                             
     3  2  2.50        -4.2382   8.0000                                                             
     4  0  0.50        -4.3746   1.0000                                                             
     4  1  1.50        -4.0817   0.0000                                                             
     4  3  2.50        -1.3606   0.0000                                                             
   Description                                                                                      
     l       E           TYP  RCUT    TYP  RCUT                                                     
     2     -4.2382362     23  2.300                                                                 
     2     -5.5988188     23  2.300                                                                 
     0     -4.3745797     23  2.300                                                                 
     0      5.7660125     23  2.300                                                                 
     1     -2.7211652     23  2.300                                                                 
     1     16.9860234     23  2.300                                                                 
  local pseudopotential read in
  partial core-charges read in
  partial kinetic energy density read in
  atomic valenz-charges read in
  non local Contribution for L=           2  read in
    real space projection operators read in
  non local Contribution for L=           2  read in
    real space projection operators read in
  non local Contribution for L=           0  read in
    real space projection operators read in
  non local Contribution for L=           0  read in
    real space projection operators read in
  non local Contribution for L=           1  read in
    real space projection operators read in
  non local Contribution for L=           1  read in
    real space projection operators read in
    PAW grid and wavefunctions read in
 
   number of l-projection  operators is LMAX  =           6
   number of lm-projection operators is LMMAX =          18
 
  PAW_PBE Co 02Aug2007                  :
 energy of atom  1       EATOM= -813.3670
 kinetic energy error for atom=    0.0093 (will be added to EATOM!!)
 
 
 POSCAR: Co hcp
  positions in direct lattice
  No initial velocities read in
 exchange correlation table for  LEXCH =        8
   RHO(1)=    0.500       N(1)  =     2000
   RHO(2)=  100.500       N(2)  =     4000
 


--------------------------------------------------------------------------------------------------------


 ion  position               nearest neighbor table
   1  0.333  0.667  0.250-   2 2.47   2 2.47   2 2.47   2 2.47   2 2.47   2 2.47
   2  0.667  0.333  0.750-   1 2.47   1 2.47   1 2.47   1 2.47   1 2.47   1 2.47
 
  LATTYP: Found a hexagonal cell.
 ALAT       =     2.4719999032
 C/A-ratio  =     1.6266764715
  
  Lattice vectors:
  
 A1 = (   1.2359999516,  -2.1408147143,   0.0000000000)
 A2 = (   1.2359999516,   2.1408147143,   0.0000000000)
 A3 = (   0.0000000000,   0.0000000000,   4.0211440800)


Analysis of symmetry for initial positions (statically):
=====================================================================
 Subroutine PRICEL returns:
 Original cell was already a primitive cell.
 

 Routine SETGRP: Setting up the symmetry group for a 
 hexagonal supercell.


 Subroutine GETGRP returns: Found 24 space group operations
 (whereof 12 operations were pure point group operations)
 out of a pool of 24 trial point group operations.


The static configuration has the point symmetry D_3d.
 The point group associated with its full space group is D_6h.


Analysis of symmetry for dynamics (positions and initial velocities):
=====================================================================
 Subroutine PRICEL returns:
 Original cell was already a primitive cell.
 

 Routine SETGRP: Setting up the symmetry group for a 
 hexagonal supercell.


 Subroutine GETGRP returns: Found 24 space group operations
 (whereof 12 operations were pure point group operations)
 out of a pool of 24 trial point group operations.


The dynamic configuration has the point symmetry D_3d.
 The point group associated with its full space group is D_6h.


Analysis of structural, dynamic, and magnetic symmetry:
=====================================================================
 Subroutine PRICEL returns:
 Original cell was already a primitive cell.
 

 Routine SETGRP: Setting up the symmetry group for a 
 hexagonal supercell.


 Subroutine GETGRP returns: Found 24 space group operations
 (whereof 12 operations were pure point group operations)
 out of a pool of 24 trial point group operations.


The overall configuration has the point symmetry D_3d.
 The point group associated with its full space group is D_6h.


 Subroutine INISYM returns: Found 24 space group operations
 (whereof 12 operations are pure point group operations),
 and found     1 'primitive' translations


----------------------------------------------------------------------------------------

                                     Primitive cell                                     

  volume of cell :      21.2803

  direct lattice vectors                    reciprocal lattice vectors
     1.235999952 -2.140814714  0.000000000     0.404530760 -0.233555943  0.000000000
     1.235999952  2.140814714  0.000000000     0.404530760  0.233555943  0.000000000
     0.000000000  0.000000000  4.021144080     0.000000000  0.000000000  0.248685444

  length of vectors
     2.471999903  2.471999903  4.021144080     0.467111887  0.467111887  0.248685444

  position of ions in fractional coordinates (direct lattice)
     0.333333333  0.666666667  0.250000000
     0.666666667  0.333333333  0.750000000

  ion indices of the primitive-cell ions
   primitive index   ion index
                 1           1
                 2           2

----------------------------------------------------------------------------------------

 
 
 KPOINTS: Automatic mesh                          

Automatic generation of k-mesh.
 Grid dimensions read from file:
 generate k-points for:   10   10    8

 Generating k-lattice:

  Cartesian coordinates                     Fractional coordinates (reciprocal lattice)
     0.040453076 -0.023355594  0.000000000     0.100000000  0.000000000  0.000000000
     0.040453076  0.023355594  0.000000000     0.000000000  0.100000000  0.000000000
     0.000000000  0.000000000  0.031085680     0.000000000  0.000000000  0.125000000

  Length of vectors
     0.046711189  0.046711189  0.031085680

  Shift w.r.t. Gamma in fractional coordinates (k-lattice)
     0.000000000  0.000000000  0.000000000

 
 Subroutine IBZKPT returns following result:
 ===========================================
 
 Found     70 irreducible k-points:
 
 Following reciprocal coordinates:
            Coordinates               Weight
  0.000000  0.000000  0.000000      1.000000
  0.100000 -0.000000  0.000000      6.000000
  0.200000 -0.000000  0.000000      6.000000
  0.300000  0.000000  0.000000      6.000000
  0.400000  0.000000  0.000000      6.000000
  0.500000  0.000000  0.000000      3.000000
  0.100000  0.100000  0.000000      6.000000
  0.200000  0.100000  0.000000     12.000000
  0.300000  0.100000  0.000000     12.000000
  0.400000  0.100000  0.000000     12.000000
  0.200000  0.200000  0.000000      6.000000
  0.300000  0.200000  0.000000     12.000000
  0.400000  0.200000  0.000000      6.000000
  0.300000  0.300000  0.000000      6.000000
  0.000000  0.000000  0.125000      2.000000
  0.100000 -0.000000  0.125000     12.000000
  0.200000 -0.000000  0.125000     12.000000
  0.300000  0.000000  0.125000     12.000000
  0.400000  0.000000  0.125000     12.000000
  0.500000  0.000000  0.125000      6.000000
  0.100000  0.100000  0.125000     12.000000
  0.200000  0.100000  0.125000     24.000000
  0.300000  0.100000  0.125000     24.000000
  0.400000  0.100000  0.125000     24.000000
  0.200000  0.200000  0.125000     12.000000
  0.300000  0.200000  0.125000     24.000000
  0.400000  0.200000  0.125000     12.000000
  0.300000  0.300000  0.125000     12.000000
  0.000000  0.000000  0.250000      2.000000
  0.100000 -0.000000  0.250000     12.000000
  0.200000 -0.000000  0.250000     12.000000
  0.300000  0.000000  0.250000     12.000000
  0.400000  0.000000  0.250000     12.000000
  0.500000  0.000000  0.250000      6.000000
  0.100000  0.100000  0.250000     12.000000
  0.200000  0.100000  0.250000     24.000000
  0.300000  0.100000  0.250000     24.000000
  0.400000  0.100000  0.250000     24.000000
  0.200000  0.200000  0.250000     12.000000
  0.300000  0.200000  0.250000     24.000000
  0.400000  0.200000  0.250000     12.000000
  0.300000  0.300000  0.250000     12.000000
  0.000000  0.000000  0.375000      2.000000
  0.100000 -0.000000  0.375000     12.000000
  0.200000 -0.000000  0.375000     12.000000
  0.300000  0.000000  0.375000     12.000000
  0.400000  0.000000  0.375000     12.000000
  0.500000  0.000000  0.375000      6.000000
  0.100000  0.100000  0.375000     12.000000
  0.200000  0.100000  0.375000     24.000000
  0.300000  0.100000  0.375000     24.000000
  0.400000  0.100000  0.375000     24.000000
  0.200000  0.200000  0.375000     12.000000
  0.300000  0.200000  0.375000     24.000000
  0.400000  0.200000  0.375000     12.000000
  0.300000  0.300000  0.375000     12.000000
  0.000000  0.000000  0.500000      1.000000
  0.100000 -0.000000  0.500000      6.000000
  0.200000 -0.000000  0.500000      6.000000
  0.300000  0.000000  0.500000      6.000000
  0.400000  0.000000  0.500000      6.000000
  0.500000  0.000000  0.500000      3.000000
  0.100000  0.100000  0.500000      6.000000
  0.200000  0.100000  0.500000     12.000000
  0.300000  0.100000  0.500000     12.000000
  0.400000  0.100000  0.500000     12.000000
  0.200000  0.200000  0.500000      6.000000
  0.300000  0.200000  0.500000     12.000000
  0.400000  0.200000  0.500000      6.000000
  0.300000  0.300000  0.500000      6.000000
 
 Following cartesian coordinates:
            Coordinates               Weight
  0.000000  0.000000  0.000000      1.000000
  0.040453 -0.023356  0.000000      6.000000
  0.080906 -0.046711  0.000000      6.000000
  0.121359 -0.070067  0.000000      6.000000
  0.161812 -0.093422  0.000000      6.000000
  0.202265 -0.116778  0.000000      3.000000
  0.080906  0.000000  0.000000      6.000000
  0.121359 -0.023356  0.000000     12.000000
  0.161812 -0.046711  0.000000     12.000000
  0.202265 -0.070067  0.000000     12.000000
  0.161812  0.000000  0.000000      6.000000
  0.202265 -0.023356  0.000000     12.000000
  0.242718 -0.046711  0.000000      6.000000
  0.242718  0.000000  0.000000      6.000000
  0.000000  0.000000  0.031086      2.000000
  0.040453 -0.023356  0.031086     12.000000
  0.080906 -0.046711  0.031086     12.000000
  0.121359 -0.070067  0.031086     12.000000
  0.161812 -0.093422  0.031086     12.000000
  0.202265 -0.116778  0.031086      6.000000
  0.080906  0.000000  0.031086     12.000000
  0.121359 -0.023356  0.031086     24.000000
  0.161812 -0.046711  0.031086     24.000000
  0.202265 -0.070067  0.031086     24.000000
  0.161812  0.000000  0.031086     12.000000
  0.202265 -0.023356  0.031086     24.000000
  0.242718 -0.046711  0.031086     12.000000
  0.242718  0.000000  0.031086     12.000000
  0.000000  0.000000  0.062171      2.000000
  0.040453 -0.023356  0.062171     12.000000
  0.080906 -0.046711  0.062171     12.000000
  0.121359 -0.070067  0.062171     12.000000
  0.161812 -0.093422  0.062171     12.000000
  0.202265 -0.116778  0.062171      6.000000
  0.080906  0.000000  0.062171     12.000000
  0.121359 -0.023356  0.062171     24.000000
  0.161812 -0.046711  0.062171     24.000000
  0.202265 -0.070067  0.062171     24.000000
  0.161812  0.000000  0.062171     12.000000
  0.202265 -0.023356  0.062171     24.000000
  0.242718 -0.046711  0.062171     12.000000
  0.242718  0.000000  0.062171     12.000000
  0.000000  0.000000  0.093257      2.000000
  0.040453 -0.023356  0.093257     12.000000
  0.080906 -0.046711  0.093257     12.000000
  0.121359 -0.070067  0.093257     12.000000
  0.161812 -0.093422  0.093257     12.000000
  0.202265 -0.116778  0.093257      6.000000
  0.080906  0.000000  0.093257     12.000000
  0.121359 -0.023356  0.093257     24.000000
  0.161812 -0.046711  0.093257     24.000000
  0.202265 -0.070067  0.093257     24.000000
  0.161812  0.000000  0.093257     12.000000
  0.202265 -0.023356  0.093257     24.000000
  0.242718 -0.046711  0.093257     12.000000
  0.242718  0.000000  0.093257     12.000000
  0.000000  0.000000  0.124343      1.000000
  0.040453 -0.023356  0.124343      6.000000
  0.080906 -0.046711  0.124343      6.000000
  0.121359 -0.070067  0.124343      6.000000
  0.161812 -0.093422  0.124343      6.000000
  0.202265 -0.116778  0.124343      3.000000
  0.080906  0.000000  0.124343      6.000000
  0.121359 -0.023356  0.124343     12.000000
  0.161812 -0.046711  0.124343     12.000000
  0.202265 -0.070067  0.124343     12.000000
  0.161812  0.000000  0.124343      6.000000
  0.202265 -0.023356  0.124343     12.000000
  0.242718 -0.046711  0.124343      6.000000
  0.242718  0.000000  0.124343      6.000000
 


--------------------------------------------------------------------------------------------------------




 Dimension of arrays:
   k-points           NKPTS =     70   k-points in BZ     NKDIM =     70   number of bands    NBANDS=     16
   number of dos      NEDOS =    301   number of ions     NIONS =      2
   non local maximal  LDIM  =      6   non local SUM 2l+1 LMDIM =     18
   total plane-waves  NPLWV =   7168
   max r-space proj   IRMAX =      1   max aug-charges    IRDMAX=  13482
   dimension x,y,z NGX =    16 NGY =   16 NGZ =   28
   dimension x,y,z NGXF=    32 NGYF=   32 NGZF=   56
   support grid    NGXF=    32 NGYF=   32 NGZF=   56
   ions per type =               2
   NGX,Y,Z   is equivalent  to a cutoff of  10.76, 10.76, 11.58 a.u.
   NGXF,Y,Z  is equivalent  to a cutoff of  21.52, 21.52, 23.15 a.u.

 SYSTEM =  Co fcc                                  
 POSCAR =  Co hcp                                  

 Startparameter for this run:
   NWRITE =      2    write-flag & timer
   PREC   = accura    normal or accurate (medium, high low for compatibility)
   ISTART =      0    job   : 0-new  1-cont  2-samecut
   ICHARG =      2    charge: 1-file 2-atom 10-const
   ISPIN  =      2    spin polarized calculation?
   LNONCOLLINEAR =      F non collinear calculations
   LSORBIT =      F    spin-orbit coupling
   INIWAV =      1    electr: 0-lowe 1-rand  2-diag
   LASPH  =      F    aspherical Exc in radial PAW
 Electronic Relaxation 1
   ENCUT  =  400.0 eV  29.40 Ry    5.42 a.u.   4.03  4.03  6.56*2*pi/ulx,y,z
   ENINI  =  400.0     initial cutoff
   ENAUG  =  477.8 eV  augmentation charge cutoff
   NELM   =    100;   NELMIN=  2; NELMDL= -5     # of ELM steps 
   EDIFF  = 0.1E-05   stopping-criterion for ELM
   LREAL  =      F    real-space projection
   NLSPLINE    = F    spline interpolate recip. space projectors
   LCOMPAT=      F    compatible to vasp.4.4
   GGA_COMPAT  = T    GGA compatible to vasp.4.4-vasp.4.6
   LMAXPAW     = -100 max onsite density
   LMAXMIX     =    2 max onsite mixed and CHGCAR
   VOSKOWN=      0    Vosko Wilk Nusair interpolation
   ROPT   =    0.00000
 Ionic relaxation
   EDIFFG = -.2E-01   stopping-criterion for IOM
   NSW    =      0    number of steps for IOM
   NBLOCK =      1;   KBLOCK =      1    inner block; outer block 
   IBRION =     -1    ionic relax: 0-MD 1-quasi-New 2-CG
   NFREE  =      0    steps in history (QN), initial steepest desc. (CG)
   ISIF   =      2    stress and relaxation
   IWAVPR =     10    prediction:  0-non 1-charg 2-wave 3-comb
   ISYM   =      1    0-nonsym 1-usesym 2-fastsym
   LCORR  =      T    Harris-Foulkes like correction to forces

   POTIM  = 0.5000    time-step for ionic-motion
   TEIN   =    0.0    initial temperature
   TEBEG  =    0.0;   TEEND  =   0.0 temperature during run
   SMASS  =  -3.00    Nose mass-parameter (am)
   estimated Nose-frequenzy (Omega)   =  0.10E-29 period in steps = 0.13E+47 mass=  -0.140E-27a.u.
   SCALEE = 1.0000    scale energy and forces
   NPACO  =    256;   APACO  = 10.0  distance and # of slots for P.C.
   PSTRESS=    0.0 pullay stress

  Mass of Ions in am
   POMASS =  58.93
  Ionic Valenz
   ZVAL   =   9.00
  Atomic Wigner-Seitz radii
   RWIGS  =  -1.00
  virtual crystal weights 
   VCA    =   1.00
   NELECT =      18.0000    total number of electrons
   NUPDOWN=      -1.0000    fix difference up-down

 DOS related values:
   EMIN   =  10.00;   EMAX   =-10.00  energy-range for DOS
   EFERMI =   0.00
   ISMEAR =     1;   SIGMA  =   0.20  broadening in eV -4-tet -1-fermi 0-gaus

 Electronic relaxation 2 (details)
   IALGO  =     38    algorithm
   LDIAG  =      T    sub-space diagonalisation (order eigenvalues)
   LSUBROT=      F    optimize rotation matrix (better conditioning)
   TURBO    =      0    0=normal 1=particle mesh
   IRESTART =      0    0=no restart 2=restart with 2 vectors
   NREBOOT  =      0    no. of reboots
   NMIN     =      0    reboot dimension
   EREF     =   0.00    reference energy to select bands
   IMIX   =      4    mixing-type and parameters
     AMIX     =   0.40;   BMIX     =  1.00
     AMIX_MAG =   1.60;   BMIX_MAG =  1.00
     AMIN     =   0.10
     WC   =   100.;   INIMIX=   1;  MIXPRE=   1;  MAXMIX= -45

 Intra band minimization:
   WEIMIN = 0.0000     energy-eigenvalue tresh-hold
   EBREAK =  0.16E-07  absolut break condition
   DEPER  =   0.30     relativ break condition  

   TIME   =   0.40     timestep for ELM

  volume/ion in A,a.u.               =      10.64        71.80
  Fermi-wavevector in a.u.,A,eV,Ry     =   1.548246  2.925761 32.614055  2.397065
  Thomas-Fermi vector in A             =   2.653224
 
 Write flags
   LWAVE        =      F    write WAVECAR
   LDOWNSAMPLE  =      F    k-point downsampling of WAVECAR
   LCHARG       =      F    write CHGCAR
   LVTOT        =      F    write LOCPOT, total local potential
   LVHAR        =      F    write LOCPOT, Hartree potential only
   LELF         =      F    write electronic localiz. function (ELF)
   LORBIT       =      0    0 simple, 1 ext, 2 COOP (PROOUT), +10 PAW based schemes


 Dipole corrections
   LMONO  =      F    monopole corrections only (constant potential shift)
   LDIPOL =      F    correct potential (dipole corrections)
   IDIPOL =      0    1-x, 2-y, 3-z, 4-all directions 
   EPSILON=  1.0000000 bulk dielectric constant

 Exchange correlation treatment:
   GGA     =    --    GGA type
   LEXCH   =     8    internal setting for exchange type
   LIBXC   =     F    Libxc                    
   VOSKOWN =     0    Vosko Wilk Nusair interpolation
   LHFCALC =     F    Hartree Fock is set to
   LHFONE  =     F    Hartree Fock one center treatment
   AEXX    =    0.0000 exact exchange contribution

 Linear response parameters
   LEPSILON=     F    determine dielectric tensor
   LRPA    =     F    only Hartree local field effects (RPA)
   LNABLA  =     F    use nabla operator in PAW spheres
   LVEL    =     F    velocity operator in full k-point grid
   CSHIFT  =0.1000    complex shift for real part using Kramers Kronig
   OMEGAMAX=  -1.0    maximum frequency
   DEG_THRESHOLD= 0.2000000E-02 threshold for treating states as degnerate
   RTIME   =   -0.100 relaxation time in fs
  (WPLASMAI=    0.000 imaginary part of plasma frequency in eV, 0.658/RTIME)
   DFIELD  = 0.0000000 0.0000000 0.0000000 field for delta impulse in time
 
  Optional k-point grid parameters
   LKPOINTS_OPT  =     F    use optional k-point grid
   KPOINTS_OPT_MODE=     1    mode for optional k-point grid
 
 Orbital magnetization related:
   ORBITALMAG=     F  switch on orbital magnetization
   LCHIMAG   =     F  perturbation theory with respect to B field
   DQ        =  0.001000  dq finite difference perturbation B field
   LLRAUG    =     F  two centre corrections for induced B field



--------------------------------------------------------------------------------------------------------


 Static calculation
 charge density and potential will be updated during run
 spin polarized calculation
 Variant of blocked Davidson
 Davidson routine will perform the subspace rotation
 perform sub-space diagonalisation
    after iterative eigenvector-optimisation
 modified Broyden-mixing scheme, WC =      100.0
 initial mixing is a Kerker type mixing with AMIX =  0.4000 and BMIX =      1.0000
 Hartree-type preconditioning will be used
 using additional bands            7
 reciprocal scheme for non local part
 use partial core corrections
 calculate Harris-corrections to forces 
   (improved forces if not selfconsistent)
 use gradient corrections 
 use of overlap-Matrix (Vanderbilt PP)
 Methfessel and Paxton  Order N= 1 SIGMA  =   0.20


--------------------------------------------------------------------------------------------------------


  energy-cutoff  :      400.00
  volume of cell :       21.28
      direct lattice vectors                 reciprocal lattice vectors
     1.235999952 -2.140814714  0.000000000     0.404530760 -0.233555943  0.000000000
     1.235999952  2.140814714  0.000000000     0.404530760  0.233555943  0.000000000
     0.000000000  0.000000000  4.021144080     0.000000000  0.000000000  0.248685444

  length of vectors
     2.471999903  2.471999903  4.021144080     0.467111887  0.467111887  0.248685444


 
 k-points in units of 2pi/SCALE and weight: Automatic mesh                          
   0.00000000  0.00000000  0.00000000       0.001
   0.04045308 -0.02335559  0.00000000       0.007
   0.08090615 -0.04671119  0.00000000       0.007
   0.12135923 -0.07006678  0.00000000       0.007
   0.16181230 -0.09342238  0.00000000       0.007
   0.20226538 -0.11677797  0.00000000       0.004
   0.08090615  0.00000000  0.00000000       0.007
   0.12135923 -0.02335559  0.00000000       0.015
   0.16181230 -0.04671119  0.00000000       0.015
   0.20226538 -0.07006678  0.00000000       0.015
   0.16181230  0.00000000  0.00000000       0.007
   0.20226538 -0.02335559  0.00000000       0.015
   0.24271846 -0.04671119  0.00000000       0.007
   0.24271846  0.00000000  0.00000000       0.007
   0.00000000  0.00000000  0.03108568       0.003
   0.04045308 -0.02335559  0.03108568       0.015
   0.08090615 -0.04671119  0.03108568       0.015
   0.12135923 -0.07006678  0.03108568       0.015
   0.16181230 -0.09342238  0.03108568       0.015
   0.20226538 -0.11677797  0.03108568       0.007
   0.08090615  0.00000000  0.03108568       0.015
   0.12135923 -0.02335559  0.03108568       0.030
   0.16181230 -0.04671119  0.03108568       0.030
   0.20226538 -0.07006678  0.03108568       0.030
   0.16181230  0.00000000  0.03108568       0.015
   0.20226538 -0.02335559  0.03108568       0.030
   0.24271846 -0.04671119  0.03108568       0.015
   0.24271846  0.00000000  0.03108568       0.015
   0.00000000  0.00000000  0.06217136       0.003
   0.04045308 -0.02335559  0.06217136       0.015
   0.08090615 -0.04671119  0.06217136       0.015
   0.12135923 -0.07006678  0.06217136       0.015
   0.16181230 -0.09342238  0.06217136       0.015
   0.20226538 -0.11677797  0.06217136       0.007
   0.08090615  0.00000000  0.06217136       0.015
   0.12135923 -0.02335559  0.06217136       0.030
   0.16181230 -0.04671119  0.06217136       0.030
   0.20226538 -0.07006678  0.06217136       0.030
   0.16181230  0.00000000  0.06217136       0.015
   0.20226538 -0.02335559  0.06217136       0.030
   0.24271846 -0.04671119  0.06217136       0.015
   0.24271846  0.00000000  0.06217136       0.015
   0.00000000  0.00000000  0.09325704       0.003
   0.04045308 -0.02335559  0.09325704       0.015
   0.08090615 -0.04671119  0.09325704       0.015
   0.12135923 -0.07006678  0.09325704       0.015
   0.16181230 -0.09342238  0.09325704       0.015
   0.20226538 -0.11677797  0.09325704       0.007
   0.08090615  0.00000000  0.09325704       0.015
   0.12135923 -0.02335559  0.09325704       0.030
   0.16181230 -0.04671119  0.09325704       0.030
   0.20226538 -0.07006678  0.09325704       0.030
   0.16181230  0.00000000  0.09325704       0.015
   0.20226538 -0.02335559  0.09325704       0.030
   0.24271846 -0.04671119  0.09325704       0.015
   0.24271846  0.00000000  0.09325704       0.015
   0.00000000  0.00000000  0.12434272       0.001
   0.04045308 -0.02335559  0.12434272       0.007
   0.08090615 -0.04671119  0.12434272       0.007
   0.12135923 -0.07006678  0.12434272       0.007
   0.16181230 -0.09342238  0.12434272       0.007
   0.20226538 -0.11677797  0.12434272       0.004
   0.08090615  0.00000000  0.12434272       0.007
   0.12135923 -0.02335559  0.12434272       0.015
   0.16181230 -0.04671119  0.12434272       0.015
   0.20226538 -0.07006678  0.12434272       0.015
   0.16181230  0.00000000  0.12434272       0.007
   0.20226538 -0.02335559  0.12434272       0.015
   0.24271846 -0.04671119  0.12434272       0.007
   0.24271846  0.00000000  0.12434272       0.007
 
 k-points in reciprocal lattice and weights: Automatic mesh                          
   0.00000000  0.00000000  0.00000000       0.001
   0.10000000 -0.00000000  0.00000000       0.007
   0.20000000 -0.00000000  0.00000000       0.007
   0.30000000  0.00000000  0.00000000       0.007
   0.40000000  0.00000000  0.00000000       0.007
   0.50000000  0.00000000  0.00000000       0.004
   0.10000000  0.10000000  0.00000000       0.007
   0.20000000  0.10000000  0.00000000       0.015
   0.30000000  0.10000000  0.00000000       0.015
   0.40000000  0.10000000  0.00000000       0.015
   0.20000000  0.20000000  0.00000000       0.007
   0.30000000  0.20000000  0.00000000       0.015
   0.40000000  0.20000000  0.00000000       0.007
   0.30000000  0.30000000  0.00000000       0.007
   0.00000000  0.00000000  0.12500000       0.003
   0.10000000 -0.00000000  0.12500000       0.015
   0.20000000 -0.00000000  0.12500000       0.015
   0.30000000  0.00000000  0.12500000       0.015
   0.40000000  0.00000000  0.12500000       0.015
   0.50000000  0.00000000  0.12500000       0.007
   0.10000000  0.10000000  0.12500000       0.015
   0.20000000  0.10000000  0.12500000       0.030
   0.30000000  0.10000000  0.12500000       0.030
   0.40000000  0.10000000  0.12500000       0.030
   0.20000000  0.20000000  0.12500000       0.015
   0.30000000  0.20000000  0.12500000       0.030
   0.40000000  0.20000000  0.12500000       0.015
   0.30000000  0.30000000  0.12500000       0.015
   0.00000000  0.00000000  0.25000000       0.003
   0.10000000 -0.00000000  0.25000000       0.015
   0.20000000 -0.00000000  0.25000000       0.015
   0.30000000  0.00000000  0.25000000       0.015
   0.40000000  0.00000000  0.25000000       0.015
   0.50000000  0.00000000  0.25000000       0.007
   0.10000000  0.10000000  0.25000000       0.015
   0.20000000  0.10000000  0.25000000       0.030
   0.30000000  0.10000000  0.25000000       0.030
   0.40000000  0.10000000  0.25000000       0.030
   0.20000000  0.20000000  0.25000000       0.015
   0.30000000  0.20000000  0.25000000       0.030
   0.40000000  0.20000000  0.25000000       0.015
   0.30000000  0.30000000  0.25000000       0.015
   0.00000000  0.00000000  0.37500000       0.003
   0.10000000 -0.00000000  0.37500000       0.015
   0.20000000 -0.00000000  0.37500000       0.015
   0.30000000  0.00000000  0.37500000       0.015
   0.40000000  0.00000000  0.37500000       0.015
   0.50000000  0.00000000  0.37500000       0.007
   0.10000000  0.10000000  0.37500000       0.015
   0.20000000  0.10000000  0.37500000       0.030
   0.30000000  0.10000000  0.37500000       0.030
   0.40000000  0.10000000  0.37500000       0.030
   0.20000000  0.20000000  0.37500000       0.015
   0.30000000  0.20000000  0.37500000       0.030
   0.40000000  0.20000000  0.37500000       0.015
   0.30000000  0.30000000  0.37500000       0.015
   0.00000000  0.00000000  0.50000000       0.001
   0.10000000 -0.00000000  0.50000000       0.007
   0.20000000 -0.00000000  0.50000000       0.007
   0.30000000  0.00000000  0.50000000       0.007
   0.40000000  0.00000000  0.50000000       0.007
   0.50000000  0.00000000  0.50000000       0.004
   0.10000000  0.10000000  0.50000000       0.007
   0.20000000  0.10000000  0.50000000       0.015
   0.30000000  0.10000000  0.50000000       0.015
   0.40000000  0.10000000  0.50000000       0.015
   0.20000000  0.20000000  0.50000000       0.007
   0.30000000  0.20000000  0.50000000       0.015
   0.40000000  0.20000000  0.50000000       0.007
   0.30000000  0.30000000  0.50000000       0.007
 
 position of ions in fractional coordinates (direct lattice) 
   0.33333333  0.66666667  0.25000000
   0.66666667  0.33333333  0.75000000
 
 position of ions in cartesian coordinates  (Angst):
   1.23599995  0.71360490  1.00528602
   1.23599995 -0.71360490  3.01585806
 


--------------------------------------------------------------------------------------------------------


 k-point   1 :   0.0000 0.0000 0.0000  plane waves:     379
 k-point   2 :   0.1000-0.0000 0.0000  plane waves:     381
 k-point   3 :   0.2000-0.0000 0.0000  plane waves:     379
 k-point   4 :   0.3000 0.0000 0.0000  plane waves:     387
 k-point   5 :   0.4000 0.0000 0.0000  plane waves:     389
 k-point   6 :   0.5000 0.0000 0.0000  plane waves:     382
 k-point   7 :   0.1000 0.1000 0.0000  plane waves:     384
 k-point   8 :   0.2000 0.1000 0.0000  plane waves:     384
 k-point   9 :   0.3000 0.1000 0.0000  plane waves:     391
 k-point  10 :   0.4000 0.1000 0.0000  plane waves:     391
 k-point  11 :   0.2000 0.2000 0.0000  plane waves:     390
 k-point  12 :   0.3000 0.2000 0.0000  plane waves:     393
 k-point  13 :   0.4000 0.2000 0.0000  plane waves:     386
 k-point  14 :   0.3000 0.3000 0.0000  plane waves:     384
 k-point  15 :   0.0000 0.0000 0.1250  plane waves:     379
 k-point  16 :   0.1000-0.0000 0.1250  plane waves:     376
 k-point  17 :   0.2000-0.0000 0.1250  plane waves:     383
 k-point  18 :   0.3000 0.0000 0.1250  plane waves:     385
 k-point  19 :   0.4000 0.0000 0.1250  plane waves:     386
 k-point  20 :   0.5000 0.0000 0.1250  plane waves:     388
 k-point  21 :   0.1000 0.1000 0.1250  plane waves:     382
 k-point  22 :   0.2000 0.1000 0.1250  plane waves:     386
 k-point  23 :   0.3000 0.1000 0.1250  plane waves:     391
 k-point  24 :   0.4000 0.1000 0.1250  plane waves:     391
 k-point  25 :   0.2000 0.2000 0.1250  plane waves:     390
 k-point  26 :   0.3000 0.2000 0.1250  plane waves:     390
 k-point  27 :   0.4000 0.2000 0.1250  plane waves:     389
 k-point  28 :   0.3000 0.3000 0.1250  plane waves:     391
 k-point  29 :   0.0000 0.0000 0.2500  plane waves:     385
 k-point  30 :   0.1000-0.0000 0.2500  plane waves:     374
 k-point  31 :   0.2000-0.0000 0.2500  plane waves:     378
 k-point  32 :   0.3000 0.0000 0.2500  plane waves:     385
 k-point  33 :   0.4000 0.0000 0.2500  plane waves:     392
 k-point  34 :   0.5000 0.0000 0.2500  plane waves:     384
 k-point  35 :   0.1000 0.1000 0.2500  plane waves:     382
 k-point  36 :   0.2000 0.1000 0.2500  plane waves:     386
 k-point  37 :   0.3000 0.1000 0.2500  plane waves:     391
 k-point  38 :   0.4000 0.1000 0.2500  plane waves:     387
 k-point  39 :   0.2000 0.2000 0.2500  plane waves:     388
 k-point  40 :   0.3000 0.2000 0.2500  plane waves:     393
 k-point  41 :   0.4000 0.2000 0.2500  plane waves:     389
 k-point  42 :   0.3000 0.3000 0.2500  plane waves:     392
 k-point  43 :   0.0000 0.0000 0.3750  plane waves:     361
 k-point  44 :   0.1000-0.0000 0.3750  plane waves:     370
 k-point  45 :   0.2000-0.0000 0.3750  plane waves:     384
 k-point  46 :   0.3000 0.0000 0.3750  plane waves:     388
 k-point  47 :   0.4000 0.0000 0.3750  plane waves:     386
 k-point  48 :   0.5000 0.0000 0.3750  plane waves:     378
 k-point  49 :   0.1000 0.1000 0.3750  plane waves:     376
 k-point  50 :   0.2000 0.1000 0.3750  plane waves:     386
 k-point  51 :   0.3000 0.1000 0.3750  plane waves:     388
 k-point  52 :   0.4000 0.1000 0.3750  plane waves:     392
 k-point  53 :   0.2000 0.2000 0.3750  plane waves:     389
 k-point  54 :   0.3000 0.2000 0.3750  plane waves:     390
 k-point  55 :   0.4000 0.2000 0.3750  plane waves:     389
 k-point  56 :   0.3000 0.3000 0.3750  plane waves:     388
 k-point  57 :   0.0000 0.0000 0.5000  plane waves:     362
 k-point  58 :   0.1000-0.0000 0.5000  plane waves:     370
 k-point  59 :   0.2000-0.0000 0.5000  plane waves:     382
 k-point  60 :   0.3000 0.0000 0.5000  plane waves:     392
 k-point  61 :   0.4000 0.0000 0.5000  plane waves:     386
 k-point  62 :   0.5000 0.0000 0.5000  plane waves:     380
 k-point  63 :   0.1000 0.1000 0.5000  plane waves:     380
 k-point  64 :   0.2000 0.1000 0.5000  plane waves:     390
 k-point  65 :   0.3000 0.1000 0.5000  plane waves:     388
 k-point  66 :   0.4000 0.1000 0.5000  plane waves:     392
 k-point  67 :   0.2000 0.2000 0.5000  plane waves:     382
 k-point  68 :   0.3000 0.2000 0.5000  plane waves:     388
 k-point  69 :   0.4000 0.2000 0.5000  plane waves:     390
 k-point  70 :   0.3000 0.3000 0.5000  plane waves:     382

 maximum and minimum number of plane-waves per node :        71       56

 maximum number of plane-waves:       393
 maximum index in each direction: 
   IXMAX=    4   IYMAX=    4   IZMAX=    6
   IXMIN=   -4   IYMIN=   -4   IZMIN=   -7


 parallel 3D FFT for wavefunctions:
    minimum data exchange during FFTs selected (reduces bandwidth)
 parallel 3D FFT for charge:
    minimum data exchange during FFTs selected (reduces bandwidth)


 total amount of memory used by VASP MPI-rank0    32033. kBytes
=======================================================================

   base      :      30000. kBytes
   nonl-proj :        687. kBytes
   fftplans  :        153. kBytes
   grid      :        374. kBytes
   one-center:         31. kBytes
   wavefun   :        788. kBytes
 
     INWAV:  cpu time      0.0000: real time      0.0001
 Broyden mixing: mesh for mixing (old mesh)
   NGX =  9   NGY =  9   NGZ = 13
  (NGX  = 32   NGY  = 32   NGZ  = 56)
  gives a total of   1053 points

 initial charge density was supplied:
 charge density of overlapping atoms calculated
 number of electron      18.0000000 magnetization       6.0000000
 keeping initial charge density in first step


--------------------------------------------------------------------------------------------------------


 Maximum index for augmentation-charges          938 (set IRDMAX)


--------------------------------------------------------------------------------------------------------


 First call to EWALD:  gamma=   0.640
 Maximum number of real-space cells 3x 3x 2
 Maximum number of reciprocal cells 3x 3x 4

    FEWALD:  cpu time      0.0014: real time      0.0014


--------------------------------------- Iteration      1(   1)  ---------------------------------------


    POTLOK:  cpu time      0.0059: real time      0.0061
    SETDIJ:  cpu time      0.0052: real time      0.0053
     EDDAV:  cpu time      0.4125: real time      0.4152
       DOS:  cpu time      0.0027: real time      0.0027
    --------------------------------------------
      LOOP:  cpu time      0.4265: real time      0.4293

 eigenvalue-minimisations  :  4624
 total energy-change (2. order) : 0.6597428E+02  (-0.7140649E+03)
 number of electron      18.0000000 magnetization       6.0000000
 augmentation part       18.0000000 magnetization       6.0000000

 Free energy of the ion-electron system (eV)
  ---------------------------------------------------
  alpha Z        PSCENC =        79.61870385
  Ewald energy   TEWEN  =     -1531.60263765
  -Hartree energ DENC   =      -295.86427829
  -exchange      EXHF   =         0.00000000
  -V(xc)+E(xc)   XCENC  =        35.75670985
  PAW double counting   =      1439.98163886    -1545.88690193
  entropy T*S    EENTRO =        -0.00097004
  eigenvalues    EBANDS =       257.25654869
  atomic energy  EATOM  =      1626.71546820
  Solvation  Ediel_sol  =         0.00000000
  ---------------------------------------------------
  free energy    TOTEN  =        65.97428154 eV

  energy without entropy =       65.97525158  energy(sigma->0) =       65.97460489


--------------------------------------------------------------------------------------------------------




--------------------------------------- Iteration      1(   2)  ---------------------------------------


     EDDAV:  cpu time      0.3875: real time      0.3904
       DOS:  cpu time      0.0021: real time      0.0021
    --------------------------------------------
      LOOP:  cpu time      0.3896: real time      0.3924

 eigenvalue-minimisations  :  4480
 total energy-change (2. order) :-0.7976285E+02  (-0.7358964E+02)
 number of electron      18.0000000 magnetization       6.0000000
 augmentation part       18.0000000 magnetization       6.0000000

 Free energy of the ion-electron system (eV)
  ---------------------------------------------------
  alpha Z        PSCENC =        79.61870385
  Ewald energy   TEWEN  =     -1531.60263765
  -Hartree energ DENC   =      -295.86427829
  -exchange      EXHF   =         0.00000000
  -V(xc)+E(xc)   XCENC  =        35.75670985
  PAW double counting   =      1439.98163886    -1545.88690193
  entropy T*S    EENTRO =         0.00094343
  eigenvalues    EBANDS =       177.49178241
  atomic energy  EATOM  =      1626.71546820
  Solvation  Ediel_sol  =         0.00000000
  ---------------------------------------------------
  free energy    TOTEN  =       -13.78857127 eV

  energy without entropy =      -13.78951470  energy(sigma->0) =      -13.78888575


--------------------------------------------------------------------------------------------------------




--------------------------------------- Iteration      1(   3)  ---------------------------------------


     EDDAV:  cpu time      0.4679: real time      0.4708
       DOS:  cpu time      0.0021: real time      0.0021
    --------------------------------------------
      LOOP:  cpu time      0.4700: real time      0.4729

 eigenvalue-minimisations  :  5616
 total energy-change (2. order) :-0.1790324E+01  (-0.1763809E+01)
 number of electron      18.0000000 magnetization       6.0000000
 augmentation part       18.0000000 magnetization       6.0000000

 Free energy of the ion-electron system (eV)
  ---------------------------------------------------
  alpha Z        PSCENC =        79.61870385
  Ewald energy   TEWEN  =     -1531.60263765
  -Hartree energ DENC   =      -295.86427829
  -exchange      EXHF   =         0.00000000
  -V(xc)+E(xc)   XCENC  =        35.75670985
  PAW double counting   =      1439.98163886    -1545.88690193
  entropy T*S    EENTRO =         0.00036646
  eigenvalues    EBANDS =       175.70203578
  atomic energy  EATOM  =      1626.71546820
  Solvation  Ediel_sol  =         0.00000000
  ---------------------------------------------------
  free energy    TOTEN  =       -15.57889487 eV

  energy without entropy =      -15.57926133  energy(sigma->0) =      -15.57901702


--------------------------------------------------------------------------------------------------------




--------------------------------------- Iteration      1(   4)  ---------------------------------------


     EDDAV:  cpu time      0.5305: real time      0.5336
       DOS:  cpu time      0.0021: real time      0.0021
    --------------------------------------------
      LOOP:  cpu time      0.5326: real time      0.5357

 eigenvalue-minimisations  :  6408
 total energy-change (2. order) :-0.3033107E-01  (-0.3032627E-01)
 number of electron      18.0000000 magnetization       6.0000000
 augmentation part       18.0000000 magnetization       6.0000000

 Free energy of the ion-electron system (eV)
  ---------------------------------------------------
  alpha Z        PSCENC =        79.61870385
  Ewald energy   TEWEN  =     -1531.60263765
  -Hartree energ DENC   =      -295.86427829
  -exchange      EXHF   =         0.00000000
  -V(xc)+E(xc)   XCENC  =        35.75670985
  PAW double counting   =      1439.98163886    -1545.88690193
  entropy T*S    EENTRO =         0.00034253
  eigenvalues    EBANDS =       175.67172863
  atomic energy  EATOM  =      1626.71546820
  Solvation  Ediel_sol  =         0.00000000
  ---------------------------------------------------
  free energy    TOTEN  =       -15.60922595 eV

  energy without entropy =      -15.60956848  energy(sigma->0) =      -15.60934012


--------------------------------------------------------------------------------------------------------




--------------------------------------- Iteration      1(   5)  ---------------------------------------


     EDDAV:  cpu time      0.4693: real time      0.4722
       DOS:  cpu time      0.0022: real time      0.0022
    CHARGE:  cpu time      0.0212: real time      0.0213
    MIXING:  cpu time      0.0003: real time      0.0003
    --------------------------------------------
      LOOP:  cpu time      0.4929: real time      0.4960

 eigenvalue-minimisations  :  5656
 total energy-change (2. order) :-0.1886307E-03  (-0.1886282E-03)
 number of electron      17.9999999 magnetization       3.3956007
 augmentation part        9.1698980 magnetization       2.6484115

 Broyden mixing:
  rms(total) = 0.16483E+01    rms(broyden)= 0.16483E+01
  rms(prec ) = 0.27106E+01
  weight for this iteration     100.00

 Free energy of the ion-electron system (eV)
  ---------------------------------------------------
  alpha Z        PSCENC =        79.61870385
  Ewald energy   TEWEN  =     -1531.60263765
  -Hartree energ DENC   =      -295.86427829
  -exchange      EXHF   =         0.00000000
  -V(xc)+E(xc)   XCENC  =        35.75670985
  PAW double counting   =      1439.98163886    -1545.88690193
  entropy T*S    EENTRO =         0.00034371
  eigenvalues    EBANDS =       175.67153882
  atomic energy  EATOM  =      1626.71546820
  Solvation  Ediel_sol  =         0.00000000
  ---------------------------------------------------
  free energy    TOTEN  =       -15.60941458 eV

  energy without entropy =      -15.60975829  energy(sigma->0) =      -15.60952915


--------------------------------------------------------------------------------------------------------




--------------------------------------- Iteration      1(   6)  ---------------------------------------


    POTLOK:  cpu time      0.0044: real time      0.0045
    SETDIJ:  cpu time      0.0050: real time      0.0050
     EDDAV:  cpu time      0.4088: real time      0.4112
       DOS:  cpu time      0.0022: real time      0.0022
    CHARGE:  cpu time      0.0211: real time      0.0212
    MIXING:  cpu time      0.0003: real time      0.0003
    --------------------------------------------
      LOOP:  cpu time      0.4417: real time      0.4443

 eigenvalue-minimisations  :  4808
 total energy-change (2. order) : 0.1195386E+01  (-0.1055162E+01)
 number of electron      17.9999999 magnetization       3.2660357
 augmentation part       10.6662631 magnetization       2.8664181

 Broyden mixing:
  rms(total) = 0.63150E+00    rms(broyden)= 0.63147E+00
  rms(prec ) = 0.84062E+00
  weight for this iteration     100.00

 eigenvalues of (default mixing * dielectric matrix)
  average eigenvalue GAMMA=   0.8944
  0.8944

 Free energy of the ion-electron system (eV)
  ---------------------------------------------------
  alpha Z        PSCENC =        79.61870385
  Ewald energy   TEWEN  =     -1531.60263765
  -Hartree energ DENC   =      -259.23927690
  -exchange      EXHF   =         0.00000000
  -V(xc)+E(xc)   XCENC  =        32.71462906
  PAW double counting   =      1596.21331271    -1692.10761780
  entropy T*S    EENTRO =        -0.00081624
  eigenvalues    EBANDS =       133.27420613
  atomic energy  EATOM  =      1626.71546820
  Solvation  Ediel_sol  =         0.00000000
  ---------------------------------------------------
  free energy    TOTEN  =       -14.41402864 eV

  energy without entropy =      -14.41321240  energy(sigma->0) =      -14.41375656


--------------------------------------------------------------------------------------------------------




--------------------------------------- Iteration      1(   7)  ---------------------------------------


    POTLOK:  cpu time      0.0042: real time      0.0044
    SETDIJ:  cpu time      0.0049: real time      0.0049
     EDDAV:  cpu time      0.4315: real time      0.4341
       DOS:  cpu time      0.0022: real time      0.0022
    CHARGE:  cpu time      0.0204: real time      0.0205
    MIXING:  cpu time      0.0003: real time      0.0003
    --------------------------------------------
      LOOP:  cpu time      0.4635: real time      0.4664

 eigenvalue-minimisations  :  5168
 total energy-change (2. order) : 0.3100366E+00  (-0.1397127E+00)
 number of electron      17.9999999 magnetization       3.2804829
 augmentation part       10.1651160 magnetization       2.9202106

 Broyden mixing:
  rms(total) = 0.38440E+00    rms(broyden)= 0.38440E+00
  rms(prec ) = 0.45866E+00
  weight for this iteration     100.00

 eigenvalues of (default mixing * dielectric matrix)
  average eigenvalue GAMMA=   0.7489
  1.0081  0.4897

 Free energy of the ion-electron system (eV)
  ---------------------------------------------------
  alpha Z        PSCENC =        79.61870385
  Ewald energy   TEWEN  =     -1531.60263765
  -Hartree energ DENC   =      -266.77157245
  -exchange      EXHF   =         0.00000000
  -V(xc)+E(xc)   XCENC  =        33.22774889
  PAW double counting   =      1679.27990889    -1782.02123389
  entropy T*S    EENTRO =        -0.00016152
  eigenvalues    EBANDS =       147.44978368
  atomic energy  EATOM  =      1626.71546820
  Solvation  Ediel_sol  =         0.00000000
  ---------------------------------------------------
  free energy    TOTEN  =       -14.10399200 eV

  energy without entropy =      -14.10383048  energy(sigma->0) =      -14.10393816


--------------------------------------------------------------------------------------------------------




--------------------------------------- Iteration      1(   8)  ---------------------------------------


    POTLOK:  cpu time      0.0042: real time      0.0043
    SETDIJ:  cpu time      0.0047: real time      0.0047
     EDDAV:  cpu time      0.5215: real time      0.5246
       DOS:  cpu time      0.0022: real time      0.0022
    CHARGE:  cpu time      0.0212: real time      0.0213
    MIXING:  cpu time      0.0002: real time      0.0003
    --------------------------------------------
      LOOP:  cpu time      0.5540: real time      0.5574

 eigenvalue-minimisations  :  6344
 total energy-change (2. order) : 0.2302587E-01  (-0.1957646E-02)
 number of electron      17.9999999 magnetization       3.3242135
 augmentation part       10.2035897 magnetization       2.9823557

 Broyden mixing:
  rms(total) = 0.17832E+00    rms(broyden)= 0.17832E+00
  rms(prec ) = 0.22741E+00
  weight for this iteration     100.00

 eigenvalues of (default mixing * dielectric matrix)
  average eigenvalue GAMMA=   1.0535
  1.8033  0.7910  0.5663

 Free energy of the ion-electron system (eV)
  ---------------------------------------------------
  alpha Z        PSCENC =        79.61870385
  Ewald energy   TEWEN  =     -1531.60263765
  -Hartree energ DENC   =      -264.12494560
  -exchange      EXHF   =         0.00000000
  -V(xc)+E(xc)   XCENC  =        33.15963415
  PAW double counting   =      1737.29417948    -1841.25997996
  entropy T*S    EENTRO =         0.00009859
  eigenvalues    EBANDS =       146.11851281
  atomic energy  EATOM  =      1626.71546820
  Solvation  Ediel_sol  =         0.00000000
  ---------------------------------------------------
  free energy    TOTEN  =       -14.08096613 eV

  energy without entropy =      -14.08106472  energy(sigma->0) =      -14.08099899


--------------------------------------------------------------------------------------------------------




--------------------------------------- Iteration      1(   9)  ---------------------------------------


    POTLOK:  cpu time      0.0043: real time      0.0045
    SETDIJ:  cpu time      0.0049: real time      0.0049
     EDDAV:  cpu time      0.5378: real time      0.5408
       DOS:  cpu time      0.0022: real time      0.0022
    CHARGE:  cpu time      0.0206: real time      0.0207
    MIXING:  cpu time      0.0003: real time      0.0003
    --------------------------------------------
      LOOP:  cpu time      0.5700: real time      0.5734

 eigenvalue-minimisations  :  6632
 total energy-change (2. order) : 0.1474964E-01  (-0.5637290E-03)
 number of electron      17.9999999 magnetization       3.3350393
 augmentation part       10.2423084 magnetization       3.0006192

 Broyden mixing:
  rms(total) = 0.49008E-01    rms(broyden)= 0.49008E-01
  rms(prec ) = 0.55787E-01
  weight for this iteration     100.00

 eigenvalues of (default mixing * dielectric matrix)
  average eigenvalue GAMMA=   1.1133
  2.2365  0.8038  0.8038  0.6093

 Free energy of the ion-electron system (eV)
  ---------------------------------------------------
  alpha Z        PSCENC =        79.61870385
  Ewald energy   TEWEN  =     -1531.60263765
  -Hartree energ DENC   =      -261.27009776
  -exchange      EXHF   =         0.00000000
  -V(xc)+E(xc)   XCENC  =        33.07701784
  PAW double counting   =      1803.05230004    -1908.56516619
  entropy T*S    EENTRO =         0.00036531
  eigenvalues    EBANDS =       144.90782987
  atomic energy  EATOM  =      1626.71546820
  Solvation  Ediel_sol  =         0.00000000
  ---------------------------------------------------
  free energy    TOTEN  =       -14.06621649 eV

  energy without entropy =      -14.06658180  energy(sigma->0) =      -14.06633826


--------------------------------------------------------------------------------------------------------




--------------------------------------- Iteration      1(  10)  ---------------------------------------


    POTLOK:  cpu time      0.0042: real time      0.0043
    SETDIJ:  cpu time      0.0047: real time      0.0047
     EDDAV:  cpu time      0.5131: real time      0.5162
       DOS:  cpu time      0.0022: real time      0.0022
    CHARGE:  cpu time      0.0205: real time      0.0206
    MIXING:  cpu time      0.0003: real time      0.0003
    --------------------------------------------
      LOOP:  cpu time      0.5450: real time      0.5484

 eigenvalue-minimisations  :  6320
 total energy-change (2. order) : 0.6415669E-03  (-0.8228627E-04)
 number of electron      17.9999999 magnetization       3.3240522
 augmentation part       10.2451506 magnetization       2.9803118

 Broyden mixing:
  rms(total) = 0.84611E-02    rms(broyden)= 0.84610E-02
  rms(prec ) = 0.99712E-02
  weight for this iteration     100.00

 eigenvalues of (default mixing * dielectric matrix)
  average eigenvalue GAMMA=   1.1598
  2.3303  1.0726  1.0726  0.6617  0.6617

 Free energy of the ion-electron system (eV)
  ---------------------------------------------------
  alpha Z        PSCENC =        79.61870385
  Ewald energy   TEWEN  =     -1531.60263765
  -Hartree energ DENC   =      -260.53426243
  -exchange      EXHF   =         0.00000000
  -V(xc)+E(xc)   XCENC  =        33.02527299
  PAW double counting   =      1825.13804135    -1931.29291272
  entropy T*S    EENTRO =         0.00036698
  eigenvalues    EBANDS =       144.86638451
  atomic energy  EATOM  =      1626.71546820
  Solvation  Ediel_sol  =         0.00000000
  ---------------------------------------------------
  free energy    TOTEN  =       -14.06557492 eV

  energy without entropy =      -14.06594190  energy(sigma->0) =      -14.06569725


--------------------------------------------------------------------------------------------------------




--------------------------------------- Iteration      1(  11)  ---------------------------------------


    POTLOK:  cpu time      0.0042: real time      0.0043
    SETDIJ:  cpu time      0.0047: real time      0.0047
     EDDAV:  cpu time      0.5371: real time      0.5402
       DOS:  cpu time      0.0022: real time      0.0022
    CHARGE:  cpu time      0.0204: real time      0.0205
    MIXING:  cpu time      0.0003: real time      0.0003
    --------------------------------------------
      LOOP:  cpu time      0.5689: real time      0.5722

 eigenvalue-minimisations  :  6640
 total energy-change (2. order) :-0.2182683E-04  (-0.8776585E-05)
 number of electron      17.9999999 magnetization       3.3221817
 augmentation part       10.2457758 magnetization       2.9763285

 Broyden mixing:
  rms(total) = 0.24829E-02    rms(broyden)= 0.24828E-02
  rms(prec ) = 0.35265E-02
  weight for this iteration     100.00

 eigenvalues of (default mixing * dielectric matrix)
  average eigenvalue GAMMA=   1.0929
  2.3249  1.1017  1.1017  0.6157  0.7066  0.7066

 Free energy of the ion-electron system (eV)
  ---------------------------------------------------
  alpha Z        PSCENC =        79.61870385
  Ewald energy   TEWEN  =     -1531.60263765
  -Hartree energ DENC   =      -260.45615001
  -exchange      EXHF   =         0.00000000
  -V(xc)+E(xc)   XCENC  =        33.00837002
  PAW double counting   =      1827.59381351    -1933.82102216
  entropy T*S    EENTRO =         0.00030663
  eigenvalues    EBANDS =       144.87755087
  atomic energy  EATOM  =      1626.71546820
  Solvation  Ediel_sol  =         0.00000000
  ---------------------------------------------------
  free energy    TOTEN  =       -14.06559675 eV

  energy without entropy =      -14.06590338  energy(sigma->0) =      -14.06569896


--------------------------------------------------------------------------------------------------------




--------------------------------------- Iteration      1(  12)  ---------------------------------------


    POTLOK:  cpu time      0.0042: real time      0.0044
    SETDIJ:  cpu time      0.0048: real time      0.0048
     EDDAV:  cpu time      0.4171: real time      0.4197
       DOS:  cpu time      0.0022: real time      0.0022
    CHARGE:  cpu time      0.0207: real time      0.0208
    MIXING:  cpu time      0.0003: real time      0.0003
    --------------------------------------------
      LOOP:  cpu time      0.4493: real time      0.4522

 eigenvalue-minimisations  :  4920
 total energy-change (2. order) : 0.2794761E-05  (-0.6572106E-06)
 number of electron      17.9999999 magnetization       3.3222189
 augmentation part       10.2459059 magnetization       2.9762390

 Broyden mixing:
  rms(total) = 0.14413E-02    rms(broyden)= 0.14413E-02
  rms(prec ) = 0.22779E-02
  weight for this iteration     100.00

 eigenvalues of (default mixing * dielectric matrix)
  average eigenvalue GAMMA=   1.2115
  2.3771  1.9341  1.0877  1.0877  0.7116  0.6413  0.6413

 Free energy of the ion-electron system (eV)
  ---------------------------------------------------
  alpha Z        PSCENC =        79.61870385
  Ewald energy   TEWEN  =     -1531.60263765
  -Hartree energ DENC   =      -260.43438343
  -exchange      EXHF   =         0.00000000
  -V(xc)+E(xc)   XCENC  =        33.00604672
  PAW double counting   =      1828.29100532    -1934.53446291
  entropy T*S    EENTRO =         0.00030570
  eigenvalues    EBANDS =       144.87436025
  atomic energy  EATOM  =      1626.71546820
  Solvation  Ediel_sol  =         0.00000000
  ---------------------------------------------------
  free energy    TOTEN  =       -14.06559396 eV

  energy without entropy =      -14.06589965  energy(sigma->0) =      -14.06569585


--------------------------------------------------------------------------------------------------------




--------------------------------------- Iteration      1(  13)  ---------------------------------------


    POTLOK:  cpu time      0.0042: real time      0.0044
    SETDIJ:  cpu time      0.0047: real time      0.0047
     EDDAV:  cpu time      0.3122: real time      0.3140
       DOS:  cpu time      0.0022: real time      0.0022
    --------------------------------------------
      LOOP:  cpu time      0.3233: real time      0.3253

 eigenvalue-minimisations  :  3056
 total energy-change (2. order) : 0.4617893E-06  (-0.1165007E-06)
 number of electron      17.9999999 magnetization       3.3222189
 augmentation part       10.2459059 magnetization       2.9762390

 Free energy of the ion-electron system (eV)
  ---------------------------------------------------
  alpha Z        PSCENC =        79.61870385
  Ewald energy   TEWEN  =     -1531.60263765
  -Hartree energ DENC   =      -260.38662057
  -exchange      EXHF   =         0.00000000
  -V(xc)+E(xc)   XCENC  =        33.00392448
  PAW double counting   =      1829.74114929    -1936.01501003
  entropy T*S    EENTRO =         0.00030051
  eigenvalues    EBANDS =       144.85912842
  atomic energy  EATOM  =      1626.71546820
  Solvation  Ediel_sol  =         0.00000000
  ---------------------------------------------------
  free energy    TOTEN  =       -14.06559349 eV

  energy without entropy =      -14.06589400  energy(sigma->0) =      -14.06569366


--------------------------------------------------------------------------------------------------------




 average (electrostatic) potential at core
  the test charge radii are     1.0452
  (the norm of the test charge is              1.0000)
       1 -78.0369       2 -78.0369
 
 
 
 E-fermi :  10.4918     XC(G=0): -13.5217     alpha+bet :-18.0772

 Fermi energy:        10.4918328914

 spin component 1

 k-point     1 :       0.0000    0.0000    0.0000
  band No.  band energies     occupation 
      1       1.5011      1.00000
      2       5.2822      1.00000
      3       7.8289      1.00000
      4       7.8868      1.00000
      5       7.8868      1.00000
      6       8.2009      1.00000
      7       8.2009      1.00000
      8       8.5772      1.00000
      9       8.5772      1.00000
     10       9.6849      1.00000
     11       9.6849      1.00000
     12      10.3737      0.91573
     13      16.9502      0.00000
     14      32.7515      0.00000
     15      35.5479      0.00000
     16      35.5484      0.00000

 k-point     2 :       0.1000   -0.0000    0.0000
  band No.  band energies     occupation 
      1       1.8566      1.00000
      2       5.4939      1.00000
      3       7.5830      1.00000
      4       8.0539      1.00000
      5       8.0631      1.00000
      6       8.1521      1.00000
      7       8.3071      1.00000
      8       8.3495      1.00000
      9       8.4751      1.00000
     10       8.7620      1.00000
     11       9.7266      1.00000
     12      11.8041     -0.00000
     13      17.0117      0.00000
     14      30.2289      0.00000
     15      32.8707      0.00000
     16      33.0902      0.00000

 k-point     3 :       0.2000   -0.0000    0.0000
  band No.  band energies     occupation 
      1       2.8630      1.00000
      2       5.9523      1.00000
      3       7.2710      1.00000
      4       7.3495      1.00000
      5       7.9100      1.00000
      6       8.2404      1.00000
      7       8.4331      1.00000
      8       8.5075      1.00000
      9       8.5128      1.00000
     10       8.7525      1.00000
     11       9.8049      1.00001
     12      13.8256     -0.00000
     13      17.2380      0.00000
     14      25.5880      0.00000
     15      30.0537      0.00000
     16      31.9350      0.00000

 k-point     4 :       0.3000    0.0000    0.0000
  band No.  band energies     occupation 
      1       4.2622      1.00000
      2       6.0782      1.00000
      3       6.5766      1.00000
      4       7.2509      1.00000
      5       7.9175      1.00000
      6       7.9889      1.00000
      7       8.1922      1.00000
      8       9.1247      1.00000
      9       9.1857      1.00000
     10       9.2882      1.00000
     11       9.8653      1.00004
     12      16.1165      0.00000
     13      17.5933      0.00000
     14      21.4228      0.00000
     15      27.7645      0.00000
     16      28.8730      0.00000

 k-point     5 :       0.4000    0.0000    0.0000
  band No.  band energies     occupation 
      1       5.3474      1.00000
      2       5.8567      1.00000
      3       6.1118      1.00000
      4       7.6333      1.00000
      5       7.8046      1.00000
      6       8.0093      1.00000
      7       8.1736      1.00000
      8       9.6457      1.00000
      9       9.7789      1.00000
     10       9.8970      1.00011
     11      10.4005      0.84547
     12      16.1875      0.00000
     13      18.5764      0.00000
     14      20.1277      0.00000
     15      25.4557      0.00000
     16      26.2184      0.00000

 k-point     6 :       0.5000    0.0000    0.0000
  band No.  band energies     occupation 
      1       5.6632      1.00000
      2       5.7061      1.00000
      3       5.9574      1.00000
      4       7.7380      1.00000
      5       7.9412      1.00000
      6       7.9822      1.00000
      7       8.2853      1.00000
      8       9.8431      1.00002
      9       9.9061      1.00014
     10       9.9915      1.00115
     11      11.8781     -0.00000
     12      13.9468     -0.00000
     13      20.3228      0.00000
     14      21.0026      0.00000
     15      23.3958      0.00000
     16      24.6974      0.00000

 k-point     7 :       0.1000    0.1000    0.0000
  band No.  band energies     occupation 
      1       2.5406      1.00000
      2       5.8483      1.00000
      3       7.3067      1.00000
      4       7.6365      1.00000
      5       7.9932      1.00000
      6       8.1922      1.00000
      7       8.2765      1.00000
      8       8.3952      1.00000
      9       8.5972      1.00000
     10       8.6841      1.00000
     11       9.7674      1.00000
     12      13.2595     -0.00000
     13      17.1621      0.00000
     14      27.7591      0.00000
     15      28.4453      0.00000
     16      34.6080      0.00000

 k-point     8 :       0.2000    0.1000    0.0000
  band No.  band energies     occupation 
      1       3.7754      1.00000
      2       6.2277      1.00000
      3       6.8608      1.00000
      4       7.0266      1.00000
      5       7.8958      1.00000
      6       7.9171      1.00000
      7       8.4021      1.00000
      8       8.6296      1.00000
      9       8.9805      1.00000
     10       9.2989      1.00000
     11       9.8089      1.00001
     12      15.2981     -0.00000
     13      17.5447      0.00000
     14      23.5088      0.00000
     15      26.1497      0.00000
     16      30.9010      0.00000

 k-point     9 :       0.3000    0.1000    0.0000
  band No.  band energies     occupation 
      1       5.1150      1.00000
      2       6.1070      1.00000
      3       6.3092      1.00000
      4       7.1785      1.00000
      5       7.7395      1.00000
      6       8.0621      1.00000
      7       8.1450      1.00000
      8       9.1956      1.00000
      9       9.5543      1.00000
     10       9.8367      1.00002
     11      10.1848      1.02605
     12      17.6108      0.00000
     13      17.6517      0.00000
     14      20.2368      0.00000
     15      24.5547      0.00000
     16      27.2737      0.00000

 k-point    10 :       0.4000    0.1000    0.0000
  band No.  band energies     occupation 
      1       5.7496      1.00000
      2       5.8988      1.00000
      3       6.0308      1.00000
      4       7.6355      1.00000
      5       7.6841      1.00000
      6       7.9411      1.00000
      7       8.2801      1.00000
      8       9.7266      1.00000
      9       9.8482      1.00003
     10       9.8545      1.00003
     11      11.6737     -0.00000
     12      15.0217     -0.00000
     13      20.0535      0.00000
     14      20.8640      0.00000
     15      23.5202      0.00000
     16      24.2378      0.00000

 k-point    11 :       0.2000    0.2000    0.0000
  band No.  band energies     occupation 
      1       5.0482      1.00000
      2       6.4368      1.00000
      3       6.5087      1.00000
      4       6.6767      1.00000
      5       7.6389      1.00000
      6       8.0266      1.00000
      7       8.2419      1.00000
      8       8.8338      1.00000
      9       9.5575      1.00000
     10       9.7780      1.00000
     11      10.2216      1.03340
     12      17.3443      0.00000
     13      18.1905      0.00000
     14      21.6012      0.00000
     15      22.2154      0.00000
     16      29.2975      0.00000

 k-point    12 :       0.3000    0.2000    0.0000
  band No.  band energies     occupation 
      1       6.0187      1.00000
      2       6.1687      1.00000
      3       6.3043      1.00000
      4       6.9328      1.00000
      5       7.5453      1.00000
      6       7.9775      1.00000
      7       8.2798      1.00000
      8       9.2335      1.00000
      9       9.7513      1.00000
     10       9.8527      1.00003
     11      11.6336     -0.00000
     12      17.2271      0.00000
     13      19.7462      0.00000
     14      19.9528      0.00000
     15      21.3031      0.00000
     16      26.1845      0.00000

 k-point    13 :       0.4000    0.2000    0.0000
  band No.  band energies     occupation 
      1       6.0787      1.00000
      2       6.1865      1.00000
      3       6.2153      1.00000
      4       7.2403      1.00000
      5       7.5814      1.00000
      6       7.8040      1.00000
      7       8.4061      1.00000
      8       9.5900      1.00000
      9       9.7414      1.00000
     10       9.7928      1.00000
     11      13.3411     -0.00000
     12      14.7736     -0.00000
     13      19.9721      0.00000
     14      21.6772      0.00000
     15      21.9979      0.00000
     16      23.9254      0.00000

 k-point    14 :       0.3000    0.3000    0.0000
  band No.  band energies     occupation 
      1       6.1305      1.00000
      2       6.4196      1.00000
      3       6.5782      1.00000
      4       6.8113      1.00000
      5       7.5339      1.00000
      6       7.7307      1.00000
      7       8.5017      1.00000
      8       9.4179      1.00000
      9       9.6880      1.00000
     10       9.7466      1.00000
     11      13.7654     -0.00000
     12      16.7919      0.00000
     13      16.8264      0.00000
     14      22.2254      0.00000
     15      22.4848      0.00000
     16      25.1066      0.00000

 k-point    15 :       0.0000    0.0000    0.1250
  band No.  band energies     occupation 
      1       1.6598      1.00000
      2       5.2510      1.00000
      3       7.7883      1.00000
      4       7.8466      1.00000
      5       7.8466      1.00000
      6       8.1585      1.00000
      7       8.1585      1.00000
      8       8.6735      1.00000
      9       8.6735      1.00000
     10       9.6759      1.00000
     11       9.6759      1.00000
     12       9.7639      1.00000
     13      17.8713      0.00000
     14      32.6786      0.00000
     15      34.7597      0.00000
     16      35.5628      0.00000

 k-point    16 :       0.1000   -0.0000    0.1250
  band No.  band energies     occupation 
      1       2.0116      1.00000
      2       5.4749      1.00000
      3       7.5871      1.00000
      4       7.9499      1.00000
      5       7.9832      1.00000
      6       7.9953      1.00000
      7       8.2993      1.00000
      8       8.4365      1.00000
      9       8.6012      1.00000
     10       8.7424      1.00000
     11       9.7117      1.00000
     12      11.2431     -0.00000
     13      18.0056      0.00000
     14      30.3250      0.00000
     15      33.0282      0.00000
     16      33.0314      0.00000

 k-point    17 :       0.2000   -0.0000    0.1250
  band No.  band energies     occupation 
      1       3.0024      1.00000
      2       5.9683      1.00000
      3       7.2124      1.00000
      4       7.3055      1.00000
      5       7.8406      1.00000
      6       8.2015      1.00000
      7       8.2972      1.00000
      8       8.5912      1.00000
      9       8.7067      1.00000
     10       8.7347      1.00000
     11       9.7779      1.00000
     12      12.9328     -0.00000
     13      18.4727      0.00000
     14      25.7233      0.00000
     15      30.2450      0.00000
     16      31.2100      0.00000

 k-point    18 :       0.3000    0.0000    0.1250
  band No.  band energies     occupation 
      1       4.3498      1.00000
      2       6.1112      1.00000
      3       6.5496      1.00000
      4       7.2283      1.00000
      5       7.8260      1.00000
      6       8.0334      1.00000
      7       8.3323      1.00000
      8       9.1439      1.00000
      9       9.1799      1.00000
     10       9.2427      1.00000
     11       9.8315      1.00002
     12      14.6507     -0.00000
     13      19.2672      0.00000
     14      21.5961      0.00000
     15      27.6476      0.00000
     16      27.9840      0.00000

 k-point    19 :       0.4000    0.0000    0.1250
  band No.  band energies     occupation 
      1       5.2927      1.00000
      2       5.8497      1.00000
      3       6.2953      1.00000
      4       7.2231      1.00000
      5       7.8681      1.00000
      6       8.1682      1.00000
      7       8.5391      1.00000
      8       9.6453      1.00000
      9       9.6949      1.00000
     10       9.8915      1.00009
     11      10.3155      1.00806
     12      15.4744     -0.00000
     13      18.3684      0.00000
     14      21.0848      0.00000
     15      24.5356      0.00000
     16      26.4584      0.00000

 k-point    20 :       0.5000    0.0000    0.1250
  band No.  band energies     occupation 
      1       5.4826      1.00000
      2       5.6951      1.00000
      3       6.2834      1.00000
      4       7.2488      1.00000
      5       7.8057      1.00000
      6       8.2896      1.00000
      7       8.7810      1.00000
      8       9.7681      1.00000
      9       9.8859      1.00008
     10       9.9871      1.00104
     11      11.7609     -0.00000
     12      13.8484     -0.00000
     13      19.7607      0.00000
     14      20.1366      0.00000
     15      24.5555      0.00000
     16      25.5834      0.00000

 k-point    21 :       0.1000    0.1000    0.1250
  band No.  band energies     occupation 
      1       2.6863      1.00000
      2       5.8544      1.00000
      3       7.3270      1.00000
      4       7.4560      1.00000
      5       7.9761      1.00000
      6       8.0624      1.00000
      7       8.2903      1.00000
      8       8.4478      1.00000
      9       8.7014      1.00000
     10       8.7117      1.00000
     11       9.7476      1.00000
     12      12.4771     -0.00000
     13      18.3124      0.00000
     14      27.8780      0.00000
     15      28.5934      0.00000
     16      33.5052      0.00000

 k-point    22 :       0.2000    0.1000    0.1250
  band No.  band energies     occupation 
      1       3.8918      1.00000
      2       6.2723      1.00000
      3       6.7643      1.00000
      4       7.0659      1.00000
      5       7.7750      1.00000
      6       8.0211      1.00000
      7       8.3203      1.00000
      8       8.6846      1.00000
      9       9.0581      1.00000
     10       9.2475      1.00000
     11       9.7994      1.00001
     12      14.0876     -0.00000
     13      19.0389      0.00000
     14      23.6549      0.00000
     15      26.3067      0.00000
     16      29.8218      0.00000

 k-point    23 :       0.3000    0.1000    0.1250
  band No.  band energies     occupation 
      1       5.1386      1.00000
      2       6.1386      1.00000
      3       6.3479      1.00000
      4       7.1046      1.00000
      5       7.7744      1.00000
      6       8.0935      1.00000
      7       8.2366      1.00000
      8       9.1811      1.00000
      9       9.5978      1.00000
     10       9.7051      1.00000
     11      10.2199      1.03314
     12      15.6805     -0.00000
     13      19.2216      0.00000
     14      20.9009      0.00000
     15      24.6943      0.00000
     16      26.2124      0.00000

 k-point    24 :       0.4000    0.1000    0.1250
  band No.  band energies     occupation 
      1       5.5927      1.00000
      2       5.8874      1.00000
      3       6.3391      1.00000
      4       7.1758      1.00000
      5       7.7177      1.00000
      6       8.3130      1.00000
      7       8.4175      1.00000
      8       9.6787      1.00000
      9       9.7730      1.00000
     10       9.8810      1.00007
     11      11.6568     -0.00000
     12      14.8592     -0.00000
     13      19.0863      0.00000
     14      21.2057      0.00000
     15      23.6323      0.00000
     16      24.5060      0.00000

 k-point    25 :       0.2000    0.2000    0.1250
  band No.  band energies     occupation 
      1       5.1099      1.00000
      2       6.3533      1.00000
      3       6.6238      1.00000
      4       6.7052      1.00000
      5       7.6808      1.00000
      6       8.0096      1.00000
      7       8.1760      1.00000
      8       8.8669      1.00000
      9       9.6156      1.00000
     10       9.6361      1.00000
     11      10.2906      1.02576
     12      15.6455     -0.00000
     13      20.0761      0.00000
     14      21.7535      0.00000
     15      22.4106      0.00000
     16      28.2058      0.00000

 k-point    26 :       0.3000    0.2000    0.1250
  band No.  band energies     occupation 
      1       5.9178      1.00000
      2       6.2865      1.00000
      3       6.3605      1.00000
      4       6.8932      1.00000
      5       7.6268      1.00000
      6       7.9512      1.00000
      7       8.3001      1.00000
      8       9.2423      1.00000
      9       9.6285      1.00000
     10       9.8924      1.00009
     11      11.6980     -0.00000
     12      16.7211      0.00000
     13      18.8908      0.00000
     14      20.7680      0.00000
     15      22.1115      0.00000
     16      25.2370      0.00000

 k-point    27 :       0.4000    0.2000    0.1250
  band No.  band energies     occupation 
      1       5.9242      1.00000
      2       6.2348      1.00000
      3       6.4748      1.00000
      4       7.0267      1.00000
      5       7.5522      1.00000
      6       7.9685      1.00000
      7       8.4412      1.00000
      8       9.5938      1.00000
      9       9.6073      1.00000
     10       9.8251      1.00001
     11      13.4347     -0.00000
     12      14.7690     -0.00000
     13      19.8896      0.00000
     14      20.9565      0.00000
     15      21.2438      0.00000
     16      25.1386      0.00000

 k-point    28 :       0.3000    0.3000    0.1250
  band No.  band energies     occupation 
      1       6.1579      1.00000
[...]
      2       5.9270      1.00000
      3       8.3396      1.00000
      4       8.3396      1.00000
      5       9.4602      1.00000
      6       9.4602      1.00000
      7      10.3786      0.90427
      8      10.3786      0.90427
      9      11.3741     -0.00000
     10      11.3741     -0.00000
     11      11.9575     -0.00000
     12      11.9575     -0.00000
     13      23.8239      0.00000
     14      23.8239      0.00000
     15      28.2877      0.00000
     16      28.2877      0.00000

 k-point    61 :       0.4000    0.0000    0.5000
  band No.  band energies     occupation 
      1       6.4040      1.00000
      2       6.4040      1.00000
      3       8.1678      1.00000
      4       8.1678      1.00000
      5      10.2851      1.02828
      6      10.2851      1.02828
      7      10.4888      0.51294
      8      10.4888      0.51294
      9      11.7036     -0.00000
     10      11.7036     -0.00000
     11      12.3917     -0.00000
     12      12.3917     -0.00000
     13      20.4723      0.00000
     14      20.4723      0.00000
     15      29.5711      0.00000
     16      29.5711      0.00000

 k-point    62 :       0.5000    0.0000    0.5000
  band No.  band energies     occupation 
      1       6.4901      1.00000
      2       6.4901      1.00000
      3       8.1016      1.00000
      4       8.1016      1.00000
      5      10.4969      0.47841
      6      10.4969      0.47841
      7      10.8048     -0.02469
      8      10.8048     -0.02469
      9      11.8769     -0.00000
     10      11.8769     -0.00000
     11      12.8018     -0.00000
     12      12.8018     -0.00000
     13      18.9075      0.00000
     14      18.9075      0.00000
     15      29.4915      0.00000
     16      29.4915      0.00000

 k-point    63 :       0.1000    0.1000    0.5000
  band No.  band energies     occupation 
      1       4.7317      1.00000
      2       4.7317      1.00000
      3       8.6330      1.00000
      4       8.6330      1.00000
      5       9.3135      1.00000
      6       9.3135      1.00000
      7       9.9315      1.00027
      8       9.9315      1.00027
      9      11.2412     -0.00000
     10      11.2412     -0.00000
     11      11.5495     -0.00000
     12      11.5495     -0.00000
     13      26.7410      0.00000
     14      26.7410      0.00000
     15      29.6779      0.00000
     16      29.6779      0.00000

 k-point    64 :       0.2000    0.1000    0.5000
  band No.  band energies     occupation 
      1       5.6631      1.00000
      2       5.6631      1.00000
      3       8.4496      1.00000
      4       8.4496      1.00000
      5       9.1618      1.00000
      6       9.1618      1.00000
      7      10.2720      1.03260
      8      10.2720      1.03260
      9      11.3860     -0.00000
     10      11.3860     -0.00000
     11      11.8519     -0.00000
     12      11.8519     -0.00000
     13      25.9042      0.00000
     14      25.9042      0.00000
     15      27.7203      0.00000
     16      27.7203      0.00000

 k-point    65 :       0.3000    0.1000    0.5000
  band No.  band energies     occupation 
      1       6.4105      1.00000
      2       6.4105      1.00000
      3       8.3032      1.00000
      4       8.3032      1.00000
      5       9.4467      1.00000
      6       9.4467      1.00000
      7      10.4248      0.76685
      8      10.4248      0.76685
      9      11.7061     -0.00000
     10      11.7061     -0.00000
     11      12.4261     -0.00000
     12      12.4261     -0.00000
     13      22.1861      0.00000
     14      22.1861      0.00000
     15      27.5278      0.00000
     16      27.5278      0.00000

 k-point    66 :       0.4000    0.1000    0.5000
  band No.  band energies     occupation 
      1       6.6493      1.00000
      2       6.6493      1.00000
      3       8.2066      1.00000
      4       8.2066      1.00000
      5       9.8485      1.00003
      6       9.8485      1.00003
      7      10.7192     -0.03411
      8      10.7192     -0.03411
      9      11.7579     -0.00000
     10      11.7579     -0.00000
     11      13.3966     -0.00000
     12      13.3966     -0.00000
     13      19.4306      0.00000
     14      19.4306      0.00000
     15      26.8674      0.00000
     16      26.8674      0.00000

 k-point    67 :       0.2000    0.2000    0.5000
  band No.  band energies     occupation 
      1       6.4817      1.00000
      2       6.4817      1.00000
      3       8.4213      1.00000
      4       8.4213      1.00000
      5       8.9876      1.00000
      6       8.9876      1.00000
      7      10.2934      1.02431
      8      10.2934      1.02431
      9      11.7715     -0.00000
     10      11.7715     -0.00000
     11      12.5117     -0.00000
     12      12.5117     -0.00000
     13      24.1584      0.00000
     14      24.1584      0.00000
     15      25.0643      0.00000
     16      25.0643      0.00000

 k-point    68 :       0.3000    0.2000    0.5000
  band No.  band energies     occupation 
      1       7.0034      1.00000
      2       7.0034      1.00000
      3       8.3971      1.00000
      4       8.3971      1.00000
      5       9.0371      1.00000
      6       9.0371      1.00000
      7      10.3534      0.95714
      8      10.3534      0.95714
      9      11.7955     -0.00000
     10      11.7955     -0.00000
     11      13.9802     -0.00000
     12      13.9802     -0.00000
     13      20.9703      0.00000
     14      20.9703      0.00000
     15      23.7730      0.00000
     16      23.7730      0.00000

 k-point    69 :       0.4000    0.2000    0.5000
  band No.  band energies     occupation 
      1       7.1379      1.00000
      2       7.1379      1.00000
      3       8.3892      1.00000
      4       8.3892      1.00000
      5       9.0602      1.00000
      6       9.0602      1.00000
      7      10.5353      0.32089
      8      10.5353      0.32089
      9      11.7033     -0.00000
     10      11.7033     -0.00000
     11      15.1512     -0.00000
     12      15.1512     -0.00000
     13      19.1078      0.00000
     14      19.1078      0.00000
     15      23.4168      0.00000
     16      23.4168      0.00000

 k-point    70 :       0.3000    0.3000    0.5000
  band No.  band energies     occupation 
      1       7.5787      1.00000
      2       7.5787      1.00000
      3       8.2631      1.00000
      4       8.2631      1.00000
      5       8.7785      1.00000
      6       8.7785      1.00000
      7      10.3502      0.96262
      8      10.3502      0.96262
      9      11.6848     -0.00000
     10      11.6848     -0.00000
     11      16.1210      0.00000
     12      16.1210      0.00000
     13      19.5190      0.00000
     14      19.5190      0.00000
     15      21.3849      0.00000
     16      21.3849      0.00000


--------------------------------------------------------------------------------------------------------


 soft charge-density along one line, spin component           1
         0         1         2         3         4         5         6         7         8         9
 total charge-density along one line
 
 soft charge-density along one line, spin component           2
         0         1         2         3         4         5         6         7         8         9
 total charge-density along one line
 
 pseudopotential strength for first ion, spin component:           1
 -0.461  -0.000  -0.000   0.000  -0.000  -1.101  -0.000  -0.000
 -0.000  -0.471   0.000   0.000  -0.000  -0.000  -1.111   0.000
 -0.000   0.000  -0.463   0.000   0.000  -0.000   0.000  -1.103
  0.000   0.000   0.000  -0.471  -0.000   0.000   0.000   0.000
 -0.000  -0.000   0.000  -0.000  -0.461  -0.000  -0.000   0.000
 -1.101  -0.000  -0.000   0.000  -0.000  -1.681  -0.000  -0.000
 -0.000  -1.111   0.000   0.000  -0.000  -0.000  -1.690   0.000
 -0.000   0.000  -1.103   0.000   0.000  -0.000   0.000  -1.683
  0.000   0.000   0.000  -1.111  -0.000   0.000   0.000   0.000
 -0.000  -0.000   0.000  -0.000  -1.101  -0.000  -0.000   0.000
 -0.000  -0.000   0.001   0.000   0.000  -0.000  -0.000   0.001
 -0.000  -0.000   0.002   0.000   0.000  -0.000  -0.000   0.002
 -0.000   0.000   0.000  -0.000   0.001  -0.000   0.000   0.000
 -0.000   0.000   0.000  -0.000   0.000  -0.000   0.000   0.000
  0.001  -0.000   0.000   0.000  -0.000   0.001  -0.000   0.000
 -0.000   0.000  -0.000  -0.000   0.001  -0.000   0.000  -0.000
 -0.000   0.000   0.000  -0.000   0.000  -0.000   0.000   0.000
  0.001  -0.000   0.000   0.000  -0.000   0.001  -0.000   0.000
 pseudopotential strength for first ion, spin component:           2
  0.906  -0.000  -0.000   0.000  -0.000   0.209  -0.000  -0.000
 -0.000   0.914   0.000   0.000  -0.000  -0.000   0.217   0.000
 -0.000   0.000   0.892   0.000   0.000  -0.000   0.000   0.195
  0.000   0.000   0.000   0.914  -0.000   0.000   0.000   0.000
 -0.000  -0.000   0.000  -0.000   0.906  -0.000  -0.000   0.000
  0.209  -0.000  -0.000   0.000  -0.000  -0.427  -0.000  -0.000
 -0.000   0.217   0.000   0.000  -0.000  -0.000  -0.419   0.000
 -0.000   0.000   0.195   0.000   0.000  -0.000   0.000  -0.440
  0.000   0.000   0.000   0.217  -0.000   0.000   0.000   0.000
 -0.000  -0.000   0.000  -0.000   0.209  -0.000  -0.000   0.000
 -0.000  -0.000   0.000   0.000   0.000  -0.000  -0.000   0.000
 -0.000  -0.000   0.000   0.000   0.000  -0.000  -0.000   0.000
 -0.000   0.000  -0.000  -0.000   0.000  -0.000   0.000  -0.000
 -0.000   0.000   0.000  -0.000   0.000  -0.000   0.000   0.000
  0.000  -0.000   0.000   0.000  -0.000   0.000  -0.000   0.000
 -0.000   0.000  -0.000  -0.000   0.000  -0.000   0.000  -0.000
 -0.000   0.000   0.000  -0.000   0.000  -0.000   0.000   0.000
  0.000  -0.000   0.000   0.000  -0.000   0.000  -0.000   0.000
 total augmentation occupancy for first ion, spin component:           1
  2.998   0.000   0.000   0.000   0.000  -1.670   0.000   0.000   0.000   0.000  -0.000  -0.000  -0.000  -0.000  -0.044   0.000
 -0.000   3.112  -0.000  -0.000   0.000   0.000  -1.719  -0.000   0.000  -0.000  -0.000   0.000   0.000  -0.000  -0.000   0.000
  0.000   0.000   2.852  -0.000   0.000   0.000   0.000  -1.609   0.000  -0.000  -0.019   0.000   0.000  -0.000   0.000  -0.000
  0.000   0.000   0.000   3.112  -0.000  -0.000   0.000   0.000  -1.719  -0.000   0.000   0.000  -0.000   0.000   0.000   0.000
 -0.000   0.000   0.000   0.000   2.998   0.000  -0.000  -0.000   0.000  -1.670   0.000   0.000  -0.044  -0.000   0.000   0.003
 -1.670   0.000   0.000  -0.000   0.000   1.894   0.000   0.000   0.000   0.000   0.000   0.000  -0.000   0.000   0.060   0.000
  0.000  -1.719   0.000   0.000  -0.000   0.000   1.872  -0.000   0.000   0.000   0.000  -0.000   0.000   0.000  -0.000   0.000
  0.000   0.000  -1.609   0.000  -0.000  -0.000   0.000   1.918  -0.000   0.000   0.015  -0.000  -0.000   0.000   0.000  -0.000
  0.000   0.000  -0.000  -1.719   0.000  -0.000   0.000  -0.000   1.872   0.000   0.000  -0.000  -0.000   0.000   0.000  -0.000
  0.000   0.000  -0.000   0.000  -1.670  -0.000   0.000   0.000  -0.000   1.894  -0.000   0.000   0.060   0.000   0.000  -0.004
 -0.000   0.000  -0.019  -0.000  -0.000   0.000   0.000   0.015   0.000  -0.000   2.360  -0.281   0.000   0.000   0.000   0.000
 -0.000   0.000   0.000  -0.000   0.000   0.000   0.000  -0.000   0.000   0.000  -0.281   0.042  -0.000  -0.000   0.000   0.000
 -0.000   0.000   0.000   0.000  -0.044   0.000   0.000   0.000  -0.000   0.060   0.000   0.000   0.324   0.000  -0.000  -0.031
 -0.000  -0.000  -0.000  -0.000   0.000   0.000  -0.000  -0.000   0.000   0.000   0.000  -0.000  -0.000   0.329   0.000   0.000
 -0.044  -0.000   0.000   0.000  -0.000   0.060   0.000  -0.000  -0.000  -0.000   0.000  -0.000  -0.000  -0.000   0.324   0.000
 -0.000   0.000  -0.000   0.000   0.003   0.000   0.000   0.000  -0.000  -0.004   0.000   0.000  -0.031  -0.000   0.000   0.003
 -0.000   0.000  -0.000   0.000   0.000   0.000  -0.000   0.000   0.000   0.000   0.000   0.000   0.000  -0.031  -0.000   0.000
  0.003  -0.000   0.000  -0.000  -0.000  -0.004   0.000   0.000  -0.000  -0.000  -0.000  -0.000   0.000   0.000  -0.031  -0.000
 total augmentation occupancy for first ion, spin component:           2
  2.157   0.000   0.000  -0.000  -0.000  -1.043   0.000   0.000  -0.000   0.000  -0.000  -0.000   0.000   0.000   0.004  -0.000
  0.000   2.192   0.000   0.000  -0.000   0.000  -1.060  -0.000  -0.000  -0.000  -0.000   0.000   0.000  -0.000   0.000   0.000
 -0.000   0.000   2.159  -0.000   0.000   0.000   0.000  -1.043  -0.000  -0.000  -0.001  -0.000  -0.000   0.000   0.000  -0.000
 -0.000   0.000   0.000   2.192   0.000  -0.000   0.000   0.000  -1.060  -0.000   0.000  -0.000  -0.000  -0.000   0.000   0.000
 -0.000   0.000   0.000  -0.000   2.157  -0.000   0.000  -0.000   0.000  -1.043  -0.000   0.000   0.004   0.000   0.000  -0.000
 -1.043   0.000   0.000   0.000   0.000   0.308   0.000   0.000  -0.000  -0.000   0.000  -0.000   0.000   0.000  -0.008   0.000
  0.000  -1.060  -0.000   0.000   0.000  -0.000   0.325   0.000  -0.000   0.000  -0.000   0.000  -0.000   0.000  -0.000  -0.000
  0.000  -0.000  -1.043  -0.000  -0.000  -0.000   0.000   0.295   0.000  -0.000  -0.000   0.000  -0.000  -0.000   0.000  -0.000
  0.000   0.000  -0.000  -1.060  -0.000   0.000  -0.000  -0.000   0.325   0.000   0.000   0.000   0.000   0.000   0.000  -0.000
 -0.000   0.000  -0.000  -0.000  -1.043  -0.000   0.000   0.000  -0.000   0.308  -0.000  -0.000  -0.008  -0.000   0.000   0.000
  0.000   0.000  -0.001   0.000  -0.000  -0.000  -0.000  -0.000   0.000  -0.000  -0.306   0.094   0.000   0.000  -0.000  -0.000
 -0.000   0.000  -0.000   0.000   0.000   0.000   0.000   0.000  -0.000  -0.000   0.094  -0.016   0.000   0.000   0.000   0.000
  0.000   0.000   0.000  -0.000   0.004  -0.000   0.000   0.000   0.000  -0.008   0.000   0.000  -0.033   0.000  -0.000   0.005
  0.000   0.000  -0.000  -0.000  -0.000   0.000   0.000  -0.000   0.000   0.000  -0.000  -0.000  -0.000  -0.038  -0.000   0.000
  0.004   0.000   0.000  -0.000   0.000  -0.008  -0.000   0.000  -0.000  -0.000   0.000   0.000   0.000   0.000  -0.033   0.000
  0.000  -0.000   0.000  -0.000  -0.000   0.000  -0.000   0.000   0.000   0.000  -0.000   0.000   0.005   0.000   0.000  -0.001
 -0.000   0.000  -0.000   0.000   0.000  -0.000   0.000  -0.000   0.000   0.000   0.000  -0.000  -0.000   0.005  -0.000  -0.000
 -0.000   0.000   0.000  -0.000   0.000   0.000   0.000   0.000   0.000   0.000   0.000   0.000  -0.000   0.000   0.005  -0.000


------------------------ aborting loop because EDIFF is reached ----------------------------------------


    CHARGE:  cpu time      0.0204: real time      0.0205
    FORLOC:  cpu time      0.0001: real time      0.0001
    FORNL :  cpu time      0.0165: real time      0.0166
    STRESS:  cpu time      0.0491: real time      0.0492
    FORCOR:  cpu time      0.0039: real time      0.0039
    FORHAR:  cpu time      0.0004: real time      0.0004
    MIXING:  cpu time      0.0002: real time      0.0002
    OFIELD:  cpu time      0.0000: real time      0.0000

  FORCE on cell =-STRESS in cart. coord.  units (eV):
  Direction    XX          YY          ZZ          XY          YZ          ZX
  --------------------------------------------------------------------------------------
  Alpha Z    79.61870    79.61870    79.61870
  Ewald    -511.71047  -511.71047  -508.18277     0.00000     0.00000    -0.00000
  Hartree    86.26465    86.26465    87.86238     0.00000     0.00000    -0.00000
  E(xc)     -92.70342   -92.70342   -92.69583     0.00000     0.00000    -0.00000
  Local     -15.45974   -15.45950   -20.10291     0.00000     0.00000     0.00000
  n-local   -14.21851    -3.18418    -8.87825     3.32085    -0.63263     2.37878
  augment   310.87517   310.87494   310.61426    -0.00000     0.00000    -0.00000
  Kinetic   155.56573   149.36927   152.16359    -3.42129    -0.62069     0.58739
  Fock        0.00000     0.00000     0.00000     0.00000     0.00000     0.00000
  -------------------------------------------------------------------------------------
  Total       0.65106     0.65106     0.39917     0.00000    -0.00000    -0.00000
  in kB      49.01816    49.01816    30.05331     0.00000    -0.00000    -0.00000
  external pressure =       42.70 kB  Pullay stress =        0.00 kB


 VOLUME and BASIS-vectors are now :
 -----------------------------------------------------------------------------
  energy-cutoff  :      400.00
  volume of cell :       21.28
      direct lattice vectors                 reciprocal lattice vectors
     1.235999952 -2.140814714  0.000000000     0.404530760 -0.233555943  0.000000000
     1.235999952  2.140814714  0.000000000     0.404530760  0.233555943  0.000000000
     0.000000000  0.000000000  4.021144080     0.000000000  0.000000000  0.248685444

  length of vectors
     2.471999903  2.471999903  4.021144080     0.467111887  0.467111887  0.248685444


 FORCES acting on ions
    electron-ion (+dipol)            ewald-force                    non-local-force                 convergence-correction
 -----------------------------------------------------------------------------------------------
   0.100E-11 -.137E-05 -.212E-11   -.138E-13 0.239E-11 -.240E-13   -.867E-17 -.173E-16 0.239E-17   0.327E-13 -.243E-08 -.652E-13
   -.132E-11 0.137E-05 -.598E-11   0.114E-13 -.239E-11 0.240E-13   0.867E-17 0.347E-17 0.152E-17   -.145E-13 0.243E-08 0.567E-13
 -----------------------------------------------------------------------------------------------
   -.322E-12 0.321E-10 -.810E-11   -.234E-14 0.772E-15 0.000E+00   0.000E+00 -.139E-16 0.390E-17   0.182E-13 -.242E-13 -.851E-14
 
 
 POSITION                                       TOTAL-FORCE (eV/Angst)
 -----------------------------------------------------------------------------------
      1.23600      0.71360      1.00529        -0.000000     -0.000000      0.000000
      1.23600     -0.71360      3.01586         0.000000      0.000000     -0.000000
 -----------------------------------------------------------------------------------
    total drift:                               -0.000000      0.000000     -0.000000


--------------------------------------------------------------------------------------------------------



  FREE ENERGIE OF THE ION-ELECTRON SYSTEM (eV)
  ---------------------------------------------------
  free  energy   TOTEN  =       -14.06559349 eV

  energy  without entropy=      -14.06589400  energy(sigma->0) =      -14.06569366
 


--------------------------------------------------------------------------------------------------------


    POTLOK:  cpu time      0.0093: real time      0.0093


--------------------------------------------------------------------------------------------------------


     LOOP+:  cpu time      6.3375: real time      6.3807
    4ORBIT:  cpu time      0.0000: real time      0.0000

 total amount of memory used by VASP MPI-rank0    32033. kBytes
=======================================================================

   base      :      30000. kBytes
   nonl-proj :        687. kBytes
   fftplans  :        153. kBytes
   grid      :        374. kBytes
   one-center:         31. kBytes
   wavefun   :        788. kBytes
 
  
  
 General timing and accounting informations for this job:
 ========================================================
  
                  Total CPU time used (sec):        7.090
                            User time (sec):        6.631
                          System time (sec):        0.459
                         Elapsed time (sec):        8.267
  
                   Maximum memory used (kb):      221760.
                   Average memory used (kb):          N/A
  
                          Minor page faults:        20340
                          Major page faults:           59
                 Voluntary context switches:         2161
