<?xml version="1.0" encoding="ISO-8859-1"?>
<modeling>
 <generator>
  <i name="program" type="string">vasp </i>
  <i name="version" type="string">6.3.2  </i>
  <i name="subversion" type="string">27Jun22 (build Aug 12 2022 00:53:59) complex                          parallel </i>
  <i name="platform" type="string">tv2STD </i>
  <i name="date" type="string">2024 11 30 </i>
  <i name="time" type="string">15:14:14 </i>
 </generator>
 <incar>
  <i type="string" name="SYSTEM">Co fcc</i>
  <i type="int" name="ISTART">     0</i>
  <i type="string" name="PREC">Accurate      normal | accurate</i>
  <i type="string" name="ALGO">Normal     Normal, Fast, Very_Fast</i>
  <i type="logical" name="ADDGRID"> F  </i>
  <i type="int" name="ISPIN">     2</i>
  <i type="int" name="ICHARG">     2</i>
  <i type="int" name="INIWAV">     1</i>
  <i type="int" name="NELM">   100</i>
  <i type="int" name="IBRION">    -1</i>
  <i name="EDIFF">      0.00000100</i>
  <i name="EDIFFG">     -0.02000000</i>
  <i type="int" name="NSW">     0</i>
  <i type="int" name="ISIF">     2</i>
  <i type="int" name="ISYM">     1</i>
  <i name="ENCUT">    400.00000000</i>
  <v name="MAGMOM">      3.00000000      3.00000000</v>
  <i type="logical" name="LREAL"> F  </i>
  <i type="int" name="ISMEAR">     1</i>
  <i name="SIGMA">      0.20000000</i>
  <i type="int" name="NWRITE">     2</i>
  <i type="logical" name="LWAVE"> F  </i>
  <i type="logical" name="LCHARG"> F  </i>
 </incar>
 <primitive_cell>
  <structure name="primitive_cell" >
   <crystal>
    <varray name="basis" >
     <v>       2.47000000       0.00000000       0.00000000 </v>
     <v>      -1.23500000       2.13908275       0.00000000 </v>
     <v>       0.00000000       0.00000000       8.09000000 </v>
    </varray>
    <i name="volume">     42.74379318 </i>
    <varray name="rec_basis" >
     <v>       0.40485830       0.23374505       0.00000000 </v>
     <v>       0.00000000       0.46749010       0.00000000 </v>
     <v>       0.00000000       0.00000000       0.12360939 </v>
    </varray>
   </crystal>
   <varray name="positions" >
    <v>       0.00000000       0.00000000       0.00000000 </v>
    <v>       0.33333333       0.66666667       0.50000000 </v>
   </varray>
  </structure>
  <varray name="primitive_index" >
   <v type="int" >        1 </v>
   <v type="int" >        2 </v>
  </varray>
 </primitive_cell>
 <kpoints>
  <generation param="Gamma">
   <v type="int" name="divisions">       6        6        4 </v>
   <v name="usershift">      0.00000000       0.00000000       0.00000000 </v>
   <v name="genvec1">      0.16666667       0.00000000       0.00000000 </v>
   <v name="genvec2">      0.00000000       0.16666667       0.00000000 </v>
   <v name="genvec3">      0.00000000       0.00000000       0.25000000 </v>
   <v name="shift">      0.00000000       0.00000000       0.00000000 </v>
  </generation>
  <varray name="kpointlist" >
   <v>       0.00000000       0.00000000       0.00000000 </v>
   <v>       0.16666667      -0.00000000       0.00000000 </v>
   <v>       0.33333333      -0.00000000       0.00000000 </v>
   <v>       0.50000000      -0.00000000       0.00000000 </v>
   <v>       0.16666667       0.16666667       0.00000000 </v>
   <v>       0.33333333       0.16666667       0.00000000 </v>
   <v>       0.33333333       0.33333333       0.00000000 </v>
   <v>       0.00000000       0.00000000       0.25000000 </v>
   <v>       0.16666667      -0.00000000       0.25000000 </v>
   <v>       0.33333333      -0.00000000       0.25000000 </v>
   <v>       0.50000000      -0.00000000       0.25000000 </v>
   <v>       0.16666667       0.16666667       0.25000000 </v>
   <v>       0.33333333       0.16666667       0.25000000 </v>
   <v>       0.33333333       0.33333333       0.25000000 </v>
   <v>       0.00000000       0.00000000       0.50000000 </v>
   <v>       0.16666667      -0.00000000       0.50000000 </v>
   <v>       0.33333333      -0.00000000       0.50000000 </v>
   <v>       0.50000000      -0.00000000       0.50000000 </v>
   <v>       0.16666667       0.16666667       0.50000000 </v>
   <v>       0.33333333       0.16666667       0.50000000 </v>
   <v>       0.33333333       0.33333333       0.50000000 </v>
  </varray>
  <varray name="weights" >
   <v>       0.00694444 </v>
   <v>       0.04166667 </v>
   <v>       0.04166667 </v>
   <v>       0.02083333 </v>
   <v>       0.04166667 </v>
   <v>       0.08333333 </v>
   <v>       0.01388889 </v>
   <v>       0.01388889 </v>
   <v>       0.08333333 </v>
   <v>       0.08333333 </v>
   <v>       0.04166667 </v>
   <v>       0.08333333 </v>
   <v>       0.16666667 </v>
   <v>       0.02777778 </v>
   <v>       0.00694444 </v>
   <v>       0.04166667 </v>
   <v>       0.04166667 </v>
   <v>       0.02083333 </v>
   <v>       0.04166667 </v>
   <v>       0.08333333 </v>
   <v>       0.01388889 </v>
  </varray>
 </kpoints>
 <parameters>
  <separator name="general" >
   <i type="string" name="SYSTEM">Co fcc</i>
   <i type="logical" name="LCOMPAT"> F  </i>
  </separator>
  <separator name="electronic" >
   <i type="string" name="PREC">accura</i>
   <i name="ENMAX">    400.00000000</i>
   <i name="ENAUG">    477.81800000</i>
   <i name="EDIFF">      0.00000100</i>
   <i type="int" name="IALGO">    38</i>
   <i type="int" name="IWAVPR">    10</i>
   <i type="int" name="NBANDS">    16</i>
   <i type="int" name="NBANDSLOW">    -1</i>
   <i type="int" name="NBANDSHIGH">    -1</i>
   <i name="NELECT">     18.00000000</i>
   <i type="int" name="TURBO">     0</i>
   <i type="int" name="IRESTART">     0</i>
   <i type="int" name="NREBOOT">     0</i>
   <i type="int" name="NMIN">     0</i>
   <i name="EREF">      0.00000000</i>
   <separator name="electronic smearing" >
    <i type="int" name="ISMEAR">     1</i>
    <i name="SIGMA">      0.20000000</i>
    <i name="KSPACING">      0.50000000</i>
    <i type="logical" name="KGAMMA"> T  </i>
    <i type="logical" name="KBLOWUP"> T  </i>
   </separator>
   <separator name="electronic projectors" >
    <i type="logical" name="LREAL"> F  </i>
    <v name="ROPT">      0.00000000</v>
    <i type="int" name="LMAXPAW">  -100</i>
    <i type="int" name="LMAXMIX">     2</i>
    <i type="logical" name="NLSPLINE"> F  </i>
   </separator>
   <separator name="electronic startup" >
    <i type="int" name="ISTART">     0</i>
    <i type="int" name="ICHARG">     2</i>
    <i type="int" name="INIWAV">     1</i>
   </separator>
   <separator name="electronic spin" >
    <i type="int" name="ISPIN">     2</i>
    <i type="logical" name="LNONCOLLINEAR"> F  </i>
    <v name="MAGMOM">      3.00000000      3.00000000</v>
    <i name="NUPDOWN">     -1.00000000</i>
    <i type="logical" name="LSORBIT"> F  </i>
    <v name="SAXIS">      0.00000000      0.00000000      1.00000000</v>
    <i type="logical" name="LSPIRAL"> F  </i>
    <v name="QSPIRAL">      0.00000000      0.00000000      0.00000000</v>
    <i type="logical" name="LZEROZ"> F  </i>
   </separator>
   <separator name="electronic exchange-correlation" >
    <i type="logical" name="LASPH"> F  </i>
    <i type="logical" name="LMETAGGA"> F  </i>
   </separator>
   <separator name="electronic convergence" >
    <i type="int" name="NELM">   100</i>
    <i type="int" name="NELMDL">    -5</i>
    <i type="int" name="NELMIN">     2</i>
    <i name="ENINI">    400.00000000</i>
    <separator name="electronic convergence detail" >
     <i type="logical" name="LDIAG"> T  </i>
     <i type="logical" name="LSUBROT"> F  </i>
     <i name="WEIMIN">      0.00000000</i>
     <i name="EBREAK">      0.00000002</i>
     <i name="DEPER">      0.30000000</i>
     <i type="int" name="NRMM">     4</i>
     <i name="TIME">      0.40000000</i>
    </separator>
   </separator>
   <separator name="electronic mixer" >
    <i name="AMIX">      0.40000000</i>
    <i name="BMIX">      1.00000000</i>
    <i name="AMIN">      0.10000000</i>
    <i name="AMIX_MAG">      1.60000000</i>
    <i name="BMIX_MAG">      1.00000000</i>
    <separator name="electronic mixer details" >
     <i type="int" name="IMIX">     4</i>
     <i type="logical" name="MIXFIRST"> F  </i>
     <i type="int" name="MAXMIX">   -45</i>
     <i name="WC">    100.00000000</i>
     <i type="int" name="INIMIX">     1</i>
     <i type="int" name="MIXPRE">     1</i>
     <i type="int" name="MREMOVE">     5</i>
    </separator>
   </separator>
   <separator name="electronic dipolcorrection" >
    <i type="logical" name="LDIPOL"> F  </i>
    <i type="logical" name="LMONO"> F  </i>
    <i type="int" name="IDIPOL">     0</i>
    <i name="EPSILON">      1.00000000</i>
    <v name="DIPOL">   -100.00000000   -100.00000000   -100.00000000</v>
    <i name="EFIELD">      0.00000000</i>
   </separator>
  </separator>
  <separator name="grids" >
   <i type="int" name="NGX">    16</i>
   <i type="int" name="NGY">    16</i>
   <i type="int" name="NGZ">    54</i>
   <i type="int" name="NGXF">    32</i>
   <i type="int" name="NGYF">    32</i>
   <i type="int" name="NGZF">   108</i>
   <i type="logical" name="ADDGRID"> F  </i>
  </separator>
  <separator name="ionic" >
   <i type="int" name="NSW">     0</i>
   <i type="int" name="IBRION">    -1</i>
   <i type="int" name="MDALGO">     0</i>
   <i type="int" name="ISIF">     2</i>
   <i name="PSTRESS">      0.00000000</i>
   <i name="EDIFFG">     -0.02000000</i>
   <i type="int" name="NFREE">     0</i>
   <i name="POTIM">      0.50000000</i>
   <i name="SMASS">     -3.00000000</i>
   <i name="SCALEE">      1.00000000</i>
  </separator>
  <separator name="ionic md" >
   <i name="TEBEG">      0.00010000</i>
   <i name="TEEND">      0.00010000</i>
   <i type="int" name="NBLOCK">     1</i>
   <i type="int" name="KBLOCK">     1</i>
   <i type="int" name="NPACO">   256</i>
   <i name="APACO">     10.00000000</i>
  </separator>
  <separator name="symmetry" >
   <i type="int" name="ISYM">     1</i>
   <i name="SYMPREC">      0.00001000</i>
  </separator>
  <separator name="dos" >
   <i type="int" name="LORBIT">     0</i>
   <v name="RWIGS">     -1.00000000</v>
   <i type="int" name="NEDOS">   301</i>
   <i name="EMIN">     10.00000000</i>
   <i name="EMAX">    -10.00000000</i>
   <i name="EFERMI">      0.00000000</i>
  </separator>
  <separator name="writing" >
   <i type="int" name="NWRITE">     2</i>
   <i type="logical" name="LWAVE"> F  </i>
   <i type="logical" name="LDOWNSAMPLE"> F  </i>
   <i type="logical" name="LCHARG"> F  </i>
   <i type="logical" name="LPARD"> F  </i>
   <i type="logical" name="LVTOT"> F  </i>
   <i type="logical" name="LVHAR"> F  </i>
   <i type="logical" name="LELF"> F  </i>
   <i type="logical" name="LOPTICS"> F  </i>
   <v name="STM">      0.00000000      0.00000000      0.00000000      0.00000000      0.00000000      0.00000000      0.00000000</v>
  </separator>
  <separator name="performance" >
   <i type="int" name="NPAR">     4</i>
   <i type="int" name="NSIM">     4</i>
   <i type="int" name="NBLK">    -1</i>
   <i type="logical" name="LPLANE"> T  </i>
   <i type="logical" name="LSCALAPACK"> T  </i>
   <i type="logical" name="LSCAAWARE"> F  </i>
   <i type="logical" name="LSCALU"> F  </i>
   <i type="logical" name="LASYNC"> F  </i>
   <i type="logical" name="LORBITALREAL"> F  </i>
  </separator>
  <separator name="miscellaneous" >
   <i type="int" name="IDIOT">     3</i>
   <i type="int" name="PHON_NSTRUCT">    -1</i>
   <i type="logical" name="LMUSIC"> F  </i>
   <v name="POMASS">     58.93300000</v>
   <v name="DARWINR">      0.00000000</v>
   <v name="DARWINV">      1.00000000</v>
   <i type="logical" name="LCORR"> T  </i>
  </separator>
  <i type="logical" name="GGA_COMPAT"> T  </i>
  <i type="logical" name="LBERRY"> F  </i>
  <i type="int" name="ICORELEVEL">     0</i>
  <i type="logical" name="LDAU"> F  </i>
  <i type="int" name="I_CONSTRAINED_M">     0</i>
  <separator name="electronic exchange-correlation" >
   <i type="string" name="GGA">--</i>
   <i type="int" name="VOSKOWN">     0</i>
   <i type="logical" name="LHFCALC"> F  </i>
   <i type="string" name="PRECFOCK"></i>
   <i type="logical" name="LSYMGRAD"> F  </i>
   <i type="logical" name="LHFONE"> F  </i>
   <i type="logical" name="LRHFCALC"> F  </i>
   <i type="logical" name="LTHOMAS"> F  </i>
   <i type="logical" name="LMODELHF"> F  </i>
   <i type="logical" name="LFOCKACE"> F  </i>
   <i name="ENCUT4O">     -1.00000000</i>
   <i type="int" name="EXXOEP">     0</i>
   <i type="int" name="FOURORBIT">     0</i>
   <i name="AEXX">      0.00000000</i>
   <i name="HFALPHA">      0.00000000</i>
   <i name="MCALPHA">      0.00000000</i>
   <i name="ALDAX">      1.00000000</i>
   <i name="AGGAX">      1.00000000</i>
   <i name="ALDAC">      1.00000000</i>
   <i name="AGGAC">      1.00000000</i>
   <i type="int" name="NKREDX">     1</i>
   <i type="int" name="NKREDY">     1</i>
   <i type="int" name="NKREDZ">     1</i>
   <i type="logical" name="SHIFTRED"> F  </i>
   <i type="logical" name="ODDONLY"> F  </i>
   <i type="logical" name="EVENONLY"> F  </i>
   <i type="int" name="LMAXFOCK">     0</i>
   <i type="int" name="NMAXFOCKAE">     0</i>
   <i type="logical" name="LFOCKAEDFT"> F  </i>
   <i name="HFSCREEN">      0.00000000</i>
   <i name="HFSCREENC">      0.00000000</i>
   <i type="int" name="NBANDSGWLOW">     0</i>
  </separator>
  <separator name="vdW DFT" >
   <i type="logical" name="LUSE_VDW"> F  </i>
   <i name="Zab_VDW">     -0.84910000</i>
   <i name="PARAM1">      0.12340000</i>
   <i name="PARAM2">      1.00000000</i>
   <i name="PARAM3">      0.00000000</i>
  </separator>
  <separator name="model GW" >
   <i type="int" name="MODEL_GW">     0</i>
   <i name="MODEL_EPS0">     12.82313795</i>
   <i name="MODEL_ALPHA">      1.00000000</i>
  </separator>
  <separator name="linear response parameters" >
   <i type="logical" name="LEPSILON"> F  </i>
   <i type="logical" name="LRPA"> F  </i>
   <i type="logical" name="LNABLA"> F  </i>
   <i type="logical" name="LVEL"> F  </i>
   <i name="CSHIFT">      0.10000000</i>
   <i name="OMEGAMAX">     -1.00000000</i>
   <i name="DEG_THRESHOLD">      0.00200000</i>
   <i name="RTIME">     -0.10000000</i>
   <i name="WPLASMAI">      0.00000000</i>
   <v name="DFIELD">      0.00000000      0.00000000      0.00000000</v>
   <v name="WPLASMA">      0.00000000      0.00000000      0.00000000      0.00000000      0.00000000      0.00000000      0.00000000      0.00000000      0.00000000</v>
  </separator>
  <separator name="orbital magnetization" >
   <i type="logical" name="NUCIND"> F  </i>
   <v name="MAGPOS">      0.00000000      0.00000000      0.00000000</v>
   <i type="logical" name="LNICSALL"> T  </i>
   <i type="logical" name="ORBITALMAG"> F  </i>
   <i type="logical" name="LMAGBLOCH"> F  </i>
   <i type="logical" name="LCHIMAG"> F  </i>
   <i type="logical" name="LGAUGE"> T  </i>
   <i type="int" name="MAGATOM">     0</i>
   <v name="MAGDIPOL">      0.00000000      0.00000000      0.00000000</v>
   <v name="AVECCONST">      0.00000000      0.00000000      0.00000000</v>
  </separator>
  <separator name="response functions" >
   <i type="logical" name="LFINITE_TEMPERATURE"> F  </i>
   <i type="logical" name="LADDER"> F  </i>
   <i type="logical" name="LRPAFORCE"> F  </i>
   <i type="logical" name="LFXC"> F  </i>
   <i type="logical" name="LHARTREE"> T  </i>
   <i type="int" name="IBSE">     0</i>
   <v type="int" name="KPOINT">    -1     0     0     0</v>
   <i type="logical" name="LTCTC"> F  </i>
   <i type="logical" name="LTCTE"> F  </i>
   <i type="logical" name="LTETE"> F  </i>
   <i type="logical" name="LTRIPLET"> F  </i>
   <i type="logical" name="LFXCEPS"> F  </i>
   <i type="logical" name="LFXHEG"> F  </i>
   <i type="int" name="NATURALO">     2</i>
   <i type="logical" name="LHOLEGF"> F  </i>
   <i type="logical" name="L2ORDER"> F  </i>
   <i type="logical" name="LDMP1"> F  </i>
   <i type="logical" name="LMP2LT"> F  </i>
   <i type="logical" name="LSMP2LT"> F  </i>
   <i type="logical" name="LGWLF"> F  </i>
   <i name="ENCUTGW">     -2.00000000</i>
   <i name="ENCUTGWSOFT">     -2.00000000</i>
   <i name="ENCUTLF">     -1.00000000</i>
   <i type="logical" name="LESF_SPLINES"> F  </i>
   <i type="int" name="LMAXMP2">    -1</i>
   <i name="SCISSOR">      0.00000000</i>
   <i type="int" name="NOMEGA">     0</i>
   <i type="int" name="NOMEGAR">     0</i>
   <i type="int" name="NBANDSGW">    -1</i>
   <i type="int" name="NBANDSO">    -1</i>
   <i type="int" name="NBANDSV">    -1</i>
   <i type="int" name="NELMGW">     1</i>
   <i type="int" name="NELMHF">     1</i>
   <i type="int" name="DIM">     3</i>
   <i type="int" name="IESPILON">     4</i>
   <i type="int" name="ANTIRES">     0</i>
   <i name="OMEGAMAX">    -30.00000000</i>
   <i name="OMEGAMIN">    -30.00000000</i>
   <i name="OMEGATL">   -200.00000000</i>
   <i type="int" name="OMEGAGRID">     0</i>
   <i name="CSHIFT">     -0.10000000</i>
   <i type="logical" name="LSELFENERGY"> F  </i>
   <i type="logical" name="LSPECTRAL"> F  </i>
   <i type="logical" name="LSPECTRALGW"> F  </i>
   <i type="logical" name="LSINGLES"> F  </i>
   <i type="logical" name="LFERMIGW"> F  </i>
   <i type="logical" name="ODDONLYGW"> F  </i>
   <i type="logical" name="EVENONLYGW"> F  </i>
   <i type="int" name="NKREDLFX">     1</i>
   <i type="int" name="NKREDLFY">     1</i>
   <i type="int" name="NKREDLFZ">     1</i>
   <i type="int" name="MAXMEM">  2800</i>
   <i type="int" name="TELESCOPE">     0</i>
   <i type="int" name="NTAUPAR">    -1</i>
   <i type="int" name="NOMEGAPAR">    -1</i>
   <i name="DAMP_NEWTON">      0.80000001</i>
   <i name="LAMBDA">      1.00000000</i>
  </separator>
  <separator name="External order field" >
   <i name="OFIELD_KAPPA">      0.00000000</i>
   <v name="OFIELD_K">      0.00000000      0.00000000      0.00000000</v>
   <i name="OFIELD_Q6_NEAR">      0.00000000</i>
   <i name="OFIELD_Q6_FAR">      0.00000000</i>
   <i name="OFIELD_A">      0.00000000</i>
  </separator>
  <separator name="optional k-points parameters" >
   <i type="int" name="KPOINTS_OPT_MODE">     1</i>
   <i type="logical" name="LKPOINTS_OPT"> F  </i>
  </separator>
 </parameters>
 <atominfo>
  <atoms>       2 </atoms>
  <types>       1 </types>
  <array name="atoms" >
   <dimension dim="1">ion</dimension>
   <field type="string">element</field>
   <field type="int">atomtype</field>
   <set>
    <rc><c>Co</c><c>   1</c></rc>
    <rc><c>Co</c><c>   1</c></rc>
   </set>
  </array>
  <array name="atomtypes" >
   <dimension dim="1">type</dimension>
   <field type="int">atomspertype</field>
   <field type="string">element</field>
   <field>mass</field>
   <field>valence</field>
   <field type="string">pseudopotential</field>
   <set>
    <rc><c>   2</c><c>Co</c><c>     58.93300000</c><c>      9.00000000</c><c>  PAW_PBE Co 02Aug2007                  </c></rc>
   </set>
  </array>
 </atominfo>
 <structure name="initialpos" >
  <crystal>
   <varray name="basis" >
    <v>       2.47000000       0.00000000       0.00000000 </v>
    <v>      -1.23500000       2.13908275       0.00000000 </v>
    <v>       0.00000000       0.00000000       8.09000000 </v>
   </varray>
   <i name="volume">     42.74379318 </i>
   <varray name="rec_basis" >
    <v>       0.40485830       0.23374505       0.00000000 </v>
    <v>       0.00000000       0.46749010       0.00000000 </v>
    <v>       0.00000000       0.00000000       0.12360939 </v>
   </varray>
  </crystal>
  <varray name="positions" >
   <v>       0.00000000       0.00000000       0.00000000 </v>
   <v>       0.33333333       0.66666667       0.50000000 </v>
  </varray>
 </structure>
 <calculation>
  <scstep>
   <time name="dav">    0.14    0.14</time>
   <time name="total">    0.16    0.16</time>
   <energy>
    <i name="alphaZ">     39.63868225 </i>
    <i name="ewald">  -1054.56880693 </i>
    <i name="hartreedc">   -595.60964206 </i>
    <i name="XCdc">     33.36921587 </i>
    <i name="pawpsdc">   1439.98163886 </i>
    <i name="pawaedc">  -1545.88690193 </i>
    <i name="eentropy">     -0.00116382 </i>
    <i name="bandstr">    133.27900608 </i>
    <i name="atom">   1626.71546820 </i>
    <i name="e_fr_energy">     76.91749652 </i>
    <i name="e_wo_entrp">     76.91866034 </i>
    <i name="e_0_energy">     76.91788446 </i>
   </energy>
  </scstep>
  <scstep>
   <time name="dav">    0.14    0.14</time>
   <time name="total">    0.14    0.14</time>
   <energy>
    <i name="e_fr_energy">    -10.65868052 </i>
    <i name="e_wo_entrp">    -10.65183175 </i>
    <i name="e_0_energy">    -10.65639759 </i>
   </energy>
  </scstep>
  <scstep>
   <time name="dav">    0.16    0.16</time>
   <time name="total">    0.16    0.16</time>
   <energy>
    <i name="e_fr_energy">    -12.72539220 </i>
    <i name="e_wo_entrp">    -12.71759306 </i>
    <i name="e_0_energy">    -12.72279249 </i>
   </energy>
  </scstep>
  <scstep>
   <time name="dav">    0.17    0.17</time>
   <time name="total">    0.17    0.17</time>
   <energy>
    <i name="e_fr_energy">    -12.75928725 </i>
    <i name="e_wo_entrp">    -12.75153050 </i>
    <i name="e_0_energy">    -12.75670167 </i>
   </energy>
  </scstep>
  <scstep>
   <time name="dav">    0.15    0.15</time>
   <time name="total">    0.18    0.18</time>
   <energy>
    <i name="e_fr_energy">    -12.75952468 </i>
    <i name="e_wo_entrp">    -12.75176611 </i>
    <i name="e_0_energy">    -12.75693849 </i>
   </energy>
  </scstep>
  <scstep>
   <time name="dav">    0.14    0.14</time>
   <time name="total">    0.18    0.18</time>
   <energy>
    <i name="e_fr_energy">    -12.67400093 </i>
    <i name="e_wo_entrp">    -12.68204858 </i>
    <i name="e_0_energy">    -12.67668348 </i>
   </energy>
  </scstep>
  <scstep>
   <time name="dav">    0.15    0.15</time>
   <time name="total">    0.18    0.18</time>
   <energy>
    <i name="e_fr_energy">    -11.19052312 </i>
    <i name="e_wo_entrp">    -11.18243157 </i>
    <i name="e_0_energy">    -11.18782594 </i>
   </energy>
  </scstep>
  <scstep>
   <time name="dav">    0.16    0.16</time>
   <time name="total">    0.19    0.19</time>
   <energy>
    <i name="e_fr_energy">    -11.21885296 </i>
    <i name="e_wo_entrp">    -11.20778411 </i>
    <i name="e_0_energy">    -11.21516334 </i>
   </energy>
  </scstep>
  <scstep>
   <time name="dav">    0.18    0.18</time>
   <time name="total">    0.22    0.22</time>
   <energy>
    <i name="e_fr_energy">    -11.23944217 </i>
    <i name="e_wo_entrp">    -11.23290193 </i>
    <i name="e_0_energy">    -11.23726209 </i>
   </energy>
  </scstep>
  <scstep>
   <time name="dav">    0.15    0.15</time>
   <time name="total">    0.19    0.19</time>
   <energy>
    <i name="e_fr_energy">    -11.24184296 </i>
    <i name="e_wo_entrp">    -11.23906017 </i>
    <i name="e_0_energy">    -11.24091537 </i>
   </energy>
  </scstep>
  <scstep>
   <time name="dav">    0.15    0.15</time>
   <time name="total">    0.19    0.19</time>
   <energy>
    <i name="e_fr_energy">    -11.23794110 </i>
    <i name="e_wo_entrp">    -11.23244360 </i>
    <i name="e_0_energy">    -11.23610860 </i>
   </energy>
  </scstep>
  <scstep>
   <time name="dav">    0.15    0.15</time>
   <time name="total">    0.19    0.19</time>
   <energy>
    <i name="e_fr_energy">    -11.23740944 </i>
    <i name="e_wo_entrp">    -11.23210906 </i>
    <i name="e_0_energy">    -11.23564264 </i>
   </energy>
  </scstep>
  <scstep>
   <time name="dav">    0.15    0.15</time>
   <time name="total">    0.18    0.19</time>
   <energy>
    <i name="e_fr_energy">    -11.23770277 </i>
    <i name="e_wo_entrp">    -11.23273625 </i>
    <i name="e_0_energy">    -11.23604726 </i>
   </energy>
  </scstep>
  <scstep>
   <time name="dav">    0.15    0.15</time>
   <time name="total">    0.19    0.19</time>
   <energy>
    <i name="e_fr_energy">    -11.23782572 </i>
    <i name="e_wo_entrp">    -11.23305052 </i>
    <i name="e_0_energy">    -11.23623399 </i>
   </energy>
  </scstep>
  <scstep>
   <time name="dav">    0.14    0.15</time>
   <time name="total">    0.18    0.18</time>
   <energy>
    <i name="e_fr_energy">    -11.23783212 </i>
    <i name="e_wo_entrp">    -11.23311682 </i>
    <i name="e_0_energy">    -11.23626035 </i>
   </energy>
  </scstep>
  <scstep>
   <time name="dav">    0.14    0.14</time>
   <time name="total">    0.18    0.18</time>
   <energy>
    <i name="e_fr_energy">    -11.23784195 </i>
    <i name="e_wo_entrp">    -11.23324514 </i>
    <i name="e_0_energy">    -11.23630968 </i>
   </energy>
  </scstep>
  <scstep>
   <time name="dav">    0.13    0.13</time>
   <time name="total">    0.14    0.14</time>
   <energy>
    <i name="alphaZ">     39.63868225 </i>
    <i name="ewald">  -1054.56880693 </i>
    <i name="hartreedc">   -566.50902921 </i>
    <i name="XCdc">     31.45178952 </i>
    <i name="pawpsdc">   1612.53947998 </i>
    <i name="pawaedc">  -1718.48417053 </i>
    <i name="eentropy">     -0.00456092 </i>
    <i name="bandstr">     17.98330487 </i>
    <i name="atom">   1626.71546820 </i>
    <i name="e_fr_energy">    -11.23784277 </i>
    <i name="e_wo_entrp">    -11.23328185 </i>
    <i name="e_0_energy">    -11.23632246 </i>
   </energy>
  </scstep>
  <structure>
   <crystal>
    <varray name="basis" >
     <v>       2.47000000       0.00000000       0.00000000 </v>
     <v>      -1.23500000       2.13908275       0.00000000 </v>
     <v>       0.00000000       0.00000000       8.09000000 </v>
    </varray>
    <i name="volume">     42.74379318 </i>
    <varray name="rec_basis" >
     <v>       0.40485830       0.23374505       0.00000000 </v>
     <v>       0.00000000       0.46749010       0.00000000 </v>
     <v>       0.00000000       0.00000000       0.12360939 </v>
    </varray>
   </crystal>
   <varray name="positions" >
    <v>       0.00000000       0.00000000       0.00000000 </v>
    <v>       0.33333333       0.66666667       0.50000000 </v>
   </varray>
  </structure>
  <varray name="forces" >
   <v>      -0.00000000       0.00000000       0.00000000 </v>
   <v>       0.00000000       0.00000000       0.00000000 </v>
  </varray>
  <varray name="stress" >
   <v>    -109.97997969       0.00000000       0.00000000 </v>
   <v>       0.00000000    -109.97997969       0.00000000 </v>
   <v>      -0.00000000      -0.00000000     -50.57313814 </v>
  </varray>
  <energy>
   <i name="e_fr_energy">    -11.23784277 </i>
   <i name="e_wo_entrp">    -11.23328185 </i>
   <i name="e_0_energy">    -11.23632246 </i>
  </energy>
  <time name="totalsc">    3.11    3.13</time>
  <eigenvalues>
   <array>
    <dimension dim="1">band</dimension>
    <dimension dim="2">kpoint</dimension>
    <dimension dim="3">spin</dimension>
    <field>eigene</field>
    <field>occ</field>
    <set>
     <set comment="spin 1">
      <set comment="kpoint 1">
       <r>   -3.0055    1.0000 </r>
       <r>   -2.5456    1.0000 </r>
       <r>   -0.2934    1.0000 </r>
       <r>    0.7173    1.0000 </r>
       <r>    0.7173    1.0000 </r>
       <r>    0.7182    1.0000 </r>
       <r>    0.7182    1.0000 </r>
       <r>    0.7299    1.0000 </r>
       <r>    1.4234    1.0000 </r>
       <r>    1.4234    1.0000 </r>
       <r>    1.4262    1.0000 </r>
       <r>    1.4262    1.0000 </r>
       <r>    2.1356    1.0000 </r>
       <r>    6.4119   -0.0000 </r>
       <r>   10.8436    0.0000 </r>
       <r>   18.7997    0.0000 </r>
      </set>
      <set comment="kpoint 2">
       <r>   -2.0401    1.0000 </r>
       <r>   -1.6495    1.0000 </r>
       <r>   -0.0017    1.0000 </r>
       <r>    0.4786    1.0000 </r>
       <r>    0.4880    1.0000 </r>
       <r>    0.5224    1.0000 </r>
       <r>    0.8023    1.0000 </r>
       <r>    0.9944    1.0000 </r>
       <r>    1.1270    1.0000 </r>
       <r>    1.1279    1.0000 </r>
       <r>    1.3427    1.0000 </r>
       <r>    1.3488    1.0000 </r>
       <r>    3.7271   -0.0000 </r>
       <r>    7.8467   -0.0000 </r>
       <r>   11.4694    0.0000 </r>
       <r>   19.9421    0.0000 </r>
      </set>
      <set comment="kpoint 3">
       <r>   -0.9046    1.0000 </r>
       <r>   -0.8555    1.0000 </r>
       <r>   -0.2001    1.0000 </r>
       <r>   -0.0402    1.0000 </r>
       <r>    0.6198    1.0000 </r>
       <r>    0.7844    1.0000 </r>
       <r>    1.1849    1.0000 </r>
       <r>    1.1953    1.0000 </r>
       <r>    1.7697    1.0000 </r>
       <r>    2.0250    1.0000 </r>
       <r>    2.0257    1.0000 </r>
       <r>    2.7017    1.0234 </r>
       <r>    6.6991   -0.0000 </r>
       <r>   11.0725    0.0000 </r>
       <r>   13.0111    0.0000 </r>
       <r>   14.2158    0.0000 </r>
      </set>
      <set comment="kpoint 4">
       <r>   -1.0439    1.0000 </r>
       <r>   -1.0408    1.0000 </r>
       <r>   -0.4423    1.0000 </r>
       <r>   -0.3761    1.0000 </r>
       <r>    0.9355    1.0000 </r>
       <r>    1.0301    1.0000 </r>
       <r>    1.1071    1.0000 </r>
       <r>    1.1197    1.0000 </r>
       <r>    2.5239    1.0013 </r>
       <r>    2.5241    1.0013 </r>
       <r>    5.2369   -0.0000 </r>
       <r>    5.5904   -0.0000 </r>
       <r>    9.2186    0.0000 </r>
       <r>   10.0373    0.0000 </r>
       <r>   10.4407    0.0000 </r>
       <r>   11.5769    0.0000 </r>
      </set>
      <set comment="kpoint 5">
       <r>   -0.5303    1.0000 </r>
       <r>   -0.3939    1.0000 </r>
       <r>    0.0148    1.0000 </r>
       <r>    0.1058    1.0000 </r>
       <r>    0.1098    1.0000 </r>
       <r>    0.2234    1.0000 </r>
       <r>    0.5149    1.0000 </r>
       <r>    1.1286    1.0000 </r>
       <r>    1.1363    1.0000 </r>
       <r>    1.2203    1.0000 </r>
       <r>    2.1870    1.0000 </r>
       <r>    2.5765    1.0037 </r>
       <r>    5.8021   -0.0000 </r>
       <r>   10.1493    0.0000 </r>
       <r>   12.7758    0.0000 </r>
       <r>   18.2681    0.0000 </r>
      </set>
      <set comment="kpoint 6">
       <r>   -0.4743    1.0000 </r>
       <r>   -0.4678    1.0000 </r>
       <r>   -0.2412    1.0000 </r>
       <r>   -0.1529    1.0000 </r>
       <r>    0.8269    1.0000 </r>
       <r>    0.8394    1.0000 </r>
       <r>    0.8528    1.0000 </r>
       <r>    0.8764    1.0000 </r>
       <r>    1.3601    1.0000 </r>
       <r>    1.5222    1.0000 </r>
       <r>    5.1581   -0.0000 </r>
       <r>    5.9776   -0.0000 </r>
       <r>    9.4004    0.0000 </r>
       <r>   11.3241    0.0000 </r>
       <r>   12.3486    0.0000 </r>
       <r>   13.4042    0.0000 </r>
      </set>
      <set comment="kpoint 7">
       <r>    0.1745    1.0000 </r>
       <r>    0.2112    1.0000 </r>
       <r>    0.2112    1.0000 </r>
       <r>    0.2502    1.0000 </r>
       <r>    0.4441    1.0000 </r>
       <r>    0.4594    1.0000 </r>
       <r>    0.4594    1.0000 </r>
       <r>    0.4805    1.0000 </r>
       <r>    0.9645    1.0000 </r>
       <r>    0.9645    1.0000 </r>
       <r>    9.6826    0.0000 </r>
       <r>    9.9376    0.0000 </r>
       <r>    9.9376    0.0000 </r>
       <r>   10.5888    0.0000 </r>
       <r>   12.0410    0.0000 </r>
       <r>   12.0410    0.0000 </r>
      </set>
      <set comment="kpoint 8">
       <r>   -2.9408    1.0000 </r>
       <r>   -2.6148    1.0000 </r>
       <r>   -0.2281    1.0000 </r>
       <r>    0.3880    1.0000 </r>
       <r>    0.7174    1.0000 </r>
       <r>    0.7174    1.0000 </r>
       <r>    0.7180    1.0000 </r>
       <r>    0.7180    1.0000 </r>
       <r>    1.4238    1.0000 </r>
       <r>    1.4238    1.0000 </r>
       <r>    1.4257    1.0000 </r>
       <r>    1.4257    1.0000 </r>
       <r>    2.8061    1.0310 </r>
       <r>    5.5794   -0.0000 </r>
       <r>   11.9447    0.0000 </r>
       <r>   16.8515    0.0000 </r>
      </set>
      <set comment="kpoint 9">
       <r>   -1.9823    1.0000 </r>
       <r>   -1.7048    1.0000 </r>
       <r>    0.0492    1.0000 </r>
       <r>    0.4150    1.0000 </r>
       <r>    0.4878    1.0000 </r>
       <r>    0.4896    1.0000 </r>
       <r>    0.8091    1.0000 </r>
       <r>    0.9110    1.0000 </r>
       <r>    1.1272    1.0000 </r>
       <r>    1.1278    1.0000 </r>
       <r>    1.3438    1.0000 </r>
       <r>    1.3480    1.0000 </r>
       <r>    4.2288   -0.0000 </r>
       <r>    6.9130   -0.0000 </r>
       <r>   12.6896    0.0000 </r>
       <r>   17.7618    0.0000 </r>
      </set>
      <set comment="kpoint 10">
       <r>   -0.8975    1.0000 </r>
       <r>   -0.8629    1.0000 </r>
       <r>   -0.1828    1.0000 </r>
       <r>   -0.0727    1.0000 </r>
       <r>    0.6598    1.0000 </r>
       <r>    0.7720    1.0000 </r>
       <r>    1.1864    1.0000 </r>
       <r>    1.1938    1.0000 </r>
       <r>    1.8633    1.0000 </r>
       <r>    2.0252    1.0000 </r>
       <r>    2.0256    1.0000 </r>
       <r>    2.5063    1.0008 </r>
       <r>    7.1679   -0.0000 </r>
       <r>    9.9002    0.0000 </r>
       <r>   13.9194    0.0000 </r>
       <r>   14.3959    0.0000 </r>
      </set>
      <set comment="kpoint 11">
       <r>   -1.0437    1.0000 </r>
       <r>   -1.0415    1.0000 </r>
       <r>   -0.4339    1.0000 </r>
       <r>   -0.3871    1.0000 </r>
       <r>    0.9523    1.0000 </r>
       <r>    1.0195    1.0000 </r>
       <r>    1.1088    1.0000 </r>
       <r>    1.1177    1.0000 </r>
       <r>    2.5239    1.0013 </r>
       <r>    2.5241    1.0013 </r>
       <r>    5.2793   -0.0000 </r>
       <r>    5.5290   -0.0000 </r>
       <r>    9.2209    0.0000 </r>
       <r>    9.6282    0.0000 </r>
       <r>   11.0724    0.0000 </r>
       <r>   11.7721    0.0000 </r>
      </set>
      <set comment="kpoint 12">
       <r>   -0.5087    1.0000 </r>
       <r>   -0.4125    1.0000 </r>
       <r>    0.0328    1.0000 </r>
       <r>    0.1063    1.0000 </r>
       <r>    0.1092    1.0000 </r>
       <r>    0.1646    1.0000 </r>
       <r>    0.6389    1.0000 </r>
       <r>    1.1227    1.0000 </r>
       <r>    1.1328    1.0000 </r>
       <r>    1.1352    1.0000 </r>
       <r>    2.2111    1.0000 </r>
       <r>    2.4612    1.0003 </r>
       <r>    6.2844   -0.0000 </r>
       <r>    9.0369    0.0000 </r>
       <r>   14.1635    0.0000 </r>
       <r>   18.3431    0.0000 </r>
      </set>
      <set comment="kpoint 13">
       <r>   -0.4737    1.0000 </r>
       <r>   -0.4691    1.0000 </r>
       <r>   -0.2297    1.0000 </r>
       <r>   -0.1677    1.0000 </r>
       <r>    0.8283    1.0000 </r>
       <r>    0.8451    1.0000 </r>
       <r>    0.8529    1.0000 </r>
       <r>    0.8760    1.0000 </r>
       <r>    1.3833    1.0000 </r>
       <r>    1.4986    1.0000 </r>
       <r>    5.2414   -0.0000 </r>
       <r>    5.8020   -0.0000 </r>
       <r>    9.8330    0.0000 </r>
       <r>   11.3642    0.0000 </r>
       <r>   12.1043    0.0000 </r>
       <r>   12.6657    0.0000 </r>
      </set>
      <set comment="kpoint 14">
       <r>    0.1843    1.0000 </r>
       <r>    0.2097    1.0000 </r>
       <r>    0.2097    1.0000 </r>
       <r>    0.2375    1.0000 </r>
       <r>    0.4511    1.0000 </r>
       <r>    0.4606    1.0000 </r>
       <r>    0.4606    1.0000 </r>
       <r>    0.4764    1.0000 </r>
       <r>    0.9652    1.0000 </r>
       <r>    0.9652    1.0000 </r>
       <r>    9.7870    0.0000 </r>
       <r>    9.9628    0.0000 </r>
       <r>    9.9628    0.0000 </r>
       <r>   10.4156    0.0000 </r>
       <r>   11.7921    0.0000 </r>
       <r>   11.7921    0.0000 </r>
      </set>
      <set comment="kpoint 15">
       <r>   -2.7802    1.0000 </r>
       <r>   -2.7802    1.0000 </r>
       <r>   -0.0112    1.0000 </r>
       <r>   -0.0111    1.0000 </r>
       <r>    0.7176    1.0000 </r>
       <r>    0.7176    1.0000 </r>
       <r>    0.7176    1.0000 </r>
       <r>    0.7176    1.0000 </r>
       <r>    1.4246    1.0000 </r>
       <r>    1.4246    1.0000 </r>
       <r>    1.4246    1.0000 </r>
       <r>    1.4246    1.0000 </r>
       <r>    4.1193   -0.0000 </r>
       <r>    4.1193   -0.0000 </r>
       <r>   14.2108    0.0000 </r>
       <r>   14.2108    0.0000 </r>
      </set>
      <set comment="kpoint 16">
       <r>   -1.8424    1.0000 </r>
       <r>   -1.8424    1.0000 </r>
       <r>    0.2046    1.0000 </r>
       <r>    0.2046    1.0000 </r>
       <r>    0.4875    1.0000 </r>
       <r>    0.4875    1.0000 </r>
       <r>    0.8359    1.0000 </r>
       <r>    0.8359    1.0000 </r>
       <r>    1.1275    1.0000 </r>
       <r>    1.1275    1.0000 </r>
       <r>    1.3459    1.0000 </r>
       <r>    1.3459    1.0000 </r>
       <r>    5.4303   -0.0000 </r>
       <r>    5.4303   -0.0000 </r>
       <r>   15.0468    0.0000 </r>
       <r>   15.0468    0.0000 </r>
      </set>
      <set comment="kpoint 17">
       <r>   -0.8802    1.0000 </r>
       <r>   -0.8802    1.0000 </r>
       <r>   -0.1347    1.0000 </r>
       <r>   -0.1347    1.0000 </r>
       <r>    0.7290    1.0000 </r>
       <r>    0.7290    1.0000 </r>
       <r>    1.1902    1.0000 </r>
       <r>    1.1902    1.0000 </r>
       <r>    2.0255    1.0000 </r>
       <r>    2.0255    1.0000 </r>
       <r>    2.1382    1.0000 </r>
       <r>    2.1382    1.0000 </r>
       <r>    8.3471   -0.0000 </r>
       <r>    8.3471   -0.0000 </r>
       <r>   14.3840    0.0000 </r>
       <r>   14.3840    0.0000 </r>
      </set>
      <set comment="kpoint 18">
       <r>   -1.0427    1.0000 </r>
       <r>   -1.0427    1.0000 </r>
       <r>   -0.4117    1.0000 </r>
       <r>   -0.4117    1.0000 </r>
       <r>    0.9890    1.0000 </r>
       <r>    0.9890    1.0000 </r>
       <r>    1.1133    1.0000 </r>
       <r>    1.1133    1.0000 </r>
       <r>    2.5240    1.0013 </r>
       <r>    2.5240    1.0013 </r>
       <r>    5.3947   -0.0000 </r>
       <r>    5.3947   -0.0000 </r>
       <r>    9.3209    0.0000 </r>
       <r>    9.3209    0.0000 </r>
       <r>   11.7838    0.0000 </r>
       <r>   11.7838    0.0000 </r>
      </set>
      <set comment="kpoint 19">
       <r>   -0.4590    1.0000 </r>
       <r>   -0.4590    1.0000 </r>
       <r>    0.0846    1.0000 </r>
       <r>    0.0846    1.0000 </r>
       <r>    0.1083    1.0000 </r>
       <r>    0.1083    1.0000 </r>
       <r>    0.8891    1.0000 </r>
       <r>    0.8891    1.0000 </r>
       <r>    1.1325    1.0000 </r>
       <r>    1.1325    1.0000 </r>
       <r>    2.2973    1.0000 </r>
       <r>    2.2973    1.0000 </r>
       <r>    7.4816   -0.0000 </r>
       <r>    7.4816   -0.0000 </r>
       <r>   16.5240    0.0000 </r>
       <r>   16.5240    0.0000 </r>
      </set>
      <set comment="kpoint 20">
       <r>   -0.4718    1.0000 </r>
       <r>   -0.4718    1.0000 </r>
       <r>   -0.2004    1.0000 </r>
       <r>   -0.2004    1.0000 </r>
       <r>    0.8360    1.0000 </r>
       <r>    0.8360    1.0000 </r>
       <r>    0.8683    1.0000 </r>
       <r>    0.8683    1.0000 </r>
       <r>    1.4408    1.0000 </r>
       <r>    1.4408    1.0000 </r>
       <r>    5.4803   -0.0000 </r>
       <r>    5.4803   -0.0000 </r>
       <r>   10.8336    0.0000 </r>
       <r>   10.8336    0.0000 </r>
       <r>   11.9626    0.0000 </r>
       <r>   11.9626    0.0000 </r>
      </set>
      <set comment="kpoint 21">
       <r>    0.2083    1.0000 </r>
       <r>    0.2083    1.0000 </r>
       <r>    0.2095    1.0000 </r>
       <r>    0.2095    1.0000 </r>
       <r>    0.4618    1.0000 </r>
       <r>    0.4618    1.0000 </r>
       <r>    0.4651    1.0000 </r>
       <r>    0.4651    1.0000 </r>
       <r>    0.9659    1.0000 </r>
       <r>    0.9659    1.0000 </r>
       <r>    9.9904    0.0000 </r>
       <r>    9.9904    0.0000 </r>
       <r>   10.0694    0.0000 </r>
       <r>   10.0694    0.0000 </r>
       <r>   11.6070    0.0000 </r>
       <r>   11.6070    0.0000 </r>
      </set>
     </set>
     <set comment="spin 2">
      <set comment="kpoint 1">
       <r>   -2.7754    1.0000 </r>
       <r>   -2.1318    1.0000 </r>
       <r>    1.4943    1.0000 </r>
       <r>    2.1813    1.0000 </r>
       <r>    2.5682    1.0031 </r>
       <r>    2.5682    1.0031 </r>
       <r>    2.5694    1.0032 </r>
       <r>    2.5694    1.0032 </r>
       <r>    2.7033    1.0237 </r>
       <r>    3.8479   -0.0000 </r>
       <r>    3.8479   -0.0000 </r>
       <r>    3.8518   -0.0000 </r>
       <r>    3.8518   -0.0000 </r>
       <r>    6.7002   -0.0000 </r>
       <r>   11.1978    0.0000 </r>
       <r>   18.7857    0.0000 </r>
      </set>
      <set comment="kpoint 2">
       <r>   -1.7815    1.0000 </r>
       <r>   -1.1439    1.0000 </r>
       <r>    1.8486    1.0000 </r>
       <r>    1.9869    1.0000 </r>
       <r>    2.2495    1.0000 </r>
       <r>    2.2663    1.0000 </r>
       <r>    2.9145    0.8858 </r>
       <r>    2.9473    0.7877 </r>
       <r>    3.0255    0.4783 </r>
       <r>    3.0268    0.4729 </r>
       <r>    3.7516   -0.0000 </r>
       <r>    3.7602   -0.0000 </r>
       <r>    4.6738   -0.0000 </r>
       <r>    8.3929   -0.0000 </r>
       <r>   11.7379    0.0000 </r>
       <r>   19.9761    0.0000 </r>
      </set>
      <set comment="kpoint 3">
       <r>    0.1790    1.0000 </r>
       <r>    0.4046    1.0000 </r>
       <r>    1.6255    1.0000 </r>
       <r>    1.9698    1.0000 </r>
       <r>    2.3893    1.0000 </r>
       <r>    2.7639    1.0350 </r>
       <r>    2.8443    1.0079 </r>
       <r>    3.5377   -0.0008 </r>
       <r>    3.5638   -0.0004 </r>
       <r>    3.5788   -0.0003 </r>
       <r>    4.0432   -0.0000 </r>
       <r>    4.0442   -0.0000 </r>
       <r>    7.1698   -0.0000 </r>
       <r>   11.6868    0.0000 </r>
       <r>   13.1941    0.0000 </r>
       <r>   14.7124    0.0000 </r>
      </set>
      <set comment="kpoint 4">
       <r>    0.3518    1.0000 </r>
       <r>    0.3665    1.0000 </r>
       <r>    1.4839    1.0000 </r>
       <r>    1.5968    1.0000 </r>
       <r>    3.1885    0.0003 </r>
       <r>    3.3297   -0.0255 </r>
       <r>    3.4715   -0.0032 </r>
       <r>    3.4896   -0.0022 </r>
       <r>    4.6203   -0.0000 </r>
       <r>    4.6206   -0.0000 </r>
       <r>    5.2658   -0.0000 </r>
       <r>    5.6440   -0.0000 </r>
       <r>   10.0952    0.0000 </r>
       <r>   10.7394    0.0000 </r>
       <r>   10.9644    0.0000 </r>
       <r>   11.8501    0.0000 </r>
      </set>
      <set comment="kpoint 5">
       <r>   -0.0345    1.0000 </r>
       <r>    0.4923    1.0000 </r>
       <r>    1.7643    1.0000 </r>
       <r>    1.7706    1.0000 </r>
       <r>    1.7769    1.0000 </r>
       <r>    2.2667    1.0000 </r>
       <r>    2.4438    1.0002 </r>
       <r>    3.2285   -0.0288 </r>
       <r>    3.4877   -0.0023 </r>
       <r>    3.4995   -0.0018 </r>
       <r>    4.0072   -0.0000 </r>
       <r>    4.1416   -0.0000 </r>
       <r>    6.3896   -0.0000 </r>
       <r>   10.7846    0.0000 </r>
       <r>   12.9134    0.0000 </r>
       <r>   18.5969    0.0000 </r>
      </set>
      <set comment="kpoint 6">
       <r>    0.9481    1.0000 </r>
       <r>    0.9831    1.0000 </r>
       <r>    1.7024    1.0000 </r>
       <r>    1.8694    1.0000 </r>
       <r>    2.6590    1.0142 </r>
       <r>    2.7298    1.0297 </r>
       <r>    3.1244    0.1191 </r>
       <r>    3.1296    0.1057 </r>
       <r>    3.1435    0.0731 </r>
       <r>    3.4537   -0.0045 </r>
       <r>    6.1092   -0.0000 </r>
       <r>    6.7840   -0.0000 </r>
       <r>    9.7603    0.0000 </r>
       <r>   11.9471    0.0000 </r>
       <r>   12.9933    0.0000 </r>
       <r>   13.9725    0.0000 </r>
      </set>
      <set comment="kpoint 7">
       <r>    1.9093    1.0000 </r>
       <r>    1.9403    1.0000 </r>
       <r>    1.9403    1.0000 </r>
       <r>    1.9781    1.0000 </r>
       <r>    2.2668    1.0000 </r>
       <r>    2.3287    1.0000 </r>
       <r>    2.3287    1.0000 </r>
       <r>    2.3955    1.0000 </r>
       <r>    3.3211   -0.0275 </r>
       <r>    3.3211   -0.0275 </r>
       <r>   10.2106    0.0000 </r>
       <r>   10.5086    0.0000 </r>
       <r>   10.5086    0.0000 </r>
       <r>   11.2051    0.0000 </r>
       <r>   12.7979    0.0000 </r>
       <r>   12.7979    0.0000 </r>
      </set>
      <set comment="kpoint 8">
       <r>   -2.6944    1.0000 </r>
       <r>   -2.2423    1.0000 </r>
       <r>    1.5241    1.0000 </r>
       <r>    1.8699    1.0000 </r>
       <r>    2.5683    1.0032 </r>
       <r>    2.5683    1.0032 </r>
       <r>    2.5692    1.0032 </r>
       <r>    2.5692    1.0032 </r>
       <r>    3.3765   -0.0152 </r>
       <r>    3.8485   -0.0000 </r>
       <r>    3.8485   -0.0000 </r>
       <r>    3.8512   -0.0000 </r>
       <r>    3.8512   -0.0000 </r>
       <r>    5.9319   -0.0000 </r>
       <r>   12.2457    0.0000 </r>
       <r>   16.9879    0.0000 </r>
      </set>
      <set comment="kpoint 9">
       <r>   -1.7015    1.0000 </r>
       <r>   -1.2536    1.0000 </r>
       <r>    1.8579    1.0000 </r>
       <r>    1.9472    1.0000 </r>
       <r>    2.2545    1.0000 </r>
       <r>    2.2651    1.0000 </r>
       <r>    2.9285    0.8471 </r>
       <r>    2.9477    0.7864 </r>
       <r>    3.0258    0.4772 </r>
       <r>    3.0267    0.4732 </r>
       <r>    3.7530   -0.0000 </r>
       <r>    3.7590   -0.0000 </r>
       <r>    5.0654   -0.0000 </r>
       <r>    7.4828   -0.0000 </r>
       <r>   12.9559    0.0000 </r>
       <r>   17.9373    0.0000 </r>
      </set>
      <set comment="kpoint 10">
       <r>    0.2110    1.0000 </r>
       <r>    0.3704    1.0000 </r>
       <r>    1.6584    1.0000 </r>
       <r>    1.8800    1.0000 </r>
       <r>    2.5411    1.0018 </r>
       <r>    2.7656    1.0351 </r>
       <r>    2.8518    1.0002 </r>
       <r>    3.3439   -0.0223 </r>
       <r>    3.5659   -0.0004 </r>
       <r>    3.5766   -0.0003 </r>
       <r>    4.0434   -0.0000 </r>
       <r>    4.0441   -0.0000 </r>
       <r>    7.6367   -0.0000 </r>
       <r>   10.3842    0.0000 </r>
       <r>   14.3853    0.0000 </r>
       <r>   14.8740    0.0000 </r>
      </set>
      <set comment="kpoint 11">
       <r>    0.3536    1.0000 </r>
       <r>    0.3640    1.0000 </r>
       <r>    1.4980    1.0000 </r>
       <r>    1.5776    1.0000 </r>
       <r>    3.2182   -0.0239 </r>
       <r>    3.3204   -0.0276 </r>
       <r>    3.4740   -0.0031 </r>
       <r>    3.4868   -0.0024 </r>
       <r>    4.6203   -0.0000 </r>
       <r>    4.6205   -0.0000 </r>
       <r>    5.3002   -0.0000 </r>
       <r>    5.5690   -0.0000 </r>
       <r>   10.0863    0.0000 </r>
       <r>   10.3731    0.0000 </r>
       <r>   11.5520    0.0000 </r>
       <r>   12.0530    0.0000 </r>
      </set>
      <set comment="kpoint 12">
       <r>    0.0323    1.0000 </r>
       <r>    0.4017    1.0000 </r>
       <r>    1.7651    1.0000 </r>
       <r>    1.7692    1.0000 </r>
       <r>    1.8348    1.0000 </r>
       <r>    2.1370    1.0000 </r>
       <r>    2.6033    1.0060 </r>
       <r>    3.1104    0.1585 </r>
       <r>    3.4895   -0.0022 </r>
       <r>    3.4978   -0.0019 </r>
       <r>    4.0131   -0.0000 </r>
       <r>    4.0917   -0.0000 </r>
       <r>    6.8612   -0.0000 </r>
       <r>    9.5847    0.0000 </r>
       <r>   14.3997    0.0000 </r>
       <r>   18.6978    0.0000 </r>
      </set>
      <set comment="kpoint 13">
       <r>    0.9528    1.0000 </r>
       <r>    0.9776    1.0000 </r>
       <r>    1.7225    1.0000 </r>
       <r>    1.8387    1.0000 </r>
       <r>    2.6798    1.0184 </r>
       <r>    2.7268    1.0291 </r>
       <r>    3.1200    0.1310 </r>
       <r>    3.1385    0.0843 </r>
       <r>    3.1817    0.0084 </r>
       <r>    3.4072   -0.0098 </r>
       <r>    6.1691   -0.0000 </r>
       <r>    6.6238   -0.0000 </r>
       <r>   10.2030    0.0000 </r>
       <r>   11.9530    0.0000 </r>
       <r>   12.6911    0.0000 </r>
       <r>   13.2189    0.0000 </r>
      </set>
      <set comment="kpoint 14">
       <r>    1.9173    1.0000 </r>
       <r>    1.9413    1.0000 </r>
       <r>    1.9413    1.0000 </r>
       <r>    1.9649    1.0000 </r>
       <r>    2.2887    1.0000 </r>
       <r>    2.3261    1.0000 </r>
       <r>    2.3261    1.0000 </r>
       <r>    2.3787    1.0000 </r>
       <r>    3.3237   -0.0269 </r>
       <r>    3.3237   -0.0269 </r>
       <r>   10.3216    0.0000 </r>
       <r>   10.5263    0.0000 </r>
       <r>   10.5263    0.0000 </r>
       <r>   11.0069    0.0000 </r>
       <r>   12.4920    0.0000 </r>
       <r>   12.4920    0.0000 </r>
      </set>
      <set comment="kpoint 15">
       <r>   -2.4827    1.0000 </r>
       <r>   -2.4827    1.0000 </r>
       <r>    1.6309    1.0000 </r>
       <r>    1.6309    1.0000 </r>
       <r>    2.5686    1.0032 </r>
       <r>    2.5686    1.0032 </r>
       <r>    2.5686    1.0032 </r>
       <r>    2.5686    1.0032 </r>
       <r>    3.8497   -0.0000 </r>
       <r>    3.8497   -0.0000 </r>
       <r>    3.8497   -0.0000 </r>
       <r>    3.8497   -0.0000 </r>
       <r>    4.5788   -0.0000 </r>
       <r>    4.5788   -0.0000 </r>
       <r>   14.4367    0.0000 </r>
       <r>   14.4367    0.0000 </r>
      </set>
      <set comment="kpoint 16">
       <r>   -1.4921    1.0000 </r>
       <r>   -1.4921    1.0000 </r>
       <r>    1.8897    1.0000 </r>
       <r>    1.8897    1.0000 </r>
       <r>    2.2611    1.0000 </r>
       <r>    2.2611    1.0000 </r>
       <r>    2.9435    0.8002 </r>
       <r>    2.9435    0.8002 </r>
       <r>    3.0262    0.4753 </r>
       <r>    3.0262    0.4753 </r>
       <r>    3.7560   -0.0000 </r>
       <r>    3.7560   -0.0000 </r>
       <r>    6.1029   -0.0000 </r>
       <r>    6.1029   -0.0000 </r>
       <r>   15.2790    0.0000 </r>
       <r>   15.2790    0.0000 </r>
      </set>
      <set comment="kpoint 17">
       <r>    0.2897    1.0000 </r>
       <r>    0.2897    1.0000 </r>
       <r>    1.7499    1.0000 </r>
       <r>    1.7499    1.0000 </r>
       <r>    2.7412    1.0319 </r>
       <r>    2.7412    1.0319 </r>
       <r>    2.9895    0.6289 </r>
       <r>    2.9895    0.6289 </r>
       <r>    3.5713   -0.0003 </r>
       <r>    3.5713   -0.0003 </r>
       <r>    4.0438   -0.0000 </r>
       <r>    4.0438   -0.0000 </r>
       <r>    8.8110    0.0000 </r>
       <r>    8.8110    0.0000 </r>
       <r>   14.9398    0.0000 </r>
       <r>   14.9398    0.0000 </r>
      </set>
      <set comment="kpoint 18">
       <r>    0.3585    1.0000 </r>
       <r>    0.3585    1.0000 </r>
       <r>    1.5354    1.0000 </r>
       <r>    1.5354    1.0000 </r>
       <r>    3.2795   -0.0348 </r>
       <r>    3.2795   -0.0348 </r>
       <r>    3.4804   -0.0027 </r>
       <r>    3.4804   -0.0027 </r>
       <r>    4.6204   -0.0000 </r>
       <r>    4.6204   -0.0000 </r>
       <r>    5.4145   -0.0000 </r>
       <r>    5.4145   -0.0000 </r>
       <r>   10.1447    0.0000 </r>
       <r>   10.1447    0.0000 </r>
       <r>   12.1461    0.0000 </r>
       <r>   12.1461    0.0000 </r>
      </set>
      <set comment="kpoint 19">
       <r>    0.2056    1.0000 </r>
       <r>    0.2056    1.0000 </r>
       <r>    1.7672    1.0000 </r>
       <r>    1.7672    1.0000 </r>
       <r>    1.9702    1.0000 </r>
       <r>    1.9702    1.0000 </r>
       <r>    2.8570    0.9942 </r>
       <r>    2.8570    0.9942 </r>
       <r>    3.4935   -0.0021 </r>
       <r>    3.4935   -0.0021 </r>
       <r>    4.0364   -0.0000 </r>
       <r>    4.0364   -0.0000 </r>
       <r>    8.0315   -0.0000 </r>
       <r>    8.0315   -0.0000 </r>
       <r>   16.8085    0.0000 </r>
       <r>   16.8085    0.0000 </r>
      </set>
      <set comment="kpoint 20">
       <r>    0.9647    1.0000 </r>
       <r>    0.9647    1.0000 </r>
       <r>    1.7755    1.0000 </r>
       <r>    1.7755    1.0000 </r>
       <r>    2.7114    1.0256 </r>
       <r>    2.7114    1.0256 </r>
       <r>    3.1286    0.1081 </r>
       <r>    3.1286    0.1081 </r>
       <r>    3.2935   -0.0330 </r>
       <r>    3.2935   -0.0330 </r>
       <r>    6.3523   -0.0000 </r>
       <r>    6.3523   -0.0000 </r>
       <r>   11.2364    0.0000 </r>
       <r>   11.2364    0.0000 </r>
       <r>   12.5878    0.0000 </r>
       <r>   12.5878    0.0000 </r>
      </set>
      <set comment="kpoint 21">
       <r>    1.9386    1.0000 </r>
       <r>    1.9386    1.0000 </r>
       <r>    1.9424    1.0000 </r>
       <r>    1.9424    1.0000 </r>
       <r>    2.3234    1.0000 </r>
       <r>    2.3234    1.0000 </r>
       <r>    2.3361    1.0000 </r>
       <r>    2.3361    1.0000 </r>
       <r>    3.3262   -0.0263 </r>
       <r>    3.3262   -0.0263 </r>
       <r>   10.5453    0.0000 </r>
       <r>   10.5453    0.0000 </r>
       <r>   10.6251    0.0000 </r>
       <r>   10.6251    0.0000 </r>
       <r>   12.2925    0.0000 </r>
       <r>   12.2925    0.0000 </r>
      </set>
     </set>
    </set>
   </array>
  </eigenvalues>
  <separator name="orbital magnetization" >
   <v name="MAGDIPOLOUT">      0.00000000      0.00000000      0.00000000</v>
  </separator>
  <dos>
   <i name="efermi">      3.02039490 </i>
   <total>
    <array>
     <dimension dim="1">gridpoints</dimension>
     <dimension dim="2">spin</dimension>
     <field>energy</field>
     <field>total</field>
     <field>integrated</field>
     <set>
      <set comment="spin 1">
       <r>    -5.0055     0.0000     0.0000 </r>
       <r>    -4.9156     0.0000     0.0000 </r>
       <r>    -4.8256     0.0000     0.0000 </r>
       <r>    -4.7357     0.0000     0.0000 </r>
       <r>    -4.6457    -0.0000    -0.0000 </r>
       <r>    -4.5558    -0.0000    -0.0000 </r>
       <r>    -4.4659    -0.0000    -0.0000 </r>
       <r>    -4.3759    -0.0000    -0.0000 </r>
       <r>    -4.2860    -0.0000    -0.0000 </r>
       <r>    -4.1960    -0.0000    -0.0000 </r>
       <r>    -4.1061    -0.0000    -0.0000 </r>
       <r>    -4.0162    -0.0000    -0.0000 </r>
       <r>    -3.9262    -0.0000    -0.0000 </r>
       <r>    -3.8363    -0.0000    -0.0000 </r>
       <r>    -3.7463    -0.0000    -0.0000 </r>
       <r>    -3.6564    -0.0000    -0.0000 </r>
       <r>    -3.5665    -0.0000    -0.0000 </r>
       <r>    -3.4765    -0.0002    -0.0000 </r>
       <r>    -3.3866    -0.0011    -0.0001 </r>
       <r>    -3.2967    -0.0034    -0.0004 </r>
       <r>    -3.2067    -0.0033    -0.0007 </r>
       <r>    -3.1168     0.0114     0.0003 </r>
       <r>    -3.0268     0.0480     0.0046 </r>
       <r>    -2.9369     0.0860     0.0124 </r>
       <r>    -2.8470     0.0993     0.0213 </r>
       <r>    -2.7570     0.0955     0.0299 </r>
       <r>    -2.6671     0.0958     0.0385 </r>
       <r>    -2.5771     0.0942     0.0470 </r>
       <r>    -2.4872     0.0678     0.0531 </r>
       <r>    -2.3973     0.0194     0.0548 </r>
       <r>    -2.3073    -0.0228     0.0527 </r>
       <r>    -2.2174    -0.0142     0.0515 </r>
       <r>    -2.1275     0.1180     0.0621 </r>
       <r>    -2.0375     0.3760     0.0959 </r>
       <r>    -1.9476     0.6035     0.1502 </r>
       <r>    -1.8576     0.6880     0.2120 </r>
       <r>    -1.7677     0.6975     0.2748 </r>
       <r>    -1.6778     0.6514     0.3334 </r>
       <r>    -1.5878     0.4615     0.3749 </r>
       <r>    -1.4979     0.1845     0.3915 </r>
       <r>    -1.4079    -0.0090     0.3907 </r>
       <r>    -1.3180    -0.0768     0.3837 </r>
       <r>    -1.2281    -0.0310     0.3810 </r>
       <r>    -1.1381     0.2264     0.4013 </r>
       <r>    -1.0482     0.7550     0.4692 </r>
       <r>    -0.9583     1.3526     0.5909 </r>
       <r>    -0.8683     1.5544     0.7307 </r>
       <r>    -0.7784     1.0393     0.8241 </r>
       <r>    -0.6884     0.4247     0.8623 </r>
       <r>    -0.5985     1.0558     0.9573 </r>
       <r>    -0.5086     3.0560     1.2321 </r>
       <r>    -0.4186     4.4867     1.6357 </r>
       <r>    -0.3287     4.2390     2.0169 </r>
       <r>    -0.2387     3.7186     2.3514 </r>
       <r>    -0.1488     3.7055     2.6846 </r>
       <r>    -0.0589     3.5238     3.0016 </r>
       <r>     0.0311     3.4047     3.3078 </r>
       <r>     0.1210     3.6274     3.6340 </r>
       <r>     0.2109     3.3220     3.9328 </r>
       <r>     0.3009     2.3881     4.1476 </r>
       <r>     0.3908     2.0728     4.3340 </r>
       <r>     0.4808     2.5726     4.5654 </r>
       <r>     0.5707     2.7471     4.8124 </r>
       <r>     0.6606     2.9627     5.0789 </r>
       <r>     0.7506     4.8327     5.5136 </r>
       <r>     0.8405     7.4628     6.1847 </r>
       <r>     0.9305     7.9327     6.8982 </r>
       <r>     1.0204     6.3687     7.4710 </r>
       <r>     1.1103     5.4481     7.9610 </r>
       <r>     1.2003     5.3203     8.4395 </r>
       <r>     1.2902     4.8090     8.8720 </r>
       <r>     1.3802     4.2924     9.2581 </r>
       <r>     1.4701     3.7502     9.5953 </r>
       <r>     1.5600     2.4737     9.8178 </r>
       <r>     1.6500     0.9595     9.9041 </r>
       <r>     1.7399     0.1956     9.9217 </r>
       <r>     1.8298     0.2877     9.9476 </r>
       <r>     1.9198     0.8391    10.0230 </r>
       <r>     2.0097     1.4995    10.1579 </r>
       <r>     2.0997     1.8341    10.3229 </r>
       <r>     2.1896     1.6120    10.4678 </r>
       <r>     2.2795     1.1387    10.5703 </r>
       <r>     2.3695     0.9306    10.6540 </r>
       <r>     2.4594     1.2012    10.7620 </r>
       <r>     2.5494     1.4834    10.8954 </r>
       <r>     2.6393     1.2115    11.0044 </r>
       <r>     2.7292     0.6086    11.0591 </r>
       <r>     2.8192     0.1909    11.0763 </r>
       <r>     2.9091     0.0342    11.0793 </r>
       <r>     2.9990    -0.0086    11.0786 </r>
       <r>     3.0890    -0.0139    11.0773 </r>
       <r>     3.1789    -0.0077    11.0766 </r>
       <r>     3.2689    -0.0035    11.0763 </r>
       <r>     3.3588    -0.0051    11.0759 </r>
       <r>     3.4487    -0.0089    11.0751 </r>
       <r>     3.5387     0.0065    11.0756 </r>
       <r>     3.6286     0.0702    11.0819 </r>
       <r>     3.7186     0.1510    11.0955 </r>
       <r>     3.8085     0.1555    11.1095 </r>
       <r>     3.8984     0.0722    11.1160 </r>
       <r>     3.9884     0.0148    11.1173 </r>
       <r>     4.0783     0.0879    11.1252 </r>
       <r>     4.1682     0.2675    11.1493 </r>
       <r>     4.2582     0.3778    11.1833 </r>
       <r>     4.3481     0.2855    11.2090 </r>
       <r>     4.4381     0.1010    11.2180 </r>
       <r>     4.5280    -0.0039    11.2177 </r>
       <r>     4.6179    -0.0184    11.2160 </r>
       <r>     4.7079    -0.0110    11.2150 </r>
       <r>     4.7978    -0.0193    11.2133 </r>
       <r>     4.8878    -0.0473    11.2091 </r>
       <r>     4.9777    -0.0338    11.2060 </r>
       <r>     5.0676     0.1877    11.2229 </r>
       <r>     5.1576     0.6889    11.2849 </r>
       <r>     5.2475     1.1882    11.3917 </r>
       <r>     5.3374     1.4089    11.5184 </r>
       <r>     5.4274     1.4660    11.6503 </r>
       <r>     5.5173     1.3694    11.7734 </r>
       <r>     5.6073     0.9909    11.8626 </r>
       <r>     5.6972     0.6842    11.9241 </r>
       <r>     5.7871     0.7729    11.9936 </r>
       <r>     5.8771     0.9036    12.0749 </r>
       <r>     5.9670     0.7257    12.1402 </r>
       <r>     6.0570     0.3987    12.1760 </r>
       <r>     6.1469     0.2078    12.1947 </r>
       <r>     6.2368     0.2430    12.2166 </r>
       <r>     6.3268     0.3267    12.2460 </r>
       <r>     6.4167     0.2548    12.2689 </r>
       <r>     6.5067     0.1029    12.2781 </r>
       <r>     6.5966     0.0551    12.2831 </r>
       <r>     6.6865     0.1247    12.2943 </r>
       <r>     6.7765     0.2246    12.3145 </r>
       <r>     6.8664     0.3156    12.3429 </r>
       <r>     6.9563     0.3561    12.3749 </r>
       <r>     7.0463     0.3360    12.4051 </r>
       <r>     7.1362     0.3313    12.4349 </r>
       <r>     7.2262     0.3144    12.4632 </r>
       <r>     7.3161     0.2399    12.4848 </r>
       <r>     7.4060     0.2362    12.5060 </r>
       <r>     7.4960     0.3105    12.5339 </r>
       <r>     7.5859     0.2746    12.5586 </r>
       <r>     7.6759     0.1400    12.5712 </r>
       <r>     7.7658     0.0952    12.5798 </r>
       <r>     7.8557     0.1439    12.5927 </r>
       <r>     7.9457     0.1378    12.6051 </r>
       <r>     8.0356     0.0520    12.6098 </r>
       <r>     8.1255    -0.0013    12.6097 </r>
       <r>     8.2155     0.0733    12.6163 </r>
       <r>     8.3054     0.2476    12.6386 </r>
       <r>     8.3954     0.3416    12.6693 </r>
       <r>     8.4853     0.2394    12.6908 </r>
       <r>     8.5752     0.0697    12.6971 </r>
       <r>     8.6652    -0.0191    12.6954 </r>
       <r>     8.7551    -0.0346    12.6922 </r>
       <r>     8.8451    -0.0026    12.6920 </r>
       <r>     8.9350     0.1144    12.7023 </r>
       <r>     9.0249     0.2893    12.7283 </r>
       <r>     9.1149     0.4066    12.7649 </r>
       <r>     9.2048     0.4626    12.8065 </r>
       <r>     9.2947     0.5389    12.8550 </r>
       <r>     9.3847     0.5706    12.9063 </r>
       <r>     9.4746     0.4446    12.9463 </r>
       <r>     9.5646     0.2608    12.9697 </r>
       <r>     9.6545     0.2660    12.9937 </r>
       <r>     9.7444     0.6040    13.0480 </r>
       <r>     9.8344     1.1366    13.1502 </r>
       <r>     9.9243     1.4358    13.2793 </r>
       <r>    10.0143     1.2375    13.3906 </r>
       <r>    10.1042     0.7649    13.4594 </r>
       <r>    10.1941     0.3567    13.4915 </r>
       <r>    10.2841     0.1494    13.5049 </r>
       <r>    10.3740     0.1304    13.5167 </r>
       <r>    10.4639     0.1721    13.5321 </r>
       <r>    10.5539     0.1447    13.5452 </r>
       <r>    10.6438     0.1258    13.5565 </r>
       <r>    10.7338     0.3079    13.5842 </r>
       <r>    10.8237     0.6152    13.6395 </r>
       <r>    10.9136     0.7080    13.7032 </r>
       <r>    11.0036     0.5308    13.7509 </r>
       <r>    11.0935     0.3481    13.7822 </r>
       <r>    11.1835     0.3478    13.8135 </r>
       <r>    11.2734     0.6338    13.8705 </r>
       <r>    11.3633     1.0199    13.9622 </r>
       <r>    11.4533     1.0355    14.0554 </r>
       <r>    11.5432     0.6660    14.1153 </r>
       <r>    11.6332     0.3826    14.1497 </r>
       <r>    11.7231     0.4275    14.1881 </r>
       <r>    11.8130     0.6666    14.2481 </r>
       <r>    11.9030     0.9460    14.3332 </r>
       <r>    11.9929     1.1994    14.4410 </r>
       <r>    12.0828     1.2491    14.5534 </r>
       <r>    12.1728     0.9614    14.6398 </r>
       <r>    12.2627     0.5603    14.6902 </r>
       <r>    12.3527     0.3203    14.7191 </r>
       <r>    12.4426     0.2223    14.7390 </r>
       <r>    12.5325     0.3157    14.7674 </r>
       <r>    12.6225     0.7317    14.8332 </r>
       <r>    12.7124     1.0996    14.9321 </r>
       <r>    12.8024     0.9289    15.0157 </r>
       <r>    12.8923     0.4507    15.0562 </r>
       <r>    12.9822     0.1704    15.0715 </r>
       <r>    13.0722     0.1078    15.0812 </r>
       <r>    13.1621     0.0661    15.0872 </r>
       <r>    13.2520     0.0712    15.0936 </r>
       <r>    13.3420     0.2044    15.1120 </r>
       <r>    13.4319     0.3305    15.1417 </r>
       <r>    13.5219     0.2682    15.1658 </r>
       <r>    13.6118     0.0886    15.1738 </r>
       <r>    13.7017    -0.0087    15.1730 </r>
       <r>    13.7917     0.0594    15.1784 </r>
       <r>    13.8816     0.2236    15.1985 </r>
       <r>    13.9716     0.3322    15.2284 </r>
       <r>    14.0615     0.3721    15.2618 </r>
       <r>    14.1514     0.4814    15.3051 </r>
       <r>    14.2414     0.6567    15.3642 </r>
       <r>    14.3313     0.7915    15.4354 </r>
       <r>    14.4212     0.7791    15.5054 </r>
       <r>    14.5112     0.5231    15.5525 </r>
       <r>    14.6011     0.1730    15.5681 </r>
       <r>    14.6911    -0.0234    15.5660 </r>
       <r>    14.7810    -0.0526    15.5612 </r>
       <r>    14.8709     0.0104    15.5622 </r>
       <r>    14.9609     0.1627    15.5768 </r>
       <r>    15.0508     0.3203    15.6056 </r>
       <r>    15.1408     0.3113    15.6336 </r>
       <r>    15.2307     0.1496    15.6471 </r>
       <r>    15.3206     0.0168    15.6486 </r>
       <r>    15.4106    -0.0177    15.6470 </r>
       <r>    15.5005    -0.0099    15.6461 </r>
       <r>    15.5904    -0.0024    15.6459 </r>
       <r>    15.6804    -0.0004    15.6458 </r>
       <r>    15.7703    -0.0000    15.6458 </r>
       <r>    15.8603    -0.0000    15.6458 </r>
       <r>    15.9502    -0.0002    15.6458 </r>
       <r>    16.0401    -0.0013    15.6457 </r>
       <r>    16.1301    -0.0066    15.6451 </r>
       <r>    16.2200    -0.0166    15.6436 </r>
       <r>    16.3100    -0.0040    15.6432 </r>
       <r>    16.3999     0.0940    15.6517 </r>
       <r>    16.4898     0.2640    15.6754 </r>
       <r>    16.5798     0.3384    15.7059 </r>
       <r>    16.6697     0.2286    15.7264 </r>
       <r>    16.7597     0.0865    15.7342 </r>
       <r>    16.8496     0.0400    15.7378 </r>
       <r>    16.9395     0.0386    15.7413 </r>
       <r>    17.0295     0.0221    15.7433 </r>
       <r>    17.1194     0.0029    15.7435 </r>
       <r>    17.2093    -0.0033    15.7432 </r>
       <r>    17.2993    -0.0038    15.7429 </r>
       <r>    17.3892    -0.0093    15.7421 </r>
       <r>    17.4792    -0.0178    15.7404 </r>
       <r>    17.5691     0.0096    15.7413 </r>
       <r>    17.6590     0.1328    15.7533 </r>
       <r>    17.7490     0.2993    15.7802 </r>
       <r>    17.8389     0.3262    15.8095 </r>
       <r>    17.9289     0.1718    15.8250 </r>
       <r>    18.0188     0.0114    15.8260 </r>
       <r>    18.1087    -0.0071    15.8253 </r>
       <r>    18.1987     0.1500    15.8388 </r>
       <r>    18.2886     0.3919    15.8741 </r>
       <r>    18.3785     0.4849    15.9177 </r>
       <r>    18.4685     0.3215    15.9466 </r>
       <r>    18.5584     0.0932    15.9550 </r>
       <r>    18.6484    -0.0089    15.9542 </r>
       <r>    18.7383    -0.0027    15.9540 </r>
       <r>    18.8282     0.0209    15.9558 </r>
       <r>    18.9182     0.0215    15.9578 </r>
       <r>    19.0081     0.0085    15.9585 </r>
       <r>    19.0981    -0.0001    15.9585 </r>
       <r>    19.1880    -0.0014    15.9584 </r>
       <r>    19.2779    -0.0006    15.9583 </r>
       <r>    19.3679    -0.0002    15.9583 </r>
       <r>    19.4578    -0.0007    15.9583 </r>
       <r>    19.5477    -0.0033    15.9580 </r>
       <r>    19.6377    -0.0083    15.9572 </r>
       <r>    19.7276    -0.0021    15.9570 </r>
       <r>    19.8176     0.0469    15.9613 </r>
       <r>    19.9075     0.1325    15.9732 </r>
       <r>    19.9974     0.1707    15.9885 </r>
       <r>    20.0874     0.1131    15.9987 </r>
       <r>    20.1773     0.0307    16.0015 </r>
       <r>    20.2673    -0.0061    16.0009 </r>
       <r>    20.3572    -0.0073    16.0003 </r>
       <r>    20.4471    -0.0024    16.0000 </r>
       <r>    20.5371    -0.0004    16.0000 </r>
       <r>    20.6270    -0.0000    16.0000 </r>
       <r>    20.7169    -0.0000    16.0000 </r>
       <r>    20.8069    -0.0000    16.0000 </r>
       <r>    20.8968    -0.0000    16.0000 </r>
       <r>    20.9868    -0.0000    16.0000 </r>
       <r>    21.0767    -0.0000    16.0000 </r>
       <r>    21.1666    -0.0000    16.0000 </r>
       <r>    21.2566     0.0000    16.0000 </r>
       <r>    21.3465     0.0000    16.0000 </r>
       <r>    21.4365     0.0000    16.0000 </r>
       <r>    21.5264     0.0000    16.0000 </r>
       <r>    21.6163     0.0000    16.0000 </r>
       <r>    21.7063     0.0000    16.0000 </r>
       <r>    21.7962     0.0000    16.0000 </r>
       <r>    21.8861     0.0000    16.0000 </r>
       <r>    21.9761     0.0000    16.0000 </r>
      </set>
      <set comment="spin 2">
       <r>    -5.0055     0.0000     0.0000 </r>
       <r>    -4.9156     0.0000     0.0000 </r>
       <r>    -4.8256     0.0000     0.0000 </r>
       <r>    -4.7357     0.0000     0.0000 </r>
       <r>    -4.6457     0.0000     0.0000 </r>
       <r>    -4.5558     0.0000     0.0000 </r>
       <r>    -4.4659     0.0000     0.0000 </r>
       <r>    -4.3759    -0.0000    -0.0000 </r>
       <r>    -4.2860    -0.0000    -0.0000 </r>
       <r>    -4.1960    -0.0000    -0.0000 </r>
       <r>    -4.1061    -0.0000    -0.0000 </r>
       <r>    -4.0162    -0.0000    -0.0000 </r>
       <r>    -3.9262    -0.0000    -0.0000 </r>
       <r>    -3.8363    -0.0000    -0.0000 </r>
       <r>    -3.7463    -0.0000    -0.0000 </r>
       <r>    -3.6564    -0.0000    -0.0000 </r>
       <r>    -3.5665    -0.0000    -0.0000 </r>
       <r>    -3.4765    -0.0000    -0.0000 </r>
       <r>    -3.3866    -0.0000    -0.0000 </r>
       <r>    -3.2967    -0.0001    -0.0000 </r>
       <r>    -3.2067    -0.0004    -0.0000 </r>
       <r>    -3.1168    -0.0018    -0.0002 </r>
       <r>    -3.0268    -0.0037    -0.0005 </r>
       <r>    -2.9369     0.0006    -0.0005 </r>
       <r>    -2.8470     0.0231     0.0016 </r>
       <r>    -2.7570     0.0600     0.0070 </r>
       <r>    -2.6671     0.0828     0.0144 </r>
       <r>    -2.5771     0.0788     0.0215 </r>
       <r>    -2.4872     0.0666     0.0275 </r>
       <r>    -2.3973     0.0586     0.0328 </r>
       <r>    -2.3073     0.0604     0.0382 </r>
       <r>    -2.2174     0.0705     0.0446 </r>
       <r>    -2.1275     0.0604     0.0500 </r>
       <r>    -2.0375     0.0207     0.0519 </r>
       <r>    -1.9476     0.0123     0.0530 </r>
       <r>    -1.8576     0.1279     0.0645 </r>
       <r>    -1.7677     0.3485     0.0958 </r>
       <r>    -1.6778     0.4958     0.1404 </r>
       <r>    -1.5878     0.4798     0.1836 </r>
       <r>    -1.4979     0.4062     0.2201 </r>
       <r>    -1.4079     0.3562     0.2521 </r>
       <r>    -1.3180     0.3690     0.2853 </r>
       <r>    -1.2281     0.4398     0.3249 </r>
       <r>    -1.1381     0.4224     0.3629 </r>
       <r>    -1.0482     0.2527     0.3856 </r>
       <r>    -0.9583     0.0711     0.3920 </r>
       <r>    -0.8683    -0.0100     0.3911 </r>
       <r>    -0.7784    -0.0164     0.3896 </r>
       <r>    -0.6884    -0.0065     0.3890 </r>
       <r>    -0.5985    -0.0015     0.3889 </r>
       <r>    -0.5086    -0.0014     0.3888 </r>
       <r>    -0.4186    -0.0065     0.3882 </r>
       <r>    -0.3287    -0.0202     0.3864 </r>
       <r>    -0.2387    -0.0255     0.3841 </r>
       <r>    -0.1488     0.0408     0.3877 </r>
       <r>    -0.0589     0.2268     0.4081 </r>
       <r>     0.0311     0.4859     0.4518 </r>
       <r>     0.1210     0.8164     0.5253 </r>
       <r>     0.2109     1.3374     0.6456 </r>
       <r>     0.3009     1.9507     0.8210 </r>
       <r>     0.3908     2.1650     1.0157 </r>
       <r>     0.4808     1.6171     1.1612 </r>
       <r>     0.5707     0.6616     1.2207 </r>
       <r>     0.6606    -0.0349     1.2175 </r>
       <r>     0.7506    -0.1013     1.2084 </r>
       <r>     0.8405     0.7042     1.2717 </r>
       <r>     0.9305     2.0939     1.4601 </r>
       <r>     1.0204     2.7102     1.7038 </r>
       <r>     1.1103     1.7968     1.8654 </r>
       <r>     1.2003     0.4635     1.9071 </r>
       <r>     1.2902    -0.1557     1.8931 </r>
       <r>     1.3802    -0.1203     1.8823 </r>
       <r>     1.4701     0.2315     1.9031 </r>
       <r>     1.5600     0.9642     1.9898 </r>
       <r>     1.6500     2.4629     2.2113 </r>
       <r>     1.7399     4.6539     2.6299 </r>
       <r>     1.8298     6.2595     3.1929 </r>
       <r>     1.9198     5.9040     3.7239 </r>
       <r>     2.0097     3.8687     4.0718 </r>
       <r>     2.0997     1.9426     4.2465 </r>
       <r>     2.1896     1.5446     4.3854 </r>
       <r>     2.2795     2.1571     4.5795 </r>
       <r>     2.3695     2.2707     4.7837 </r>
       <r>     2.4594     1.7366     4.9399 </r>
       <r>     2.5494     1.7898     5.1008 </r>
       <r>     2.6393     2.9156     5.3631 </r>
       <r>     2.7292     4.0308     5.7256 </r>
       <r>     2.8192     4.1041     6.0947 </r>
       <r>     2.9091     3.7731     6.4340 </r>
       <r>     2.9990     4.2496     6.8162 </r>
       <r>     3.0890     5.3428     7.2968 </r>
       <r>     3.1789     5.7243     7.8116 </r>
       <r>     3.2689     4.9508     8.2569 </r>
       <r>     3.3588     4.1928     8.6340 </r>
       <r>     3.4487     4.2621     9.0173 </r>
       <r>     3.5387     4.3043     9.4044 </r>
       <r>     3.6286     3.4562     9.7153 </r>
       <r>     3.7186     2.3308     9.9249 </r>
       <r>     3.8085     1.7241    10.0800 </r>
       <r>     3.8984     1.6949    10.2324 </r>
       <r>     3.9884     2.2103    10.4312 </r>
       <r>     4.0783     2.6392    10.6686 </r>
       <r>     4.1682     2.0315    10.8513 </r>
       <r>     4.2582     0.7828    10.9217 </r>
       <r>     4.3481    -0.0135    10.9205 </r>
       <r>     4.4381    -0.0784    10.9134 </r>
       <r>     4.5280     0.3157    10.9418 </r>
       <r>     4.6179     0.7790    11.0119 </r>
       <r>     4.7079     0.8384    11.0873 </r>
       <r>     4.7978     0.4534    11.1280 </r>
       <r>     4.8878     0.1098    11.1379 </r>
       <r>     4.9777     0.1089    11.1477 </r>
       <r>     5.0676     0.2773    11.1726 </r>
       <r>     5.1576     0.3567    11.2047 </r>
       <r>     5.2475     0.3482    11.2360 </r>
       <r>     5.3374     0.3546    11.2679 </r>
       <r>     5.4274     0.3574    11.3001 </r>
       <r>     5.5173     0.3325    11.3300 </r>
       <r>     5.6073     0.2887    11.3559 </r>
       <r>     5.6972     0.1917    11.3732 </r>
       <r>     5.7871     0.0523    11.3779 </r>
       <r>     5.8771    -0.0129    11.3767 </r>
       <r>     5.9670     0.1750    11.3925 </r>
       <r>     6.0570     0.7029    11.4557 </r>
       <r>     6.1469     1.2617    11.5692 </r>
       <r>     6.2368     1.4075    11.6958 </r>
       <r>     6.3268     1.1965    11.8034 </r>
       <r>     6.4167     0.9053    11.8848 </r>
       <r>     6.5067     0.6778    11.9457 </r>
       <r>     6.5966     0.6756    12.0065 </r>
       <r>     6.6865     0.8308    12.0812 </r>
       <r>     6.7765     0.8856    12.1609 </r>
       <r>     6.8664     0.7438    12.2278 </r>
       <r>     6.9563     0.4525    12.2685 </r>
       <r>     7.0463     0.1907    12.2856 </r>
       <r>     7.1362     0.1096    12.2955 </r>
       <r>     7.2262     0.1181    12.3061 </r>
       <r>     7.3161     0.1183    12.3167 </r>
       <r>     7.4060     0.2000    12.3347 </r>
       <r>     7.4960     0.3902    12.3698 </r>
       <r>     7.5859     0.5242    12.4170 </r>
       <r>     7.6759     0.4614    12.4585 </r>
       <r>     7.7658     0.2484    12.4808 </r>
       <r>     7.8557     0.0928    12.4892 </r>
       <r>     7.9457     0.1492    12.5026 </r>
       <r>     8.0356     0.2971    12.5293 </r>
       <r>     8.1255     0.2961    12.5559 </r>
       <r>     8.2155     0.1597    12.5703 </r>
       <r>     8.3054     0.0970    12.5790 </r>
       <r>     8.3954     0.1370    12.5913 </r>
       <r>     8.4853     0.1323    12.6032 </r>
       <r>     8.5752     0.0615    12.6088 </r>
       <r>     8.6652     0.0694    12.6150 </r>
       <r>     8.7551     0.2163    12.6345 </r>
       <r>     8.8451     0.3363    12.6647 </r>
       <r>     8.9350     0.2646    12.6885 </r>
       <r>     9.0249     0.0943    12.6970 </r>
       <r>     9.1149    -0.0057    12.6965 </r>
       <r>     9.2048    -0.0250    12.6942 </r>
       <r>     9.2947    -0.0261    12.6919 </r>
       <r>     9.3847    -0.0056    12.6914 </r>
       <r>     9.4746     0.1012    12.7005 </r>
       <r>     9.5646     0.2956    12.7271 </r>
       <r>     9.6545     0.4579    12.7683 </r>
       <r>     9.7444     0.4761    12.8111 </r>
       <r>     9.8344     0.3326    12.8410 </r>
       <r>     9.9243     0.1531    12.8548 </r>
       <r>    10.0143     0.2127    12.8739 </r>
       <r>    10.1042     0.6226    12.9299 </r>
       <r>    10.1941     1.0727    13.0264 </r>
       <r>    10.2841     1.1990    13.1342 </r>
       <r>    10.3740     1.0582    13.2294 </r>
       <r>    10.4639     0.8915    13.3096 </r>
       <r>    10.5539     0.7367    13.3758 </r>
       <r>    10.6438     0.5507    13.4254 </r>
       <r>    10.7338     0.3859    13.4601 </r>
       <r>    10.8237     0.2849    13.4857 </r>
       <r>    10.9136     0.2202    13.5055 </r>
       <r>    11.0036     0.2010    13.5236 </r>
       <r>    11.0935     0.3173    13.5521 </r>
       <r>    11.1835     0.5938    13.6055 </r>
       <r>    11.2734     0.7576    13.6736 </r>
       <r>    11.3633     0.5538    13.7234 </r>
       <r>    11.4533     0.2354    13.7446 </r>
       <r>    11.5432     0.1522    13.7583 </r>
       <r>    11.6332     0.2560    13.7813 </r>
       <r>    11.7231     0.3768    13.8152 </r>
       <r>    11.8130     0.5753    13.8670 </r>
       <r>    11.9030     0.9521    13.9526 </r>
       <r>    11.9929     1.2203    14.0623 </r>
       <r>    12.0828     1.0297    14.1549 </r>
       <r>    12.1728     0.5839    14.2075 </r>
       <r>    12.2627     0.2645    14.2312 </r>
       <r>    12.3527     0.1610    14.2457 </r>
       <r>    12.4426     0.3121    14.2738 </r>
       <r>    12.5325     0.7564    14.3418 </r>
       <r>    12.6225     1.2170    14.4513 </r>
       <r>    12.7124     1.2723    14.5657 </r>
       <r>    12.8024     0.9689    14.6528 </r>
       <r>    12.8923     0.7711    14.7222 </r>
       <r>    12.9822     0.8008    14.7942 </r>
       <r>    13.0722     0.8308    14.8689 </r>
       <r>    13.1621     0.8665    14.9469 </r>
       <r>    13.2520     0.8698    15.0251 </r>
       <r>    13.3420     0.6037    15.0794 </r>
       <r>    13.4319     0.1996    15.0974 </r>
       <r>    13.5219    -0.0210    15.0955 </r>
       <r>    13.6118    -0.0515    15.0908 </r>
       <r>    13.7017    -0.0335    15.0878 </r>
       <r>    13.7917     0.0163    15.0893 </r>
       <r>    13.8816     0.1537    15.1031 </r>
       <r>    13.9716     0.3059    15.1306 </r>
       <r>    14.0615     0.2882    15.1565 </r>
       <r>    14.1514     0.1293    15.1682 </r>
       <r>    14.2414     0.1293    15.1798 </r>
       <r>    14.3313     0.4289    15.2184 </r>
       <r>    14.4212     0.7043    15.2817 </r>
       <r>    14.5112     0.5896    15.3348 </r>
       <r>    14.6011     0.2669    15.3588 </r>
       <r>    14.6911     0.1505    15.3723 </r>
       <r>    14.7810     0.3250    15.4015 </r>
       <r>    14.8709     0.5903    15.4546 </r>
       <r>    14.9609     0.6577    15.5138 </r>
       <r>    15.0508     0.4330    15.5527 </r>
       <r>    15.1408     0.2063    15.5713 </r>
       <r>    15.2307     0.2242    15.5914 </r>
       <r>    15.3206     0.3143    15.6197 </r>
       <r>    15.4106     0.2415    15.6414 </r>
       <r>    15.5005     0.0800    15.6486 </r>
       <r>    15.5904    -0.0076    15.6479 </r>
       <r>    15.6804    -0.0160    15.6465 </r>
       <r>    15.7703    -0.0059    15.6460 </r>
       <r>    15.8603    -0.0012    15.6458 </r>
       <r>    15.9502    -0.0001    15.6458 </r>
       <r>    16.0401    -0.0000    15.6458 </r>
       <r>    16.1301    -0.0000    15.6458 </r>
       <r>    16.2200    -0.0001    15.6458 </r>
       <r>    16.3100    -0.0010    15.6457 </r>
       <r>    16.3999    -0.0053    15.6453 </r>
       <r>    16.4898    -0.0154    15.6439 </r>
       <r>    16.5798    -0.0111    15.6429 </r>
       <r>    16.6697     0.0684    15.6490 </r>
       <r>    16.7597     0.2371    15.6703 </r>
       <r>    16.8496     0.3547    15.7022 </r>
       <r>    16.9395     0.2933    15.7286 </r>
       <r>    17.0295     0.1402    15.7412 </r>
       <r>    17.1194     0.0349    15.7444 </r>
       <r>    17.2093    -0.0023    15.7442 </r>
       <r>    17.2993    -0.0072    15.7435 </r>
       <r>    17.3892    -0.0041    15.7431 </r>
       <r>    17.4792    -0.0034    15.7428 </r>
       <r>    17.5691    -0.0096    15.7420 </r>
       <r>    17.6590    -0.0178    15.7404 </r>
       <r>    17.7490     0.0131    15.7416 </r>
       <r>    17.8389     0.1411    15.7542 </r>
       <r>    17.9289     0.3056    15.7817 </r>
       <r>    18.0188     0.3250    15.8110 </r>
       <r>    18.1087     0.1737    15.8266 </r>
       <r>    18.1987     0.0249    15.8288 </r>
       <r>    18.2886    -0.0305    15.8261 </r>
       <r>    18.3785    -0.0300    15.8234 </r>
       <r>    18.4685     0.0289    15.8260 </r>
       <r>    18.5584     0.1977    15.8438 </r>
       <r>    18.6484     0.4148    15.8811 </r>
       <r>    18.7383     0.4797    15.9242 </r>
       <r>    18.8282     0.3165    15.9527 </r>
       <r>    18.9182     0.0994    15.9616 </r>
       <r>    19.0081    -0.0076    15.9610 </r>
       <r>    19.0981    -0.0193    15.9592 </r>
       <r>    19.1880    -0.0078    15.9585 </r>
       <r>    19.2779    -0.0017    15.9584 </r>
       <r>    19.3679    -0.0003    15.9583 </r>
       <r>    19.4578    -0.0003    15.9583 </r>
       <r>    19.5477    -0.0019    15.9581 </r>
       <r>    19.6377    -0.0065    15.9575 </r>
       <r>    19.7276    -0.0077    15.9569 </r>
       <r>    19.8176     0.0219    15.9588 </r>
       <r>    19.9075     0.1001    15.9678 </r>
       <r>    19.9974     0.1677    15.9829 </r>
       <r>    20.0874     0.1435    15.9958 </r>
       <r>    20.1773     0.0585    16.0011 </r>
       <r>    20.2673     0.0018    16.0012 </r>
       <r>    20.3572    -0.0087    16.0004 </r>
       <r>    20.4471    -0.0040    16.0001 </r>
       <r>    20.5371    -0.0009    16.0000 </r>
       <r>    20.6270    -0.0001    16.0000 </r>
       <r>    20.7169    -0.0000    16.0000 </r>
       <r>    20.8069    -0.0000    16.0000 </r>
       <r>    20.8968    -0.0000    16.0000 </r>
       <r>    20.9868    -0.0000    16.0000 </r>
       <r>    21.0767    -0.0000    16.0000 </r>
       <r>    21.1666    -0.0000    16.0000 </r>
       <r>    21.2566    -0.0000    16.0000 </r>
       <r>    21.3465     0.0000    16.0000 </r>
       <r>    21.4365     0.0000    16.0000 </r>
       <r>    21.5264     0.0000    16.0000 </r>
       <r>    21.6163     0.0000    16.0000 </r>
       <r>    21.7063     0.0000    16.0000 </r>
       <r>    21.7962     0.0000    16.0000 </r>
       <r>    21.8861     0.0000    16.0000 </r>
       <r>    21.9761     0.0000    16.0000 </r>
      </set>
     </set>
    </array>
   </total>
  </dos>
 </calculation>
 <structure name="finalpos" >
  <crystal>
   <varray name="basis" >
    <v>       2.47000000       0.00000000       0.00000000 </v>
    <v>      -1.23500000       2.13908275       0.00000000 </v>
    <v>       0.00000000       0.00000000       8.09000000 </v>
   </varray>
   <i name="volume">     42.74379318 </i>
   <varray name="rec_basis" >
    <v>       0.40485830       0.23374505       0.00000000 </v>
    <v>       0.00000000       0.46749010       0.00000000 </v>
    <v>       0.00000000       0.00000000       0.12360939 </v>
   </varray>
  </crystal>
  <varray name="positions" >
   <v>       0.00000000       0.00000000       0.00000000 </v>
   <v>       0.33333333       0.66666667       0.50000000 </v>
  </varray>
 </structure>
</modeling>
