PROCAR lm decomposed
# of k-points:   95         # of bands:   24         # of ions:    2

 k-point     1 :    0.00000000 0.00000000 0.00000000     weight = 0.00086806

band     1 # energy    1.10569818 # occ.  1.00000000
 
ion      s     py     pz     px    dxy    dyz    dz2    dxz  x2-y2    tot
    1  0.350  0.000  0.000  0.000  0.000  0.000  0.000  0.000  0.000  0.350
    2  0.350  0.000  0.000  0.000  0.000  0.000  0.000  0.000  0.000  0.350
tot    0.701  0.000  0.000  0.000  0.000  0.000  0.000  0.000  0.000  0.701
 
band     2 # energy    4.83619175 # occ.  1.00000000
 
ion      s     py     pz     px    dxy    dyz    dz2    dxz  x2-y2    tot
    1  0.076  0.000  0.000  0.000  0.000  0.000  0.365  0.000  0.000  0.441
    2  0.076  0.000  0.000  0.000  0.000  0.000  0.365  0.000  0.000  0.441
tot    0.153  0.000  0.000  0.000  0.000  0.000  0.729  0.000  0.000  0.882
 
band     3 # energy    7.25874684 # occ.  1.00000000
 
ion      s     py     pz     px    dxy    dyz    dz2    dxz  x2-y2    tot
    1  0.000  0.000  0.000  0.000  0.000  0.000  0.485  0.000  0.000  0.485
    2  0.000  0.000  0.000  0.000  0.000  0.000  0.485  0.000  0.000  0.485
tot    0.000  0.000  0.000  0.000  0.000  0.000  0.970  0.000  0.000  0.970
 
band     4 # energy    7.26791403 # occ.  1.00000000
 
ion      s     py     pz     px    dxy    dyz    dz2    dxz  x2-y2    tot
    1  0.000  0.001  0.000  0.000  0.000  0.000  0.000  0.000  0.481  0.482
    2  0.000  0.001  0.000  0.000  0.000  0.000  0.000  0.000  0.481  0.482
tot    0.000  0.001  0.000  0.000  0.000  0.000  0.000  0.000  0.962  0.963
 
band     5 # energy    7.26791416 # occ.  1.00000000
 
ion      s     py     pz     px    dxy    dyz    dz2    dxz  x2-y2    tot
    1  0.000  0.000  0.000  0.001  0.481  0.000  0.000  0.000  0.000  0.482
    2  0.000  0.000  0.000  0.001  0.481  0.000  0.000  0.000  0.000  0.482
tot    0.000  0.000  0.000  0.001  0.962  0.000  0.000  0.000  0.000  0.963
 
band     6 # energy    7.56597818 # occ.  1.00000000
 
ion      s     py     pz     px    dxy    dyz    dz2    dxz  x2-y2    tot
    1  0.000  0.001  0.000  0.000  0.000  0.000  0.000  0.000  0.486  0.486
    2  0.000  0.001  0.000  0.000  0.000  0.000  0.000  0.000  0.486  0.486
tot    0.000  0.001  0.000  0.000  0.000  0.000  0.000  0.000  0.971  0.973
 
band     7 # energy    7.56597833 # occ.  1.00000000
 
ion      s     py     pz     px    dxy    dyz    dz2    dxz  x2-y2    tot
    1  0.000  0.000  0.000  0.001  0.486  0.000  0.000  0.000  0.000  0.486
    2  0.000  0.000  0.000  0.001  0.486  0.000  0.000  0.000  0.000  0.486
tot    0.000  0.000  0.000  0.001  0.971  0.000  0.000  0.000  0.000  0.973
 
band     8 # energy    7.88932566 # occ.  1.00000000
 
ion      s     py     pz     px    dxy    dyz    dz2    dxz  x2-y2    tot
    1  0.000  0.000  0.000  0.000  0.000  0.489  0.000  0.000  0.000  0.489
    2  0.000  0.000  0.000  0.000  0.000  0.489  0.000  0.000  0.000  0.489
tot    0.000  0.000  0.000  0.000  0.000  0.978  0.000  0.000  0.000  0.978
 
band     9 # energy    7.88932566 # occ.  1.00000000
 
ion      s     py     pz     px    dxy    dyz    dz2    dxz  x2-y2    tot
    1  0.000  0.000  0.000  0.000  0.000  0.000  0.000  0.489  0.000  0.489
    2  0.000  0.000  0.000  0.000  0.000  0.000  0.000  0.489  0.000  0.489
tot    0.000  0.000  0.000  0.000  0.000  0.000  0.000  0.978  0.000  0.978
 
band    10 # energy    8.94728883 # occ.  1.00000000
 
ion      s     py     pz     px    dxy    dyz    dz2    dxz  x2-y2    tot
    1  0.000  0.000  0.000  0.000  0.000  0.000  0.000  0.492  0.000  0.492
    2  0.000  0.000  0.000  0.000  0.000  0.000  0.000  0.492  0.000  0.492
tot    0.000  0.000  0.000  0.000  0.000  0.000  0.000  0.985  0.000  0.985
 
band    11 # energy    8.94728887 # occ.  1.00000000
 
ion      s     py     pz     px    dxy    dyz    dz2    dxz  x2-y2    tot
    1  0.000  0.000  0.000  0.000  0.000  0.492  0.000  0.000  0.000  0.492
    2  0.000  0.000  0.000  0.000  0.000  0.492  0.000  0.000  0.000  0.492
tot    0.000  0.000  0.000  0.000  0.000  0.985  0.000  0.000  0.000  0.985
 
band    12 # energy    9.81482034 # occ.  0.38367624
 
ion      s     py     pz     px    dxy    dyz    dz2    dxz  x2-y2    tot
    1  0.000  0.000  0.333  0.000  0.000  0.000  0.000  0.000  0.000  0.333
    2  0.000  0.000  0.333  0.000  0.000  0.000  0.000  0.000  0.000  0.333
tot    0.000  0.000  0.665  0.000  0.000  0.000  0.000  0.000  0.000  0.665
 
band    13 # energy   15.95977458 # occ.  0.00000000
 
ion      s     py     pz     px    dxy    dyz    dz2    dxz  x2-y2    tot
    1  0.223  0.000  0.000  0.000  0.000  0.000  0.222  0.000  0.000  0.445
    2  0.223  0.000  0.000  0.000  0.000  0.000  0.222  0.000  0.000  0.445
tot    0.445  0.000  0.000  0.000  0.000  0.000  0.445  0.000  0.000  0.890
 
band    14 # energy   31.53631977 # occ.  0.00000000
 
ion      s     py     pz     px    dxy    dyz    dz2    dxz  x2-y2    tot
    1  0.007  0.000  0.000  0.000  0.000  0.000  0.033  0.000  0.000  0.039
    2  0.007  0.000  0.000  0.000  0.000  0.000  0.033  0.000  0.000  0.039
tot    0.013  0.000  0.000  0.000  0.000  0.000  0.065  0.000  0.000  0.079
 
band    15 # energy   33.78292919 # occ.  0.00000000
 
ion      s     py     pz     px    dxy    dyz    dz2    dxz  x2-y2    tot
    1  0.000  0.272  0.000  0.000  0.000  0.000  0.000  0.000  0.112  0.384
    2  0.000  0.272  0.000  0.000  0.000  0.000  0.000  0.000  0.112  0.384
tot    0.000  0.544  0.000  0.000  0.000  0.000  0.000  0.000  0.223  0.767
 
band    16 # energy   33.78293139 # occ.  0.00000000
 
ion      s     py     pz     px    dxy    dyz    dz2    dxz  x2-y2    tot
    1  0.000  0.000  0.000  0.272  0.112  0.000  0.000  0.000  0.000  0.384
    2  0.000  0.000  0.000  0.272  0.112  0.000  0.000  0.000  0.000  0.384
tot    0.000  0.000  0.000  0.544  0.223  0.000  0.000  0.000  0.000  0.767
 
band    17 # energy   34.56304681 # occ.  0.00000000
 
ion      s     py     pz     px    dxy    dyz    dz2    dxz  x2-y2    tot
    1  0.024  0.000  0.000  0.000  0.000  0.000  0.074  0.000  0.000  0.098
    2  0.024  0.000  0.000  0.000  0.000  0.000  0.074  0.000  0.000  0.098
tot    0.048  0.000  0.000  0.000  0.000  0.000  0.148  0.000  0.000  0.196
 
band    18 # energy   35.03960496 # occ.  0.00000000
 
ion      s     py     pz     px    dxy    dyz    dz2    dxz  x2-y2    tot
    1  0.000  0.000  0.030  0.000  0.000  0.000  0.000  0.000  0.000  0.030
    2  0.000  0.000  0.030  0.000  0.000  0.000  0.000  0.000  0.000  0.030
tot    0.000  0.000  0.061  0.000  0.000  0.000  0.000  0.000  0.000  0.061
 
band    19 # energy   35.17008351 # occ.  0.00000000
 
ion      s     py     pz     px    dxy    dyz    dz2    dxz  x2-y2    tot
    1  0.000  0.090  0.000  0.000  0.000  0.000  0.000  0.000  0.359  0.449
    2  0.000  0.090  0.000  0.000  0.000  0.000  0.000  0.000  0.359  0.449
tot    0.000  0.181  0.000  0.000  0.000  0.000  0.000  0.000  0.718  0.899
 
band    20 # energy   35.17008564 # occ.  0.00000000
 
ion      s     py     pz     px    dxy    dyz    dz2    dxz  x2-y2    tot
    1  0.000  0.000  0.000  0.090  0.359  0.000  0.000  0.000  0.000  0.449
    2  0.000  0.000  0.000  0.090  0.359  0.000  0.000  0.000  0.000  0.449
tot    0.000  0.000  0.000  0.181  0.718  0.000  0.000  0.000  0.000  0.899
 
band    21 # energy   39.86009374 # occ.  0.00000000
 
ion      s     py     pz     px    dxy    dyz    dz2    dxz  x2-y2    tot
    1  0.000  0.000  0.000  0.000  0.000  0.131  0.000  0.000  0.000  0.131
    2  0.000  0.000  0.000  0.000  0.000  0.131  0.000  0.000  0.000  0.131
tot    0.000  0.000  0.000  0.000  0.000  0.263  0.000  0.000  0.000  0.263
 
band    22 # energy   39.86009425 # occ.  0.00000000
 
ion      s     py     pz     px    dxy    dyz    dz2    dxz  x2-y2    tot
    1  0.000  0.000  0.000  0.000  0.000  0.000  0.000  0.131  0.000  0.131
    2  0.000  0.000  0.000  0.000  0.000  0.000  0.000  0.131  0.000  0.131
tot    0.000  0.000  0.000  0.000  0.000  0.000  0.000  0.263  0.000  0.263
 
band    23 # energy   40.58816364 # occ.  0.00000000
 
ion      s     py     pz     px    dxy    dyz    dz2    dxz  x2-y2    tot
    1  0.004  0.000  0.000  0.000  0.000  0.000  0.590  0.000  0.000  0.593
    2  0.004  0.000  0.000  0.000  0.000  0.000  0.590  0.000  0.000  0.593
tot    0.007  0.000  0.000  0.000  0.000  0.000  1.180  0.000  0.000  1.187
 
band    24 # energy   41.23073999 # occ.  0.00000000
 
ion      s     py     pz     px    dxy    dyz    dz2    dxz  x2-y2    tot
    1  0.000  0.000  0.048  0.000  0.000  0.000  0.000  0.000  0.000  0.048
    2  0.000  0.000  0.048  0.000  0.000  0.000  0.000  0.000  0.000  0.048
tot    0.000  0.000  0.096  0.000  0.000  0.000  0.000  0.000  0.000  0.096
 

 k-point     2 :    0.08333333-0.00000000 0.00000000     weight = 0.00520833

band     1 # energy    1.34302941 # occ.  1.00000000
 
ion      s     py     pz     px    dxy    dyz    dz2    dxz  x2-y2    tot
    1  0.343  0.002  0.000  0.006  0.000  0.000  0.000  0.000  0.000  0.351
    2  0.343  0.002  0.000  0.006  0.000  0.000  0.000  0.000  0.000  0.351
tot    0.685  0.004  0.000  0.012  0.000  0.000  0.000  0.000  0.000  0.701
 
band     2 # energy    4.97563524 # occ.  1.00000000
 
ion      s     py     pz     px    dxy    dyz    dz2    dxz  x2-y2    tot
    1  0.069  0.001  0.000  0.004  0.002  0.000  0.366  0.000  0.001  0.442
    2  0.069  0.001  0.000  0.004  0.002  0.000  0.366  0.000  0.001  0.442
tot    0.139  0.002  0.000  0.007  0.004  0.000  0.731  0.000  0.001  0.885
 
band     3 # energy    7.04741112 # occ.  1.00000000
 
ion      s     py     pz     px    dxy    dyz    dz2    dxz  x2-y2    tot
    1  0.000  0.000  0.000  0.001  0.236  0.000  0.163  0.000  0.079  0.479
    2  0.000  0.000  0.000  0.001  0.236  0.000  0.163  0.000  0.079  0.479
tot    0.000  0.001  0.000  0.002  0.473  0.000  0.326  0.000  0.158  0.959
 
band     4 # energy    7.37566669 # occ.  1.00000000
 
ion      s     py     pz     px    dxy    dyz    dz2    dxz  x2-y2    tot
    1  0.000  0.001  0.000  0.000  0.120  0.000  0.000  0.000  0.361  0.482
    2  0.000  0.001  0.000  0.000  0.120  0.000  0.000  0.000  0.361  0.482
tot    0.000  0.001  0.000  0.000  0.240  0.000  0.000  0.000  0.721  0.964
 
band     5 # energy    7.44411533 # occ.  1.00000000
 
ion      s     py     pz     px    dxy    dyz    dz2    dxz  x2-y2    tot
    1  0.000  0.000  0.000  0.000  0.152  0.000  0.281  0.000  0.051  0.485
    2  0.000  0.000  0.000  0.000  0.152  0.000  0.281  0.000  0.051  0.485
tot    0.000  0.000  0.000  0.001  0.305  0.000  0.562  0.000  0.102  0.970
 
band     6 # energy    7.52397447 # occ.  1.00000000
 
ion      s     py     pz     px    dxy    dyz    dz2    dxz  x2-y2    tot
    1  0.001  0.000  0.000  0.000  0.331  0.000  0.042  0.000  0.110  0.485
    2  0.001  0.000  0.000  0.000  0.331  0.000  0.042  0.000  0.110  0.485
tot    0.002  0.000  0.000  0.001  0.662  0.000  0.084  0.000  0.221  0.970
 
band     7 # energy    7.66123451 # occ.  1.00000000
 
ion      s     py     pz     px    dxy    dyz    dz2    dxz  x2-y2    tot
    1  0.000  0.001  0.000  0.000  0.121  0.000  0.000  0.000  0.364  0.487
    2  0.000  0.001  0.000  0.000  0.121  0.000  0.000  0.000  0.364  0.487
tot    0.000  0.002  0.000  0.001  0.243  0.000  0.000  0.000  0.728  0.973
 
band     8 # energy    7.75186490 # occ.  1.00000000
 
ion      s     py     pz     px    dxy    dyz    dz2    dxz  x2-y2    tot
    1  0.000  0.000  0.009  0.000  0.000  0.118  0.000  0.354  0.000  0.481
    2  0.000  0.000  0.009  0.000  0.000  0.118  0.000  0.354  0.000  0.481
tot    0.000  0.000  0.019  0.000  0.000  0.236  0.000  0.708  0.000  0.963
 
band     9 # energy    7.82228320 # occ.  1.00000000
 
ion      s     py     pz     px    dxy    dyz    dz2    dxz  x2-y2    tot
    1  0.000  0.000  0.000  0.000  0.000  0.366  0.000  0.122  0.000  0.488
    2  0.000  0.000  0.000  0.000  0.000  0.366  0.000  0.122  0.000  0.488
tot    0.000  0.000  0.000  0.000  0.000  0.732  0.000  0.244  0.000  0.976
 
band    10 # energy    8.24957399 # occ.  1.00000000
 
ion      s     py     pz     px    dxy    dyz    dz2    dxz  x2-y2    tot
    1  0.000  0.000  0.079  0.000  0.000  0.092  0.000  0.277  0.000  0.449
    2  0.000  0.000  0.079  0.000  0.000  0.092  0.000  0.277  0.000  0.449
tot    0.000  0.000  0.158  0.000  0.000  0.185  0.000  0.555  0.000  0.898
 
band    11 # energy    8.97587710 # occ.  1.00000000
 
ion      s     py     pz     px    dxy    dyz    dz2    dxz  x2-y2    tot
    1  0.000  0.000  0.000  0.000  0.000  0.370  0.000  0.123  0.000  0.493
    2  0.000  0.000  0.000  0.000  0.000  0.370  0.000  0.123  0.000  0.493
tot    0.000  0.000  0.000  0.000  0.000  0.739  0.000  0.246  0.000  0.986
 
band    12 # energy   10.81588609 # occ.  0.00000000
 
ion      s     py     pz     px    dxy    dyz    dz2    dxz  x2-y2    tot
    1  0.000  0.000  0.241  0.000  0.000  0.036  0.000  0.107  0.000  0.384
    2  0.000  0.000  0.241  0.000  0.000  0.036  0.000  0.107  0.000  0.384
tot    0.000  0.000  0.482  0.000  0.000  0.071  0.000  0.214  0.000  0.767
 
band    13 # energy   16.00480927 # occ.  0.00000000
 
ion      s     py     pz     px    dxy    dyz    dz2    dxz  x2-y2    tot
    1  0.219  0.002  0.000  0.005  0.000  0.000  0.216  0.000  0.000  0.442
    2  0.219  0.002  0.000  0.005  0.000  0.000  0.216  0.000  0.000  0.442
tot    0.438  0.003  0.000  0.010  0.000  0.000  0.433  0.000  0.000  0.885
 
band    14 # energy   29.56335159 # occ.  0.00000000
 
ion      s     py     pz     px    dxy    dyz    dz2    dxz  x2-y2    tot
    1  0.015  0.026  0.000  0.078  0.107  0.000  0.023  0.000  0.036  0.284
    2  0.015  0.026  0.000  0.078  0.107  0.000  0.023  0.000  0.036  0.284
tot    0.029  0.052  0.000  0.156  0.214  0.000  0.046  0.000  0.071  0.568
 
band    15 # energy   31.72757991 # occ.  0.00000000
 
ion      s     py     pz     px    dxy    dyz    dz2    dxz  x2-y2    tot
    1  0.000  0.176  0.000  0.059  0.039  0.000  0.000  0.000  0.117  0.391
    2  0.000  0.176  0.000  0.059  0.039  0.000  0.000  0.000  0.117  0.391
tot    0.000  0.352  0.000  0.117  0.078  0.000  0.000  0.000  0.234  0.782
 
band    16 # energy   31.88069346 # occ.  0.00000000
 
ion      s     py     pz     px    dxy    dyz    dz2    dxz  x2-y2    tot
    1  0.021  0.021  0.000  0.062  0.060  0.000  0.039  0.000  0.020  0.224
    2  0.021  0.021  0.000  0.062  0.060  0.000  0.039  0.000  0.020  0.224
tot    0.043  0.042  0.000  0.125  0.120  0.000  0.078  0.000  0.040  0.447
 
band    17 # energy   35.04890833 # occ.  0.00000000
 
ion      s     py     pz     px    dxy    dyz    dz2    dxz  x2-y2    tot
    1  0.000  0.000  0.011  0.000  0.000  0.012  0.000  0.037  0.000  0.060
    2  0.000  0.000  0.011  0.000  0.000  0.012  0.000  0.037  0.000  0.060
tot    0.000  0.000  0.022  0.000  0.000  0.024  0.000  0.073  0.000  0.120
 
band    18 # energy   35.38044227 # occ.  0.00000000
 
ion      s     py     pz     px    dxy    dyz    dz2    dxz  x2-y2    tot
    1  0.004  0.015  0.000  0.046  0.036  0.000  0.036  0.000  0.012  0.149
    2  0.004  0.015  0.000  0.046  0.036  0.000  0.036  0.000  0.012  0.149
tot    0.008  0.030  0.000  0.091  0.073  0.000  0.071  0.000  0.024  0.297
 
band    19 # energy   36.76136203 # occ.  0.00000000
 
ion      s     py     pz     px    dxy    dyz    dz2    dxz  x2-y2    tot
    1  0.000  0.000  0.032  0.000  0.000  0.028  0.000  0.083  0.000  0.143
    2  0.000  0.000  0.032  0.000  0.000  0.028  0.000  0.083  0.000  0.143
tot    0.000  0.000  0.064  0.000  0.000  0.055  0.000  0.166  0.000  0.285
 
band    20 # energy   37.46276477 # occ.  0.00000000
 
ion      s     py     pz     px    dxy    dyz    dz2    dxz  x2-y2    tot
    1  0.000  0.086  0.000  0.029  0.082  0.000  0.000  0.000  0.245  0.442
    2  0.000  0.086  0.000  0.029  0.082  0.000  0.000  0.000  0.245  0.442
tot    0.000  0.173  0.000  0.058  0.163  0.000  0.000  0.000  0.490  0.883
 
band    21 # energy   38.22363380 # occ.  0.00000000
 
ion      s     py     pz     px    dxy    dyz    dz2    dxz  x2-y2    tot
    1  0.006  0.040  0.000  0.120  0.114  0.000  0.006  0.000  0.038  0.324
    2  0.006  0.040  0.000  0.120  0.114  0.000  0.006  0.000  0.038  0.324
tot    0.012  0.080  0.000  0.240  0.228  0.000  0.012  0.000  0.076  0.649
 
band    22 # energy   39.31107047 # occ.  0.00000000
 
ion      s     py     pz     px    dxy    dyz    dz2    dxz  x2-y2    tot
    1  0.000  0.000  0.000  0.000  0.000  0.184  0.000  0.061  0.000  0.245
    2  0.000  0.000  0.000  0.000  0.000  0.184  0.000  0.061  0.000  0.245
tot    0.000  0.000  0.000  0.000  0.000  0.367  0.000  0.122  0.000  0.490
 
band    23 # energy   40.15956439 # occ.  0.00000000
 
ion      s     py     pz     px    dxy    dyz    dz2    dxz  x2-y2    tot
    1  0.001  0.008  0.000  0.023  0.054  0.000  0.458  0.000  0.018  0.562
    2  0.001  0.008  0.000  0.023  0.054  0.000  0.458  0.000  0.018  0.562
tot    0.003  0.015  0.000  0.046  0.109  0.000  0.915  0.000  0.036  1.123
 
band    24 # energy   40.31919044 # occ.  0.00000000
 
ion      s     py     pz     px    dxy    dyz    dz2    dxz  x2-y2    tot
    1  0.000  0.000  0.203  0.000  0.000  0.039  0.000  0.116  0.000  0.357
    2  0.000  0.000  0.203  0.000  0.000  0.039  0.000  0.116  0.000  0.357
tot    0.000  0.000  0.406  0.000  0.000  0.077  0.000  0.232  0.000  0.715
 

 k-point     3 :    0.16666667-0.00000000 0.00000000     weight = 0.00520833

band     1 # energy    2.03025477 # occ.  1.00000000
 
ion      s     py     pz     px    dxy    dyz    dz2    dxz  x2-y2    tot
    1  0.319  0.007  0.000  0.022  0.002  0.000  0.001  0.000  0.001  0.352
    2  0.319  0.007  0.000  0.022  0.002  0.000  0.001  0.000  0.001  0.352
tot    0.638  0.015  0.000  0.044  0.004  0.000  0.002  0.000  0.001  0.704
 
band     2 # energy    5.31968378 # occ.  1.00000000
 
ion      s     py     pz     px    dxy    dyz    dz2    dxz  x2-y2    tot
    1  0.049  0.004  0.000  0.011  0.019  0.000  0.357  0.000  0.006  0.447
    2  0.049  0.004  0.000  0.011  0.019  0.000  0.357  0.000  0.006  0.447
tot    0.099  0.007  0.000  0.022  0.038  0.000  0.714  0.000  0.013  0.893
 
band     3 # energy    6.78906594 # occ.  1.00000000
 
ion      s     py     pz     px    dxy    dyz    dz2    dxz  x2-y2    tot
    1  0.000  0.001  0.000  0.004  0.264  0.000  0.116  0.000  0.088  0.473
    2  0.000  0.001  0.000  0.004  0.264  0.000  0.116  0.000  0.088  0.473
tot    0.001  0.003  0.000  0.008  0.527  0.000  0.231  0.000  0.176  0.945
 
band     4 # energy    7.09832459 # occ.  1.00000000
 
ion      s     py     pz     px    dxy    dyz    dz2    dxz  x2-y2    tot
    1  0.000  0.000  0.055  0.000  0.000  0.099  0.000  0.296  0.000  0.449
    2  0.000  0.000  0.055  0.000  0.000  0.099  0.000  0.296  0.000  0.449
tot    0.000  0.000  0.109  0.000  0.000  0.197  0.000  0.591  0.000  0.898
 
band     5 # energy    7.36287566 # occ.  1.00000000
 
ion      s     py     pz     px    dxy    dyz    dz2    dxz  x2-y2    tot
    1  0.004  0.000  0.000  0.001  0.315  0.000  0.056  0.000  0.105  0.481
    2  0.004  0.000  0.000  0.001  0.315  0.000  0.056  0.000  0.105  0.481
tot    0.008  0.001  0.000  0.003  0.629  0.000  0.112  0.000  0.210  0.963
 
band     6 # energy    7.65670154 # occ.  1.00000000
 
ion      s     py     pz     px    dxy    dyz    dz2    dxz  x2-y2    tot
    1  0.000  0.000  0.000  0.000  0.000  0.365  0.000  0.122  0.000  0.486
    2  0.000  0.000  0.000  0.000  0.000  0.365  0.000  0.122  0.000  0.486
tot    0.000  0.000  0.000  0.000  0.000  0.729  0.000  0.243  0.000  0.972
 
band     7 # energy    7.67931460 # occ.  1.00000000
 
ion      s     py     pz     px    dxy    dyz    dz2    dxz  x2-y2    tot
    1  0.000  0.001  0.000  0.000  0.120  0.000  0.000  0.000  0.361  0.483
    2  0.000  0.001  0.000  0.000  0.120  0.000  0.000  0.000  0.361  0.483
tot    0.000  0.003  0.000  0.001  0.241  0.000  0.000  0.000  0.722  0.966
 
band     8 # energy    7.73369847 # occ.  1.00000000
 
ion      s     py     pz     px    dxy    dyz    dz2    dxz  x2-y2    tot
    1  0.001  0.000  0.000  0.001  0.113  0.000  0.332  0.000  0.038  0.485
    2  0.001  0.000  0.000  0.001  0.113  0.000  0.332  0.000  0.038  0.485
tot    0.003  0.001  0.000  0.002  0.227  0.000  0.663  0.000  0.076  0.971
 
band     9 # energy    7.87151448 # occ.  1.00000000
 
ion      s     py     pz     px    dxy    dyz    dz2    dxz  x2-y2    tot
    1  0.000  0.000  0.034  0.000  0.000  0.109  0.000  0.328  0.000  0.471
    2  0.000  0.000  0.034  0.000  0.000  0.109  0.000  0.328  0.000  0.471
tot    0.000  0.000  0.067  0.000  0.000  0.219  0.000  0.657  0.000  0.943
 
band    10 # energy    7.92733158 # occ.  1.00000000
 
ion      s     py     pz     px    dxy    dyz    dz2    dxz  x2-y2    tot
    1  0.000  0.001  0.000  0.000  0.121  0.000  0.000  0.000  0.364  0.487
    2  0.000  0.001  0.000  0.000  0.121  0.000  0.000  0.000  0.364  0.487
tot    0.000  0.003  0.000  0.001  0.243  0.000  0.000  0.000  0.728  0.975
 
band    11 # energy    9.03694833 # occ.  1.00000000
 
ion      s     py     pz     px    dxy    dyz    dz2    dxz  x2-y2    tot
    1  0.000  0.000  0.000  0.000  0.000  0.371  0.000  0.124  0.000  0.494
    2  0.000  0.000  0.000  0.000  0.000  0.371  0.000  0.124  0.000  0.494
tot    0.000  0.000  0.000  0.000  0.000  0.741  0.000  0.247  0.000  0.988
 
band    12 # energy   12.35379962 # occ.  0.00000000
 
ion      s     py     pz     px    dxy    dyz    dz2    dxz  x2-y2    tot
    1  0.000  0.000  0.233  0.000  0.000  0.040  0.000  0.121  0.000  0.394
    2  0.000  0.000  0.233  0.000  0.000  0.040  0.000  0.121  0.000  0.394
tot    0.000  0.000  0.465  0.000  0.000  0.081  0.000  0.242  0.000  0.788
 
band    13 # energy   16.16132889 # occ.  0.00000000
 
ion      s     py     pz     px    dxy    dyz    dz2    dxz  x2-y2    tot
    1  0.205  0.008  0.000  0.023  0.001  0.000  0.198  0.000  0.000  0.435
    2  0.205  0.008  0.000  0.023  0.001  0.000  0.198  0.000  0.000  0.435
tot    0.411  0.015  0.000  0.045  0.001  0.000  0.396  0.000  0.000  0.869
 
band    14 # energy   25.74921680 # occ.  0.00000000
 
ion      s     py     pz     px    dxy    dyz    dz2    dxz  x2-y2    tot
    1  0.043  0.037  0.000  0.112  0.111  0.000  0.022  0.000  0.037  0.362
    2  0.043  0.037  0.000  0.112  0.111  0.000  0.022  0.000  0.037  0.362
tot    0.086  0.075  0.000  0.224  0.221  0.000  0.044  0.000  0.074  0.724
 
band    15 # energy   29.38966894 # occ.  0.00000000
 
ion      s     py     pz     px    dxy    dyz    dz2    dxz  x2-y2    tot
    1  0.000  0.190  0.000  0.063  0.030  0.000  0.000  0.000  0.091  0.375
    2  0.000  0.190  0.000  0.063  0.030  0.000  0.000  0.000  0.091  0.375
tot    0.000  0.380  0.000  0.127  0.061  0.000  0.000  0.000  0.182  0.749
 
band    16 # energy   30.96437349 # occ.  0.00000000
 
ion      s     py     pz     px    dxy    dyz    dz2    dxz  x2-y2    tot
    1  0.023  0.005  0.000  0.016  0.138  0.000  0.047  0.000  0.046  0.275
    2  0.023  0.005  0.000  0.016  0.138  0.000  0.047  0.000  0.046  0.275
tot    0.045  0.011  0.000  0.032  0.276  0.000  0.094  0.000  0.092  0.550
 
band    17 # energy   32.86136335 # occ.  0.00000000
 
ion      s     py     pz     px    dxy    dyz    dz2    dxz  x2-y2    tot
    1  0.000  0.000  0.042  0.000  0.000  0.052  0.000  0.157  0.000  0.251
    2  0.000  0.000  0.042  0.000  0.000  0.052  0.000  0.157  0.000  0.251
tot    0.000  0.000  0.083  0.000  0.000  0.105  0.000  0.314  0.000  0.502
 
band    18 # energy   35.15142677 # occ.  0.00000000
 
ion      s     py     pz     px    dxy    dyz    dz2    dxz  x2-y2    tot
    1  0.000  0.000  0.009  0.000  0.000  0.013  0.000  0.039  0.000  0.061
    2  0.000  0.000  0.009  0.000  0.000  0.013  0.000  0.039  0.000  0.061
tot    0.000  0.000  0.018  0.000  0.000  0.026  0.000  0.078  0.000  0.121
 
band    19 # energy   35.71265282 # occ.  0.00000000
 
ion      s     py     pz     px    dxy    dyz    dz2    dxz  x2-y2    tot
    1  0.033  0.040  0.000  0.121  0.051  0.000  0.032  0.000  0.017  0.295
    2  0.033  0.040  0.000  0.121  0.051  0.000  0.032  0.000  0.017  0.295
tot    0.067  0.081  0.000  0.243  0.102  0.000  0.064  0.000  0.034  0.590
 
band    20 # energy   37.83559328 # occ.  0.00000000
 
ion      s     py     pz     px    dxy    dyz    dz2    dxz  x2-y2    tot
    1  0.035  0.039  0.000  0.117  0.001  0.000  0.101  0.000  0.000  0.291
    2  0.035  0.039  0.000  0.117  0.001  0.000  0.101  0.000  0.000  0.291
tot    0.069  0.078  0.000  0.234  0.001  0.000  0.201  0.000  0.000  0.583
 
band    21 # energy   38.45935448 # occ.  0.00000000
 
ion      s     py     pz     px    dxy    dyz    dz2    dxz  x2-y2    tot
    1  0.000  0.000  0.000  0.000  0.000  0.272  0.000  0.091  0.000  0.363
    2  0.000  0.000  0.000  0.000  0.000  0.272  0.000  0.091  0.000  0.363
tot    0.000  0.000  0.000  0.000  0.000  0.545  0.000  0.182  0.000  0.726
 
band    22 # energy   39.01417260 # occ.  0.00000000
 
ion      s     py     pz     px    dxy    dyz    dz2    dxz  x2-y2    tot
    1  0.000  0.000  0.240  0.000  0.000  0.007  0.000  0.020  0.000  0.267
    2  0.000  0.000  0.240  0.000  0.000  0.007  0.000  0.020  0.000  0.267
tot    0.000  0.000  0.480  0.000  0.000  0.013  0.000  0.040  0.000  0.534
 
band    23 # energy   39.55392732 # occ.  0.00000000
 
ion      s     py     pz     px    dxy    dyz    dz2    dxz  x2-y2    tot
    1  0.000  0.065  0.000  0.022  0.099  0.000  0.000  0.000  0.298  0.485
    2  0.000  0.065  0.000  0.022  0.099  0.000  0.000  0.000  0.298  0.485
tot    0.000  0.131  0.000  0.044  0.199  0.000  0.000  0.000  0.596  0.970
 
band    24 # energy   40.92779472 # occ.  0.00000000
 
ion      s     py     pz     px    dxy    dyz    dz2    dxz  x2-y2    tot
    1  0.000  0.219  0.000  0.073  0.028  0.000  0.000  0.000  0.085  0.405
    2  0.000  0.219  0.000  0.073  0.028  0.000  0.000  0.000  0.085  0.405
tot    0.000  0.437  0.000  0.146  0.057  0.000  0.000  0.000  0.170  0.810
 

 k-point     4 :    0.25000000-0.00000000 0.00000000     weight = 0.00520833

band     1 # energy    3.07216112 # occ.  1.00000000
 
ion      s     py     pz     px    dxy    dyz    dz2    dxz  x2-y2    tot
    1  0.277  0.014  0.000  0.043  0.014  0.000  0.005  0.000  0.005  0.357
    2  0.277  0.014  0.000  0.043  0.014  0.000  0.005  0.000  0.005  0.357
tot    0.553  0.029  0.000  0.086  0.027  0.000  0.010  0.000  0.009  0.714
 
band     2 # energy    5.59410761 # occ.  1.00000000
 
ion      s     py     pz     px    dxy    dyz    dz2    dxz  x2-y2    tot
    1  0.024  0.004  0.000  0.011  0.104  0.000  0.278  0.000  0.035  0.455
    2  0.024  0.004  0.000  0.011  0.104  0.000  0.278  0.000  0.035  0.455
tot    0.049  0.007  0.000  0.022  0.207  0.000  0.556  0.000  0.069  0.909
 
band     3 # energy    6.40778890 # occ.  1.00000000
 
ion      s     py     pz     px    dxy    dyz    dz2    dxz  x2-y2    tot
    1  0.000  0.000  0.047  0.000  0.000  0.099  0.000  0.298  0.000  0.444
    2  0.000  0.000  0.047  0.000  0.000  0.099  0.000  0.298  0.000  0.444
tot    0.000  0.000  0.094  0.000  0.000  0.198  0.000  0.595  0.000  0.888
 
band     4 # energy    6.63628289 # occ.  1.00000000
 
ion      s     py     pz     px    dxy    dyz    dz2    dxz  x2-y2    tot
    1  0.001  0.006  0.000  0.019  0.229  0.000  0.130  0.000  0.076  0.461
    2  0.001  0.006  0.000  0.019  0.229  0.000  0.130  0.000  0.076  0.461
tot    0.002  0.012  0.000  0.037  0.458  0.000  0.259  0.000  0.153  0.922
 
band     5 # energy    7.27873768 # occ.  1.00000000
 
ion      s     py     pz     px    dxy    dyz    dz2    dxz  x2-y2    tot
    1  0.010  0.001  0.000  0.004  0.251  0.000  0.128  0.000  0.084  0.477
    2  0.010  0.001  0.000  0.004  0.251  0.000  0.128  0.000  0.084  0.477
tot    0.019  0.003  0.000  0.008  0.502  0.000  0.256  0.000  0.167  0.955
 
band     6 # energy    7.45727082 # occ.  1.00000000
 
ion      s     py     pz     px    dxy    dyz    dz2    dxz  x2-y2    tot
    1  0.000  0.000  0.000  0.000  0.000  0.363  0.000  0.121  0.000  0.484
    2  0.000  0.000  0.000  0.000  0.000  0.363  0.000  0.121  0.000  0.484
tot    0.000  0.000  0.000  0.000  0.000  0.726  0.000  0.242  0.000  0.968
 
band     7 # energy    7.68040271 # occ.  1.00000000
 
ion      s     py     pz     px    dxy    dyz    dz2    dxz  x2-y2    tot
    1  0.000  0.000  0.026  0.000  0.000  0.112  0.000  0.336  0.000  0.474
    2  0.000  0.000  0.026  0.000  0.000  0.112  0.000  0.336  0.000  0.474
tot    0.000  0.000  0.052  0.000  0.000  0.224  0.000  0.672  0.000  0.948
 
band     8 # energy    8.11875457 # occ.  1.00000000
 
ion      s     py     pz     px    dxy    dyz    dz2    dxz  x2-y2    tot
    1  0.000  0.002  0.000  0.001  0.121  0.000  0.000  0.000  0.362  0.485
    2  0.000  0.002  0.000  0.001  0.121  0.000  0.000  0.000  0.362  0.485
tot    0.000  0.003  0.000  0.001  0.242  0.000  0.000  0.000  0.725  0.971
 
band     9 # energy    8.14013750 # occ.  1.00000000
 
ion      s     py     pz     px    dxy    dyz    dz2    dxz  x2-y2    tot
    1  0.005  0.002  0.000  0.005  0.102  0.000  0.338  0.000  0.034  0.485
    2  0.005  0.002  0.000  0.005  0.102  0.000  0.338  0.000  0.034  0.485
tot    0.011  0.003  0.000  0.009  0.203  0.000  0.675  0.000  0.068  0.969
 
band    10 # energy    8.30952552 # occ.  1.00000000
 
ion      s     py     pz     px    dxy    dyz    dz2    dxz  x2-y2    tot
    1  0.000  0.002  0.000  0.001  0.122  0.000  0.000  0.000  0.365  0.489
    2  0.000  0.002  0.000  0.001  0.122  0.000  0.000  0.000  0.365  0.489
tot    0.000  0.004  0.000  0.001  0.243  0.000  0.000  0.000  0.730  0.979
 
band    11 # energy    9.09502997 # occ.  1.00000000
 
ion      s     py     pz     px    dxy    dyz    dz2    dxz  x2-y2    tot