Co-fcc                                  
   1.00000000000000     
     0.000000    1.666554    1.666554
     1.666554    0.000000    1.666554
     1.666554    1.666554    0.000000
   Co
     1
Direct
  0.000000  0.000000  0.000000
 
   32   32   32
  87.454      85.708      80.689      72.996      63.478      53.058      42.597      32.802      24.197      17.119    
  11.728      8.0011      5.7402      4.5940      4.1182      3.8962      3.8199      3.8962      4.1182      4.5940    
  5.7402      8.0011      11.728      17.119      24.197      32.802      42.597      53.058      63.478      72.996    
  80.689      85.708      85.708      82.327      75.977      67.391      57.459      47.074      37.016      27.896    
  20.140      13.995      9.5289      6.6290      5.0152      4.2823      3.9758      3.8263      3.8263      3.9758    
  4.2823      5.0152      6.6290      9.5289      13.995      20.140      27.896      37.016      47.074      57.459    
  67.391      75.977      82.327      85.708      80.689      75.977      68.749      59.794      49.977      40.110    
  30.867      22.753      16.099      11.055      7.5977      5.5252      4.4903      4.0587      3.8444      3.7709    
  3.8444      4.0587      4.4903      5.5252      7.5977      11.055      16.098      22.753      30.867      40.110    
  49.977      59.794      68.749      75.977      80.689      82.327      72.996      67.391      59.794      50.983    
  41.748      32.793      24.679      17.806      12.405      8.5322      6.0692      4.7373      4.1445      3.8710    
  3.7321      3.7321      3.8710      4.1445      4.7373      6.0692      8.5322      12.405      17.806      24.679    
  32.793      41.748      50.983      59.794      67.391      72.996      75.977      75.977      63.478      57.459    
  49.977      41.748      33.461      25.701      18.920      13.413      9.3111      6.5736      4.9948      4.2385    
  3.9017      3.7091      3.6438      3.7091      3.9017      4.2385      4.9948      6.5736      9.3111      13.413    
  18.920      25.701      33.461      41.748      49.977      57.459      63.478      67.391      68.749      67.391    
  53.058      47.074      40.110      32.793      25.701      19.307      13.952      9.8273      6.9623      5.2221    
  4.3327      3.9317      3.6989      3.5802      3.5802      3.6989      3.9317      4.3327      5.2221      6.9623    
  9.8273      13.952      19.307      25.701      32.793      40.110      47.074      53.058      57.459      59.794    
  59.794      57.459      42.597      37.016      30.867      24.679      18.920      13.952      10.008      7.1737    
  5.3784      4.4103      3.9570      3.6971      3.5386      3.4855      3.5386      3.6971      3.9570      4.4103    
  5.3784      7.1737      10.008      13.952      18.920      24.679      30.867      37.016      42.597      47.074    
  49.977      50.983      49.977      47.074      32.802      27.896      22.753      17.806      13.413      9.8273    
  7.1737      5.4341      4.4543      3.9748      3.6991      3.5142      3.4222      3.4222      3.5142      3.6991    
  3.9748      4.4543      5.4341      7.1737      9.8273      13.413      17.806      22.753      27.896      32.802    
  37.016      40.110      41.748      41.748      40.110      37.016      24.197      20.140      16.099      12.405    
  9.3111      6.9623      5.3784      4.4543      3.9813      3.7011      3.5022      3.3845      3.3458      3.3845    
  3.5022      3.7011      3.9813      4.4543      5.3784      6.9623      9.3111      12.405      16.099      20.140    
  24.197      27.896      30.867      32.793      33.461      32.793      30.867      27.896      17.119      13.995    
  11.055      8.5322      6.5736      5.2221      4.4103      3.9748      3.7011      3.4986      3.3673      3.3035    
  3.3035      3.3673      3.4986      3.7011      3.9748      4.4103      5.2221      6.5736      8.5322      11.055    
  13.995      17.119      20.140      22.753      24.679      25.701      25.701      24.679      22.753      20.140    
  11.728      9.5289      7.5977      6.0692      4.9948      4.3327      3.9570      3.6991      3.5022      3.3673    
  3.2900      3.2650      3.2900      3.3673      3.5022      3.6991      3.9570      4.3327      4.9948      6.0692    
  7.5977      9.5289      11.728      13.995      16.099      17.806      18.920      19.307      18.920      17.806    
  16.098      13.995      8.0011      6.6290      5.5252      4.7373      4.2385      3.9317      3.6971      3.5142    
  3.3845      3.3035      3.2650      3.2650      3.3035      3.3845      3.5142      3.6971      3.9317      4.2385    
  4.7373      5.5252      6.6290      8.0011      9.5289      11.055      12.405      13.413      13.952      13.952    
  13.413      12.405      11.055      9.5289      5.7402      5.0152      4.4903      4.1445      3.9017      3.6989    
  3.5386      3.4222      3.3458      3.3035      3.2900      3.3035      3.3458      3.4222      3.5386      3.6989    
  3.9017      4.1445      4.4903      5.0152      5.7402      6.6290      7.5977      8.5322      9.3111      9.8273    
  10.008      9.8273      9.3111      8.5322      7.5977      6.6290      4.5940      4.2823      4.0587      3.8710    
  3.7091      3.5802      3.4855      3.4222      3.3845      3.3673      3.3673      3.3845      3.4222      3.4855    
  3.5802      3.7091      3.8710      4.0587      4.2823      4.5940      5.0152      5.5252      6.0692      6.5736    
  6.9623      7.1737      7.1737      6.9623      6.5736      6.0692      5.5252      5.0152      4.1182      3.9758    
  3.8444      3.7321      3.6438      3.5802      3.5386      3.5142      3.5022      3.4986      3.5022      3.5142    
  3.5386      3.5802      3.6438      3.7321      3.8444      3.9758      4.1182      4.2823      4.4903      4.7373    
  4.9948      5.2221      5.3784      5.4341      5.3784      5.2221      4.9948      4.7373      4.4903      4.2823    
  3.8962      3.8263      3.7709      3.7321      3.7091      3.6989      3.6971      3.6991      3.7011      3.7011    
  3.6991      3.6971      3.6989      3.7091      3.7321      3.7709      3.8263      3.8962      3.9758      4.0587    
  4.1445      4.2385      4.3327      4.4103      4.4543      4.4543      4.4103      4.3327      4.2385      4.1445    
  4.0587      3.9758      3.8199      3.8263      3.8444      3.8710      3.9017      3.9317      3.9570      3.9748    
  3.9813      3.9748      3.9570      3.9317      3.9017      3.8710      3.8444      3.8263      3.8199      3.8263    
  3.8444      3.8710      3.9017      3.9317      3.9570      3.9748      3.9813      3.9748      3.9570      3.9317    
  3.9017      3.8710      3.8444      3.8263      3.8962      3.9758      4.0587      4.1445      4.2385      4.3327    
  4.4103      4.4543      4.4543      4.4103      4.3327      4.2385      4.1445      4.0587      3.9758      3.8962    
  3.8263      3.7709      3.7321      3.7091      3.6989      3.6971      3.6991      3.7011      3.7011      3.6991    
  3.6971      3.6989      3.7091      3.7321      3.7709      3.8263      4.1182      4.2823      4.4903      4.7373    
  4.9948      5.2221      5.3784      5.4341      5.3784      5.2221      4.9948      4.7373      4.4903      4.2823    
  4.1182      3.9758      3.8444      3.7321      3.6438      3.5802      3.5386      3.5142      3.5022      3.4986    
  3.5022      3.5142      3.5386      3.5802      3.6438      3.7321      3.8444      3.9758      4.5940      5.0152    
  5.5252      6.0692      6.5736      6.9623      7.1737      7.1737      6.9623      6.5736      6.0692      5.5252    
  5.0152      4.5940      4.2823      4.0587      3.8710      3.7091      3.5802      3.4855      3.4222      3.3845    
  3.3673      3.3673      3.3845      3.4222      3.4855      3.5802      3.7091      3.8710      4.0587      4.2823    
  5.7402      6.6290      7.5977      8.5322      9.3111      9.8273      10.008      9.8273      9.3111      8.5322    
  7.5977      6.6290      5.7402      5.0152      4.4903      4.1445      3.9017      3.6989      3.5386      3.4222    
  3.3458      3.3035      3.2900      3.3035      3.3458      3.4222      3.5386      3.6989      3.9017      4.1445    
  4.4903      5.0152      8.0011      9.5289      11.055      12.405      13.413      13.952      13.952      13.413    
  12.405      11.055      9.5289      8.0011      6.6290      5.5252      4.7373      4.2385      3.9317      3.6971    
  3.5142      3.3845      3.3035      3.2650      3.2650      3.3035      3.3845      3.5142      3.6971      3.9317    
  4.2385      4.7373      5.5252      6.6290      11.728      13.995      16.098      17.806      18.920      19.307    
  18.920      17.806      16.099      13.995      11.728      9.5289      7.5977      6.0692      4.9948      4.3327    
  3.9570      3.6991      3.5022      3.3673      3.2900      3.2650      3.2900      3.3673      3.5022      3.6991    
  3.9570      4.3327      4.9948      6.0692      7.5977      9.5289      17.119      20.140      22.753      24.679    
  25.701      25.701      24.679      22.753      20.140      17.119      13.995      11.055      8.5322      6.5736    
  5.2221      4.4103      3.9748      3.7011      3.4986      3.3673      3.3035      3.3035      3.3673      3.4986    
  3.7011      3.9748      4.4103      5.2221      6.5736      8.5322      11.055      13.995      24.197      27.896    
  30.867      32.793      33.461      32.793      30.867      27.896      24.197      20.140      16.099      12.405    
  9.3111      6.9623      5.3784      4.4543      3.9813      3.7011      3.5022      3.3845      3.3458      3.3845    
  3.5022      3.7011      3.9813      4.4543      5.3784      6.9623      9.3111      12.405      16.099      20.140    
  32.802      37.016      40.110      41.748      41.748      40.110      37.016      32.802      27.896      22.753    
  17.806      13.413      9.8273      7.1737      5.4341      4.4543      3.9748      3.6991      3.5142      3.4222    
  3.4222      3.5142      3.6991      3.9748      4.4543      5.4341      7.1737      9.8273      13.413      17.806    
  22.753      27.896      42.597      47.074      49.977      50.983      49.977      47.074      42.597      37.016    
  30.867      24.679      18.920      13.952      10.008      7.1737      5.3784      4.4103      3.9570      3.6971    
  3.5386      3.4855      3.5386      3.6971      3.9570      4.4103      5.3784      7.1737      10.008      13.952    
  18.920      24.679      30.867      37.016      53.058      57.459      59.794      59.794      57.459      53.058    
  47.074      40.110      32.793      25.701      19.307      13.952      9.8273      6.9623      5.2221      4.3327    
  3.9317      3.6989      3.5802      3.5802      3.6989      3.9317      4.3327      5.2221      6.9623      9.8273    
  13.952      19.307      25.701      32.793      40.110      47.074      63.478      67.391      68.749      67.391    
  63.478      57.459      49.977      41.748      33.461      25.701      18.920      13.413      9.3111      6.5736    
  4.9948      4.2385      3.9017      3.7091      3.6438      3.7091      3.9017      4.2385      4.9948      6.5736    
  9.3111      13.413      18.920      25.701      33.461      41.748      49.977      57.459      72.996      75.977    
  75.977      72.996      67.391      59.794      50.983      41.748      32.793      24.679      17.806      12.405    
  8.5322      6.0692      4.7373      4.1445      3.8710      3.7321      3.7321      3.8710      4.1445      4.7373    
  6.0692      8.5322      12.405      17.806      24.679      32.793      41.748      50.983      59.794      67.391    
  80.689      82.327      80.689      75.977      68.749      59.794      49.977      40.110      30.867      22.753    
  16.098      11.055      7.5977      5.5252      4.4903      4.0587      3.8444      3.7709      3.8444      4.0587    
  4.4903      5.5252      7.5977      11.055      16.099      22.753      30.867      40.110      49.977      59.794    
  68.749      75.977      85.708      85.708      82.327      75.977      67.391      57.459      47.074      37.016    
  27.896      20.140      13.995      9.5289      6.6290      5.0152      4.2823      3.9758      3.8263      3.8263    
  3.9758      4.2823      5.0152      6.6290      9.5289      13.995      20.140      27.896      37.016      47.074    
  57.459      67.391      75.977      82.327      85.708      82.327      75.977      67.391      57.459      47.074    
  37.016      27.896      20.140      13.995      9.5289      6.6290      5.0152      4.2823      3.9758      3.8263    
  3.8263      3.9758      4.2823      5.0152      6.6290      9.5289      13.995      20.140      27.896      37.016    
  47.074      57.459      67.391      75.977      82.327      85.708      82.327      77.520      70.149      61.017    
  51.008      40.949      31.525      23.247      16.449      11.287      7.7382      5.6021      4.5301      4.0840    
  3.8670      3.7925      3.8670      4.0840      4.5301      5.6021      7.7382      11.287      16.449      23.247    
  31.525      40.949      51.008      61.017      70.149      77.520      82.327      83.997      75.977      70.149    
  62.251      53.095      43.501      34.194      25.752      18.588      12.939      8.8681      6.2604      4.8365    
  4.1993      3.9156      3.7729      3.7729      3.9156      4.1993      4.8365      6.2604      8.8681      12.939    
  18.588      25.752      34.194      43.501      53.095      62.251      70.149      75.977      79.078      79.078    
  67.391      61.017      53.095      44.385      35.609      27.381      20.171      14.290      9.8812      6.9099    
  5.1734      4.3309      3.9671      3.7668      3.6986      3.7668      3.9671      4.3309      5.1734      6.9099    
  9.8812      14.290      20.171      27.381      35.609      44.385      53.095      61.017      67.391      71.537    
  72.977      71.537      57.459      51.008      43.501      35.609      27.946      21.013      15.177      10.645    
  7.4599      5.4937      4.4704      4.0162      3.7712      3.6455      3.6455      3.7712      4.0162      4.4704    
  5.4937      7.4599      10.645      15.177      21.013      27.946      35.609      43.501      51.008      57.459    
  62.204      64.722      64.722      62.204      47.074      40.949      34.194      27.381      21.013      15.485    
  11.055      7.8282      5.7451      4.5967      4.0610      3.7816      3.6117      3.5546      3.6117      3.7816    
  4.0610      4.5967      5.7451      7.8282      11.055      15.485      21.013      27.381      34.194      40.949    
  47.074      51.984      55.169      56.272      55.169      51.984      37.016      31.525      25.752      20.171    
  15.177      11.055      7.9577      5.8834      4.6852      4.0973      3.7935      3.5929      3.4922      3.4922    
  3.5929      3.7935      4.0973      4.6852      5.8834      7.9577      11.055      15.177      20.171      25.752    
  31.525      37.016      41.724      45.177      47.005      47.005      45.177      41.724      27.896      23.247    
  18.588      14.290      10.645      7.8282      5.8834      4.7171      4.1181      3.8025      3.5841      3.4537    
  3.4106      3.4537      3.5841      3.8025      4.1181      4.7171      5.8834      7.8282      10.645      14.290    
  18.588      23.247      27.896      32.118      35.500      37.691      38.449      37.691      35.500      32.118    
  20.140      16.449      12.939      9.8812      7.4599      5.7451      4.6852      4.1181      3.8058      3.5809    
  3.4334      3.3612      3.3612      3.4334      3.5809      3.8058      4.1181      4.6852      5.7451      7.4599    
  9.8812      12.939      16.449      20.140      23.683      26.733      28.973      30.160      30.160      28.973    
  26.733      23.683      13.995      11.287      8.8681      6.9099      5.4937      4.5967      4.0973      3.8025    
  3.5809      3.4272      3.3383      3.3094      3.3383      3.4272      3.5809      3.8025      4.0973      4.5967    
  5.4937      6.9099      8.8681      11.287      13.995      16.753      19.289      21.336      22.666      23.127    
  22.666      21.336      19.289      16.753      9.5289      7.7382      6.2604      5.1734      4.4704      4.0610    
  3.7935      3.5841      3.4334      3.3383      3.2928      3.2928      3.3383      3.4334      3.5841      3.7935    
  4.0610      4.4704      5.1734      6.2604      7.7382      9.5289      11.484      13.410      15.095      16.345    
  17.011      17.011      16.345      15.095      13.410      11.484      6.6290      5.6021      4.8365      4.3309    
  4.0162      3.7816      3.5929      3.4537      3.3612      3.3094      3.2928      3.3094      3.3612      3.4537    
  3.5929      3.7816      4.0162      4.3309      4.8365      5.6021      6.6290      7.8528      9.1566      10.394    
  11.412      12.083      12.316      12.083      11.412      10.394      9.1566      7.8528      5.0152      4.5301    
  4.1993      3.9671      3.7712      3.6117      3.4922      3.4106      3.3612      3.3383      3.3383      3.3612    
  3.4106      3.4922      3.6117      3.7712      3.9671      4.1993      4.5301      5.0152      5.6584      6.4138    
  7.1990      7.9127      8.4552      8.7482      8.7482      8.4552      7.9127      7.1990      6.4138      5.6583    
  4.2823      4.0840      3.9156      3.7668      3.6455      3.5546      3.4922      3.4537      3.4334      3.4272    
  3.4334      3.4537      3.4922      3.5546      3.6455      3.7668      3.9156      4.0840      4.2823      4.5515    
  4.9019      5.3082      5.7198      6.0747      6.3150      6.4000      6.3150      6.0747      5.7198      5.3082    
  4.9019      4.5515      3.9758      3.8670      3.7729      3.6986      3.6455      3.6117      3.5929      3.5841    
  3.5809      3.5809      3.5841      3.5929      3.6117      3.6455      3.6986      3.7729      3.8670      3.9758    
  4.0917      4.2207      4.3780      4.5567      4.7325      4.8739      4.9528      4.9528      4.8739      4.7325    
  4.5567      4.3780      4.2207      4.0917      3.8263      3.7925      3.7729      3.7668      3.7712      3.7816    
  3.7935      3.8025      3.8058      3.8025      3.7935      3.7816      3.7712      3.7668      3.7729      3.7925    
  3.8263      3.8726      3.9273      3.9851      4.0421      4.1005      4.1548      4.1940      4.2083      4.1940    
  4.1548      4.1005      4.0421      3.9851      3.9273      3.8726      3.8263      3.8670      3.9156      3.9671    
  4.0162      4.0610      4.0973      4.1181      4.1181      4.0973      4.0610      4.0162      3.9671      3.9156    
  3.8670      3.8263      3.7974      3.7817      3.7787      3.7857      3.7986      3.8131      3.8253      3.8321    
  3.8321      3.8253      3.8131      3.7986      3.7857      3.7787      3.7817      3.7974      3.9758      4.0840    
  4.1993      4.3309      4.4704      4.5967      4.6852      4.7171      4.6852      4.5967      4.4704      4.3309    
  4.1993      4.0840      3.9758      3.8726      3.7817      3.7082      3.6541      3.6184      3.5978      3.5876    
  3.5837      3.5827      3.5837      3.5876      3.5978      3.6184      3.6541      3.7082      3.7817      3.8726    
  4.2823      4.5301      4.8365      5.1734      5.4937      5.7451      5.8834      5.8834      5.7451      5.4937    
  5.1734      4.8365      4.5301      4.2823      4.0917      3.9273      3.7787      3.6541      3.5576      3.4888    
  3.4441      3.4184      3.4069      3.4069      3.4184      3.4441      3.4888      3.5576      3.6541      3.7787    
  3.9273      4.0917      5.0152      5.6021      6.2604      6.9099      7.4599      7.8282      7.9577      7.8282    
  7.4599      6.9099      6.2604      5.6021      5.0152      4.5515      4.2207      3.9851      3.7857      3.6184    
  3.4888      3.3964      3.3368      3.3041      3.2938      3.3041      3.3368      3.3964      3.4888      3.6184    
  3.7857      3.9851      4.2207      4.5515      6.6290      7.7382      8.8681      9.8812      10.645      11.055    
  11.055      10.645      9.8812      8.8681      7.7382      6.6290      5.6584      4.9019      4.3780      4.0421    
  3.7986      3.5978      3.4441      3.3368      3.2705      3.2393      3.2393      3.2705      3.3368      3.4441    
  3.5978      3.7986      4.0421      4.3780      4.9019      5.6583      9.5289      11.287      12.939      14.290    
  15.177      15.485      15.177      14.290      12.939      11.287      9.5289      7.8528      6.4138      5.3082    
  4.5567      4.1005      3.8131      3.5876      3.4184      3.3041      3.2393      3.2184      3.2393      3.3041    
  3.4184      3.5876      3.8131      4.1005      4.5567      5.3082      6.4138      7.8528      13.995      16.449    
  18.588      20.171      21.013      21.013      20.171      18.588      16.449      13.995      11.484      9.1566    
  7.1990      5.7198      4.7325      4.1548      3.8253      3.5837      3.4069      3.2938      3.2393      3.2393    
  3.2938      3.4069      3.5837      3.8253      4.1548      4.7325      5.7198      7.1990      9.1566      11.484    
  20.140      23.247      25.752      27.381      27.946      27.381      25.752      23.247      20.140      16.753    
  13.410      10.394      7.9127      6.0747      4.8739      4.1940      3.8321      3.5827      3.4069      3.3041    
  3.2705      3.3041      3.4069      3.5827      3.8321      4.1940      4.8739      6.0747      7.9127      10.394    
  13.410      16.753      27.896      31.525      34.194      35.609      35.609      34.194      31.525      27.896    
  23.683      19.289      15.095      11.412      8.4552      6.3150      4.9528      4.2083      3.8321      3.5837    
  3.4184      3.3368      3.3368      3.4184      3.5837      3.8321      4.2083      4.9528      6.3150      8.4552    
  11.412      15.095      19.289      23.683      37.016      40.949      43.501      44.385      43.501      40.949    
  37.016      32.118      26.733      21.336      16.345      12.083      8.7482      6.4000      4.9528      4.1940    
  3.8253      3.5876      3.4441      3.3964      3.4441      3.5876      3.8253      4.1940      4.9528      6.4000    
  8.7482      12.083      16.345      21.336      26.733      32.118      47.074      51.008      53.095      53.095    
  51.008      47.074      41.724      35.500      28.973      22.666      17.011      12.316      8.7482      6.3150    
  4.8739      4.1548      3.8131      3.5978      3.4888      3.4888      3.5978      3.8131      4.1548      4.8739    
  6.3150      8.7482      12.317      17.011      22.666      28.973      35.500      41.724      57.459      61.017    
  62.251      61.017      57.459      51.984      45.177      37.691      30.160      23.127      17.011      12.083    
  8.4552      6.0747      4.7325      4.1005      3.7986      3.6184      3.5576      3.6184      3.7986      4.1005    
  4.7325      6.0747      8.4552      12.083      17.011      23.127      30.160      37.691      45.177      51.984    
  67.391      70.149      70.149      67.391      62.204      55.169      47.005      38.449      30.160      22.666    
  16.345      11.412      7.9127      5.7198      4.5567      4.0421      3.7857      3.6541      3.6541      3.7857    
  4.0421      4.5567      5.7198      7.9127      11.412      16.345      22.666      30.160      38.449      47.005    
  55.169      62.204      75.977      77.520      75.977      71.537      64.722      56.272      47.005      37.691    
  28.973      21.336      15.095      10.394      7.1990      5.3082      4.3780      3.9851      3.7787      3.7082    
  3.7787      3.9851      4.3780      5.3082      7.1990      10.394      15.095      21.336      28.973      37.691    
  47.005      56.272      64.722      71.537      82.327      82.327      79.078      72.977      64.722      55.169    
  45.177      35.500      26.733      19.289      13.410      9.1566      6.4138      4.9019      4.2207      3.9273    
  3.7817      3.7817      3.9273      4.2207      4.9019      6.4138      9.1566      13.410      19.289      26.733    
  35.500      45.177      55.169      64.722      72.977      79.078      85.708      83.997      79.078      71.537    
  62.204      51.984      41.724      32.118      23.683      16.753      11.484      7.8528      5.6583      4.5515    
  4.0917      3.8726      3.7974      3.8726      4.0917      4.5515      5.6583      7.8528      11.484      16.753    
  23.683      32.118      41.724      51.984      62.204      71.537      79.078      83.997      80.689      75.977    
  68.749      59.794      49.977      40.110      30.867      22.753      16.099      11.055      7.5977      5.5252    
  4.4903      4.0587      3.8444      3.7709      3.8444      4.0587      4.4903      5.5252      7.5977      11.055    
  16.098      22.753      30.867      40.110      49.977      59.794      68.749      75.977      80.689      82.327    
  75.977      70.149      62.251      53.095      43.501      34.194      25.752      18.588      12.939      8.8681    
  6.2604      4.8365      4.1993      3.9156      3.7729      3.7729      3.9156      4.1993      4.8365      6.2604    
  8.8681      12.939      18.588      25.752      34.194      43.501      53.095      62.251      70.149      75.977    
  79.078      79.078      68.749      62.251      54.178      45.300      36.355      27.964      20.607      14.597    
  10.081      7.0287      5.2368      4.3635      3.9895      3.7866      3.7175      3.7866      3.9895      4.3635    
  5.2368      7.0287      10.081      14.597      20.607      27.964      36.355      45.300      54.178      62.251    
  68.749      72.977      74.444      72.977      59.794      53.095      45.300      37.104      29.139      21.923    
  15.833      11.086      7.7306      5.6428      4.5459      4.0605      3.8088      3.6796      3.6796      3.8088    
  4.0605      4.5459      5.6428      7.7306      11.086      15.833      21.923      29.139      37.104      45.300    
  53.095      59.794      64.722      67.338      67.338      64.722      49.977      43.501      36.355      29.139    
  22.381      16.493      11.749      8.2665      5.9939      4.7237      4.1288      3.8350      3.6579      3.5983    
  3.6579      3.8350      4.1288      4.7237      5.9939      8.2665      11.749      16.493      22.381      29.139    
  36.355      43.501      49.977      55.169      58.535      59.702      58.535      55.169      40.110      34.194    
  27.964      21.923      16.493      11.981      8.5565      6.2321      4.8663      4.1896      3.8603      3.6487    
  3.5420      3.5420      3.6487      3.8603      4.1896      4.8663      6.2321      8.5565      11.981      16.493    
  21.923      27.964      34.194      40.110      45.177      48.892      50.859      50.859      48.892      45.177    
  30.867      25.752      20.607      15.833      11.749      8.5565      6.3165      4.9457      4.2325      3.8800    
  3.6471      3.5069      3.4604      3.5069      3.6471      3.8800      4.2325      4.9457      6.3165      8.5565    
  11.749      15.833      20.607      25.752      30.867      35.500      39.208      41.607      42.437      41.607    
  39.208      35.500      22.753      18.588      14.597      11.086      8.2665      6.2321      4.9457      4.2480    
  3.8907      3.6483      3.4877      3.4085      3.4085      3.4877      3.6483      3.8907      4.2480      4.9457    
  6.2321      8.2665      11.086      14.597      18.588      22.753      26.733      30.147      32.650      33.975    
  33.975      32.650      30.147      26.733      16.099      12.939      10.081      7.7306      5.9939      4.8663    
  4.2325      3.8907      3.6491      3.4795      3.3805      3.3482      3.3805      3.4795      3.6491      3.8907    
  4.2325      4.8663      5.9939      7.7306      10.081      12.939      16.099      19.289      22.206      24.549    
  26.068      26.595      26.068      24.549      22.206      19.289      11.055      8.8681      7.0287      5.6428    
  4.7237      4.1896      3.8800      3.6483      3.4795      3.3718      3.3200      3.3200      3.3718      3.4795    
  3.6483      3.8800      4.1896      4.7237      5.6428      7.0287      8.8681      11.055      13.410      15.704    
  17.698      19.170      19.951      19.951      19.170      17.698      15.704      13.410      7.5977      6.2604    
  5.2368      4.5459      4.1288      3.8603      3.6471      3.4877      3.3805      3.3200      3.3006      3.3200    
  3.3805      3.4877      3.6471      3.8603      4.1288      4.5459      5.2368      6.2604      7.5977      9.1566    
  10.790      12.321      13.571      14.389      14.673      14.389      13.571      12.321      10.790      9.1566    
  5.5252      4.8365      4.3635      4.0605      3.8350      3.6487      3.5069      3.4085      3.3482      3.3200    
  3.3200      3.3482      3.4085      3.5069      3.6487      3.8350      4.0605      4.3635      4.8365      5.5252    
  6.4138      7.4317      8.4686      9.3975      10.097      10.472      10.472      10.097      9.3975      8.4686    
  7.4317      6.4138      4.4903      4.1993      3.9895      3.8088      3.6579      3.5420      3.4604      3.4085    
  3.3805      3.3718      3.3805      3.4085      3.4604      3.5420      3.6579      3.8088      3.9895      4.1993    