Co-fcc                                  
   1.00000000000000     
     0.000000    1.666554    1.666554
     1.666554    0.000000    1.666554
     1.666554    1.666554    0.000000
   Co
     1
Direct
  0.000000  0.000000  0.000000
 
   32   32   32
 0.87453959955E+02 0.85708249109E+02 0.80688849147E+02 0.72996352387E+02 0.63477701324E+02
 0.53058119462E+02 0.42597298694E+02 0.32802379333E+02 0.24196555365E+02 0.17118668525E+02
 0.11727538336E+02 0.80011403909E+01 0.57402139552E+01 0.45940065221E+01 0.41182365952E+01
 0.38961953527E+01 0.38199245903E+01 0.38961953527E+01 0.41182365952E+01 0.45940065221E+01
 0.57402139552E+01 0.80011403909E+01 0.11727538336E+02 0.17118668525E+02 0.24196555365E+02
 0.32802379333E+02 0.42597298694E+02 0.53058119462E+02 0.63477701324E+02 0.72996352387E+02
 0.80688849147E+02 0.85708249109E+02 0.85708249109E+02 0.82326609551E+02 0.75977336119E+02
 0.67391051516E+02 0.57458852182E+02 0.47073879300E+02 0.37016136664E+02 0.27895723566E+02
 0.20139649081E+02 0.13994870447E+02 0.95289207199E+01 0.66290345700E+01 0.50152108293E+01
 0.42823302939E+01 0.39758026449E+01 0.38263318860E+01 0.38263321565E+01 0.39758033208E+01
 0.42823310200E+01 0.50152111719E+01 0.66290341929E+01 0.95289195344E+01 0.13994868676E+02
 0.20139647217E+02 0.27895722221E+02 0.37016136372E+02 0.47073880327E+02 0.57458854414E+02
 0.67391054468E+02 0.75977339057E+02 0.82326611705E+02 0.85708249898E+02 0.80688849147E+02
 0.75977336119E+02 0.68749475872E+02 0.59793871809E+02 0.49976752740E+02 0.40109571046E+02
 0.30866896803E+02 0.22753448060E+02 0.16098501596E+02 0.11055231701E+02 0.75976714846E+01
 0.55251550698E+01 0.44903305541E+01 0.40586928114E+01 0.38444143694E+01 0.37709414490E+01
 0.38444153235E+01 0.40586942593E+01 0.44903317517E+01 0.55251552794E+01 0.75976702739E+01
 0.11055229145E+02 0.16098498303E+02 0.22753445005E+02 0.30866895020E+02 0.40109571280E+02
 0.49976755174E+02 0.59793875964E+02 0.68749480714E+02 0.75977340357E+02 0.80688851611E+02
 0.82326611705E+02 0.72996352387E+02 0.67391051516E+02 0.59793871809E+02 0.50982868833E+02
 0.41748399796E+02 0.32793419587E+02 0.24679392347E+02 0.17806102947E+02 0.12404795293E+02
 0.85322447098E+01 0.60692422477E+01 0.47372603856E+01 0.41444987445E+01 0.38710245514E+01
 0.37321135922E+01 0.37321142575E+01 0.38710262539E+01 0.41445007118E+01 0.47372616535E+01
 0.60692420251E+01 0.85322426930E+01 0.12404791816E+02 0.17806098911E+02 0.24679388945E+02
 0.32793417916E+02 0.41748400483E+02 0.50982871799E+02 0.59793876266E+02 0.67391056187E+02
 0.72996355895E+02 0.75977340357E+02 0.75977339057E+02 0.63477701324E+02 0.57458852182E+02
 0.49976752740E+02 0.41748399796E+02 0.33460909209E+02 0.25701283913E+02 0.18919823725E+02
 0.13412789586E+02 0.93110996722E+01 0.65735981347E+01 0.49947677196E+01 0.42385332007E+01
 0.39017193294E+01 0.37091220693E+01 0.36437771836E+01 0.37091233769E+01 0.39017214112E+01
 0.42385351777E+01 0.49947686781E+01 0.65735974542E+01 0.93110972576E+01 0.13412785922E+02
 0.18919819734E+02 0.25701280660E+02 0.33460907554E+02 0.41748400109E+02 0.49976754773E+02
 0.57458855152E+02 0.63477704166E+02 0.67391056187E+02 0.68749480714E+02 0.67391054468E+02
 0.53058119462E+02 0.47073879300E+02 0.40109571046E+02 0.32793419587E+02 0.25701283913E+02
 0.19306689656E+02 0.13951575232E+02 0.98273132018E+01 0.69622752191E+01 0.52220663213E+01
 0.43327006313E+01 0.39316665033E+01 0.36989219656E+01 0.35801568871E+01 0.35801574391E+01
 0.36989234161E+01 0.39316683017E+01 0.43327020639E+01 0.52220667435E+01 0.69622742663E+01
 0.98273109075E+01 0.13951572016E+02 0.19306686190E+02 0.25701280906E+02 0.32793417567E+02
 0.40109570210E+02 0.47073879475E+02 0.53058120194E+02 0.57458855152E+02 0.59793876266E+02
 0.59793875964E+02 0.57458854414E+02 0.42597298694E+02 0.37016136664E+02 0.30866896803E+02
 0.24679392347E+02 0.18919823725E+02 0.13951575232E+02 0.10007994889E+02 0.71737468610E+01
 0.53783703367E+01 0.44103012087E+01 0.39570044958E+01 0.36971167453E+01 0.35385508773E+01
 0.34855466109E+01 0.35385514192E+01 0.36971176361E+01 0.39570054048E+01 0.44103017622E+01
 0.53783702220E+01 0.71737459117E+01 0.10007993124E+02 0.13951572843E+02 0.18919821016E+02
 0.24679389655E+02 0.30866894411E+02 0.37016134753E+02 0.42597297326E+02 0.47073879475E+02
 0.49976754773E+02 0.50982871799E+02 0.49976755174E+02 0.47073880327E+02 0.32802379333E+02
 0.27895723566E+02 0.22753448060E+02 0.17806102947E+02 0.13412789586E+02 0.98273132018E+01
 0.71737468610E+01 0.54340646061E+01 0.44543220788E+01 0.39747978750E+01 0.36991039504E+01
 0.35142307287E+01 0.34221538835E+01 0.34221538655E+01 0.35142306729E+01 0.36991038496E+01
 0.39747977079E+01 0.44543218050E+01 0.54340641631E+01 0.71737461736E+01 0.98273121995E+01
 0.13412788228E+02 0.17806101245E+02 0.22753446100E+02 0.27895721501E+02 0.32802377375E+02
 0.37016134753E+02 0.40109570210E+02 0.41748400109E+02 0.41748400483E+02 0.40109571280E+02
 0.37016136372E+02 0.24196555365E+02 0.20139649081E+02 0.16098501596E+02 0.12404795293E+02
 0.93110996722E+01 0.69622752191E+01 0.53783703367E+01 0.44543220788E+01 0.39812988995E+01
 0.37011399068E+01 0.35021662102E+01 0.33845217053E+01 0.33458276658E+01 0.33845212725E+01
 0.35021654465E+01 0.37011389842E+01 0.39812980071E+01 0.44543213658E+01 0.53783698705E+01
 0.69622749706E+01 0.93110995359E+01 0.12404795129E+02 0.16098501284E+02 0.20139648571E+02
 0.24196554693E+02 0.27895721501E+02 0.30866894411E+02 0.32793417567E+02 0.33460907554E+02
 0.32793417916E+02 0.30866895020E+02 0.27895722221E+02 0.17118668525E+02 0.13994870447E+02
 0.11055231701E+02 0.85322447098E+01 0.65735981347E+01 0.52220663213E+01 0.44103012087E+01
 0.39747978750E+01 0.37011399068E+01 0.34986049542E+01 0.33673152083E+01 0.33034910050E+01
 0.33034907695E+01 0.33673145484E+01 0.34986039987E+01 0.37011388426E+01 0.39747969099E+01
 0.44103005331E+01 0.52220660749E+01 0.65735983830E+01 0.85322454396E+01 0.11055232824E+02
 0.13994871821E+02 0.17118669978E+02 0.20139648571E+02 0.22753446100E+02 0.24679389655E+02
 0.25701280906E+02 0.25701280660E+02 0.24679388945E+02 0.22753445005E+02 0.20139647217E+02
 0.11727538336E+02 0.95289207199E+01 0.75976714846E+01 0.60692422477E+01 0.49947677196E+01
 0.43327006313E+01 0.39570044958E+01 0.36991039504E+01 0.35021662102E+01 0.33673152083E+01
 0.32900323018E+01 0.32650132618E+01 0.32900321963E+01 0.33673149786E+01 0.35021658419E+01
 0.36991034685E+01 0.39570039962E+01 0.43327002871E+01 0.49947677615E+01 0.60692429038E+01
 0.75976729136E+01 0.95289229406E+01 0.11727541186E+02 0.13994871821E+02 0.16098501284E+02
 0.17806101245E+02 0.18919821016E+02 0.19306686190E+02 0.18919819734E+02 0.17806098911E+02
 0.16098498303E+02 0.13994868676E+02 0.80011403909E+01 0.66290345700E+01 0.55251550698E+01
 0.47372603856E+01 0.42385332007E+01 0.39316665033E+01 0.36971167453E+01 0.35142307287E+01
 0.33845217053E+01 0.33034910050E+01 0.32650132618E+01 0.32650134867E+01 0.33034915977E+01
 0.33845224548E+01 0.35142313846E+01 0.36971171279E+01 0.39316665966E+01 0.42385331821E+01
 0.47372605888E+01 0.55251558745E+01 0.66290362637E+01 0.80011430469E+01 0.95289229406E+01
 0.11055232824E+02 0.12404795129E+02 0.13412788228E+02 0.13951572843E+02 0.13951572016E+02
 0.13412785922E+02 0.12404791816E+02 0.11055229145E+02 0.95289195344E+01 0.57402139552E+01
 0.50152108293E+01 0.44903305541E+01 0.41444987445E+01 0.39017193294E+01 0.36989219656E+01
 0.35385508773E+01 0.34221538835E+01 0.33458276658E+01 0.33034907695E+01 0.32900321963E+01
 0.33034915977E+01 0.33458290875E+01 0.34221555104E+01 0.35385523062E+01 0.36989229171E+01
 0.39017197513E+01 0.41444988265E+01 0.44903306630E+01 0.50152113758E+01 0.57402152336E+01
 0.66290362637E+01 0.75976729136E+01 0.85322454396E+01 0.93110995359E+01 0.98273121995E+01
 0.10007993124E+02 0.98273109075E+01 0.93110972576E+01 0.85322426930E+01 0.75976702739E+01
 0.66290341929E+01 0.45940065221E+01 0.42823302939E+01 0.40586928114E+01 0.38710245514E+01
 0.37091220693E+01 0.35801568871E+01 0.34855466109E+01 0.34221538655E+01 0.33845212725E+01
 0.33673145484E+01 0.33673149786E+01 0.33845224548E+01 0.34221555104E+01 0.34855483336E+01
 0.35801583264E+01 0.37091229883E+01 0.38710249018E+01 0.40586927321E+01 0.42823300451E+01
 0.45940063939E+01 0.50152113758E+01 0.55251558745E+01 0.60692429038E+01 0.65735983830E+01
 0.69622749706E+01 0.71737461736E+01 0.71737459117E+01 0.69622742663E+01 0.65735974542E+01
 0.60692420251E+01 0.55251552794E+01 0.50152111719E+01 0.41182365952E+01 0.39758026449E+01
 0.38444143694E+01 0.37321135922E+01 0.36437771836E+01 0.35801574391E+01 0.35385514192E+01
 0.35142306729E+01 0.35021654465E+01 0.34986039987E+01 0.35021658419E+01 0.35142313846E+01
 0.35385523062E+01 0.35801583264E+01 0.36437778988E+01 0.37321139983E+01 0.38444143859E+01
 0.39758022623E+01 0.41182358663E+01 0.42823300451E+01 0.44903306630E+01 0.47372605888E+01
 0.49947677615E+01 0.52220660749E+01 0.53783698705E+01 0.54340641631E+01 0.53783702220E+01
 0.52220667435E+01 0.49947686781E+01 0.47372616535E+01 0.44903317517E+01 0.42823310200E+01
 0.38961953527E+01 0.38263318860E+01 0.37709414490E+01 0.37321142575E+01 0.37091233769E+01
 0.36989234161E+01 0.36971176361E+01 0.36991038496E+01 0.37011389842E+01 0.37011388426E+01
 0.36991034685E+01 0.36971171279E+01 0.36989229171E+01 0.37091229883E+01 0.37321139983E+01
 0.37709412387E+01 0.38263315631E+01 0.38961947313E+01 0.39758022623E+01 0.40586927321E+01
 0.41444988265E+01 0.42385331821E+01 0.43327002871E+01 0.44103005331E+01 0.44543213658E+01
 0.44543218050E+01 0.44103017622E+01 0.43327020639E+01 0.42385351777E+01 0.41445007118E+01
 0.40586942593E+01 0.39758033208E+01 0.38199245903E+01 0.38263321565E+01 0.38444153235E+01
 0.38710262539E+01 0.39017214112E+01 0.39316683017E+01 0.39570054048E+01 0.39747977079E+01
 0.39812980071E+01 0.39747969099E+01 0.39570039962E+01 0.39316665966E+01 0.39017197513E+01
 0.38710249018E+01 0.38444143859E+01 0.38263315631E+01 0.38199241295E+01 0.38263315631E+01
 0.38444143859E+01 0.38710249018E+01 0.39017197513E+01 0.39316665966E+01 0.39570039962E+01
 0.39747969099E+01 0.39812980071E+01 0.39747977079E+01 0.39570054048E+01 0.39316683017E+01
 0.39017214112E+01 0.38710262539E+01 0.38444153235E+01 0.38263321565E+01 0.38961953527E+01
 0.39758033208E+01 0.40586942593E+01 0.41445007118E+01 0.42385351777E+01 0.43327020639E+01
 0.44103017622E+01 0.44543218050E+01 0.44543213658E+01 0.44103005331E+01 0.43327002871E+01
 0.42385331821E+01 0.41444988265E+01 0.40586927321E+01 0.39758022623E+01 0.38961947313E+01
 0.38263315631E+01 0.37709412387E+01 0.37321139983E+01 0.37091229883E+01 0.36989229171E+01
 0.36971171279E+01 0.36991034685E+01 0.37011388426E+01 0.37011389842E+01 0.36991038496E+01
 0.36971176361E+01 0.36989234161E+01 0.37091233769E+01 0.37321142575E+01 0.37709414490E+01
 0.38263318860E+01 0.41182365952E+01 0.42823310200E+01 0.44903317517E+01 0.47372616535E+01
 0.49947686781E+01 0.52220667435E+01 0.53783702220E+01 0.54340641631E+01 0.53783698705E+01
 0.52220660749E+01 0.49947677615E+01 0.47372605888E+01 0.44903306630E+01 0.42823300451E+01
 0.41182358663E+01 0.39758022623E+01 0.38444143859E+01 0.37321139983E+01 0.36437778988E+01
 0.35801583264E+01 0.35385523062E+01 0.35142313846E+01 0.35021658419E+01 0.34986039987E+01
 0.35021654465E+01 0.35142306729E+01 0.35385514192E+01 0.35801574391E+01 0.36437771836E+01
 0.37321135922E+01 0.38444143694E+01 0.39758026449E+01 0.45940065221E+01 0.50152111719E+01
 0.55251552794E+01 0.60692420251E+01 0.65735974542E+01 0.69622742663E+01 0.71737459117E+01
 0.71737461736E+01 0.69622749706E+01 0.65735983830E+01 0.60692429038E+01 0.55251558745E+01
 0.50152113758E+01 0.45940063939E+01 0.42823300451E+01 0.40586927321E+01 0.38710249018E+01
 0.37091229883E+01 0.35801583264E+01 0.34855483336E+01 0.34221555104E+01 0.33845224548E+01
 0.33673149786E+01 0.33673145484E+01 0.33845212725E+01 0.34221538655E+01 0.34855466109E+01
 0.35801568871E+01 0.37091220693E+01 0.38710245514E+01 0.40586928114E+01 0.42823302939E+01
 0.57402139552E+01 0.66290341929E+01 0.75976702739E+01 0.85322426930E+01 0.93110972576E+01
 0.98273109075E+01 0.10007993124E+02 0.98273121995E+01 0.93110995359E+01 0.85322454396E+01
 0.75976729136E+01 0.66290362637E+01 0.57402152336E+01 0.50152113758E+01 0.44903306630E+01
 0.41444988265E+01 0.39017197513E+01 0.36989229171E+01 0.35385523062E+01 0.34221555104E+01
 0.33458290875E+01 0.33034915977E+01 0.32900321963E+01 0.33034907695E+01 0.33458276658E+01
 0.34221538835E+01 0.35385508773E+01 0.36989219656E+01 0.39017193294E+01 0.41444987445E+01
 0.44903305541E+01 0.50152108293E+01 0.80011403909E+01 0.95289195344E+01 0.11055229145E+02
 0.12404791816E+02 0.13412785922E+02 0.13951572016E+02 0.13951572843E+02 0.13412788228E+02
 0.12404795129E+02 0.11055232824E+02 0.95289229406E+01 0.80011430469E+01 0.66290362637E+01
 0.55251558745E+01 0.47372605888E+01 0.42385331821E+01 0.39316665966E+01 0.36971171279E+01
 0.35142313846E+01 0.33845224548E+01 0.33034915977E+01 0.32650134867E+01 0.32650132618E+01
 0.33034910050E+01 0.33845217053E+01 0.35142307287E+01 0.36971167453E+01 0.39316665033E+01
 0.42385332007E+01 0.47372603856E+01 0.55251550698E+01 0.66290345700E+01 0.11727538336E+02
 0.13994868676E+02 0.16098498303E+02 0.17806098911E+02 0.18919819734E+02 0.19306686190E+02
 0.18919821016E+02 0.17806101245E+02 0.16098501284E+02 0.13994871821E+02 0.11727541186E+02
 0.95289229406E+01 0.75976729136E+01 0.60692429038E+01 0.49947677615E+01 0.43327002871E+01
 0.39570039962E+01 0.36991034685E+01 0.35021658419E+01 0.33673149786E+01 0.32900321963E+01
 0.32650132618E+01 0.32900323018E+01 0.33673152083E+01 0.35021662102E+01 0.36991039504E+01
 0.39570044958E+01 0.43327006313E+01 0.49947677196E+01 0.60692422477E+01 0.75976714846E+01
 0.95289207199E+01 0.17118668525E+02 0.20139647217E+02 0.22753445005E+02 0.24679388945E+02
 0.25701280660E+02 0.25701280906E+02 0.24679389655E+02 0.22753446100E+02 0.20139648571E+02
 0.17118669978E+02 0.13994871821E+02 0.11055232824E+02 0.85322454396E+01 0.65735983830E+01
 0.52220660749E+01 0.44103005331E+01 0.39747969099E+01 0.37011388426E+01 0.34986039987E+01
 0.33673145484E+01 0.33034907695E+01 0.33034910050E+01 0.33673152083E+01 0.34986049542E+01
 0.37011399068E+01 0.39747978750E+01 0.44103012087E+01 0.52220663213E+01 0.65735981347E+01
 0.85322447098E+01 0.11055231701E+02 0.13994870447E+02 0.24196555365E+02 0.27895722221E+02
 0.30866895020E+02 0.32793417916E+02 0.33460907554E+02 0.32793417567E+02 0.30866894411E+02
 0.27895721501E+02 0.24196554693E+02 0.20139648571E+02 0.16098501284E+02 0.12404795129E+02
 0.93110995359E+01 0.69622749706E+01 0.53783698705E+01 0.44543213658E+01 0.39812980071E+01
 0.37011389842E+01 0.35021654465E+01 0.33845212725E+01 0.33458276658E+01 0.33845217053E+01
 0.35021662102E+01 0.37011399068E+01 0.39812988995E+01 0.44543220788E+01 0.53783703367E+01
 0.69622752191E+01 0.93110996722E+01 0.12404795293E+02 0.16098501596E+02 0.20139649081E+02
 0.32802379333E+02 0.37016136372E+02 0.40109571280E+02 0.41748400483E+02 0.41748400109E+02
 0.40109570210E+02 0.37016134753E+02 0.32802377375E+02 0.27895721501E+02 0.22753446100E+02
 0.17806101245E+02 0.13412788228E+02 0.98273121995E+01 0.71737461736E+01 0.54340641631E+01
 0.44543218050E+01 0.39747977079E+01 0.36991038496E+01 0.35142306729E+01 0.34221538655E+01
 0.34221538835E+01 0.35142307287E+01 0.36991039504E+01 0.39747978750E+01 0.44543220788E+01
 0.54340646061E+01 0.71737468610E+01 0.98273132018E+01 0.13412789586E+02 0.17806102947E+02
 0.22753448060E+02 0.27895723566E+02 0.42597298694E+02 0.47073880327E+02 0.49976755174E+02
 0.50982871799E+02 0.49976754773E+02 0.47073879475E+02 0.42597297326E+02 0.37016134753E+02
 0.30866894411E+02 0.24679389655E+02 0.18919821016E+02 0.13951572843E+02 0.10007993124E+02
 0.71737459117E+01 0.53783702220E+01 0.44103017622E+01 0.39570054048E+01 0.36971176361E+01
 0.35385514192E+01 0.34855466109E+01 0.35385508773E+01 0.36971167453E+01 0.39570044958E+01
 0.44103012087E+01 0.53783703367E+01 0.71737468610E+01 0.10007994889E+02 0.13951575232E+02
 0.18919823725E+02 0.24679392347E+02 0.30866896803E+02 0.37016136664E+02 0.53058119462E+02
 0.57458854414E+02 0.59793875964E+02 0.59793876266E+02 0.57458855152E+02 0.53058120194E+02
 0.47073879475E+02 0.40109570210E+02 0.32793417567E+02 0.25701280906E+02 0.19306686190E+02
 0.13951572016E+02 0.98273109075E+01 0.69622742663E+01 0.52220667435E+01 0.43327020639E+01
 0.39316683017E+01 0.36989234161E+01 0.35801574391E+01 0.35801568871E+01 0.36989219656E+01
 0.39316665033E+01 0.43327006313E+01 0.52220663213E+01 0.69622752191E+01 0.98273132018E+01
 0.13951575232E+02 0.19306689656E+02 0.25701283913E+02 0.32793419587E+02 0.40109571046E+02
 0.47073879300E+02 0.63477701324E+02 0.67391054468E+02 0.68749480714E+02 0.67391056187E+02
 0.63477704166E+02 0.57458855152E+02 0.49976754773E+02 0.41748400109E+02 0.33460907554E+02
 0.25701280660E+02 0.18919819734E+02 0.13412785922E+02 0.93110972576E+01 0.65735974542E+01
 0.49947686781E+01 0.42385351777E+01 0.39017214112E+01 0.37091233769E+01 0.36437771836E+01
 0.37091220693E+01 0.39017193294E+01 0.42385332007E+01 0.49947677196E+01 0.65735981347E+01
 0.93110996722E+01 0.13412789586E+02 0.18919823725E+02 0.25701283913E+02 0.33460909209E+02
 0.41748399796E+02 0.49976752740E+02 0.57458852182E+02 0.72996352387E+02 0.75977339057E+02
 0.75977340357E+02 0.72996355895E+02 0.67391056187E+02 0.59793876266E+02 0.50982871799E+02
 0.41748400483E+02 0.32793417916E+02 0.24679388945E+02 0.17806098911E+02 0.12404791816E+02
 0.85322426930E+01 0.60692420251E+01 0.47372616535E+01 0.41445007118E+01 0.38710262539E+01
 0.37321142575E+01 0.37321135922E+01 0.38710245514E+01 0.41444987445E+01 0.47372603856E+01
 0.60692422477E+01 0.85322447098E+01 0.12404795293E+02 0.17806102947E+02 0.24679392347E+02
 0.32793419587E+02 0.41748399796E+02 0.50982868833E+02 0.59793871809E+02 0.67391051516E+02
 0.80688849147E+02 0.82326611705E+02 0.80688851611E+02 0.75977340357E+02 0.68749480714E+02
 0.59793875964E+02 0.49976755174E+02 0.40109571280E+02 0.30866895020E+02 0.22753445005E+02
 0.16098498303E+02 0.11055229145E+02 0.75976702739E+01 0.55251552794E+01 0.44903317517E+01
 0.40586942593E+01 0.38444153235E+01 0.37709414490E+01 0.38444143694E+01 0.40586928114E+01
 0.44903305541E+01 0.55251550698E+01 0.75976714846E+01 0.11055231701E+02 0.16098501596E+02
 0.22753448060E+02 0.30866896803E+02 0.40109571046E+02 0.49976752740E+02 0.59793871809E+02
 0.68749475872E+02 0.75977336119E+02 0.85708249109E+02 0.85708249898E+02 0.82326611705E+02
 0.75977339057E+02 0.67391054468E+02 0.57458854414E+02 0.47073880327E+02 0.37016136372E+02
 0.27895722221E+02 0.20139647217E+02 0.13994868676E+02 0.95289195344E+01 0.66290341929E+01
 0.50152111719E+01 0.42823310200E+01 0.39758033208E+01 0.38263321565E+01 0.38263318860E+01
 0.39758026449E+01 0.42823302939E+01 0.50152108293E+01 0.66290345700E+01 0.95289207199E+01
 0.13994870447E+02 0.20139649081E+02 0.27895723566E+02 0.37016136664E+02 0.47073879300E+02
 0.57458852182E+02 0.67391051516E+02 0.75977336119E+02 0.82326609551E+02 0.85708249109E+02
 0.82326609551E+02 0.75977336119E+02 0.67391051516E+02 0.57458852182E+02 0.47073879300E+02
 0.37016136664E+02 0.27895723566E+02 0.20139649081E+02 0.13994870447E+02 0.95289207199E+01
 0.66290345700E+01 0.50152108293E+01 0.42823302939E+01 0.39758026449E+01 0.38263318860E+01
 0.38263321565E+01 0.39758033208E+01 0.42823310200E+01 0.50152111719E+01 0.66290341929E+01
 0.95289195344E+01 0.13994868676E+02 0.20139647217E+02 0.27895722221E+02 0.37016136372E+02
 0.47073880327E+02 0.57458854414E+02 0.67391054468E+02 0.75977339057E+02 0.82326611705E+02
 0.85708249898E+02 0.82326609551E+02 0.77520353891E+02 0.70148542967E+02 0.61016662925E+02
 0.51008244762E+02 0.40949323279E+02 0.31525003529E+02 0.23246894390E+02 0.16448794915E+02
 0.11287126159E+02 0.77381734608E+01 0.56020574319E+01 0.45300820998E+01 0.40840190550E+01
 0.38669994575E+01 0.37925216230E+01 0.38670004420E+01 0.40840205591E+01 0.45300833745E+01
 0.56020577406E+01 0.77381723850E+01 0.11287123801E+02 0.16448791918E+02 0.23246891764E+02
 0.31525002327E+02 0.40949324236E+02 0.51008248018E+02 0.61016667922E+02 0.70148548573E+02
 0.77520358710E+02 0.82326612330E+02 0.83997480610E+02 0.75977336119E+02 0.70148542967E+02
 0.62251322872E+02 0.53095466916E+02 0.43500891998E+02 0.34193914303E+02 0.25752466898E+02
 0.18587555195E+02 0.12938504578E+02 0.88680586673E+01 0.62603807392E+01 0.48364576676E+01
 0.41992825698E+01 0.39156168781E+01 0.37729378244E+01 0.37729385396E+01 0.39156187236E+01
 0.41992847593E+01 0.48364592288E+01 0.62603808941E+01 0.88680571551E+01 0.12938501803E+02
 0.18587552138E+02 0.25752464810E+02 0.34193914292E+02 0.43500894622E+02 0.53095471949E+02
 0.62251329311E+02 0.70148549291E+02 0.75977340728E+02 0.79077997952E+02 0.79077996266E+02
 0.67391051516E+02 0.61016662925E+02 0.53095466916E+02 0.44385353861E+02 0.35609015818E+02
 0.27380807829E+02 0.20170903449E+02 0.14290300540E+02 0.98811727097E+01 0.69099363664E+01
 0.51733673492E+01 0.43308707755E+01 0.39670787377E+01 0.37668108767E+01 0.36986360666E+01
 0.37668123725E+01 0.39670811817E+01 0.43308732724E+01 0.51733689854E+01 0.69099365529E+01
 0.98811714174E+01 0.14290298340E+02 0.20170901342E+02 0.27380806909E+02 0.35609016889E+02
 0.44385357135E+02 0.53095471895E+02 0.61016668510E+02 0.67391056324E+02 0.71537086174E+02
 0.72976592584E+02 0.71537083399E+02 0.57458852182E+02 0.51008244762E+02 0.43500891998E+02
 0.35609015818E+02 0.27945571844E+02 0.21013211550E+02 0.15176576040E+02 0.10644976865E+02
 0.74599482669E+01 0.54937394283E+01 0.44704024593E+01 0.40161650742E+01 0.37711700483E+01
 0.36455143561E+01 0.36455150346E+01 0.37711718770E+01 0.40161675019E+01 0.44704047784E+01
 0.54937410142E+01 0.74599487898E+01 0.10644976399E+02 0.15176575036E+02 0.21013210675E+02
 0.27945571745E+02 0.35609016890E+02 0.43500894231E+02 0.51008247729E+02 0.57458855158E+02
 0.62203632712E+02 0.64721801870E+02 0.64721801062E+02 0.62203630517E+02 0.47073879300E+02
 0.40949323279E+02 0.34193914303E+02 0.27380807829E+02 0.21013211550E+02 0.15485205682E+02
 0.11055429503E+02 0.78281982657E+01 0.57451381222E+01 0.45966909676E+01 0.40609599093E+01
 0.37816428743E+01 0.36116574854E+01 0.35545775668E+01 0.36116582507E+01 0.37816442477E+01
 0.40609616188E+01 0.45966926986E+01 0.57451395967E+01 0.78281993075E+01 0.11055430068E+02
 0.15485205849E+02 0.21013211478E+02 0.27380807694E+02 0.34193914240E+02 0.40949323345E+02
 0.47073879472E+02 0.51984418299E+02 0.55168562506E+02 0.56272213424E+02 0.55168562377E+02
 0.51984418103E+02 0.37016136664E+02 0.31525003529E+02 0.25752466898E+02 0.20170903449E+02
 0.15176576040E+02 0.11055429503E+02 0.79577253109E+01 0.58833797926E+01 0.46852262848E+01
 0.40973260297E+01 0.37934653351E+01 0.35928573835E+01 0.34922095105E+01 0.34922095132E+01
 0.35928574426E+01 0.37934655796E+01 0.40973266027E+01 0.46852272654E+01 0.58833811327E+01
 0.79577268159E+01 0.11055430865E+02 0.15176576920E+02 0.20170903581E+02 0.25752466184E+02
 0.31525002087E+02 0.37016134814E+02 0.41723705145E+02 0.45176689472E+02 0.47005334588E+02
 0.47005335067E+02 0.45176690785E+02 0.41723706954E+02 0.27895723566E+02 0.23246894390E+02
 0.18587555195E+02 0.14290300540E+02 0.10644976865E+02 0.78281982657E+01 0.58833797926E+01
 0.47170901153E+01 0.41180688682E+01 0.38024559902E+01 0.35840776045E+01 0.34536648256E+01
 0.34105620896E+01 0.34536641620E+01 0.35840765550E+01 0.38024550084E+01 0.41180684158E+01
 0.47170904874E+01 0.58833809964E+01 0.78281999994E+01 0.10644978604E+02 0.14290301705E+02
 0.18587555349E+02 0.23246893390E+02 0.27895721628E+02 0.32117665923E+02 0.35500444366E+02
 0.37690883115E+02 0.38449363322E+02 0.37690884347E+02 0.35500446465E+02 0.32117668277E+02
 0.20139649081E+02 0.16448794915E+02 0.12938504578E+02 0.98811727097E+01 0.74599482669E+01
 0.57451381222E+01 0.46852262848E+01 0.41180688682E+01 0.38057852821E+01 0.35809455836E+01
 0.34334174105E+01 0.33611824646E+01 0.33611819491E+01 0.34334160334E+01 0.35809437966E+01
 0.38057836716E+01 0.41180679620E+01 0.46852263814E+01 0.57451391951E+01 0.74599499788E+01
 0.98811745285E+01 0.12938505954E+02 0.16448795465E+02 0.20139648711E+02 0.23682543061E+02
 0.26732589213E+02 0.28972912053E+02 0.30159578497E+02 0.30159578906E+02 0.28972913127E+02
 0.26732590546E+02 0.23682544135E+02 0.13994870447E+02 0.11287126159E+02 0.88680586673E+01
 0.69099363664E+01 0.54937394283E+01 0.45966909676E+01 0.40973260297E+01 0.38024559902E+01
 0.35809455836E+01 0.34271987928E+01 0.33382807261E+01 0.33093602047E+01 0.33382799307E+01
 0.34271974273E+01 0.35809440336E+01 0.38024546921E+01 0.40973253488E+01 0.45966911032E+01
 0.54937403699E+01 0.69099379122E+01 0.88680604999E+01 0.11287127941E+02 0.13994871916E+02
 0.16752818183E+02 0.19289162047E+02 0.21335744534E+02 0.22665656504E+02 0.23126814840E+02
 0.22665656409E+02 0.21335744254E+02 0.19289161446E+02 0.16752817154E+02 0.95289207199E+01
 0.77381734608E+01 0.62603807392E+01 0.51733673492E+01 0.44704024593E+01 0.40609599093E+01
 0.37934653351E+01 0.35840776045E+01 0.34334174105E+01 0.33382807261E+01 0.32927910272E+01
 0.32927909411E+01 0.33382804833E+01 0.34334170610E+01 0.35840772310E+01 0.37934650528E+01
 0.40609598544E+01 0.44704027707E+01 0.51733681425E+01 0.62603820722E+01 0.77381753112E+01
 0.95289229685E+01 0.11484277551E+02 0.13409765807E+02 0.15094916351E+02 0.16345025092E+02
 0.17010637598E+02 0.17010637144E+02 0.16345023796E+02 0.15094914398E+02 0.13409763463E+02
 0.11484275116E+02 0.66290345700E+01 0.56020574319E+01 0.48364576676E+01 0.43308707755E+01
 0.40161650742E+01 0.37816428743E+01 0.35928573835E+01 0.34536648256E+01 0.33611824646E+01
 0.33093602047E+01 0.32927909411E+01 0.33093607886E+01 0.33611834728E+01 0.34536659982E+01
 0.35928584568E+01 0.37816436795E+01 0.40161656063E+01 0.43308711962E+01 0.48364582557E+01
 0.56020584736E+01 0.66290362473E+01 0.78527897237E+01 0.91566097482E+01 0.10393618548E+02
 0.11412463189E+02 0.12082736756E+02 0.12316499284E+02 0.12082735552E+02 0.11412461036E+02
 0.10393615878E+02 0.91566070541E+01 0.78527874211E+01 0.50152108293E+01 0.45300820998E+01
 0.41992825698E+01 0.39670787377E+01 0.37711700483E+01 0.36116574854E+01 0.34922095105E+01
 0.34105620896E+01 0.33611819491E+01 0.33382799307E+01 0.33382804833E+01 0.33611834728E+01
 0.34105642235E+01 0.34922117804E+01 0.36116594513E+01 0.37711714337E+01 0.39670795076E+01
 0.41992829167E+01 0.45300823641E+01 0.50152113647E+01 0.56583500395E+01 0.64138403708E+01
 0.71990389148E+01 0.79126588408E+01 0.84552396098E+01 0.87481538141E+01 0.87481533436E+01
 0.84552383207E+01 0.79126570580E+01 0.71990370596E+01 0.64138388199E+01 0.56583490049E+01
 0.42823302939E+01 0.40840190550E+01 0.39156168781E+01 0.37668108767E+01 0.36455143561E+01
 0.35545775668E+01 0.34922095132E+01 0.34536641620E+01 0.34334160334E+01 0.34271974273E+01
 0.34334170610E+01 0.34536659982E+01 0.34922117804E+01 0.35545798302E+01 0.36455162387E+01
 0.37668121456E+01 0.39156174903E+01 0.40840191395E+01 0.42823300838E+01 0.45515260077E+01
 0.49019015437E+01 0.53082351249E+01 0.57198185108E+01 0.60747221402E+01 0.63150179651E+01
 0.63999883133E+01 0.63150177593E+01 0.60747218223E+01 0.57198182274E+01 0.53082350076E+01
 0.49019016444E+01 0.45515262571E+01 0.39758026449E+01 0.38669994575E+01 0.37729378244E+01
 0.36986360666E+01 0.36455150346E+01 0.36116582507E+01 0.35928574426E+01 0.35840765550E+01
 0.35809437966E+01 0.35809440336E+01 0.35840772310E+01 0.35928584568E+01 0.36116594513E+01
 0.36455162387E+01 0.36986370886E+01 0.37729385027E+01 0.38669996784E+01 0.39758023655E+01
 0.40917320407E+01 0.42207325712E+01 0.43780146244E+01 0.45567050487E+01 0.47324895682E+01
 0.48738933328E+01 0.49527860486E+01 0.49527863128E+01 0.48738940846E+01 0.47324906909E+01
 0.45567063694E+01 0.43780159420E+01 0.42207336869E+01 0.40917327896E+01 0.38263318860E+01
 0.37925216230E+01 0.37729385396E+01 0.37668123725E+01 0.37711718770E+01 0.37816442477E+01
 0.37934655796E+01 0.38024550084E+01 0.38057836716E+01 0.38024546921E+01 0.37934650528E+01
 0.37816436795E+01 0.37711714337E+01 0.37668121456E+01 0.37729385027E+01 0.37925216288E+01
 0.38263317100E+01 0.38726052681E+01 0.39273261250E+01 0.39850609310E+01 0.40421205299E+01
 0.41005300019E+01 0.41548101261E+01 0.41940062760E+01 0.42083482450E+01 0.41940071762E+01
 0.41548117320E+01 0.41005319789E+01 0.40421224982E+01 0.39850625661E+01 0.39273272406E+01
 0.38726058475E+01 0.38263321565E+01 0.38670004420E+01 0.39156187236E+01 0.39670811817E+01
 0.40161675019E+01 0.40609616188E+01 0.40973266027E+01 0.41180684158E+01 0.41180679620E+01
 0.40973253488E+01 0.40609598544E+01 0.40161656063E+01 0.39670795076E+01 0.39156174903E+01
 0.38669996784E+01 0.38263317100E+01 0.37973517400E+01 0.37817075832E+01 0.37787187314E+01
 0.37856869170E+01 0.37986233003E+01 0.38131439485E+01 0.38252911211E+01 0.38321361606E+01
 0.38321365673E+01 0.38252922404E+01 0.38131455121E+01 0.37986249594E+01 0.37856883550E+01
 0.37787197644E+01 0.37817082116E+01 0.37973521388E+01 0.39758033208E+01 0.40840205591E+01
 0.41992847593E+01 0.43308732724E+01 0.44704047784E+01 0.45966926986E+01 0.46852272654E+01
 0.47170904874E+01 0.46852263814E+01 0.45966911032E+01 0.44704027707E+01 0.43308711962E+01
 0.41992829167E+01 0.40840191395E+01 0.39758023655E+01 0.38726052681E+01 0.37817075832E+01
 0.37082123873E+01 0.36541378704E+01 0.36184453999E+01 0.35977789292E+01 0.35876365366E+01
 0.35836500476E+01 0.35826974242E+01 0.35836503462E+01 0.35876370500E+01 0.35977795231E+01
 0.36184459450E+01 0.36541382988E+01 0.37082127254E+01 0.37817079530E+01 0.38726058475E+01
 0.42823310200E+01 0.45300833745E+01 0.48364592288E+01 0.51733689854E+01 0.54937410142E+01
 0.57451395967E+01 0.58833811327E+01 0.58833809964E+01 0.57451391951E+01 0.54937403699E+01
 0.51733681425E+01 0.48364582557E+01 0.45300823641E+01 0.42823300838E+01 0.40917320407E+01
 0.39273261250E+01 0.37787187314E+01 0.36541378704E+01 0.35576355493E+01 0.34888428118E+01
 0.34441256491E+01 0.34183740066E+01 0.34068848300E+01 0.34068846894E+01 0.34183736204E+01
 0.34441251141E+01 0.34888422642E+01 0.35576351323E+01 0.36541377009E+01 0.37787188797E+01