Co-fcc                                  
   1.00000000000000     
     0.000000    1.724528    1.724528
     1.724528    0.000000    1.724528
     1.724528    1.724528    0.000000
   Co
     1
Direct
  0.000000  0.000000  0.000000
 
   32   32   32
 0.97113476801E+02 0.95036415821E+02 0.89081907119E+02 0.80008456629E+02 0.68872826410E+02
 0.56809377370E+02 0.44849278197E+02 0.33819592847E+02 0.24313451781E+02 0.16693247641E+02
 0.11093373244E+02 0.74166976895E+01 0.53447225972E+01 0.43857314310E+01 0.39695858962E+01
 0.37324457893E+01 0.36526838778E+01 0.37324457893E+01 0.39695858962E+01 0.43857314310E+01
 0.53447225972E+01 0.74166976895E+01 0.11093373244E+02 0.16693247641E+02 0.24313451781E+02
 0.33819592847E+02 0.44849278197E+02 0.56809377370E+02 0.68872826410E+02 0.80008456629E+02
 0.89081907119E+02 0.95036415821E+02 0.95036415821E+02 0.91021881889E+02 0.83516954842E+02
 0.73438279618E+02 0.61887493253E+02 0.49947343567E+02 0.38541722577E+02 0.28374066114E+02
 0.19917601175E+02 0.13419052941E+02 0.88959350909E+01 0.61366120394E+01 0.47279351526E+01
 0.41270976532E+01 0.38173835474E+01 0.36599880293E+01 0.36599881398E+01 0.38173837739E+01
 0.41270977239E+01 0.47279347450E+01 0.61366109248E+01 0.88959332540E+01 0.13419050630E+02
 0.19917598855E+02 0.28374064344E+02 0.38541721824E+02 0.49947344065E+02 0.61887494892E+02
 0.73438281962E+02 0.83516957247E+02 0.91021883673E+02 0.95036416479E+02 0.89081907119E+02
 0.83516954842E+02 0.75027277373E+02 0.64592233257E+02 0.53269923744E+02 0.42031429634E+02
 0.31665132197E+02 0.22743204358E+02 0.15617141556E+02 0.10414395496E+02 0.70332780571E+01
 0.51554026164E+01 0.42969828309E+01 0.39080515725E+01 0.36805255157E+01 0.36042689242E+01
 0.36805258199E+01 0.39080518300E+01 0.42969824887E+01 0.51554011648E+01 0.70332752773E+01
 0.10414391616E+02 0.15617137256E+02 0.22743200602E+02 0.31665129951E+02 0.42031429549E+02
 0.53269925924E+02 0.64592237174E+02 0.75027281990E+02 0.83516958896E+02 0.89081909477E+02
 0.91021883673E+02 0.80008456629E+02 0.73438279618E+02 0.64592233257E+02 0.54424406631E+02
 0.43887396479E+02 0.33811337876E+02 0.24842942807E+02 0.17424200179E+02 0.11782894770E+02
 0.79233025925E+01 0.56280204223E+01 0.44915900986E+01 0.39964975489E+01 0.37105230279E+01
 0.35664472754E+01 0.35664474879E+01 0.37105234282E+01 0.39964975294E+01 0.44915889447E+01
 0.56280176475E+01 0.79232982100E+01 0.11782889402E+02 0.17424194943E+02 0.24842939007E+02
 0.33811336601E+02 0.43887398221E+02 0.54424411080E+02 0.64592239325E+02 0.73438285720E+02
 0.80008461121E+02 0.83516958896E+02 0.83516957247E+02 0.68872826410E+02 0.61887493253E+02
 0.53269923744E+02 0.43887396479E+02 0.34557017483E+02 0.25962467822E+02 0.18612165993E+02
 0.12817992691E+02 0.86797365270E+01 0.60787126688E+01 0.46971427854E+01 0.40767973053E+01
 0.37447413750E+01 0.35447851495E+01 0.34784162546E+01 0.35447856827E+01 0.37447419180E+01
 0.40767970357E+01 0.46971409459E+01 0.60787089362E+01 0.86797312470E+01 0.12817986878E+02
 0.18612161080E+02 0.25962465234E+02 0.34557018160E+02 0.43887400533E+02 0.53269930332E+02
 0.61887500770E+02 0.68872832915E+02 0.73438285720E+02 0.75027281990E+02 0.73438281962E+02
 0.56809377370E+02 0.49947343567E+02 0.42031429634E+02 0.33811337876E+02 0.25962467822E+02
 0.19026397258E+02 0.13375240438E+02 0.91872774412E+01 0.64328694544E+01 0.48823286277E+01
 0.41489516372E+01 0.37776628241E+01 0.35355024475E+01 0.34157234028E+01 0.34157239337E+01
 0.35355037104E+01 0.37776639645E+01 0.41489516276E+01 0.48823267132E+01 0.64328655195E+01
 0.91872721673E+01 0.13375235166E+02 0.19026393609E+02 0.25962467166E+02 0.33811340852E+02
 0.42031435871E+02 0.49947351709E+02 0.56809385420E+02 0.61887500770E+02 0.64592239325E+02
 0.64592237174E+02 0.61887494892E+02 0.44849278197E+02 0.38541722577E+02 0.31665132197E+02
 0.24842942807E+02 0.18612165993E+02 0.13375240438E+02 0.93659718841E+01 0.66277357340E+01
 0.50117052003E+01 0.42063873030E+01 0.38045293588E+01 0.35339463437E+01 0.33747705152E+01
 0.33226470912E+01 0.33747722153E+01 0.35339489816E+01 0.38045317039E+01 0.42063881346E+01
 0.50117038071E+01 0.66277322412E+01 0.93659672994E+01 0.13375236362E+02 0.18612164115E+02
 0.24842944321E+02 0.31665137343E+02 0.38541730488E+02 0.44849287083E+02 0.49947351709E+02
 0.53269930332E+02 0.54424411080E+02 0.53269925924E+02 0.49947344065E+02 0.33819592847E+02
 0.28374066114E+02 0.22743204358E+02 0.17424200179E+02 0.12817992691E+02 0.91872774412E+01
 0.66277357340E+01 0.50581837850E+01 0.42387040424E+01 0.38219358734E+01 0.35357124755E+01
 0.33505916032E+01 0.32610034201E+01 0.32610047123E+01 0.33505950168E+01 0.35357167882E+01
 0.38219395517E+01 0.42387058028E+01 0.50581830883E+01 0.66277330111E+01 0.91872739951E+01
 0.12817990266E+02 0.17424200363E+02 0.22743208012E+02 0.28374073007E+02 0.33819601656E+02
 0.38541730488E+02 0.42031435871E+02 0.43887400533E+02 0.43887398221E+02 0.42031429549E+02
 0.38541721824E+02 0.24313451781E+02 0.19917601175E+02 0.15617141556E+02 0.11782894770E+02
 0.86797365270E+01 0.64328694544E+01 0.50117052003E+01 0.42387040424E+01 0.38279431346E+01
 0.35374766723E+01 0.33383783058E+01 0.32246582049E+01 0.31879573639E+01 0.32246610892E+01
 0.33383831744E+01 0.35374820370E+01 0.38279474465E+01 0.42387062315E+01 0.50117050682E+01
 0.64328677449E+01 0.86797346841E+01 0.11782894429E+02 0.15617143947E+02 0.19917606665E+02
 0.24313459664E+02 0.28374073007E+02 0.31665137343E+02 0.33811340852E+02 0.34557018160E+02
 0.33811336601E+02 0.31665129951E+02 0.28374064344E+02 0.16693247641E+02 0.13419052941E+02
 0.10414395496E+02 0.79233025925E+01 0.60787126688E+01 0.48823286277E+01 0.42063873030E+01
 0.38219358734E+01 0.35374766723E+01 0.33347166707E+01 0.32080929644E+01 0.31480826792E+01
 0.31480840478E+01 0.32080966749E+01 0.33347216827E+01 0.35374816506E+01 0.38219396607E+01
 0.42063893063E+01 0.48823290359E+01 0.60787123694E+01 0.79233028526E+01 0.10414397507E+02
 0.13419057343E+02 0.16693254256E+02 0.19917606665E+02 0.22743208012E+02 0.24842944321E+02
 0.25962467166E+02 0.25962465234E+02 0.24842939007E+02 0.22743200602E+02 0.19917598855E+02
 0.11093373244E+02 0.88959350909E+01 0.70332780571E+01 0.56280204223E+01 0.46971427854E+01
 0.41489516372E+01 0.38045293588E+01 0.35357124755E+01 0.33383783058E+01 0.32080929644E+01
 0.31355194178E+01 0.31123980103E+01 0.31355210970E+01 0.32080958768E+01 0.33383817230E+01
 0.35357156414E+01 0.38045317739E+01 0.41489532322E+01 0.46971439562E+01 0.56280218926E+01
 0.70332805856E+01 0.88959391954E+01 0.11093378936E+02 0.13419057343E+02 0.15617143947E+02
 0.17424200363E+02 0.18612164115E+02 0.19026393609E+02 0.18612161080E+02 0.17424194943E+02
 0.15617137256E+02 0.13419050630E+02 0.74166976895E+01 0.61366120394E+01 0.51554026164E+01
 0.44915900986E+01 0.40767973053E+01 0.37776628241E+01 0.35339463437E+01 0.33505916032E+01
 0.32246582049E+01 0.31480826792E+01 0.31123980103E+01 0.31123981773E+01 0.31480831408E+01
 0.32246588481E+01 0.33505923264E+01 0.35339471157E+01 0.37776637555E+01 0.40767986432E+01
 0.44915921619E+01 0.51554057120E+01 0.61366163012E+01 0.74167029997E+01 0.88959391954E+01
 0.10414397507E+02 0.11782894429E+02 0.12817990266E+02 0.13375236362E+02 0.13375235166E+02
 0.12817986878E+02 0.11782889402E+02 0.10414391616E+02 0.88959332540E+01 0.53447225972E+01
 0.47279351526E+01 0.42969828309E+01 0.39964975489E+01 0.37447413750E+01 0.35355024475E+01
 0.33747705152E+01 0.32610034201E+01 0.31879573639E+01 0.31480840478E+01 0.31355210970E+01
 0.31480831408E+01 0.31879557487E+01 0.32610014605E+01 0.33747686774E+01 0.35355012223E+01
 0.37447411815E+01 0.39964986889E+01 0.42969853902E+01 0.47279390242E+01 0.53447274646E+01
 0.61366163012E+01 0.70332805856E+01 0.79233028526E+01 0.86797346841E+01 0.91872739951E+01
 0.93659672994E+01 0.91872721673E+01 0.86797312470E+01 0.79232982100E+01 0.70332752773E+01
 0.61366109248E+01 0.43857314310E+01 0.41270976532E+01 0.39080515725E+01 0.37105230279E+01
 0.35447851495E+01 0.34157234028E+01 0.33226470912E+01 0.32610047123E+01 0.32246610892E+01
 0.32080966749E+01 0.32080958768E+01 0.32246588481E+01 0.32610014605E+01 0.33226434511E+01
 0.34157200636E+01 0.35447827490E+01 0.37105220176E+01 0.39080521774E+01 0.41270998302E+01
 0.43857348846E+01 0.47279390242E+01 0.51554057120E+01 0.56280218926E+01 0.60787123694E+01
 0.64328677449E+01 0.66277330111E+01 0.66277322412E+01 0.64328655195E+01 0.60787089362E+01
 0.56280176475E+01 0.51554011648E+01 0.47279347450E+01 0.39695858962E+01 0.38173835474E+01
 0.36805255157E+01 0.35664472754E+01 0.34784162546E+01 0.34157239337E+01 0.33747722153E+01
 0.33505950168E+01 0.33383831744E+01 0.33347216827E+01 0.33383817230E+01 0.33505923264E+01
 0.33747686774E+01 0.34157200636E+01 0.34784126047E+01 0.35664443662E+01 0.36805237404E+01
 0.38173831182E+01 0.39695868327E+01 0.41270998302E+01 0.42969853902E+01 0.44915921619E+01
 0.46971439562E+01 0.48823290359E+01 0.50117050682E+01 0.50581830883E+01 0.50117038071E+01
 0.48823267132E+01 0.46971409459E+01 0.44915889447E+01 0.42969824887E+01 0.41270977239E+01
 0.37324457893E+01 0.36599880293E+01 0.36042689242E+01 0.35664474879E+01 0.35447856827E+01
 0.35355037104E+01 0.35339489816E+01 0.35357167882E+01 0.35374820370E+01 0.35374816506E+01
 0.35357156414E+01 0.35339471157E+01 0.35355012223E+01 0.35447827490E+01 0.35664443662E+01
 0.36042659497E+01 0.36599855645E+01 0.37324441388E+01 0.38173831182E+01 0.39080521774E+01
 0.39964986889E+01 0.40767986432E+01 0.41489532322E+01 0.42063893063E+01 0.42387062315E+01
 0.42387058028E+01 0.42063881346E+01 0.41489516276E+01 0.40767970357E+01 0.39964975294E+01
 0.39080518300E+01 0.38173837739E+01 0.36526838778E+01 0.36599881398E+01 0.36805258199E+01
 0.37105234282E+01 0.37447419180E+01 0.37776639645E+01 0.38045317039E+01 0.38219395517E+01
 0.38279474465E+01 0.38219396607E+01 0.38045317739E+01 0.37776637555E+01 0.37447411815E+01
 0.37105220176E+01 0.36805237404E+01 0.36599855645E+01 0.36526811190E+01 0.36599855645E+01
 0.36805237404E+01 0.37105220176E+01 0.37447411815E+01 0.37776637555E+01 0.38045317739E+01
 0.38219396607E+01 0.38279474465E+01 0.38219395517E+01 0.38045317039E+01 0.37776639645E+01
 0.37447419180E+01 0.37105234282E+01 0.36805258199E+01 0.36599881398E+01 0.37324457893E+01
 0.38173837739E+01 0.39080518300E+01 0.39964975294E+01 0.40767970357E+01 0.41489516276E+01
 0.42063881346E+01 0.42387058028E+01 0.42387062315E+01 0.42063893063E+01 0.41489532322E+01
 0.40767986432E+01 0.39964986889E+01 0.39080521774E+01 0.38173831182E+01 0.37324441388E+01
 0.36599855645E+01 0.36042659497E+01 0.35664443662E+01 0.35447827490E+01 0.35355012223E+01
 0.35339471157E+01 0.35357156414E+01 0.35374816506E+01 0.35374820370E+01 0.35357167882E+01
 0.35339489816E+01 0.35355037104E+01 0.35447856827E+01 0.35664474879E+01 0.36042689242E+01
 0.36599880293E+01 0.39695858962E+01 0.41270977239E+01 0.42969824887E+01 0.44915889447E+01
 0.46971409459E+01 0.48823267132E+01 0.50117038071E+01 0.50581830883E+01 0.50117050682E+01
 0.48823290359E+01 0.46971439562E+01 0.44915921619E+01 0.42969853902E+01 0.41270998302E+01
 0.39695868327E+01 0.38173831182E+01 0.36805237404E+01 0.35664443662E+01 0.34784126047E+01
 0.34157200636E+01 0.33747686774E+01 0.33505923264E+01 0.33383817230E+01 0.33347216827E+01
 0.33383831744E+01 0.33505950168E+01 0.33747722153E+01 0.34157239337E+01 0.34784162546E+01
 0.35664472754E+01 0.36805255157E+01 0.38173835474E+01 0.43857314310E+01 0.47279347450E+01
 0.51554011648E+01 0.56280176475E+01 0.60787089362E+01 0.64328655195E+01 0.66277322412E+01
 0.66277330111E+01 0.64328677449E+01 0.60787123694E+01 0.56280218926E+01 0.51554057120E+01
 0.47279390242E+01 0.43857348846E+01 0.41270998302E+01 0.39080521774E+01 0.37105220176E+01
 0.35447827490E+01 0.34157200636E+01 0.33226434511E+01 0.32610014605E+01 0.32246588481E+01
 0.32080958768E+01 0.32080966749E+01 0.32246610892E+01 0.32610047123E+01 0.33226470912E+01
 0.34157234028E+01 0.35447851495E+01 0.37105230279E+01 0.39080515725E+01 0.41270976532E+01
 0.53447225972E+01 0.61366109248E+01 0.70332752773E+01 0.79232982100E+01 0.86797312470E+01
 0.91872721673E+01 0.93659672994E+01 0.91872739951E+01 0.86797346841E+01 0.79233028526E+01
 0.70332805856E+01 0.61366163012E+01 0.53447274646E+01 0.47279390242E+01 0.42969853902E+01
 0.39964986889E+01 0.37447411815E+01 0.35355012223E+01 0.33747686774E+01 0.32610014605E+01
 0.31879557487E+01 0.31480831408E+01 0.31355210970E+01 0.31480840478E+01 0.31879573639E+01
 0.32610034201E+01 0.33747705152E+01 0.35355024475E+01 0.37447413750E+01 0.39964975489E+01
 0.42969828309E+01 0.47279351526E+01 0.74166976895E+01 0.88959332540E+01 0.10414391616E+02
 0.11782889402E+02 0.12817986878E+02 0.13375235166E+02 0.13375236362E+02 0.12817990266E+02
 0.11782894429E+02 0.10414397507E+02 0.88959391954E+01 0.74167029997E+01 0.61366163012E+01
 0.51554057120E+01 0.44915921619E+01 0.40767986432E+01 0.37776637555E+01 0.35339471157E+01
 0.33505923264E+01 0.32246588481E+01 0.31480831408E+01 0.31123981773E+01 0.31123980103E+01
 0.31480826792E+01 0.32246582049E+01 0.33505916032E+01 0.35339463437E+01 0.37776628241E+01
 0.40767973053E+01 0.44915900986E+01 0.51554026164E+01 0.61366120394E+01 0.11093373244E+02
 0.13419050630E+02 0.15617137256E+02 0.17424194943E+02 0.18612161080E+02 0.19026393609E+02
 0.18612164115E+02 0.17424200363E+02 0.15617143947E+02 0.13419057343E+02 0.11093378936E+02
 0.88959391954E+01 0.70332805856E+01 0.56280218926E+01 0.46971439562E+01 0.41489532322E+01
 0.38045317739E+01 0.35357156414E+01 0.33383817230E+01 0.32080958768E+01 0.31355210970E+01
 0.31123980103E+01 0.31355194178E+01 0.32080929644E+01 0.33383783058E+01 0.35357124755E+01
 0.38045293588E+01 0.41489516372E+01 0.46971427854E+01 0.56280204223E+01 0.70332780571E+01
 0.88959350909E+01 0.16693247641E+02 0.19917598855E+02 0.22743200602E+02 0.24842939007E+02
 0.25962465234E+02 0.25962467166E+02 0.24842944321E+02 0.22743208012E+02 0.19917606665E+02
 0.16693254256E+02 0.13419057343E+02 0.10414397507E+02 0.79233028526E+01 0.60787123694E+01
 0.48823290359E+01 0.42063893063E+01 0.38219396607E+01 0.35374816506E+01 0.33347216827E+01
 0.32080966749E+01 0.31480840478E+01 0.31480826792E+01 0.32080929644E+01 0.33347166707E+01
 0.35374766723E+01 0.38219358734E+01 0.42063873030E+01 0.48823286277E+01 0.60787126688E+01
 0.79233025925E+01 0.10414395496E+02 0.13419052941E+02 0.24313451781E+02 0.28374064344E+02
 0.31665129951E+02 0.33811336601E+02 0.34557018160E+02 0.33811340852E+02 0.31665137343E+02
 0.28374073007E+02 0.24313459664E+02 0.19917606665E+02 0.15617143947E+02 0.11782894429E+02
 0.86797346841E+01 0.64328677449E+01 0.50117050682E+01 0.42387062315E+01 0.38279474465E+01
 0.35374820370E+01 0.33383831744E+01 0.32246610892E+01 0.31879573639E+01 0.32246582049E+01
 0.33383783058E+01 0.35374766723E+01 0.38279431346E+01 0.42387040424E+01 0.50117052003E+01
 0.64328694544E+01 0.86797365270E+01 0.11782894770E+02 0.15617141556E+02 0.19917601175E+02
 0.33819592847E+02 0.38541721824E+02 0.42031429549E+02 0.43887398221E+02 0.43887400533E+02
 0.42031435871E+02 0.38541730488E+02 0.33819601656E+02 0.28374073007E+02 0.22743208012E+02
 0.17424200363E+02 0.12817990266E+02 0.91872739951E+01 0.66277330111E+01 0.50581830883E+01
 0.42387058028E+01 0.38219395517E+01 0.35357167882E+01 0.33505950168E+01 0.32610047123E+01
 0.32610034201E+01 0.33505916032E+01 0.35357124755E+01 0.38219358734E+01 0.42387040424E+01
 0.50581837850E+01 0.66277357340E+01 0.91872774412E+01 0.12817992691E+02 0.17424200179E+02
 0.22743204358E+02 0.28374066114E+02 0.44849278197E+02 0.49947344065E+02 0.53269925924E+02
 0.54424411080E+02 0.53269930332E+02 0.49947351709E+02 0.44849287083E+02 0.38541730488E+02
 0.31665137343E+02 0.24842944321E+02 0.18612164115E+02 0.13375236362E+02 0.93659672994E+01
 0.66277322412E+01 0.50117038071E+01 0.42063881346E+01 0.38045317039E+01 0.35339489816E+01
 0.33747722153E+01 0.33226470912E+01 0.33747705152E+01 0.35339463437E+01 0.38045293588E+01
 0.42063873030E+01 0.50117052003E+01 0.66277357340E+01 0.93659718841E+01 0.13375240438E+02
 0.18612165993E+02 0.24842942807E+02 0.31665132197E+02 0.38541722577E+02 0.56809377370E+02
 0.61887494892E+02 0.64592237174E+02 0.64592239325E+02 0.61887500770E+02 0.56809385420E+02
 0.49947351709E+02 0.42031435871E+02 0.33811340852E+02 0.25962467166E+02 0.19026393609E+02
 0.13375235166E+02 0.91872721673E+01 0.64328655195E+01 0.48823267132E+01 0.41489516276E+01
 0.37776639645E+01 0.35355037104E+01 0.34157239337E+01 0.34157234028E+01 0.35355024475E+01
 0.37776628241E+01 0.41489516372E+01 0.48823286277E+01 0.64328694544E+01 0.91872774412E+01
 0.13375240438E+02 0.19026397258E+02 0.25962467822E+02 0.33811337876E+02 0.42031429634E+02
 0.49947343567E+02 0.68872826410E+02 0.73438281962E+02 0.75027281990E+02 0.73438285720E+02
 0.68872832915E+02 0.61887500770E+02 0.53269930332E+02 0.43887400533E+02 0.34557018160E+02
 0.25962465234E+02 0.18612161080E+02 0.12817986878E+02 0.86797312470E+01 0.60787089362E+01
 0.46971409459E+01 0.40767970357E+01 0.37447419180E+01 0.35447856827E+01 0.34784162546E+01
 0.35447851495E+01 0.37447413750E+01 0.40767973053E+01 0.46971427854E+01 0.60787126688E+01
 0.86797365270E+01 0.12817992691E+02 0.18612165993E+02 0.25962467822E+02 0.34557017483E+02
 0.43887396479E+02 0.53269923744E+02 0.61887493253E+02 0.80008456629E+02 0.83516957247E+02
 0.83516958896E+02 0.80008461121E+02 0.73438285720E+02 0.64592239325E+02 0.54424411080E+02
 0.43887398221E+02 0.33811336601E+02 0.24842939007E+02 0.17424194943E+02 0.11782889402E+02
 0.79232982100E+01 0.56280176475E+01 0.44915889447E+01 0.39964975294E+01 0.37105234282E+01
 0.35664474879E+01 0.35664472754E+01 0.37105230279E+01 0.39964975489E+01 0.44915900986E+01
 0.56280204223E+01 0.79233025925E+01 0.11782894770E+02 0.17424200179E+02 0.24842942807E+02
 0.33811337876E+02 0.43887396479E+02 0.54424406631E+02 0.64592233257E+02 0.73438279618E+02
 0.89081907119E+02 0.91021883673E+02 0.89081909477E+02 0.83516958896E+02 0.75027281990E+02
 0.64592237174E+02 0.53269925924E+02 0.42031429549E+02 0.31665129951E+02 0.22743200602E+02
 0.15617137256E+02 0.10414391616E+02 0.70332752773E+01 0.51554011648E+01 0.42969824887E+01
 0.39080518300E+01 0.36805258199E+01 0.36042689242E+01 0.36805255157E+01 0.39080515725E+01
 0.42969828309E+01 0.51554026164E+01 0.70332780571E+01 0.10414395496E+02 0.15617141556E+02
 0.22743204358E+02 0.31665132197E+02 0.42031429634E+02 0.53269923744E+02 0.64592233257E+02
 0.75027277373E+02 0.83516954842E+02 0.95036415821E+02 0.95036416479E+02 0.91021883673E+02
 0.83516957247E+02 0.73438281962E+02 0.61887494892E+02 0.49947344065E+02 0.38541721824E+02
 0.28374064344E+02 0.19917598855E+02 0.13419050630E+02 0.88959332540E+01 0.61366109248E+01
 0.47279347450E+01 0.41270977239E+01 0.38173837739E+01 0.36599881398E+01 0.36599880293E+01
 0.38173835474E+01 0.41270976532E+01 0.47279351526E+01 0.61366120394E+01 0.88959350909E+01
 0.13419052941E+02 0.19917601175E+02 0.28374066114E+02 0.38541722577E+02 0.49947343567E+02
 0.61887493253E+02 0.73438279618E+02 0.83516954842E+02 0.91021881889E+02 0.95036415821E+02
 0.91021881889E+02 0.83516954842E+02 0.73438279618E+02 0.61887493253E+02 0.49947343567E+02
 0.38541722577E+02 0.28374066114E+02 0.19917601175E+02 0.13419052941E+02 0.88959350909E+01
 0.61366120394E+01 0.47279351526E+01 0.41270976532E+01 0.38173835474E+01 0.36599880293E+01
 0.36599881398E+01 0.38173837739E+01 0.41270977239E+01 0.47279347450E+01 0.61366109248E+01
 0.88959332540E+01 0.13419050630E+02 0.19917598855E+02 0.28374064344E+02 0.38541721824E+02
 0.49947344065E+02 0.61887494892E+02 0.73438281962E+02 0.83516957247E+02 0.91021883673E+02
 0.95036416479E+02 0.91021881889E+02 0.85337385646E+02 0.76667202203E+02 0.66012986118E+02
 0.54455157113E+02 0.42983039582E+02 0.32397783693E+02 0.23279791449E+02 0.15986074250E+02
 0.10648111475E+02 0.71667224326E+01 0.52236149912E+01 0.43318872503E+01 0.39339837316E+01
 0.37030054994E+01 0.36255041091E+01 0.37030057947E+01 0.39339840170E+01 0.43318870486E+01
 0.52236138694E+01 0.71667202199E+01 0.10648108403E+02 0.15986070944E+02 0.23279788776E+02
 0.32397782502E+02 0.42983040416E+02 0.54455160007E+02 0.66012990521E+02 0.76667207107E+02
 0.85337389840E+02 0.91021884299E+02 0.93003771274E+02 0.83516954842E+02 0.76667202203E+02
 0.67448428968E+02 0.56855887567E+02 0.45879558358E+02 0.35378314175E+02 0.26018771214E+02
 0.18256612083E+02 0.12329716665E+02 0.82495293811E+01 0.58015946085E+01 0.45773990178E+01
 0.40497945229E+01 0.37555171367E+01 0.36067645966E+01 0.36067647375E+01 0.37555173998E+01
 0.40497945058E+01 0.45773982663E+01 0.58015928588E+01 0.82495267462E+01 0.12329713698E+02
 0.18256609671E+02 0.26018770329E+02 0.35378315559E+02 0.45879562233E+02 0.56855893497E+02
 0.67448435898E+02 0.76667208697E+02 0.83516959457E+02 0.87175839189E+02 0.87175837520E+02
 0.73438279618E+02 0.66012986118E+02 0.56855887567E+02 0.46886230141E+02 0.36965330930E+02
 0.27810326596E+02 0.19954041495E+02 0.13726812336E+02 0.92423621842E+01 0.63901735957E+01
 0.48523206560E+01 0.41605928312E+01 0.38117023409E+01 0.36021781239E+01 0.35324228341E+01
 0.36021782232E+01 0.38117023215E+01 0.41605923745E+01 0.48523195322E+01 0.63901718477E+01
 0.92423602213E+01 0.13726810896E+02 0.19954041460E+02 0.27810328716E+02 0.36965335548E+02
 0.46886236989E+02 0.56855895750E+02 0.66012994260E+02 0.73438286178E+02 0.78293179140E+02
 0.79983319911E+02 0.78293175480E+02 0.61887493253E+02 0.54455157113E+02 0.45879558358E+02
 0.36965330930E+02 0.28433646993E+02 0.20862103485E+02 0.14651317935E+02 0.10002047899E+02
 0.68999520027E+01 0.51204072098E+01 0.42690999846E+01 0.38651702294E+01 0.36079864912E+01
 0.34800558137E+01 0.34800558516E+01 0.36079865289E+01 0.38651700830E+01 0.42690994901E+01
 0.51204063668E+01 0.68999510831E+01 0.10002047452E+02 0.14651318676E+02 0.20862106091E+02
 0.28433651855E+02 0.36965337958E+02 0.45879566890E+02 0.54455165994E+02 0.61887501057E+02
 0.67388587679E+02 0.70319281986E+02 0.70319280084E+02 0.67388582331E+02 0.49947343567E+02
 0.42983039582E+02 0.35378314175E+02 0.27810326596E+02 0.20862103485E+02 0.14974698398E+02
 0.10413746248E+02 0.72461879870E+01 0.53350288322E+01 0.43656309342E+01 0.39101616556E+01
 0.36193363741E+01 0.34467769721E+01 0.33900372669E+01 0.34467772520E+01 0.36193367929E+01
 0.39101620142E+01 0.43656311089E+01 0.53350288972E+01 0.72461882736E+01 0.10413747302E+02
 0.14974700832E+02 0.20862107773E+02 0.27810332858E+02 0.35378322047E+02 0.42983048206E+02
 0.49947351733E+02 0.55572531727E+02 0.59238014108E+02 0.60511634501E+02 0.59238010595E+02
 0.55572525335E+02 0.38541722577E+02 0.32397783693E+02 0.26018771214E+02 0.19954041495E+02
 0.14651317935E+02 0.10413746248E+02 0.73688161549E+01 0.54544920871E+01 0.44334086174E+01
 0.39423515241E+01 0.36314094390E+01 0.34280059403E+01 0.33289247142E+01 0.33289251160E+01
 0.34280070239E+01 0.36314108936E+01 0.39423529869E+01 0.44334098485E+01 0.54544931040E+01
 0.73688172740E+01 0.10413748011E+02 0.14651320920E+02 0.19954046100E+02 0.26018777447E+02
 0.32397791076E+02 0.38541730193E+02 0.43856828587E+02 0.47779831483E+02 0.49865061575E+02
 0.49865059948E+02 0.47779826912E+02 0.43856821914E+02 0.28374066114E+02 0.23279791449E+02
 0.18256612083E+02 0.13726812336E+02 0.10002047899E+02 0.72461879870E+01 0.54544920871E+01
 0.44578848460E+01 0.39591804359E+01 0.36403048048E+01 0.34188663165E+01 0.32912958790E+01
 0.32499491491E+01 0.32912972043E+01 0.34188686155E+01 0.36403075050E+01 0.39591829574E+01
 0.44578868194E+01 0.54544935032E+01 0.72461892042E+01 0.10002049530E+02 0.13726815004E+02
 0.18256616175E+02 0.23279796921E+02 0.28374072421E+02 0.33055274637E+02 0.36836939868E+02
 0.39298520930E+02 0.40153070915E+02 0.39298518158E+02 0.36836934892E+02 0.33055268440E+02
 0.19917601175E+02 0.15986074250E+02 0.12329716665E+02 0.92423621842E+01 0.68999520027E+01
 0.53350288322E+01 0.44334086174E+01 0.39591804359E+01 0.36435496594E+01 0.34153952821E+01
 0.32715099290E+01 0.32029189607E+01 0.32029198002E+01 0.32715122313E+01 0.34153984705E+01
 0.36435529960E+01 0.39591832748E+01 0.44334106211E+01 0.53350300886E+01 0.68999529707E+01
 0.92423635321E+01 0.12329718999E+02 0.15986077867E+02 0.19917605917E+02 0.23752779801E+02
 0.27092053364E+02 0.29563351602E+02 0.30878020569E+02 0.30878019350E+02 0.29563348223E+02
 0.27092048560E+02 0.23752774560E+02 0.13419052941E+02 0.10648111475E+02 0.82495293811E+01
 0.63901735957E+01 0.51204072098E+01 0.43656309342E+01 0.39423515241E+01 0.36403048048E+01
 0.34153952821E+01 0.32654197120E+01 0.31813302092E+01 0.31544503439E+01 0.31813316568E+01
 0.32654222479E+01 0.34153983112E+01 0.36403076938E+01 0.39423538234E+01 0.43656325106E+01
 0.51204083015E+01 0.63901746914E+01 0.82495310435E+01 0.10648114114E+02 0.13419056623E+02
 0.16306490534E+02 0.19005301457E+02 0.21207235455E+02 0.22648019342E+02 0.23149284283E+02
 0.22648017320E+02 0.21207231858E+02 0.19005297043E+02 0.16306486146E+02 0.88959350909E+01
 0.71667224326E+01 0.58015946085E+01 0.48523206560E+01 0.42690999846E+01 0.39101616556E+01
 0.36314094390E+01 0.34188663165E+01 0.32715099290E+01 0.31813302092E+01 0.31391409569E+01
 0.31391413829E+01 0.31813313853E+01 0.32715115802E+01 0.34188681082E+01 0.36314110897E+01
 0.39101630644E+01 0.42691012526E+01 0.48523220743E+01 0.58015965363E+01 0.71667251438E+01
 0.88959386588E+01 0.10847055873E+02 0.12814354963E+02 0.14564818263E+02 0.15877588975E+02
 0.16580894118E+02 0.16580893188E+02 0.15877586358E+02 0.14564814453E+02 0.12814350625E+02
 0.10847051672E+02 0.61366120394E+01 0.52236149912E+01 0.45773990178E+01 0.41605928312E+01
 0.38651702294E+01 0.36193363741E+01 0.34280059403E+01 0.32912958790E+01 0.32029189607E+01
 0.31544503439E+01 0.31391413829E+01 0.31544503830E+01 0.32029190271E+01 0.32912959669E+01
 0.34280060943E+01 0.36193367033E+01 0.38651709300E+01 0.41605941385E+01 0.45774011451E+01
 0.52236180696E+01 0.61366160092E+01 0.72749932600E+01 0.85303094428E+01 0.97511881587E+01
 0.10773952052E+02 0.11453940543E+02 0.11692291661E+02 0.11453938731E+02 0.10773948712E+02
 0.97511837936E+01 0.85303046630E+01 0.72749886561E+01 0.47279351526E+01 0.43318872503E+01
 0.40497945229E+01 0.38117023409E+01 0.36079864912E+01 0.34467769721E+01 0.33289247142E+01
 0.32499491491E+01 0.32029198002E+01 0.31813316568E+01 0.31813313853E+01 0.32029190271E+01
 0.32499480144E+01 0.33289234362E+01 0.34467758532E+01 0.36079858707E+01 0.38117025569E+01
 0.40497958592E+01 0.43318898340E+01 0.47279389397E+01 0.52717260104E+01 0.59387920351E+01
 0.66571126518E+01 0.73270163346E+01 0.78451876983E+01 0.81276728768E+01 0.81276718965E+01
 0.78451849047E+01 0.73270121336E+01 0.66571076311E+01 0.59387868562E+01 0.52717212873E+01
 0.41270976532E+01 0.39339837316E+01 0.37555171367E+01 0.36021781239E+01 0.34800558137E+01
 0.33900372669E+01 0.33289251160E+01 0.32912972043E+01 0.32715122313E+01 0.32654222479E+01
 0.32715115802E+01 0.32912959669E+01 0.33289234362E+01 0.33900353754E+01 0.34800540319E+01
 0.36021768443E+01 0.37555167449E+01 0.39339845599E+01 0.41270998641E+01 0.43486077927E+01
 0.46295582718E+01 0.49640899895E+01 0.53138558764E+01 0.56230970143E+01 0.58359315701E+01
 0.59117941308E+01 0.58359296229E+01 0.56230934481E+01 0.53138512820E+01 0.49640850922E+01
 0.46295537837E+01 0.43486042797E+01 0.38173835474E+01 0.37030054994E+01 0.36067645966E+01
 0.35324228341E+01 0.34800558516E+01 0.34467772520E+01 0.34280070239E+01 0.34188686155E+01
 0.34153984705E+01 0.34153983112E+01 0.34188681082E+01 0.34280060943E+01 0.34467758532E+01
 0.34800540319E+01 0.35324207914E+01 0.36067626871E+01 0.37030041602E+01 0.38173831907E+01
 0.39426293210E+01 0.40692750499E+01 0.41978152065E+01 0.43355543194E+01 0.44710874267E+01
 0.45815449630E+01 0.46438281310E+01 0.46438273037E+01 0.45815426617E+01 0.44710841537E+01
 0.43355507600E+01 0.41978120636E+01 0.40692728794E+01 0.39426284197E+01 0.36599880293E+01
 0.36255041091E+01 0.36067647375E+01 0.36021782232E+01 0.36079865289E+01 0.36193367929E+01
 0.36314108936E+01 0.36403075050E+01 0.36435529960E+01 0.36403076938E+01 0.36314110897E+01
 0.36193367033E+01 0.36079858707E+01 0.36021768443E+01 0.36067626871E+01 0.36255016690E+01
 0.36599856386E+01 0.37089918665E+01 0.37685238138E+01 0.38325834842E+01 0.38944506835E+01
 0.39480738879E+01 0.39904748427E+01 0.40189832463E+01 0.40291670239E+01 0.40189824973E+01
 0.39904736127E+01 0.39480726242E+01 0.38944498797E+01 0.38325835211E+01 0.37685248349E+01
 0.37089937448E+01 0.36599881398E+01 0.37030057947E+01 0.37555173998E+01 0.38117023215E+01
 0.38651700830E+01 0.39101620142E+01 0.39423529869E+01 0.39591829574E+01 0.39591832748E+01
 0.39423538234E+01 0.39101630644E+01 0.38651709300E+01 0.38117025569E+01 0.37555167449E+01
 0.37030041602E+01 0.36599856386E+01 0.36304996203E+01 0.36159947796E+01 0.36151872896E+01
 0.36246010211E+01 0.36395765577E+01 0.36553900929E+01 0.36681301515E+01 0.36751489332E+01
 0.36751491938E+01 0.36681309606E+01 0.36553915060E+01 0.36395786169E+01 0.36246036847E+01
 0.36151903989E+01 0.36159980593E+01 0.36305027006E+01 0.38173837739E+01 0.39339840170E+01
 0.40497945058E+01 0.41605923745E+01 0.42690994901E+01 0.43656311089E+01 0.44334098485E+01
 0.44578868194E+01 0.44334106211E+01 0.43656325106E+01 0.42691012526E+01 0.41605941385E+01
 0.40497958592E+01 0.39339845599E+01 0.38173831907E+01 0.37089918665E+01 0.36159947796E+01
 0.35425659113E+01 0.34895156773E+01 0.34547747471E+01 0.34344463404E+01 0.34240456095E+01
 0.34195992980E+01 0.34184306663E+01 0.34196011122E+01 0.34240489855E+01 0.34344508216E+01
 0.34547797439E+01 0.34895205742E+01 0.35425701523E+01 0.36159979473E+01 0.37089937448E+01
 0.41270977239E+01 0.43318870486E+01 0.45773982663E+01 0.48523195322E+01 0.51204063668E+01
 0.53350288972E+01 0.54544931040E+01 0.54544935032E+01 0.53350300886E+01 0.51204083015E+01
 0.48523220743E+01 0.45774011451E+01 0.43318898340E+01 0.41270998641E+01 0.39426293210E+01
 0.37685238138E+01 0.36151872896E+01 0.34895156773E+01 0.33937272000E+01 0.33260185264E+01
 0.32820181934E+01 0.32565139169E+01 0.32450362720E+01 0.32450375832E+01 0.32565175987E+01
 0.32820235526E+01 0.33260245836E+01 0.33937329201E+01 0.34895201799E+01 0.36151900201E+01