   1   1   1   0
  0.1025749E+02  0.2438852E-09  0.2438852E-09  0.2438852E-09  0.5000000E-15
  1.000000000000000E-004
  CAR 
 Co-fcc                                  
     54.21989463     -0.49958248  301     11.13655952      1.00000000
     -0.500  0.0000E+00  0.0000E+00  0.0000E+00  0.0000E+00
     -0.317  0.0000E+00  0.0000E+00  0.0000E+00  0.0000E+00
     -0.135  0.0000E+00  0.0000E+00  0.0000E+00  0.0000E+00
      0.048  0.0000E+00  0.0000E+00  0.0000E+00  0.0000E+00
      0.230  0.0000E+00  0.0000E+00  0.0000E+00  0.0000E+00
      0.412  0.0000E+00  0.0000E+00  0.0000E+00  0.0000E+00
      0.595  0.0000E+00  0.0000E+00  0.0000E+00  0.0000E+00
      0.777  0.0000E+00  0.0000E+00  0.0000E+00  0.0000E+00
      0.960  0.0000E+00  0.0000E+00  0.0000E+00  0.0000E+00
      1.142  0.0000E+00  0.0000E+00  0.0000E+00  0.0000E+00
      1.324  0.0000E+00  0.0000E+00  0.0000E+00  0.0000E+00
      1.507  0.0000E+00  0.0000E+00  0.0000E+00  0.0000E+00
      1.689  0.0000E+00  0.0000E+00  0.0000E+00  0.0000E+00
      1.872  0.1100E-06  0.1384E-07  0.2006E-07  0.2525E-08
      2.054  0.2076E-03  0.1945E-03  0.3788E-04  0.3549E-04
      2.236  0.6495E-05  0.1961E-04  0.3906E-04  0.3906E-04
      2.419  0.3708E-03  0.2151E-03  0.1067E-03  0.7829E-04
      2.601  0.2717E-03  0.4274E-03  0.1562E-03  0.1562E-03
      2.784  0.9200E-04  0.2156E-04  0.1730E-03  0.1602E-03
      2.966  0.5505E-03  0.6206E-03  0.2734E-03  0.2734E-03
      3.148  0.2545E-04  0.1968E-05  0.2781E-03  0.2737E-03
      3.331  0.8307E-03  0.8447E-03  0.4296E-03  0.4278E-03
      3.513  0.1256E-04  0.1042E-04  0.4319E-03  0.4297E-03
      3.696  0.1270E-02  0.1204E-02  0.6635E-03  0.6494E-03
      3.878  0.3851E-04  0.8056E-04  0.6705E-03  0.6641E-03
      4.060  0.6070E-03  0.6084E-03  0.7812E-03  0.7751E-03
      4.243  0.1098E-03  0.3410E-04  0.8013E-03  0.7813E-03
      4.425  0.1175E-02  0.1178E-02  0.1016E-02  0.9962E-03
      4.608  0.1138E-02  0.1173E-03  0.1223E-02  0.1018E-02
      4.790  0.7957E-03  0.1880E-02  0.1368E-02  0.1360E-02
      4.972  0.7349E-03  0.7204E-04  0.1502E-02  0.1374E-02
      5.155  0.1761E-03  0.6094E-03  0.1534E-02  0.1485E-02
      5.337  0.2833E-02  0.3737E-03  0.2051E-02  0.1553E-02
      5.520  0.1000E-02  0.1211E-02  0.2234E-02  0.1774E-02
      5.702  0.2672E-02  0.1839E-02  0.2721E-02  0.2109E-02
      5.884  0.3899E-02  0.6772E-03  0.3432E-02  0.2233E-02
      6.067  0.8150E-02  0.1278E-02  0.4919E-02  0.2466E-02
      6.249  0.4137E-02  0.1252E-02  0.5673E-02  0.2694E-02
      6.432  0.6987E-02  0.2072E-02  0.6948E-02  0.3072E-02
      6.614  0.9534E-02  0.2758E-02  0.8687E-02  0.3575E-02
      6.796  0.7607E-02  0.4292E-02  0.1007E-01  0.4358E-02
      6.979  0.9653E-02  0.2912E-02  0.1184E-01  0.4889E-02
      7.161  0.7082E-02  0.4277E-02  0.1313E-01  0.5669E-02
      7.344  0.8490E-02  0.5989E-02  0.1468E-01  0.6762E-02
      7.526  0.6832E-02  0.3400E-02  0.1592E-01  0.7382E-02
      7.708  0.8214E-02  0.6529E-02  0.1742E-01  0.8573E-02
      7.891  0.8346E-02  0.6651E-02  0.1894E-01  0.9786E-02
      8.073  0.1097E-01  0.8779E-02  0.2094E-01  0.1139E-01
      8.256  0.1089E-01  0.5879E-02  0.2293E-01  0.1246E-01
      8.438  0.1237E-01  0.6114E-02  0.2519E-01  0.1357E-01
      8.620  0.1635E-01  0.7630E-02  0.2817E-01  0.1497E-01
      8.803  0.1320E-01  0.4973E-02  0.3058E-01  0.1587E-01
      8.985  0.7884E-02  0.7793E-02  0.3201E-01  0.1729E-01
      9.168  0.1075E-01  0.8305E-02  0.3397E-01  0.1881E-01
      9.350  0.1034E-01  0.1029E-01  0.3586E-01  0.2069E-01
      9.532  0.1374E-01  0.7814E-02  0.3837E-01  0.2211E-01
      9.715  0.8163E-02  0.1028E-01  0.3986E-01  0.2399E-01
      9.897  0.1318E-01  0.8668E-02  0.4226E-01  0.2557E-01
     10.080  0.6111E-02  0.1165E-01  0.4337E-01  0.2769E-01
     10.262  0.1376E-01  0.1188E-01  0.4588E-01  0.2986E-01
     10.444  0.1127E-01  0.9467E-02  0.4794E-01  0.3159E-01
     10.627  0.1760E-01  0.6509E-02  0.5115E-01  0.3277E-01
     10.809  0.8398E-02  0.8415E-02  0.5268E-01  0.3431E-01
     10.992  0.9285E-03  0.5733E-02  0.5285E-01  0.3535E-01
     11.174  0.1304E-04  0.1154E-01  0.5285E-01  0.3746E-01
     11.356  0.6764E-03  0.9824E-02  0.5298E-01  0.3925E-01
     11.539  0.3458E-02  0.9182E-02  0.5361E-01  0.4093E-01
     11.721  0.1884E-02  0.1079E-01  0.5395E-01  0.4289E-01
     11.903  0.3993E-03  0.5435E-02  0.5402E-01  0.4389E-01
     12.086  0.1150E-02  0.1314E-01  0.5423E-01  0.4628E-01
     12.268  0.8836E-03  0.1262E-01  0.5439E-01  0.4858E-01
     12.451  0.2645E-02  0.1748E-01  0.5488E-01  0.5177E-01
     12.633  0.4618E-03  0.5914E-02  0.5496E-01  0.5285E-01
     12.815  0.1259E-02  0.4107E-03  0.5519E-01  0.5293E-01
     12.998  0.1782E-02  0.3258E-02  0.5552E-01  0.5352E-01
     13.180  0.1711E-03  0.3389E-02  0.5555E-01  0.5414E-01
     13.363  0.1602E-02  0.1613E-02  0.5584E-01  0.5443E-01
     13.545  0.9294E-03  0.3290E-03  0.5601E-01  0.5449E-01
     13.727  0.1919E-02  0.1261E-02  0.5636E-01  0.5472E-01
     13.910  0.1022E-02  0.1895E-02  0.5654E-01  0.5507E-01
     14.092  0.2878E-02  0.1870E-02  0.5707E-01  0.5541E-01
     14.275  0.2790E-05  0.2560E-02  0.5707E-01  0.5588E-01
     14.457  0.7301E-07  0.7719E-03  0.5707E-01  0.5602E-01
     14.639  0.1160E-02  0.1893E-02  0.5728E-01  0.5636E-01
     14.822  0.1250E-03  0.2921E-03  0.5730E-01  0.5642E-01
     15.004  0.3220E-02  0.2505E-02  0.5789E-01  0.5687E-01
     15.187  0.6346E-03  0.1085E-02  0.5801E-01  0.5707E-01
     15.369  0.1390E-02  0.1205E-05  0.5826E-01  0.5707E-01
     15.551  0.5372E-03  0.2406E-02  0.5836E-01  0.5751E-01
     15.734  0.1195E-04  0.2864E-03  0.5836E-01  0.5756E-01
     15.916  0.1205E-02  0.2419E-02  0.5858E-01  0.5800E-01
     16.099  0.1996E-02  0.3785E-04  0.5895E-01  0.5801E-01
     16.281  0.2928E-07  0.1853E-02  0.5895E-01  0.5835E-01
     16.463  0.5873E-03  0.6563E-03  0.5905E-01  0.5847E-01
     16.646  0.6977E-03  0.9560E-04  0.5918E-01  0.5848E-01
     16.828  0.2792E-05  0.2468E-02  0.5918E-01  0.5894E-01
     17.011  0.6692E-03  0.1178E-03  0.5930E-01  0.5896E-01
     17.193  0.1255E-02  0.1223E-02  0.5953E-01  0.5918E-01
     17.375  0.9536E-03  0.3077E-06  0.5971E-01  0.5918E-01
     17.558  0.3323E-03  0.1310E-04  0.5977E-01  0.5918E-01
     17.740  0.5274E-11  0.1624E-02  0.5977E-01  0.5948E-01
     17.923  0.1482E-03  0.2907E-03  0.5979E-01  0.5953E-01
     18.105  0.1961E-02  0.1212E-02  0.6015E-01  0.5975E-01
     18.287  0.1768E-02  0.7238E-04  0.6047E-01  0.5977E-01
     18.470  0.1598E-02  0.1987E-14  0.6076E-01  0.5977E-01
     18.652  0.1216E-02  0.4472E-04  0.6099E-01  0.5977E-01
     18.835  0.1400E-02  0.1246E-02  0.6124E-01  0.6000E-01
     19.017  0.2353E-02  0.1985E-02  0.6167E-01  0.6036E-01
     19.199  0.4345E-03  0.1940E-02  0.6175E-01  0.6072E-01
     19.382  0.1853E-02  0.1661E-02  0.6209E-01  0.6102E-01
     19.564  0.1616E-02  0.1445E-02  0.6238E-01  0.6128E-01
     19.747  0.1519E-06  0.1993E-02  0.6238E-01  0.6165E-01
     19.929  0.1228E-02  0.9919E-03  0.6261E-01  0.6183E-01
     20.111  0.2662E-02  0.1977E-02  0.6309E-01  0.6219E-01
     20.294  0.6906E-03  0.1065E-02  0.6322E-01  0.6238E-01
     20.476  0.5761E-03  0.4033E-03  0.6332E-01  0.6246E-01
     20.659  0.2512E-02  0.2926E-02  0.6378E-01  0.6299E-01
     20.841  0.4077E-04  0.6810E-03  0.6379E-01  0.6311E-01
     21.023  0.5139E-03  0.7707E-03  0.6388E-01  0.6325E-01
     21.206  0.1477E-02  0.1704E-02  0.6415E-01  0.6357E-01
     21.388  0.5786E-03  0.1225E-02  0.6426E-01  0.6379E-01
     21.571  0.2195E-02  0.1041E-03  0.6466E-01  0.6381E-01
     21.753  0.1069E-02  0.1814E-02  0.6485E-01  0.6414E-01
     21.935  0.1906E-02  0.6465E-03  0.6520E-01  0.6426E-01
     22.118  0.1232E-02  0.1916E-02  0.6543E-01  0.6461E-01
     22.300  0.9642E-03  0.6599E-03  0.6560E-01  0.6473E-01
     22.483  0.2809E-02  0.1134E-02  0.6611E-01  0.6493E-01
     22.665  0.3292E-02  0.2435E-02  0.6671E-01  0.6538E-01
     22.847  0.9687E-03  0.1761E-02  0.6689E-01  0.6570E-01
     23.030  0.1159E-02  0.1256E-02  0.6710E-01  0.6593E-01
     23.212  0.1718E-02  0.3300E-02  0.6742E-01  0.6653E-01
     23.395  0.1257E-02  0.1936E-02  0.6764E-01  0.6688E-01
     23.577  0.2563E-03  0.1141E-02  0.6769E-01  0.6709E-01
     23.759  0.8934E-03  0.1774E-02  0.6785E-01  0.6741E-01
     23.942  0.3974E-02  0.1325E-02  0.6858E-01  0.6766E-01
     24.124  0.2248E-02  0.1966E-03  0.6899E-01  0.6769E-01
     24.307  0.1509E-02  0.2573E-02  0.6926E-01  0.6816E-01
     24.489  0.1049E-02  0.3501E-02  0.6946E-01  0.6880E-01
     24.671  0.3647E-02  0.1938E-02  0.7012E-01  0.6915E-01
     24.854  0.2485E-02  0.1125E-02  0.7057E-01  0.6936E-01
     25.036  0.3831E-03  0.8166E-03  0.7064E-01  0.6951E-01
     25.219  0.2215E-02  0.4860E-02  0.7105E-01  0.7039E-01
     25.401  0.1533E-02  0.1265E-02  0.7133E-01  0.7062E-01
     25.583  0.2785E-03  0.1799E-02  0.7138E-01  0.7095E-01
     25.766  0.1931E-02  0.2043E-02  0.7173E-01  0.7133E-01
     25.948  0.5130E-02  0.6735E-04  0.7267E-01  0.7134E-01
     26.131  0.6730E-03  0.1702E-02  0.7279E-01  0.7165E-01
     26.313  0.2277E-02  0.3896E-02  0.7320E-01  0.7236E-01
     26.495  0.2044E-02  0.2103E-02  0.7358E-01  0.7274E-01
     26.678  0.2251E-02  0.3506E-02  0.7399E-01  0.7338E-01
     26.860  0.5643E-03  0.9815E-03  0.7409E-01  0.7356E-01
     27.043  0.3082E-02  0.2000E-02  0.7465E-01  0.7393E-01
     27.225  0.6026E-03  0.1317E-02  0.7476E-01  0.7417E-01
     27.407  0.2223E-02  0.3069E-02  0.7517E-01  0.7473E-01
     27.590  0.3370E-02  0.1425E-03  0.7578E-01  0.7475E-01
     27.772  0.2845E-02  0.2312E-02  0.7630E-01  0.7517E-01
     27.955  0.8614E-03  0.3978E-02  0.7646E-01  0.7590E-01
     28.137  0.2181E-02  0.2120E-02  0.7686E-01  0.7629E-01
     28.319  0.2535E-02  0.1082E-02  0.7732E-01  0.7648E-01
     28.502  0.2709E-02  0.3077E-02  0.7781E-01  0.7704E-01
     28.684  0.1075E-02  0.1589E-02  0.7801E-01  0.7733E-01
     28.867  0.3482E-02  0.3035E-02  0.7864E-01  0.7789E-01
     29.049  0.1646E-02  0.1376E-02  0.7894E-01  0.7814E-01
     29.231  0.1864E-02  0.3457E-02  0.7928E-01  0.7877E-01
     29.414  0.7077E-03  0.1018E-02  0.7941E-01  0.7895E-01
     29.596  0.1257E-02  0.2011E-02  0.7964E-01  0.7932E-01
     29.779  0.2808E-02  0.1286E-02  0.8016E-01  0.7956E-01
     29.961  0.1505E-02  0.7710E-03  0.8043E-01  0.7970E-01
     30.143  0.1059E-02  0.2532E-02  0.8062E-01  0.8016E-01
     30.326  0.2169E-02  0.2011E-02  0.8102E-01  0.8053E-01
     30.508  0.1500E-02  0.1827E-02  0.8129E-01  0.8086E-01
     30.691  0.3255E-02  0.1506E-02  0.8189E-01  0.8113E-01
     30.873  0.1821E-02  0.2678E-02  0.8222E-01  0.8162E-01
     31.055  0.1396E-02  0.2202E-02  0.8247E-01  0.8202E-01
     31.238  0.1493E-03  0.1966E-02  0.8250E-01  0.8238E-01
     31.420  0.1281E-02  0.6351E-03  0.8273E-01  0.8250E-01
     31.603  0.2003E-02  0.1411E-02  0.8310E-01  0.8276E-01
     31.785  0.3530E-02  0.1462E-02  0.8374E-01  0.8302E-01
     31.967  0.4798E-03  0.3196E-02  0.8383E-01  0.8361E-01
     32.150  0.2331E-02  0.1008E-02  0.8426E-01  0.8379E-01
     32.332  0.8795E-03  0.2113E-02  0.8442E-01  0.8417E-01
     32.515  0.9947E-03  0.6414E-03  0.8460E-01  0.8429E-01
     32.697  0.3281E-02  0.2407E-02  0.8520E-01  0.8473E-01
     32.879  0.9241E-03  0.1655E-02  0.8536E-01  0.8503E-01
     33.062  0.2005E-02  0.1611E-02  0.8573E-01  0.8533E-01
     33.244  0.2041E-02  0.3129E-02  0.8610E-01  0.8590E-01
     33.426  0.1639E-02  0.2461E-02  0.8640E-01  0.8635E-01
     33.609  0.3749E-02  0.9771E-03  0.8709E-01  0.8652E-01
     33.791  0.7733E-03  0.1364E-02  0.8723E-01  0.8677E-01
     33.974  0.2375E-02  0.2200E-02  0.8766E-01  0.8717E-01
     34.156  0.2610E-02  0.9758E-03  0.8814E-01  0.8735E-01
     34.338  0.1618E-02  0.3370E-02  0.8843E-01  0.8797E-01
     34.521  0.1987E-02  0.3445E-02  0.8879E-01  0.8859E-01
     34.703  0.2300E-02  0.1922E-02  0.8921E-01  0.8895E-01
     34.886  0.5014E-02  0.2259E-02  0.9013E-01  0.8936E-01
     35.068  0.1330E-02  0.3257E-02  0.9037E-01  0.8995E-01
     35.250  0.1626E-02  0.1497E-02  0.9067E-01  0.9022E-01
     35.433  0.2775E-02  0.2380E-02  0.9117E-01  0.9066E-01
     35.615  0.2028E-02  0.2073E-02  0.9154E-01  0.9104E-01
     35.798  0.2633E-02  0.2635E-02  0.9202E-01  0.9152E-01
     35.980  0.2254E-02  0.3297E-02  0.9243E-01  0.9212E-01
     36.162  0.3877E-02  0.1255E-02  0.9314E-01  0.9235E-01
     36.345  0.1100E-02  0.5127E-02  0.9334E-01  0.9328E-01
     36.527  0.2407E-02  0.8474E-03  0.9378E-01  0.9344E-01
     36.710  0.8249E-03  0.1562E-02  0.9393E-01  0.9372E-01
     36.892  0.2756E-02  0.1375E-02  0.9443E-01  0.9397E-01
     37.074  0.3491E-02  0.2004E-02  0.9507E-01  0.9434E-01
     37.257  0.3544E-02  0.3169E-02  0.9572E-01  0.9492E-01
     37.439  0.1756E-02  0.2727E-02  0.9604E-01  0.9541E-01
     37.622  0.2415E-02  0.3081E-02  0.9648E-01  0.9598E-01
     37.804  0.1679E-02  0.1836E-02  0.9678E-01  0.9631E-01
     37.986  0.2766E-02  0.2412E-02  0.9729E-01  0.9675E-01
     38.169  0.3283E-02  0.3498E-02  0.9789E-01  0.9739E-01
     38.351  0.2581E-02  0.2867E-02  0.9836E-01  0.9791E-01
     38.534  0.1111E-02  0.2932E-02  0.9856E-01  0.9845E-01
     38.716  0.3957E-03  0.3769E-03  0.9863E-01  0.9852E-01
     38.898  0.6715E-03  0.1365E-04  0.9876E-01  0.9852E-01
     39.081  0.2689E-02  0.1697E-02  0.9925E-01  0.9883E-01
     39.263  0.2363E-02  0.8875E-03  0.9968E-01  0.9899E-01
     39.446  0.1772E-02  0.4019E-02  0.1000E+00  0.9972E-01
     39.628  0.8797E-03  0.1516E-02  0.1002E+00  0.1000E+00
     39.810  0.4052E-03  0.4711E-05  0.1002E+00  0.1000E+00
     39.993  0.8013E-03  0.1491E-03  0.1004E+00  0.1000E+00
     40.175  0.2361E-02  0.1148E-02  0.1008E+00  0.1002E+00
     40.358  0.2180E-02  0.4074E-02  0.1012E+00  0.1010E+00
     40.540  0.2161E-02  0.1762E-02  0.1016E+00  0.1013E+00
     40.722  0.1549E-02  0.3671E-03  0.1019E+00  0.1014E+00
     40.905  0.8723E-03  0.6379E-03  0.1020E+00  0.1015E+00
     41.087  0.6688E-03  0.2470E-02  0.1022E+00  0.1019E+00
     41.270  0.2628E-02  0.7780E-03  0.1026E+00  0.1021E+00
     41.452  0.1976E-02  0.3108E-02  0.1030E+00  0.1026E+00
     41.634  0.1863E-02  0.8750E-03  0.1033E+00  0.1028E+00
     41.817  0.3206E-02  0.2457E-02  0.1039E+00  0.1033E+00
     41.999  0.6867E-02  0.2905E-02  0.1052E+00  0.1038E+00
     42.182  0.5792E-02  0.6373E-02  0.1062E+00  0.1049E+00
     42.364  0.1213E-02  0.5425E-02  0.1065E+00  0.1059E+00
     42.546  0.2054E-02  0.2284E-02  0.1068E+00  0.1063E+00
     42.729  0.8843E-03  0.2601E-02  0.1070E+00  0.1068E+00
     42.911  0.2587E-02  0.1381E-03  0.1075E+00  0.1068E+00
     43.094  0.1660E-02  0.2427E-02  0.1078E+00  0.1073E+00
     43.276  0.1949E-02  0.2086E-02  0.1081E+00  0.1077E+00
     43.458  0.3880E-02  0.2491E-02  0.1088E+00  0.1081E+00
     43.641  0.2504E-02  0.2769E-02  0.1093E+00  0.1086E+00
     43.823  0.2497E-02  0.3812E-02  0.1097E+00  0.1093E+00
     44.006  0.1015E-03  0.2334E-02  0.1098E+00  0.1098E+00
     44.188  0.1256E-02  0.6924E-04  0.1100E+00  0.1098E+00
     44.370  0.3514E-02  0.6409E-03  0.1106E+00  0.1099E+00
     44.553  0.4507E-02  0.4086E-02  0.1115E+00  0.1106E+00
     44.735  0.1855E-02  0.1426E-02  0.1118E+00  0.1109E+00
     44.918  0.1226E-04  0.4381E-02  0.1118E+00  0.1117E+00
     45.100  0.2438E-02  0.1466E-02  0.1122E+00  0.1120E+00
     45.282  0.1957E-02  0.1715E-02  0.1126E+00  0.1123E+00
     45.465  0.9475E-03  0.1549E-02  0.1128E+00  0.1125E+00
     45.647  0.4202E-02  0.1102E-02  0.1135E+00  0.1128E+00
     45.830  0.1887E-02  0.3102E-02  0.1139E+00  0.1133E+00
     46.012  0.1410E-02  0.1619E-02  0.1141E+00  0.1136E+00
     46.194  0.1373E-02  0.8411E-03  0.1144E+00  0.1138E+00
     46.377  0.1929E-02  0.3224E-02  0.1147E+00  0.1144E+00
     46.559  0.1195E-02  0.7348E-03  0.1150E+00  0.1145E+00
     46.742  0.3340E-03  0.2662E-04  0.1150E+00  0.1145E+00
     46.924  0.2809E-02  0.1176E-02  0.1155E+00  0.1147E+00
     47.106  0.2954E-02  0.7916E-03  0.1161E+00  0.1149E+00
     47.289  0.2884E-02  0.3413E-02  0.1166E+00  0.1155E+00
     47.471  0.2222E-02  0.1444E-02  0.1170E+00  0.1157E+00
     47.654  0.2088E-02  0.2305E-02  0.1174E+00  0.1162E+00
     47.836  0.3510E-02  0.5078E-03  0.1180E+00  0.1162E+00
     48.018  0.3391E-02  0.1968E-03  0.1186E+00  0.1163E+00
     48.201  0.6040E-02  0.2581E-02  0.1197E+00  0.1168E+00
     48.383  0.7529E-03  0.2443E-02  0.1199E+00  0.1172E+00
     48.566  0.5447E-03  0.2090E-02  0.1200E+00  0.1176E+00
     48.748  0.9777E-04  0.3993E-03  0.1200E+00  0.1177E+00
     48.930  0.0000E+00  0.2339E-03  0.1200E+00  0.1177E+00
     49.113  0.0000E+00  0.1350E-02  0.1200E+00  0.1179E+00
     49.295  0.0000E+00  0.1636E-02  0.1200E+00  0.1182E+00
     49.478  0.0000E+00  0.1699E-02  0.1200E+00  0.1186E+00
     49.660  0.0000E+00  0.2221E-03  0.1200E+00  0.1186E+00
     49.842  0.0000E+00  0.6897E-08  0.1200E+00  0.1186E+00
     50.025  0.0000E+00  0.9964E-03  0.1200E+00  0.1188E+00
     50.207  0.0000E+00  0.2885E-03  0.1200E+00  0.1188E+00
     50.390  0.0000E+00  0.2120E-11  0.1200E+00  0.1188E+00
     50.572  0.0000E+00  0.7806E-12  0.1200E+00  0.1188E+00
     50.754  0.0000E+00  0.1348E-03  0.1200E+00  0.1189E+00
     50.937  0.0000E+00  0.9315E-03  0.1200E+00  0.1190E+00
     51.119  0.0000E+00  0.1504E-02  0.1200E+00  0.1193E+00
     51.302  0.0000E+00  0.7084E-07  0.1200E+00  0.1193E+00
     51.484  0.0000E+00  0.2555E-07  0.1200E+00  0.1193E+00
     51.666  0.0000E+00  0.2385E-02  0.1200E+00  0.1197E+00
     51.849  0.0000E+00  0.1470E-02  0.1200E+00  0.1200E+00
     52.031  0.0000E+00  0.3300E-06  0.1200E+00  0.1200E+00
     52.214  0.0000E+00  0.0000E+00  0.1200E+00  0.1200E+00
     52.396  0.0000E+00  0.0000E+00  0.1200E+00  0.1200E+00
     52.578  0.0000E+00  0.0000E+00  0.1200E+00  0.1200E+00
     52.761  0.0000E+00  0.0000E+00  0.1200E+00  0.1200E+00
     52.943  0.0000E+00  0.0000E+00  0.1200E+00  0.1200E+00
     53.126  0.0000E+00  0.0000E+00  0.1200E+00  0.1200E+00
     53.308  0.0000E+00  0.0000E+00  0.1200E+00  0.1200E+00
     53.490  0.0000E+00  0.0000E+00  0.1200E+00  0.1200E+00
     53.673  0.0000E+00  0.0000E+00  0.1200E+00  0.1200E+00
     53.855  0.0000E+00  0.0000E+00  0.1200E+00  0.1200E+00
     54.037  0.0000E+00  0.0000E+00  0.1200E+00  0.1200E+00
     54.220  0.0000E+00  0.0000E+00  0.1200E+00  0.1200E+00
     54.21989463     -0.49958248  301     11.13655952      1.00000000
     -0.500  0.0000E+00  0.0000E+00  0.0000E+00  0.0000E+00  0.0000E+00  0.0000E+00  0.0000E+00  0.0000E+00  0.0000E+00  0.0000E+00  0.0000E+00  0.0000E+00  0.0000E+00  0.0000E+00  0.0000E+00  0.0000E+00  0.0000E+00  0.0000E+00
     -0.317  0.0000E+00  0.0000E+00  0.0000E+00  0.0000E+00  0.0000E+00  0.0000E+00  0.0000E+00  0.0000E+00  0.0000E+00  0.0000E+00  0.0000E+00  0.0000E+00  0.0000E+00  0.0000E+00  0.0000E+00  0.0000E+00  0.0000E+00  0.0000E+00
     -0.135  0.0000E+00  0.0000E+00  0.0000E+00  0.0000E+00  0.0000E+00  0.0000E+00  0.0000E+00  0.0000E+00  0.0000E+00  0.0000E+00  0.0000E+00  0.0000E+00  0.0000E+00  0.0000E+00  0.0000E+00  0.0000E+00  0.0000E+00  0.0000E+00
      0.048  0.0000E+00  0.0000E+00  0.0000E+00  0.0000E+00  0.0000E+00  0.0000E+00  0.0000E+00  0.0000E+00  0.0000E+00  0.0000E+00  0.0000E+00  0.0000E+00  0.0000E+00  0.0000E+00  0.0000E+00  0.0000E+00  0.0000E+00  0.0000E+00
      0.230  0.0000E+00  0.0000E+00  0.0000E+00  0.0000E+00  0.0000E+00  0.0000E+00  0.0000E+00  0.0000E+00  0.0000E+00  0.0000E+00  0.0000E+00  0.0000E+00  0.0000E+00  0.0000E+00  0.0000E+00  0.0000E+00  0.0000E+00  0.0000E+00
      0.412  0.0000E+00  0.0000E+00  0.0000E+00  0.0000E+00  0.0000E+00  0.0000E+00  0.0000E+00  0.0000E+00  0.0000E+00  0.0000E+00  0.0000E+00  0.0000E+00  0.0000E+00  0.0000E+00  0.0000E+00  0.0000E+00  0.0000E+00  0.0000E+00
      0.595  0.0000E+00  0.0000E+00  0.0000E+00  0.0000E+00  0.0000E+00  0.0000E+00  0.0000E+00  0.0000E+00  0.0000E+00  0.0000E+00  0.0000E+00  0.0000E+00  0.0000E+00  0.0000E+00  0.0000E+00  0.0000E+00  0.0000E+00  0.0000E+00
      0.777  0.0000E+00  0.0000E+00  0.0000E+00  0.0000E+00  0.0000E+00  0.0000E+00  0.0000E+00  0.0000E+00  0.0000E+00  0.0000E+00  0.0000E+00  0.0000E+00  0.0000E+00  0.0000E+00  0.0000E+00  0.0000E+00  0.0000E+00  0.0000E+00
      0.960  0.0000E+00  0.0000E+00  0.0000E+00  0.0000E+00  0.0000E+00  0.0000E+00  0.0000E+00  0.0000E+00  0.0000E+00  0.0000E+00  0.0000E+00  0.0000E+00  0.0000E+00  0.0000E+00  0.0000E+00  0.0000E+00  0.0000E+00  0.0000E+00
      1.142  0.0000E+00  0.0000E+00  0.0000E+00  0.0000E+00  0.0000E+00  0.0000E+00  0.0000E+00  0.0000E+00  0.0000E+00  0.0000E+00  0.0000E+00  0.0000E+00  0.0000E+00  0.0000E+00  0.0000E+00  0.0000E+00  0.0000E+00  0.0000E+00
      1.324  0.0000E+00  0.0000E+00  0.0000E+00  0.0000E+00  0.0000E+00  0.0000E+00  0.0000E+00  0.0000E+00  0.0000E+00  0.0000E+00  0.0000E+00  0.0000E+00  0.0000E+00  0.0000E+00  0.0000E+00  0.0000E+00  0.0000E+00  0.0000E+00
      1.507  0.0000E+00  0.0000E+00  0.0000E+00  0.0000E+00  0.0000E+00  0.0000E+00  0.0000E+00  0.0000E+00  0.0000E+00  0.0000E+00  0.0000E+00  0.0000E+00  0.0000E+00  0.0000E+00  0.0000E+00  0.0000E+00  0.0000E+00  0.0000E+00
      1.689  0.0000E+00  0.0000E+00  0.0000E+00  0.0000E+00  0.0000E+00  0.0000E+00  0.0000E+00  0.0000E+00  0.0000E+00  0.0000E+00  0.0000E+00  0.0000E+00  0.0000E+00  0.0000E+00  0.0000E+00  0.0000E+00  0.0000E+00  0.0000E+00
      1.872  0.8376E-05  0.1056E-05  0.4290E-07  0.5428E-08  0.4290E-07  0.5428E-08  0.4290E-07  0.5428E-08  0.6644E-09  0.6365E-10  0.6644E-09  0.6365E-10  0.1805E-21  0.2749E-23  0.6644E-09  0.6365E-10  0.1805E-21  0.2749E-23
      2.054  0.1581E-01  0.1484E-01  0.8095E-04  0.7629E-04  0.8095E-04  0.7629E-04  0.8095E-04  0.7629E-04  0.1254E-05  0.8945E-06  0.1254E-05  0.8945E-06  0.3407E-18  0.3864E-19  0.1254E-05  0.8945E-06  0.3407E-18  0.3864E-19
      2.236  0.4946E-03  0.1496E-02  0.2534E-05  0.7690E-05  0.2534E-05  0.7690E-05  0.2534E-05  0.7690E-05  0.3925E-07  0.9018E-07  0.3925E-07  0.9018E-07  0.1177E-10  0.3033E-12  0.3925E-07  0.9018E-07  0.1177E-10  0.3033E-12
      2.419  0.2708E-01  0.1573E-01  0.5157E-03  0.3012E-03  0.5157E-03  0.3012E-03  0.5157E-03  0.3012E-03  0.1478E-04  0.6409E-05  0.1478E-04  0.6409E-05  0.1973E-04  0.8730E-05  0.1478E-04  0.6409E-05  0.1973E-04  0.8730E-05
      2.601  0.1984E-01  0.3127E-01  0.3779E-03  0.5986E-03  0.3779E-03  0.5986E-03  0.3779E-03  0.5986E-03  0.1083E-04  0.1274E-04  0.1083E-04  0.1274E-04  0.1446E-04  0.1735E-04  0.1083E-04  0.1274E-04  0.1446E-04  0.1735E-04
      2.784  0.6432E-02  0.1511E-02  0.2116E-03  0.5021E-04  0.2116E-03  0.5021E-04  0.2116E-03  0.5021E-04  0.2037E-04  0.3485E-05  0.2037E-04  0.3485E-05  0.4562E-05  0.8210E-06  0.2037E-04  0.3485E-05  0.4562E-05  0.8210E-06
      2.966  0.3849E-01  0.4349E-01  0.1266E-02  0.1445E-02  0.1266E-02  0.1445E-02  0.1266E-02  0.1445E-02  0.1219E-03  0.1003E-03  0.1219E-03  0.1003E-03  0.2730E-04  0.2363E-04  0.1219E-03  0.1003E-03  0.2730E-04  0.2363E-04
      3.148  0.1695E-02  0.1325E-03  0.8014E-04  0.6061E-05  0.8014E-04  0.6061E-05  0.8014E-04  0.6061E-05  0.8237E-05  0.4251E-06  0.8237E-05  0.4251E-06  0.9287E-05  0.4555E-06  0.8237E-05  0.4251E-06  0.9287E-05  0.4555E-06
      3.331  0.5529E-01  0.5648E-01  0.2634E-02  0.2721E-02  0.2634E-02  0.2721E-02  0.2634E-02  0.2721E-02  0.2074E-03  0.1499E-03  0.2074E-03  0.1499E-03  0.3683E-03  0.2672E-03  0.2074E-03  0.1499E-03  0.3683E-03  0.2672E-03
      3.513  0.7977E-03  0.6962E-03  0.4906E-04  0.3383E-04  0.4906E-04  0.3383E-04  0.4906E-04  0.3383E-04  0.7591E-05  0.1576E-05  0.7591E-05  0.1576E-05  0.5517E-05  0.3652E-05  0.7591E-05  0.1576E-05  0.5517E-05  0.3652E-05
      3.696  0.8050E-01  0.7686E-01  0.5000E-02  0.4849E-02  0.5000E-02  0.4849E-02  0.5000E-02  0.4849E-02  0.7908E-03  0.5276E-03  0.7908E-03  0.5276E-03  0.5534E-03  0.3775E-03  0.7908E-03  0.5276E-03  0.5534E-03  0.3775E-03
      3.878  0.2319E-02  0.5141E-02  0.1656E-03  0.3244E-03  0.1656E-03  0.3244E-03  0.1656E-03  0.3244E-03  0.6224E-04  0.3538E-04  0.6224E-04  0.3538E-04  0.1044E-04  0.2523E-04  0.6224E-04  0.3538E-04  0.1044E-04  0.2523E-04
      4.060  0.3638E-01  0.3699E-01  0.2630E-02  0.2777E-02  0.2630E-02  0.2777E-02  0.2630E-02  0.2777E-02  0.1036E-02  0.6813E-03  0.1036E-02  0.6813E-03  0.1555E-03  0.1114E-03  0.1036E-02  0.6813E-03  0.1555E-03  0.1114E-03
      4.243  0.6122E-02  0.2073E-02  0.5738E-03  0.1557E-03  0.5738E-03  0.1557E-03  0.5738E-03  0.1557E-03  0.6759E-04  0.3809E-04  0.6759E-04  0.3809E-04  0.2837E-03  0.6440E-05  0.6759E-04  0.3809E-04  0.2837E-03  0.6440E-05
      4.425  0.6597E-01  0.6747E-01  0.6124E-02  0.6413E-02  0.6124E-02  0.6413E-02  0.6124E-02  0.6413E-02  0.1228E-02  0.7914E-03  0.1228E-02  0.7914E-03  0.2127E-02  0.1493E-02  0.1228E-02  0.7914E-03  0.2127E-02  0.1493E-02
      4.608  0.5964E-01  0.6701E-02  0.5978E-02  0.6380E-03  0.5978E-02  0.6380E-03  0.5978E-02  0.6380E-03  0.3219E-02  0.1148E-03  0.3219E-02  0.1148E-03  0.1588E-02  0.1100E-03  0.3219E-02  0.1148E-03  0.1588E-02  0.1100E-03
      4.790  0.4166E-01  0.1019E+00  0.4526E-02  0.1099E-01  0.4526E-02  0.1099E-01  0.4526E-02  0.1099E-01  0.1116E-02  0.2732E-02  0.1116E-02  0.2732E-02  0.2109E-02  0.2340E-02  0.1116E-02  0.2732E-02  0.2109E-02  0.2340E-02
      4.972  0.3518E-01  0.3785E-02  0.3922E-02  0.4403E-03  0.3922E-02  0.4403E-03  0.3922E-02  0.4403E-03  0.3158E-02  0.1107E-03  0.3158E-02  0.1107E-03  0.1340E-02  0.1144E-03  0.3158E-02  0.1107E-03  0.1340E-02  0.1144E-03
      5.155  0.7836E-02  0.3108E-01  0.8539E-03  0.3770E-02  0.8539E-03  0.3770E-02  0.8539E-03  0.3770E-02  0.1260E-02  0.1351E-02  0.1260E-02  0.1351E-02  0.1176E-03  0.8555E-03  0.1260E-02  0.1351E-02  0.1176E-03  0.8555E-03
      5.337  0.1190E+00  0.1797E-01  0.1613E-01  0.2249E-02  0.1613E-01  0.2249E-02  0.1613E-01  0.2249E-02  0.1331E-01  0.1596E-02  0.1331E-01  0.1596E-02  0.1133E-01  0.2111E-03  0.1331E-01  0.1596E-02  0.1133E-01  0.2111E-03
      5.520  0.3480E-01  0.5784E-01  0.3815E-02  0.8436E-02  0.3815E-02  0.8436E-02  0.3815E-02  0.8436E-02  0.1145E-01  0.3005E-02  0.1145E-01  0.3005E-02  0.2034E-02  0.1859E-02  0.1145E-01  0.3005E-02  0.2034E-02  0.1859E-02
      5.702  0.6604E-01  0.8069E-01  0.8943E-02  0.1170E-01  0.8943E-02  0.1170E-01  0.8943E-02  0.1170E-01  0.1794E-01  0.6570E-02  0.1794E-01  0.6570E-02  0.4064E-01  0.5954E-02  0.1794E-01  0.6570E-02  0.4064E-01  0.5954E-02
      5.884  0.7300E-01  0.2673E-01  0.9071E-02  0.4759E-02  0.9071E-02  0.4759E-02  0.9071E-02  0.4759E-02  0.3459E-01  0.1280E-02  0.3459E-01  0.1280E-02  0.6808E-01  0.4615E-02  0.3459E-01  0.1280E-02  0.6808E-01  0.4615E-02
      6.067  0.1437E+00  0.4971E-01  0.2251E-01  0.7660E-02  0.2251E-01  0.7660E-02  0.2251E-01  0.7660E-02  0.7717E-01  0.7010E-02  0.7717E-01  0.7010E-02  0.1348E+00  0.5161E-02  0.7717E-01  0.7010E-02  0.1348E+00  0.5161E-02
      6.249  0.5742E-01  0.4691E-01  0.1046E-01  0.8925E-02  0.1046E-01  0.8925E-02  0.1046E-01  0.8925E-02  0.3944E-01  0.6309E-02  0.3944E-01  0.6309E-02  0.7891E-01  0.4436E-02  0.3944E-01  0.6309E-02  0.7891E-01  0.4436E-02
      6.432  0.5567E-01  0.6645E-01  0.1129E-01  0.1106E-01  0.1129E-01  0.1106E-01  0.1129E-01  0.1106E-01  0.1003E+00  0.1838E-01  0.1003E+00  0.1838E-01  0.1210E+00  0.9135E-02  0.1003E+00  0.1838E-01  0.1210E+00  0.9135E-02
      6.614  0.6704E-01  0.8435E-01  0.2022E-01  0.1638E-01  0.2022E-01  0.1638E-01  0.2022E-01  0.1638E-01  0.1493E+00  0.2010E-01  0.1493E+00  0.2010E-01  0.1443E+00  0.1754E-01  0.1493E+00  0.2010E-01  0.1443E+00  0.1754E-01
      6.796  0.2605E-01  0.8155E-01  0.1112E-01  0.1151E-01  0.1112E-01  0.1151E-01  0.1112E-01  0.1151E-01  0.1449E+00  0.3940E-01  0.1449E+00  0.3940E-01  0.1040E+00  0.6828E-01  0.1449E+00  0.3940E-01  0.1040E+00  0.6828E-01
      6.979  0.2651E-01  0.5537E-01  0.2176E-01  0.9234E-02  0.2176E-01  0.9234E-02  0.2176E-01  0.9234E-02  0.1937E+00  0.3419E-01  0.1937E+00  0.3419E-01  0.1085E+00  0.3376E-01  0.1937E+00  0.3419E-01  0.1085E+00  0.3376E-01
      7.161  0.1036E-01  0.6779E-01  0.1506E-01  0.1617E-01  0.1506E-01  0.1617E-01  0.1506E-01  0.1617E-01  0.1528E+00  0.2620E-01  0.1528E+00  0.2620E-01  0.7187E-01  0.8568E-01  0.1528E+00  0.2620E-01  0.7187E-01  0.8568E-01
      7.344  0.6633E-02  0.8833E-01  0.2221E-01  0.2032E-01  0.2221E-01  0.2032E-01  0.2221E-01  0.2032E-01  0.1667E+00  0.6837E-01  0.1667E+00  0.6837E-01  0.1062E+00  0.8438E-01  0.1667E+00  0.6837E-01  0.1062E+00  0.8438E-01
      7.526  0.1797E-02  0.2285E-01  0.1260E-01  0.8357E-02  0.1260E-01  0.8357E-02  0.1260E-01  0.8357E-02  0.1115E+00  0.2163E-01  0.1115E+00  0.2163E-01  0.1302E+00  0.9254E-01  0.1115E+00  0.2163E-01  0.1302E+00  0.9254E-01
      7.708  0.6670E-02  0.4766E-01  0.1847E-01  0.1603E-01  0.1847E-01  0.1603E-01  0.1847E-01  0.1603E-01  0.1653E+00  0.1058E+00  0.1653E+00  0.1058E+00  0.1039E+00  0.8691E-01  0.1653E+00  0.1058E+00  0.1039E+00  0.8691E-01
      7.891  0.7626E-02  0.2943E-01  0.1413E-01  0.1744E-01  0.1413E-01  0.1744E-01  0.1413E-01  0.1744E-01  0.1729E+00  0.1194E+00  0.1729E+00  0.1194E+00  0.1086E+00  0.8111E-01  0.1729E+00  0.1194E+00  0.1086E+00  0.8111E-01
      8.073  0.9047E-02  0.2395E-01  0.2697E-01  0.2418E-01  0.2697E-01  0.2418E-01  0.2697E-01  0.2418E-01  0.2375E+00  0.1583E+00  0.2375E+00  0.1583E+00  0.1147E+00  0.1133E+00  0.2375E+00  0.1583E+00  0.1147E+00  0.1133E+00
      8.256  0.2146E-01  0.3300E-02  0.2391E-01  0.1601E-01  0.2391E-01  0.1601E-01  0.2391E-01  0.1601E-01  0.2258E+00  0.1386E+00  0.2258E+00  0.1386E+00  0.1290E+00  0.3765E-01  0.2258E+00  0.1386E+00  0.1290E+00  0.3765E-01
      8.438  0.1321E-01  0.6135E-02  0.2393E-01  0.1804E-01  0.2393E-01  0.1804E-01  0.2393E-01  0.1804E-01  0.2317E+00  0.1139E+00  0.2317E+00  0.1139E+00  0.1982E+00  0.7825E-01  0.2317E+00  0.1139E+00  0.1982E+00  0.7825E-01
      8.620  0.2285E-01  0.2960E-02  0.2536E-01  0.2173E-01  0.2536E-01  0.2173E-01  0.2536E-01  0.2173E-01  0.3318E+00  0.1595E+00  0.3318E+00  0.1595E+00  0.2344E+00  0.7779E-01  0.3318E+00  0.1595E+00  0.2344E+00  0.7779E-01