   1   1   1   0
  0.9257385E+01  0.2356864E-09  0.2356864E-09  0.2356864E-09  0.5000000E-15
  1.000000000000000E-004
  CAR 
 Co-fcc                                  
     55.83688720      0.47218936  301     12.73227452      1.00000000
      0.472  0.0000E+00  0.0000E+00  0.0000E+00  0.0000E+00
      0.657  0.0000E+00  0.0000E+00  0.0000E+00  0.0000E+00
      0.841  0.0000E+00  0.0000E+00  0.0000E+00  0.0000E+00
      1.026  0.0000E+00  0.0000E+00  0.0000E+00  0.0000E+00
      1.210  0.0000E+00  0.0000E+00  0.0000E+00  0.0000E+00
      1.395  0.0000E+00  0.0000E+00  0.0000E+00  0.0000E+00
      1.579  0.0000E+00  0.0000E+00  0.0000E+00  0.0000E+00
      1.764  0.0000E+00  0.0000E+00  0.0000E+00  0.0000E+00
      1.949  0.0000E+00  0.0000E+00  0.0000E+00  0.0000E+00
      2.133  0.0000E+00  0.0000E+00  0.0000E+00  0.0000E+00
      2.318  0.0000E+00  0.0000E+00  0.0000E+00  0.0000E+00
      2.502  0.0000E+00  0.0000E+00  0.0000E+00  0.0000E+00
      2.687  0.0000E+00  0.0000E+00  0.0000E+00  0.0000E+00
      2.871  0.9468E-07  0.4542E-10  0.1747E-07  0.8382E-11
      3.056  0.2055E-03  0.1196E-03  0.3794E-04  0.2208E-04
      3.240  0.6104E-05  0.9202E-04  0.3906E-04  0.3906E-04
      3.425  0.1670E-03  0.4392E-05  0.6988E-04  0.3987E-04
      3.610  0.4680E-03  0.6288E-03  0.1562E-03  0.1559E-03
      3.794  0.2520E-05  0.1846E-05  0.1567E-03  0.1563E-03
      3.979  0.6292E-03  0.4549E-03  0.2728E-03  0.2402E-03
      4.163  0.3295E-05  0.1801E-03  0.2734E-03  0.2734E-03
      4.348  0.7264E-03  0.1030E-03  0.4075E-03  0.2924E-03
      4.532  0.1203E-03  0.7437E-03  0.4297E-03  0.4297E-03
      4.717  0.6446E-03  0.7013E-05  0.5486E-03  0.4310E-03
      4.901  0.6254E-03  0.1258E-02  0.6641E-03  0.6632E-03
      5.086  0.4323E-03  0.6116E-05  0.7438E-03  0.6643E-03
      5.270  0.2027E-03  0.6280E-03  0.7813E-03  0.7802E-03
      5.455  0.7042E-03  0.5944E-05  0.9112E-03  0.7813E-03
      5.640  0.5842E-03  0.1199E-02  0.1019E-02  0.1003E-02
      5.824  0.1703E-02  0.8582E-04  0.1333E-02  0.1018E-02
      6.009  0.2755E-03  0.1845E-02  0.1384E-02  0.1359E-02
      6.193  0.7519E-03  0.6692E-04  0.1523E-02  0.1371E-02
      6.378  0.2209E-03  0.6199E-03  0.1564E-02  0.1486E-02
      6.562  0.3077E-02  0.2362E-03  0.2131E-02  0.1529E-02
      6.747  0.2256E-02  0.1371E-02  0.2548E-02  0.1782E-02
      6.931  0.4354E-02  0.1772E-02  0.3351E-02  0.2109E-02
      7.116  0.5168E-02  0.8962E-03  0.4305E-02  0.2275E-02
      7.301  0.5603E-02  0.1038E-02  0.5339E-02  0.2466E-02
      7.485  0.5827E-02  0.1378E-02  0.6414E-02  0.2721E-02
      7.670  0.8477E-02  0.2239E-02  0.7979E-02  0.3134E-02
      7.854  0.7478E-02  0.5157E-02  0.9359E-02  0.4085E-02
      8.039  0.7482E-02  0.3761E-02  0.1074E-01  0.4779E-02
      8.223  0.7436E-02  0.3554E-02  0.1211E-01  0.5435E-02
      8.408  0.6793E-02  0.4126E-02  0.1337E-01  0.6197E-02
      8.592  0.7294E-02  0.6119E-02  0.1471E-01  0.7326E-02
      8.777  0.6072E-02  0.4848E-02  0.1583E-01  0.8221E-02
      8.961  0.5778E-02  0.6670E-02  0.1690E-01  0.9452E-02
      9.146  0.6894E-02  0.5787E-02  0.1817E-01  0.1052E-01
      9.331  0.9426E-02  0.8501E-02  0.1991E-01  0.1209E-01
      9.515  0.8774E-02  0.3502E-02  0.2153E-01  0.1273E-01
      9.700  0.9957E-02  0.6930E-02  0.2337E-01  0.1401E-01
      9.884  0.1040E-01  0.6808E-02  0.2529E-01  0.1527E-01
     10.069  0.1447E-01  0.3330E-02  0.2796E-01  0.1588E-01
     10.253  0.1076E-01  0.7142E-02  0.2994E-01  0.1720E-01
     10.438  0.9207E-02  0.7018E-02  0.3164E-01  0.1850E-01
     10.622  0.9367E-02  0.9906E-02  0.3337E-01  0.2033E-01
     10.807  0.5650E-02  0.5222E-02  0.3441E-01  0.2129E-01
     10.991  0.1047E-01  0.9568E-02  0.3635E-01  0.2306E-01
     11.176  0.1208E-01  0.7629E-02  0.3858E-01  0.2446E-01
     11.361  0.7060E-02  0.9658E-02  0.3988E-01  0.2625E-01
     11.545  0.1076E-01  0.1012E-01  0.4186E-01  0.2811E-01
     11.730  0.6793E-02  0.9786E-02  0.4312E-01  0.2992E-01
     11.914  0.8898E-02  0.8412E-02  0.4476E-01  0.3147E-01
     12.099  0.9789E-02  0.5122E-02  0.4657E-01  0.3242E-01
     12.283  0.1268E-01  0.8525E-02  0.4890E-01  0.3399E-01
     12.468  0.1298E-01  0.4301E-02  0.5130E-01  0.3478E-01
     12.652  0.7756E-02  0.8785E-02  0.5273E-01  0.3641E-01
     12.837  0.6511E-03  0.9283E-02  0.5285E-01  0.3812E-01
     13.022  0.8645E-06  0.7260E-02  0.5285E-01  0.3946E-01
     13.206  0.6164E-03  0.8648E-02  0.5297E-01  0.4105E-01
     13.391  0.2667E-02  0.9875E-02  0.5346E-01  0.4288E-01
     13.575  0.2012E-02  0.3102E-02  0.5383E-01  0.4345E-01
     13.760  0.1055E-02  0.1140E-01  0.5402E-01  0.4555E-01
     13.944  0.8415E-03  0.8673E-02  0.5418E-01  0.4715E-01
     14.129  0.9338E-03  0.1699E-01  0.5435E-01  0.5029E-01
     14.313  0.1640E-02  0.1021E-01  0.5465E-01  0.5217E-01
     14.498  0.1509E-02  0.3669E-02  0.5493E-01  0.5285E-01
     14.682  0.1592E-03  0.5246E-03  0.5496E-01  0.5295E-01
     14.867  0.1878E-02  0.2664E-02  0.5531E-01  0.5344E-01
     15.052  0.1266E-02  0.3613E-02  0.5554E-01  0.5411E-01
     15.236  0.3346E-04  0.1423E-02  0.5555E-01  0.5437E-01
     15.421  0.1870E-02  0.6654E-03  0.5589E-01  0.5449E-01
     15.605  0.1011E-02  0.2231E-03  0.5608E-01  0.5453E-01
     15.790  0.1423E-02  0.1194E-02  0.5634E-01  0.5475E-01
     15.974  0.9201E-03  0.1809E-02  0.5651E-01  0.5509E-01
     16.159  0.3006E-02  0.2222E-02  0.5707E-01  0.5550E-01
     16.343  0.1856E-04  0.2331E-02  0.5707E-01  0.5593E-01
     16.528  0.1622E-11  0.5558E-03  0.5707E-01  0.5603E-01
     16.713  0.2924E-03  0.1801E-02  0.5712E-01  0.5636E-01
     16.897  0.9777E-03  0.4299E-04  0.5730E-01  0.5637E-01
     17.082  0.2170E-02  0.2194E-02  0.5771E-01  0.5678E-01
     17.266  0.1639E-02  0.1583E-02  0.5801E-01  0.5707E-01
     17.451  0.2433E-04  0.1494E-04  0.5801E-01  0.5707E-01
     17.635  0.1878E-02  0.9141E-03  0.5836E-01  0.5724E-01
     17.820  0.2947E-05  0.1626E-02  0.5836E-01  0.5754E-01
     18.004  0.5157E-03  0.1388E-02  0.5845E-01  0.5780E-01
     18.189  0.1761E-02  0.1152E-02  0.5878E-01  0.5801E-01
     18.373  0.8987E-03  0.3732E-03  0.5895E-01  0.5808E-01
     18.558  0.8243E-07  0.1532E-02  0.5895E-01  0.5836E-01
     18.743  0.1165E-02  0.6341E-03  0.5916E-01  0.5848E-01
     18.927  0.1044E-03  0.2720E-03  0.5918E-01  0.5853E-01
     19.112  0.6739E-05  0.2175E-02  0.5918E-01  0.5893E-01
     19.296  0.6707E-03  0.1711E-03  0.5930E-01  0.5896E-01
     19.481  0.1227E-02  0.1193E-02  0.5953E-01  0.5918E-01
     19.665  0.6749E-03  0.1540E-06  0.5966E-01  0.5918E-01
     19.850  0.5955E-03  0.1059E-05  0.5977E-01  0.5918E-01
     20.034  0.7444E-10  0.1030E-02  0.5977E-01  0.5937E-01
     20.219  0.1488E-15  0.8739E-03  0.5977E-01  0.5953E-01
     20.403  0.2226E-04  0.5274E-03  0.5977E-01  0.5963E-01
     20.588  0.1636E-02  0.7426E-03  0.6007E-01  0.5977E-01
     20.773  0.2029E-02  0.3532E-09  0.6045E-01  0.5977E-01
     20.957  0.1092E-02  0.4690E-09  0.6065E-01  0.5977E-01
     21.142  0.1581E-02  0.7696E-03  0.6094E-01  0.5991E-01
     21.326  0.1285E-02  0.5004E-03  0.6118E-01  0.6000E-01
     21.511  0.2168E-02  0.1765E-04  0.6158E-01  0.6000E-01
     21.695  0.5603E-03  0.2464E-02  0.6168E-01  0.6046E-01
     21.880  0.2349E-02  0.2590E-02  0.6211E-01  0.6094E-01
     22.064  0.1248E-02  0.1479E-02  0.6234E-01  0.6121E-01
     22.249  0.2114E-03  0.1102E-02  0.6238E-01  0.6141E-01
     22.434  0.7490E-03  0.1974E-02  0.6252E-01  0.6178E-01
     22.618  0.2342E-02  0.1351E-02  0.6295E-01  0.6203E-01
     22.803  0.1064E-02  0.1480E-02  0.6315E-01  0.6230E-01
     22.987  0.5597E-03  0.5191E-03  0.6325E-01  0.6239E-01
     23.172  0.1562E-02  0.2238E-02  0.6354E-01  0.6281E-01
     23.356  0.1341E-02  0.1505E-02  0.6379E-01  0.6309E-01
     23.541  0.4110E-05  0.6768E-04  0.6379E-01  0.6310E-01
     23.725  0.1816E-02  0.1342E-02  0.6412E-01  0.6335E-01
     23.910  0.5341E-03  0.1171E-02  0.6422E-01  0.6356E-01
     24.094  0.1107E-02  0.1232E-02  0.6443E-01  0.6379E-01
     24.279  0.1617E-02  0.8024E-03  0.6473E-01  0.6394E-01
     24.464  0.3243E-03  0.1107E-02  0.6479E-01  0.6414E-01
     24.648  0.2814E-02  0.8281E-03  0.6531E-01  0.6429E-01
     24.833  0.6308E-03  0.2088E-02  0.6542E-01  0.6468E-01
     25.017  0.1905E-02  0.2566E-03  0.6577E-01  0.6473E-01
     25.202  0.1618E-02  0.1069E-02  0.6607E-01  0.6492E-01
     25.386  0.2654E-02  0.1974E-02  0.6656E-01  0.6529E-01
     25.571  0.1684E-02  0.2039E-02  0.6687E-01  0.6567E-01
     25.755  0.9995E-03  0.1271E-02  0.6706E-01  0.6590E-01
     25.940  0.1781E-02  0.2494E-02  0.6739E-01  0.6636E-01
     26.124  0.1424E-02  0.1955E-02  0.6765E-01  0.6672E-01
     26.309  0.1267E-03  0.1864E-02  0.6767E-01  0.6706E-01
     26.494  0.2689E-03  0.9006E-03  0.6772E-01  0.6723E-01
     26.678  0.5054E-02  0.2288E-02  0.6865E-01  0.6765E-01
     26.863  0.1789E-02  0.3134E-04  0.6898E-01  0.6766E-01
     27.047  0.2564E-04  0.8195E-03  0.6899E-01  0.6781E-01
     27.232  0.2506E-02  0.5118E-02  0.6945E-01  0.6875E-01
     27.416  0.1784E-02  0.9325E-03  0.6978E-01  0.6893E-01
     27.601  0.3403E-02  0.4583E-03  0.7041E-01  0.6901E-01
     27.785  0.1172E-02  0.2446E-02  0.7063E-01  0.6946E-01
     27.970  0.1208E-02  0.2283E-02  0.7085E-01  0.6988E-01
     28.155  0.2581E-02  0.3891E-02  0.7132E-01  0.7060E-01
     28.339  0.2155E-04  0.1242E-03  0.7133E-01  0.7063E-01
     28.524  0.1841E-02  0.3186E-02  0.7167E-01  0.7121E-01
     28.708  0.1745E-02  0.6258E-03  0.7199E-01  0.7133E-01
     28.893  0.2535E-02  0.6537E-03  0.7246E-01  0.7145E-01
     29.077  0.3852E-02  0.2451E-02  0.7317E-01  0.7190E-01
     29.262  0.1439E-02  0.1949E-02  0.7343E-01  0.7226E-01
     29.446  0.1920E-02  0.3525E-02  0.7379E-01  0.7291E-01
     29.631  0.1428E-02  0.3453E-02  0.7405E-01  0.7355E-01
     29.815  0.1152E-02  0.6840E-03  0.7426E-01  0.7368E-01
     30.000  0.2477E-02  0.2344E-02  0.7472E-01  0.7411E-01
     30.185  0.1737E-02  0.8325E-03  0.7504E-01  0.7426E-01
     30.369  0.1538E-02  0.2437E-02  0.7533E-01  0.7471E-01
     30.554  0.3948E-02  0.1329E-02  0.7606E-01  0.7496E-01
     30.738  0.1608E-02  0.2132E-02  0.7635E-01  0.7535E-01
     30.923  0.9195E-03  0.2871E-02  0.7652E-01  0.7588E-01
     31.107  0.2784E-02  0.2228E-02  0.7704E-01  0.7629E-01
     31.292  0.1459E-02  0.9737E-03  0.7730E-01  0.7647E-01
     31.476  0.1070E-02  0.3248E-02  0.7750E-01  0.7707E-01
     31.661  0.3501E-02  0.1270E-02  0.7815E-01  0.7730E-01
     31.846  0.3164E-02  0.6633E-03  0.7873E-01  0.7743E-01
     32.030  0.1194E-02  0.4672E-02  0.7895E-01  0.7829E-01
     32.215  0.1232E-02  0.2723E-02  0.7918E-01  0.7879E-01
     32.399  0.2405E-02  0.9863E-03  0.7962E-01  0.7897E-01
     32.584  0.2333E-03  0.1467E-02  0.7967E-01  0.7924E-01
     32.768  0.1901E-03  0.2099E-02  0.7970E-01  0.7963E-01
     32.953  0.3690E-02  0.2466E-03  0.8038E-01  0.7968E-01
     33.137  0.2566E-02  0.6829E-04  0.8086E-01  0.7969E-01
     33.322  0.1455E-03  0.5074E-02  0.8088E-01  0.8063E-01
     33.506  0.2931E-02  0.1487E-02  0.8142E-01  0.8090E-01
     33.691  0.1658E-02  0.4480E-03  0.8173E-01  0.8098E-01
     33.876  0.3090E-02  0.2550E-02  0.8230E-01  0.8145E-01
     34.060  0.4457E-03  0.2261E-02  0.8238E-01  0.8187E-01
     34.245  0.1497E-02  0.2584E-02  0.8266E-01  0.8235E-01
     34.429  0.7270E-03  0.1460E-02  0.8279E-01  0.8262E-01
     34.614  0.2286E-02  0.1233E-02  0.8322E-01  0.8285E-01
     34.798  0.1640E-02  0.1487E-02  0.8352E-01  0.8312E-01
     34.983  0.1454E-02  0.1700E-02  0.8379E-01  0.8343E-01
     35.167  0.1313E-02  0.1082E-02  0.8403E-01  0.8363E-01
     35.352  0.2231E-02  0.2614E-02  0.8444E-01  0.8412E-01
     35.536  0.1207E-02  0.1339E-02  0.8466E-01  0.8436E-01
     35.721  0.2253E-02  0.9936E-03  0.8508E-01  0.8455E-01
     35.906  0.1852E-02  0.2755E-02  0.8542E-01  0.8505E-01
     36.090  0.2332E-02  0.1733E-02  0.8585E-01  0.8537E-01
     36.275  0.2229E-02  0.2583E-02  0.8626E-01  0.8585E-01
     36.459  0.1406E-02  0.2147E-02  0.8652E-01  0.8625E-01
     36.644  0.6314E-03  0.7751E-03  0.8664E-01  0.8639E-01
     36.828  0.1307E-02  0.1202E-02  0.8688E-01  0.8661E-01
     37.013  0.2218E-02  0.5837E-03  0.8729E-01  0.8672E-01
     37.197  0.1032E-02  0.1571E-02  0.8748E-01  0.8701E-01
     37.382  0.4960E-02  0.2365E-02  0.8839E-01  0.8745E-01
     37.567  0.2476E-02  0.3009E-02  0.8885E-01  0.8800E-01
     37.751  0.6489E-03  0.2840E-02  0.8897E-01  0.8852E-01
     37.936  0.3036E-02  0.2540E-02  0.8953E-01  0.8899E-01
     38.120  0.1983E-02  0.2808E-02  0.8990E-01  0.8951E-01
     38.305  0.2042E-02  0.2032E-02  0.9027E-01  0.8989E-01
     38.489  0.2205E-02  0.3774E-03  0.9068E-01  0.8996E-01
     38.674  0.1657E-02  0.2930E-02  0.9099E-01  0.9050E-01
     38.858  0.2573E-02  0.2593E-02  0.9146E-01  0.9098E-01
     39.043  0.3537E-02  0.1415E-02  0.9211E-01  0.9124E-01
     39.227  0.8211E-03  0.4888E-02  0.9227E-01  0.9214E-01
     39.412  0.3943E-02  0.5959E-03  0.9299E-01  0.9225E-01
     39.597  0.2400E-02  0.3042E-02  0.9344E-01  0.9281E-01
     39.781  0.1245E-03  0.2792E-02  0.9346E-01  0.9333E-01
     39.966  0.2495E-02  0.6062E-03  0.9392E-01  0.9344E-01
     40.150  0.1623E-02  0.1676E-02  0.9422E-01  0.9375E-01
     40.335  0.3361E-02  0.2466E-02  0.9484E-01  0.9420E-01
     40.519  0.1588E-02  0.3460E-02  0.9513E-01  0.9484E-01
     40.704  0.2199E-02  0.1151E-02  0.9554E-01  0.9505E-01
     40.888  0.2251E-02  0.1751E-02  0.9595E-01  0.9538E-01
     41.073  0.2372E-02  0.1365E-02  0.9639E-01  0.9563E-01
     41.258  0.2305E-02  0.2807E-02  0.9682E-01  0.9615E-01
     41.442  0.2902E-02  0.2513E-02  0.9735E-01  0.9661E-01
     41.627  0.3474E-02  0.4017E-02  0.9799E-01  0.9735E-01
     41.811  0.2600E-02  0.2155E-02  0.9847E-01  0.9775E-01
     41.996  0.2246E-03  0.1842E-02  0.9852E-01  0.9809E-01
     42.180  0.8072E-03  0.2307E-02  0.9866E-01  0.9851E-01
     42.365  0.1096E-02  0.1350E-02  0.9887E-01  0.9876E-01
     42.549  0.1468E-03  0.5626E-03  0.9889E-01  0.9887E-01
     42.734  0.3314E-02  0.2600E-03  0.9951E-01  0.9892E-01
     42.918  0.1364E-02  0.2681E-02  0.9976E-01  0.9941E-01
     43.103  0.1170E-02  0.2255E-04  0.9997E-01  0.9941E-01
     43.288  0.1450E-03  0.7826E-04  0.1000E+00  0.9943E-01
     43.472  0.8676E-05  0.1826E-02  0.1000E+00  0.9977E-01
     43.657  0.5539E-02  0.1746E-02  0.1010E+00  0.1001E+00
     43.841  0.1312E-02  0.2873E-02  0.1013E+00  0.1006E+00
     44.026  0.5708E-03  0.2156E-02  0.1014E+00  0.1010E+00
     44.210  0.6119E-03  0.1515E-02  0.1015E+00  0.1013E+00
     44.395  0.1804E-03  0.1016E-02  0.1015E+00  0.1015E+00
     44.579  0.1426E-02  0.9371E-05  0.1018E+00  0.1015E+00
     44.764  0.2912E-02  0.6505E-03  0.1023E+00  0.1016E+00
     44.948  0.1846E-02  0.1348E-02  0.1027E+00  0.1019E+00
     45.133  0.2497E-02  0.1811E-02  0.1031E+00  0.1022E+00
     45.318  0.7263E-03  0.3389E-02  0.1033E+00  0.1028E+00
     45.502  0.5649E-02  0.1123E-02  0.1043E+00  0.1030E+00
     45.687  0.5836E-02  0.5719E-02  0.1054E+00  0.1041E+00
     45.871  0.2770E-02  0.5150E-02  0.1059E+00  0.1050E+00
     46.056  0.2719E-02  0.2775E-02  0.1064E+00  0.1055E+00
     46.240  0.1831E-02  0.1017E-02  0.1067E+00  0.1057E+00
     46.425  0.1146E-02  0.2727E-02  0.1069E+00  0.1062E+00
     46.609  0.2468E-02  0.2081E-02  0.1074E+00  0.1066E+00
     46.794  0.1509E-02  0.2165E-02  0.1077E+00  0.1070E+00
     46.979  0.2363E-02  0.2618E-02  0.1081E+00  0.1075E+00
     47.163  0.2677E-02  0.1832E-02  0.1086E+00  0.1078E+00
     47.348  0.4373E-02  0.2649E-02  0.1094E+00  0.1083E+00
     47.532  0.1911E-02  0.5097E-02  0.1098E+00  0.1093E+00
     47.717  0.5461E-04  0.2050E-02  0.1098E+00  0.1096E+00
     47.901  0.6795E-03  0.4837E-04  0.1099E+00  0.1097E+00
     48.086  0.5090E-02  0.1035E-02  0.1108E+00  0.1098E+00
     48.270  0.3043E-02  0.2209E-02  0.1114E+00  0.1102E+00
     48.455  0.2261E-02  0.2728E-02  0.1118E+00  0.1108E+00
     48.639  0.2589E-02  0.6363E-03  0.1123E+00  0.1109E+00
     48.824  0.4446E-02  0.3795E-02  0.1131E+00  0.1116E+00
     49.009  0.5614E-02  0.3666E-02  0.1141E+00  0.1122E+00
     49.193  0.6764E-02  0.2004E-02  0.1154E+00  0.1126E+00
     49.378  0.7329E-02  0.1436E-03  0.1167E+00  0.1126E+00
     49.562  0.2726E-02  0.1839E-02  0.1173E+00  0.1130E+00
     49.747  0.5074E-02  0.5635E-03  0.1182E+00  0.1131E+00
     49.931  0.7200E-02  0.1886E-02  0.1195E+00  0.1134E+00
     50.116  0.7886E-04  0.2211E-02  0.1195E+00  0.1138E+00
     50.300  0.1248E-02  0.2893E-02  0.1198E+00  0.1144E+00
     50.485  0.2023E-04  0.6236E-03  0.1198E+00  0.1145E+00
     50.670  0.0000E+00  0.5354E-03  0.1198E+00  0.1146E+00
     50.854  0.2036E-07  0.6592E-03  0.1198E+00  0.1147E+00
     51.039  0.5647E-03  0.1912E-02  0.1199E+00  0.1151E+00
     51.223  0.7030E-04  0.2933E-02  0.1199E+00  0.1156E+00
     51.408  0.0000E+00  0.2687E-02  0.1199E+00  0.1161E+00
     51.592  0.0000E+00  0.7778E-03  0.1199E+00  0.1162E+00
     51.777  0.0000E+00  0.2886E-03  0.1199E+00  0.1163E+00
     51.961  0.0000E+00  0.2510E-02  0.1199E+00  0.1168E+00
     52.146  0.6130E-09  0.1516E-02  0.1199E+00  0.1170E+00
     52.330  0.4299E-03  0.3314E-02  0.1200E+00  0.1177E+00
     52.515  0.2051E-03  0.1536E-02  0.1200E+00  0.1179E+00
     52.700  0.4298E-11  0.2772E-02  0.1200E+00  0.1184E+00
     52.884  0.0000E+00  0.2040E-02  0.1200E+00  0.1188E+00
     53.069  0.0000E+00  0.1271E-03  0.1200E+00  0.1188E+00
     53.253  0.0000E+00  0.3882E-02  0.1200E+00  0.1196E+00
     53.438  0.0000E+00  0.2354E-02  0.1200E+00  0.1200E+00
     53.622  0.0000E+00  0.3476E-06  0.1200E+00  0.1200E+00
     53.807  0.0000E+00  0.0000E+00  0.1200E+00  0.1200E+00
     53.991  0.0000E+00  0.0000E+00  0.1200E+00  0.1200E+00
     54.176  0.0000E+00  0.0000E+00  0.1200E+00  0.1200E+00
     54.360  0.0000E+00  0.0000E+00  0.1200E+00  0.1200E+00
     54.545  0.0000E+00  0.0000E+00  0.1200E+00  0.1200E+00
     54.730  0.0000E+00  0.0000E+00  0.1200E+00  0.1200E+00
     54.914  0.0000E+00  0.0000E+00  0.1200E+00  0.1200E+00
     55.099  0.0000E+00  0.0000E+00  0.1200E+00  0.1200E+00
     55.283  0.0000E+00  0.0000E+00  0.1200E+00  0.1200E+00
     55.468  0.0000E+00  0.0000E+00  0.1200E+00  0.1200E+00
     55.652  0.0000E+00  0.0000E+00  0.1200E+00  0.1200E+00
     55.837  0.0000E+00  0.0000E+00  0.1200E+00  0.1200E+00
     55.83688720      0.47218936  301     12.73227452      1.00000000
      0.472  0.0000E+00  0.0000E+00  0.0000E+00  0.0000E+00  0.0000E+00  0.0000E+00  0.0000E+00  0.0000E+00  0.0000E+00  0.0000E+00  0.0000E+00  0.0000E+00  0.0000E+00  0.0000E+00  0.0000E+00  0.0000E+00  0.0000E+00  0.0000E+00
      0.657  0.0000E+00  0.0000E+00  0.0000E+00  0.0000E+00  0.0000E+00  0.0000E+00  0.0000E+00  0.0000E+00  0.0000E+00  0.0000E+00  0.0000E+00  0.0000E+00  0.0000E+00  0.0000E+00  0.0000E+00  0.0000E+00  0.0000E+00  0.0000E+00
      0.841  0.0000E+00  0.0000E+00  0.0000E+00  0.0000E+00  0.0000E+00  0.0000E+00  0.0000E+00  0.0000E+00  0.0000E+00  0.0000E+00  0.0000E+00  0.0000E+00  0.0000E+00  0.0000E+00  0.0000E+00  0.0000E+00  0.0000E+00  0.0000E+00
      1.026  0.0000E+00  0.0000E+00  0.0000E+00  0.0000E+00  0.0000E+00  0.0000E+00  0.0000E+00  0.0000E+00  0.0000E+00  0.0000E+00  0.0000E+00  0.0000E+00  0.0000E+00  0.0000E+00  0.0000E+00  0.0000E+00  0.0000E+00  0.0000E+00
      1.210  0.0000E+00  0.0000E+00  0.0000E+00  0.0000E+00  0.0000E+00  0.0000E+00  0.0000E+00  0.0000E+00  0.0000E+00  0.0000E+00  0.0000E+00  0.0000E+00  0.0000E+00  0.0000E+00  0.0000E+00  0.0000E+00  0.0000E+00  0.0000E+00
      1.395  0.0000E+00  0.0000E+00  0.0000E+00  0.0000E+00  0.0000E+00  0.0000E+00  0.0000E+00  0.0000E+00  0.0000E+00  0.0000E+00  0.0000E+00  0.0000E+00  0.0000E+00  0.0000E+00  0.0000E+00  0.0000E+00  0.0000E+00  0.0000E+00
      1.579  0.0000E+00  0.0000E+00  0.0000E+00  0.0000E+00  0.0000E+00  0.0000E+00  0.0000E+00  0.0000E+00  0.0000E+00  0.0000E+00  0.0000E+00  0.0000E+00  0.0000E+00  0.0000E+00  0.0000E+00  0.0000E+00  0.0000E+00  0.0000E+00
      1.764  0.0000E+00  0.0000E+00  0.0000E+00  0.0000E+00  0.0000E+00  0.0000E+00  0.0000E+00  0.0000E+00  0.0000E+00  0.0000E+00  0.0000E+00  0.0000E+00  0.0000E+00  0.0000E+00  0.0000E+00  0.0000E+00  0.0000E+00  0.0000E+00
      1.949  0.0000E+00  0.0000E+00  0.0000E+00  0.0000E+00  0.0000E+00  0.0000E+00  0.0000E+00  0.0000E+00  0.0000E+00  0.0000E+00  0.0000E+00  0.0000E+00  0.0000E+00  0.0000E+00  0.0000E+00  0.0000E+00  0.0000E+00  0.0000E+00
      2.133  0.0000E+00  0.0000E+00  0.0000E+00  0.0000E+00  0.0000E+00  0.0000E+00  0.0000E+00  0.0000E+00  0.0000E+00  0.0000E+00  0.0000E+00  0.0000E+00  0.0000E+00  0.0000E+00  0.0000E+00  0.0000E+00  0.0000E+00  0.0000E+00
      2.318  0.0000E+00  0.0000E+00  0.0000E+00  0.0000E+00  0.0000E+00  0.0000E+00  0.0000E+00  0.0000E+00  0.0000E+00  0.0000E+00  0.0000E+00  0.0000E+00  0.0000E+00  0.0000E+00  0.0000E+00  0.0000E+00  0.0000E+00  0.0000E+00
      2.502  0.0000E+00  0.0000E+00  0.0000E+00  0.0000E+00  0.0000E+00  0.0000E+00  0.0000E+00  0.0000E+00  0.0000E+00  0.0000E+00  0.0000E+00  0.0000E+00  0.0000E+00  0.0000E+00  0.0000E+00  0.0000E+00  0.0000E+00  0.0000E+00
      2.687  0.0000E+00  0.0000E+00  0.0000E+00  0.0000E+00  0.0000E+00  0.0000E+00  0.0000E+00  0.0000E+00  0.0000E+00  0.0000E+00  0.0000E+00  0.0000E+00  0.0000E+00  0.0000E+00  0.0000E+00  0.0000E+00  0.0000E+00  0.0000E+00
      2.871  0.8141E-05  0.3924E-08  0.4448E-07  0.2147E-10  0.4448E-07  0.2147E-10  0.4448E-07  0.2147E-10  0.6838E-09  0.2588E-12  0.6838E-09  0.2588E-12  0.2150E-21  0.7867E-28  0.6838E-09  0.2588E-12  0.2150E-21  0.7867E-28
      3.056  0.1767E-01  0.1034E-01  0.9653E-04  0.5657E-04  0.9653E-04  0.5657E-04  0.9653E-04  0.5657E-04  0.1484E-05  0.6817E-06  0.1484E-05  0.6817E-06  0.4666E-18  0.2072E-21  0.1484E-05  0.6817E-06  0.4666E-18  0.2072E-21
      3.240  0.5249E-03  0.7950E-02  0.2868E-05  0.4351E-04  0.2868E-05  0.4351E-04  0.2868E-05  0.4351E-04  0.4409E-07  0.5243E-06  0.4409E-07  0.5243E-06  0.9558E-13  0.2494E-18  0.4409E-07  0.5243E-06  0.9558E-13  0.2494E-18
      3.425  0.1373E-01  0.3629E-03  0.2790E-03  0.7396E-05  0.2790E-03  0.7396E-05  0.2790E-03  0.7396E-05  0.7890E-05  0.1610E-06  0.7890E-05  0.1610E-06  0.1048E-04  0.2187E-06  0.7890E-05  0.1610E-06  0.1048E-04  0.2187E-06
      3.610  0.3848E-01  0.5195E-01  0.7819E-03  0.1059E-02  0.7819E-03  0.1059E-02  0.7819E-03  0.1059E-02  0.2212E-04  0.2305E-04  0.2212E-04  0.2305E-04  0.2937E-04  0.3131E-04  0.2212E-04  0.2305E-04  0.2937E-04  0.3131E-04
      3.794  0.1978E-03  0.1525E-03  0.6929E-05  0.3110E-05  0.6929E-05  0.3110E-05  0.6929E-05  0.3110E-05  0.6578E-06  0.6784E-07  0.6578E-06  0.6784E-07  0.1445E-06  0.9192E-07  0.6578E-06  0.6784E-07  0.1445E-06  0.9192E-07
      3.979  0.4939E-01  0.3591E-01  0.1731E-02  0.1268E-02  0.1731E-02  0.1268E-02  0.1731E-02  0.1268E-02  0.1643E-03  0.9015E-04  0.1643E-03  0.9015E-04  0.3608E-04  0.2087E-04  0.1643E-03  0.9015E-04  0.3608E-04  0.2087E-04
      4.163  0.2586E-03  0.1422E-01  0.9081E-05  0.5021E-03  0.9081E-05  0.5021E-03  0.9081E-05  0.5021E-03  0.8654E-06  0.3570E-04  0.8654E-06  0.3570E-04  0.1933E-06  0.8265E-05  0.8654E-06  0.3570E-04  0.1933E-06  0.8265E-05
      4.348  0.5408E-01  0.7732E-02  0.2743E-02  0.3945E-03  0.2743E-02  0.3945E-03  0.2743E-02  0.3945E-03  0.2231E-03  0.2622E-04  0.2231E-03  0.2622E-04  0.3692E-03  0.3601E-04  0.2231E-03  0.2622E-04  0.3692E-03  0.3601E-04
      4.532  0.8954E-02  0.5582E-01  0.4569E-03  0.2860E-02  0.4569E-03  0.2860E-02  0.4569E-03  0.2860E-02  0.2870E-04  0.1585E-03  0.2870E-04  0.1585E-03  0.6969E-04  0.2935E-03  0.2870E-04  0.1585E-03  0.6969E-04  0.2935E-03
      4.717  0.4558E-01  0.5011E-03  0.3015E-02  0.3356E-04  0.3015E-02  0.3356E-04  0.3015E-02  0.3356E-04  0.4645E-03  0.3705E-05  0.4645E-03  0.3705E-05  0.3246E-03  0.2665E-05  0.4645E-03  0.3705E-05  0.3246E-03  0.2665E-05
      4.901  0.4422E-01  0.8990E-01  0.2925E-02  0.6025E-02  0.2925E-02  0.6025E-02  0.2925E-02  0.6025E-02  0.4506E-03  0.6664E-03  0.4506E-03  0.6664E-03  0.3150E-03  0.4779E-03  0.4506E-03  0.6664E-03  0.3150E-03  0.4779E-03
      5.086  0.2877E-01  0.4319E-03  0.2196E-02  0.3009E-04  0.2196E-02  0.3009E-04  0.2196E-02  0.3009E-04  0.8692E-03  0.4441E-05  0.8692E-03  0.4441E-05  0.1264E-03  0.2099E-05  0.8692E-03  0.4441E-05  0.1264E-03  0.2099E-05
      5.270  0.1349E-01  0.4259E-01  0.1029E-02  0.3368E-02  0.1029E-02  0.3368E-02  0.1029E-02  0.3368E-02  0.4075E-03  0.8697E-03  0.4075E-03  0.8697E-03  0.5926E-04  0.1383E-03  0.4075E-03  0.8697E-03  0.5926E-04  0.1383E-03
      5.455  0.4349E-01  0.4014E-03  0.4326E-02  0.3225E-04  0.4326E-02  0.3225E-04  0.4326E-02  0.3225E-04  0.6084E-03  0.7860E-05  0.6084E-03  0.7860E-05  0.1894E-02  0.2072E-05  0.6084E-03  0.7860E-05  0.1894E-02  0.2072E-05
      5.640  0.3637E-01  0.7622E-01  0.3569E-02  0.7692E-02  0.3569E-02  0.7692E-02  0.3569E-02  0.7692E-02  0.9346E-03  0.9558E-03  0.9346E-03  0.9558E-03  0.8669E-03  0.1868E-02  0.9346E-03  0.9558E-03  0.8669E-03  0.1868E-02
      5.824  0.9823E-01  0.5428E-02  0.1072E-01  0.5475E-03  0.1072E-01  0.5475E-03  0.1072E-01  0.5475E-03  0.4530E-02  0.1292E-03  0.4530E-02  0.1292E-03  0.3584E-02  0.7055E-04  0.4530E-02  0.1292E-03  0.3584E-02  0.7055E-04
      6.009  0.1547E-01  0.1106E+00  0.1820E-02  0.1259E-01  0.1820E-02  0.1259E-01  0.1820E-02  0.1259E-01  0.6333E-03  0.3241E-02  0.6333E-03  0.3241E-02  0.7998E-03  0.2795E-02  0.6333E-03  0.3241E-02  0.7998E-03  0.2795E-02
      6.193  0.3879E-01  0.3913E-02  0.4392E-02  0.4762E-03  0.4392E-02  0.4762E-03  0.4392E-02  0.4762E-03  0.4341E-02  0.1063E-03  0.4341E-02  0.1063E-03  0.1287E-02  0.1344E-03  0.4341E-02  0.1063E-03  0.1287E-02  0.1344E-03
      6.378  0.1067E-01  0.3477E-01  0.1591E-02  0.4423E-02  0.1591E-02  0.4423E-02  0.1591E-02  0.4423E-02  0.8061E-03  0.1693E-02  0.8061E-03  0.1693E-02  0.9318E-03  0.1033E-02  0.8061E-03  0.1693E-02  0.9318E-03  0.1033E-02
      6.562  0.1382E+00  0.1241E-01  0.1923E-01  0.1445E-02  0.1923E-01  0.1445E-02  0.1923E-01  0.1445E-02  0.1872E-01  0.1500E-02  0.1872E-01  0.1500E-02  0.1265E-01  0.4958E-04  0.1872E-01  0.1500E-02  0.1265E-01  0.4958E-04
      6.747  0.5445E-01  0.7157E-01  0.6663E-02  0.1109E-01  0.6663E-02  0.1109E-01  0.6663E-02  0.1109E-01  0.1585E-01  0.3806E-02  0.1585E-01  0.3806E-02  0.4261E-01  0.2878E-02  0.1585E-01  0.3806E-02  0.4261E-01  0.2878E-02
      6.931  0.8963E-01  0.8444E-01  0.1179E-01  0.1264E-01  0.1179E-01  0.1264E-01  0.1179E-01  0.1264E-01  0.3472E-01  0.7844E-02  0.3472E-01  0.7844E-02  0.8629E-01  0.6531E-02  0.3472E-01  0.7844E-02  0.8629E-01  0.6531E-02
      7.116  0.8954E-01  0.3770E-01  0.1200E-01  0.6366E-02  0.1200E-01  0.6366E-02  0.1200E-01  0.6366E-02  0.5652E-01  0.4309E-02  0.5652E-01  0.4309E-02  0.9309E-01  0.5445E-02  0.5652E-01  0.4309E-02  0.9309E-01  0.5445E-02
      7.301  0.1180E+00  0.4355E-01  0.2245E-01  0.7325E-02  0.2245E-01  0.7325E-02  0.2245E-01  0.7325E-02  0.5005E-01  0.5178E-02  0.5005E-01  0.5178E-02  0.9063E-01  0.6173E-02  0.5005E-01  0.5178E-02  0.9063E-01  0.6173E-02
      7.485  0.6753E-01  0.5215E-01  0.1265E-01  0.8996E-02  0.1265E-01  0.8996E-02  0.1265E-01  0.8996E-02  0.9232E-01  0.1216E-01  0.9232E-01  0.1216E-01  0.8367E-01  0.5093E-02  0.9232E-01  0.1216E-01  0.8367E-01  0.5093E-02
      7.670  0.5878E-01  0.7246E-01  0.1688E-01  0.1251E-01  0.1688E-01  0.1251E-01  0.1688E-01  0.1251E-01  0.1227E+00  0.1881E-01  0.1227E+00  0.1881E-01  0.1607E+00  0.1916E-01  0.1227E+00  0.1881E-01  0.1607E+00  0.1916E-01
      7.854  0.5623E-01  0.1334E+00  0.1905E-01  0.2361E-01  0.1905E-01  0.2361E-01  0.1905E-01  0.2361E-01  0.1449E+00  0.4417E-01  0.1449E+00  0.4417E-01  0.8140E-01  0.6839E-01  0.1449E+00  0.4417E-01  0.8140E-01  0.6839E-01
      8.039  0.1552E-01  0.6346E-01  0.1423E-01  0.1011E-01  0.1423E-01  0.1011E-01  0.1423E-01  0.1011E-01  0.1341E+00  0.2991E-01  0.1341E+00  0.2991E-01  0.1256E+00  0.8168E-01  0.1341E+00  0.2991E-01  0.1256E+00  0.8168E-01
      8.223  0.2731E-01  0.6613E-01  0.2297E-01  0.1244E-01  0.2297E-01  0.1244E-01  0.2297E-01  0.1244E-01  0.1573E+00  0.3864E-01  0.1573E+00  0.3864E-01  0.7096E-01  0.5524E-01  0.1573E+00  0.3864E-01  0.7096E-01  0.5524E-01
      8.408  0.1024E-01  0.7159E-01  0.1759E-01  0.1835E-01  0.1759E-01  0.1835E-01  0.1759E-01  0.1835E-01  0.1449E+00  0.4463E-01  0.1449E+00  0.4463E-01  0.7600E-01  0.6093E-01  0.1449E+00  0.4463E-01  0.7600E-01  0.6093E-01
      8.592  0.7409E-02  0.7560E-01  0.2435E-01  0.2263E-01  0.2435E-01  0.2263E-01  0.2435E-01  0.2263E-01  0.1478E+00  0.6043E-01  0.1478E+00  0.6043E-01  0.8626E-01  0.1209E+00  0.1478E+00  0.6043E-01  0.8626E-01  0.1209E+00
      8.777  0.2176E-02  0.3066E-01  0.1398E-01  0.1030E-01  0.1398E-01  0.1030E-01  0.1398E-01  0.1030E-01  0.1003E+00  0.7296E-01  0.1003E+00  0.7296E-01  0.1163E+00  0.8795E-01  0.1003E+00  0.7296E-01  0.1163E+00  0.8795E-01
      8.961  0.4070E-02  0.4064E-01  0.1514E-01  0.1872E-01  0.1514E-01  0.1872E-01  0.1514E-01  0.1872E-01  0.1224E+00  0.1342E+00  0.1224E+00  0.1342E+00  0.6785E-01  0.6805E-01  0.1224E+00  0.1342E+00  0.6785E-01  0.6805E-01
      9.146  0.8873E-02  0.2119E-01  0.1660E-01  0.1975E-01  0.1660E-01  0.1975E-01  0.1660E-01  0.1975E-01  0.1266E+00  0.8421E-01  0.1266E+00  0.8421E-01  0.1107E+00  0.1049E+00  0.1266E+00  0.8421E-01  0.1107E+00  0.1049E+00
      9.331  0.1114E-01  0.2058E-01  0.2698E-01  0.2804E-01  0.2698E-01  0.2804E-01  0.2698E-01  0.2804E-01  0.2120E+00  0.1965E+00  0.2120E+00  0.1965E+00  0.8908E-01  0.6043E-01  0.2120E+00  0.1965E+00  0.8908E-01  0.6043E-01
      9.515  0.9665E-02  0.2993E-02  0.2219E-01  0.1435E-01  0.2219E-01  0.1435E-01  0.2219E-01  0.1435E-01  0.1852E+00  0.6691E-01  0.1852E+00  0.6691E-01  0.1081E+00  0.4269E-01  0.1852E+00  0.6691E-01  0.1081E+00  0.4269E-01
      9.700  0.2420E-01  0.6359E-02  0.3062E-01  0.2062E-01  0.3062E-01  0.2062E-01  0.3062E-01  0.2062E-01  0.2067E+00  0.1426E+00  0.2067E+00  0.1426E+00  0.1125E+00  0.8210E-01  0.2067E+00  0.1426E+00  0.1125E+00  0.8210E-01