    1    1  100    2
  0.1025749E+02  0.2438852E-09  0.2438852E-09  0.2438852E-09  0.5000000E-15
  1.000000000000000E-004
  CAR 
 Co-fcc                                  
      9     60     12
 
  0.6250000E-01  0.6250000E-01  0.6250000E-01  0.3906250E-02
      1          1.987666        2.006930   1.000000   1.000000
      2          8.324472        9.855457   1.000000   1.000000
      3          8.413399        9.961145   1.000000   1.000000
      4          8.413399        9.961145   1.000000   1.000000
      5          9.545635       11.409569   1.000000   0.000000
      6          9.545635       11.409569   1.000000   0.000000
      7         34.384695       34.167643   0.000000   0.000000
      8         37.660925       37.769269   0.000000   0.000000
      9         39.227781       39.403956   0.000000   0.000000
     10         39.227781       39.403956   0.000000   0.000000
     11         43.338273       43.607175   0.000000   0.000000
     12         43.338388       43.607642   0.000000   0.000000
 
  0.1875000E+00  0.6250000E-01  0.6250000E-01  0.1171875E-01
      1          2.821277        2.848315   1.000000   1.000000
      2          8.090037        9.558765   1.000000   1.000000
      3          8.586398       10.151699   1.000000   1.000000
      4          8.591034       10.159929   1.000000   1.000000
      5          9.374128       11.204350   1.000000   0.027594
      6          9.641935       11.494071   1.000000   0.000000
      7         31.752024       31.948838   0.000000   0.000000
      8         34.423887       34.494645   0.000000   0.000000
      9         38.022888       38.098344   0.000000   0.000000
     10         40.275499       40.454602   0.000000   0.000000
     11         42.047192       42.056460   0.000000   0.000000
     12         43.435244       43.676538   0.000000   0.000000
 
  0.3125000E+00  0.6250000E-01  0.6250000E-01  0.1171875E-01
      1          4.550984        4.683755   1.000000   1.000000
      2          7.967505        9.220002   1.000000   1.000000
      3          8.528036       10.130413   1.000000   1.000000
      4          8.609845       10.240965   1.000000   1.000000
      5          9.601222       11.377292   1.000000   0.000000
      6         10.076073       11.878885   1.000000   0.000000
      7         25.590246       26.049792   0.000000   0.000000
      8         33.278955       33.330756   0.000000   0.000000
      9         36.971699       37.076165   0.000000   0.000000
     10         39.963592       40.277300   0.000000   0.000000
     11         41.131329       41.404146   0.000000   0.000000
     12         42.046362       42.123003   0.000000   0.000000
 
  0.4375000E+00  0.6250000E-01  0.6250000E-01  0.1171875E-01
      1          5.672283        6.350080   1.000000   1.000000
      2          8.277147        9.717122   1.000000   1.000000
      3          8.386090        9.922237   1.000000   1.000000
      4          9.101432       10.017462   1.000000   1.000000
      5         10.206083       12.016061   1.000000   0.000000
      6         10.909019       12.530977   1.000000   0.000000
      7         20.128095       20.865841   0.000000   0.000000
      8         32.685449       32.619419   0.000000   0.000000
      9         35.771446       35.959916   0.000000   0.000000
     10         37.782128       38.108853   0.000000   0.000000
     11         40.246164       40.535251   0.000000   0.000000
     12         41.830604       42.043044   0.000000   0.000000
 
 -0.4375000E+00  0.6250000E-01  0.6250000E-01  0.1171875E-01
      1          5.786931        6.678756   1.000000   1.000000
      2          8.172644        9.739253   1.000000   1.000000
      3          8.328230        9.951670   1.000000   1.000000
      4          9.723654       10.450296   1.000000   1.000000
      5         10.515508       12.362632   1.000000   0.000000
      6         11.676474       12.819756   0.000000   0.000000
      7         17.948768       18.917979   0.000000   0.000000
      8         32.705337       32.536336   0.000000   0.000000
      9         35.845642       36.165099   0.000000   0.000000
     10         36.012895       36.297350   0.000000   0.000000
     11         41.098874       41.333717   0.000000   0.000000
     12         41.101568       41.373871   0.000000   0.000000
 
 -0.3125000E+00  0.6250000E-01  0.6250000E-01  0.1171875E-01
      1          5.465957        5.935144   1.000000   1.000000
      2          8.316918        9.388210   1.000000   1.000000
      3          8.483178        9.954202   1.000000   1.000000
      4          8.544202       10.109743   1.000000   1.000000
      5         10.290559       12.014130   1.000000   0.000000
      6         10.342804       12.128962   1.000000   0.000000
      7         21.780368       22.408668   0.000000   0.000000
      8         33.446774       33.277653   0.000000   0.000000
      9         35.293743       35.639291   0.000000   0.000000
     10         37.830616       38.171838   0.000000   0.000000
     11         40.877654       41.079215   0.000000   0.000000
     12         42.837333       43.051377   0.000000   0.000000
 
 -0.1875000E+00  0.6250000E-01  0.6250000E-01  0.1171875E-01
      1          3.934491        4.003182   1.000000   1.000000
      2          7.915516        9.273776   1.000000   1.000000
      3          8.597493       10.206412   1.000000   1.000000
      4          8.661172       10.264562   1.000000   1.000000
      5          9.524867       11.286401   1.000000   0.000011
      6          9.812245       11.651597   1.000000   0.000000
      7         27.637345       28.021848   0.000000   0.000000
      8         34.592700       34.468278   0.000000   0.000000
      9         35.847231       36.192604   0.000000   0.000000
     10         40.398344       40.496573   0.000000   0.000000
     11         40.729275       41.017580   0.000000   0.000000
     12         45.066991       45.175361   0.000000   0.000000
 
 -0.6250000E-01  0.6250000E-01  0.6250000E-01  0.1171875E-01
      1          2.411915        2.433881   1.000000   1.000000
      2          8.167061        9.667911   1.000000   1.000000
      3          8.532871       10.088918   1.000000   1.000000
      4          8.537614       10.094573   1.000000   1.000000
      5          9.396330       11.232040   1.000000   0.003461
      6          9.618146       11.487593   1.000000   0.000000
      7         33.473294       33.469871   0.000000   0.000000
      8         35.998201       36.021585   0.000000   0.000000
      9         37.234716       37.519256   0.000000   0.000000
     10         39.014976       39.107484   0.000000   0.000000
     11         43.250552       43.450446   0.000000   0.000000
     12         45.024312       45.139952   0.000000   0.000000
 
  0.1875000E+00  0.1875000E+00  0.6250000E-01  0.1171875E-01
      1          3.217935        3.252335   1.000000   1.000000
      2          7.863729        9.313236   1.000000   1.000000
      3          8.746849       10.331339   1.000000   1.000000
      4          8.779604       10.356588   1.000000   1.000000
      5          9.191964       10.952944   1.000000   1.000000
      6          9.753342       11.632566   1.000000   0.000000
      7         32.073830       32.277808   0.000000   0.000000
      8         34.503925       34.500477   0.000000   0.000000
      9         34.901063       35.231172   0.000000   0.000000
     10         37.016671       37.104672   0.000000   0.000000
     11         43.263371       43.940770   0.000000   0.000000
     12         45.574647       45.722716   0.000000   0.000000
 
  0.3125000E+00  0.1875000E+00  0.6250000E-01  0.2343750E-01
      1          4.615376        4.722405   1.000000   1.000000
      2          7.534051        8.899318   1.000000   1.000000
      3          8.512954       10.119607   1.000000   1.000000
      4          9.063101       10.691582   1.000000   1.000000
      5          9.481526       11.155569   1.000000   0.295405
      6         10.163231       11.984672   1.000000   0.000000
      7         28.198237       28.566816   0.000000   0.000000
      8         30.843709       31.100853   0.000000   0.000000
      9         34.671082       34.824672   0.000000   0.000000
     10         36.753907       36.912033   0.000000   0.000000
     11         42.038879       42.603476   0.000000   0.000000
     12         45.288406       45.366999   0.000000   0.000000
 
  0.4375000E+00  0.1875000E+00  0.6250000E-01  0.2343750E-01
      1          5.997236        6.529033   1.000000   1.000000
      2          7.666487        8.813592   1.000000   1.000000
      3          8.177969        9.660878   1.000000   1.000000
      4          8.893574       10.551083   1.000000   1.000000
      5         10.252509       12.023800   1.000000   0.000000
      6         11.431077       12.914817   0.000000   0.000000
      7         22.287912       22.858770   0.000000   0.000000
      8         30.180066       30.408317   0.000000   0.000000
      9         32.315921       32.599042   0.000000   0.000000
     10         36.449749       36.663894   0.000000   0.000000
     11         43.295139       43.438449   0.000000   0.000000
     12         45.887204       46.205589   0.000000   0.000000
 
 -0.4375000E+00  0.1875000E+00  0.6250000E-01  0.2343750E-01
      1          6.290460        7.250322   1.000000   1.000000
      2          7.704154        9.008108   1.000000   1.000000
      3          8.647358        9.796207   1.000000   1.000000
      4          8.726780       10.375801   1.000000   1.000000
      5         10.474019       12.303201   1.000000   0.000000
      6         13.637105       14.546553   0.000000   0.000000
      7         18.124894       19.009576   0.000000   0.000000
      8         29.550208       29.768969   0.000000   0.000000
      9         31.635076       31.977872   0.000000   0.000000
     10         36.180060       36.307511   0.000000   0.000000
     11         42.442220       42.670259   0.000000   0.000000
     12         46.138741       46.264820   0.000000   0.000000
 
 -0.3125000E+00  0.1875000E+00  0.6250000E-01  0.2343750E-01
      1          6.233135        6.959599   1.000000   1.000000
      2          7.865640        9.073502   1.000000   1.000000
      3          8.248126        9.543373   1.000000   1.000000
      4          8.771893       10.432610   1.000000   1.000000
      5         10.122054       11.891761   1.000000   0.000000
      6         12.320542       13.654118   0.000000   0.000000
      7         20.592154       21.263703   0.000000   0.000000
      8         28.773071       29.065206   0.000000   0.000000
      9         33.170704       33.409191   0.000000   0.000000
     10         37.323545       37.464307   0.000000   0.000000
     11         41.782066       41.995039   0.000000   0.000000
     12         45.519058       45.657384   0.000000   0.000000
 
 -0.1875000E+00  0.1875000E+00  0.6250000E-01  0.2343750E-01
      1          5.214044        5.377633   1.000000   1.000000
      2          7.616055        8.935303   1.000000   1.000000
      3          8.320548        9.892512   1.000000   1.000000
      4          8.992737       10.666390   1.000000   1.000000
      5          9.405897       11.106879   1.000000   0.799404
      6         10.702572       12.435833   1.000000   0.000000
      7         26.163491       26.603352   0.000000   0.000000
      8         28.944616       29.255063   0.000000   0.000000
      9         35.710326       35.850218   0.000000   0.000000
     10         39.297525       39.403563   0.000000   0.000000
     11         41.212258       41.352311   0.000000   0.000000
     12         44.451275       44.774505   0.000000   0.000000
 
 -0.6250000E-01  0.1875000E+00  0.6250000E-01  0.2343750E-01
      1          3.596281        3.641366   1.000000   1.000000
      2          7.861271        9.281917   1.000000   1.000000
      3          8.635682       10.226221   1.000000   1.000000
      4          8.782932       10.374517   1.000000   1.000000
      5          9.276882       11.047353   1.000000   0.994184
      6          9.847207       11.690863   1.000000   0.000000
      7         29.918308       30.223749   0.000000   0.000000
      8         32.591345       32.765537   0.000000   0.000000
      9         37.085523       37.173647   0.000000   0.000000
     10         38.921655       38.979887   0.000000   0.000000
     11         42.739094       42.972627   0.000000   0.000000
     12         44.188944       44.445903   0.000000   0.000000
 
  0.3125000E+00  0.3125000E+00  0.6250000E-01  0.1171875E-01
      1          5.283896        5.572102   1.000000   1.000000
      2          7.078206        8.407411   1.000000   1.000000
      3          8.867275       10.280650   1.000000   1.000000
      4          9.528292       11.190895   1.000000   0.062165
      5          9.890561       11.467792   1.000000   0.000000
      6         10.136651       12.033664   1.000000   0.000000
      7         28.783980       29.103000   0.000000   0.000000
      8         30.530726       30.783430   0.000000   0.000000
      9         30.557426       30.864792   0.000000   0.000000
     10         33.455771       33.706674   0.000000   0.000000
     11         38.544063       39.086044   0.000000   0.000000
     12         48.070408       50.782863   0.000000   0.000000
 
  0.4375000E+00  0.3125000E+00  0.6250000E-01  0.2343750E-01
      1          6.008492        6.729864   1.000000   1.000000
      2          6.855009        8.123467   1.000000   1.000000
      3          8.799185       10.061117   1.000000   1.000000
      4          9.797887       11.527629   1.000000   0.000000
      5         10.305219       12.087916   1.000000   0.000000
      6         11.698248       13.031008   0.000000   0.000000
      7         25.288160       25.684259   0.000000   0.000000
      8         27.266213       27.642565   0.000000   0.000000
      9         28.373637       28.724624   0.000000   0.000000
     10         34.752103       34.997572   0.000000   0.000000
     11         39.611040       40.035077   0.000000   0.000000
     12         47.919227       49.385462   0.000000   0.000000
 
 -0.4375000E+00  0.3125000E+00  0.6250000E-01  0.2343750E-01
      1          6.507288        7.620029   1.000000   1.000000
      2          7.003244        8.167071   1.000000   1.000000
      3          8.467243        9.695208   1.000000   1.000000
      4          9.492176       11.247669   1.000000   0.000837
      5         10.542887       12.356468   1.000000   0.000000
      6         14.985777       15.844152   0.000000   0.000000
      7         20.071841       20.650490   0.000000   0.000000
      8         25.085243       25.576723   0.000000   0.000000
      9         28.531318       28.857021   0.000000   0.000000
     10         35.223354       35.440729   0.000000   0.000000
     11         44.500319       44.826274   0.000000   0.000000
     12         47.026111       47.629292   0.000000   0.000000
 
 -0.3125000E+00  0.3125000E+00  0.6250000E-01  0.2343750E-01
      1          7.031114        8.037287   1.000000   1.000000
      2          7.187724        8.434964   1.000000   1.000000
      3          7.972063        9.197649   1.000000   1.000000
      4          9.276183       11.039964   1.000000   0.996854
      5         10.195221       11.937353   1.000000   0.000000
      6         15.323879       16.222481   0.000000   0.000000
      7         19.909637       20.535024   0.000000   0.000000
      8         23.750383       24.266459   0.000000   0.000000
      9         30.309168       30.639970   0.000000   0.000000
     10         36.099214       36.261905   0.000000   0.000000
     11         45.008138       45.091025   0.000000   0.000000
     12         47.675693       49.997973   0.000000   0.000000
 
 -0.1875000E+00  0.3125000E+00  0.6250000E-01  0.2343750E-01
      1          6.556708        7.090003   1.000000   1.000000
      2          7.633874        8.845662   1.000000   1.000000
      3          7.803281        9.275987   1.000000   1.000000
      4          9.082248       10.803603   1.000000   1.000000
      5          9.785570       11.489304   1.000000   0.000000
      6         12.437912       13.834806   0.000000   0.000000
      7         22.825201       23.376161   0.000000   0.000000
      8         25.898992       26.303784   0.000000   0.000000
      9         32.928953       33.185829   0.000000   0.000000
     10         37.904610       38.057332   0.000000   0.000000
     11         42.181720       42.258132   0.000000   0.000000
     12         46.994763       47.172383   0.000000   0.000000
 
 -0.6250000E-01  0.3125000E+00  0.6250000E-01  0.2343750E-01
      1          5.309304        5.584124   1.000000   1.000000
      2          7.920313        9.074907   1.000000   1.000000
      3          8.339020        9.935235   1.000000   1.000000
      4          8.681901       10.322648   1.000000   1.000000
      5          9.851964       11.586847   1.000000   0.000000
      6         10.558067       12.296258   1.000000   0.000000
      7         23.809274       24.334546   0.000000   0.000000
      8         31.700272       31.863021   0.000000   0.000000
      9         35.334857       35.458752   0.000000   0.000000
     10         38.197602       38.480767   0.000000   0.000000
     11         41.855450       42.037621   0.000000   0.000000
     12         43.464764       43.632935   0.000000   0.000000
 
  0.4375000E+00  0.4375000E+00  0.6250000E-01  0.1171875E-01
      1          5.749235        6.738821   1.000000   1.000000
      2          6.456353        7.701382   1.000000   1.000000
      3         10.159017       11.496404   1.000000   0.000000
      4         10.223467       12.076727   1.000000   0.000000
      5         10.568510       12.407088   1.000000   0.000000
      6         12.336907       13.120827   0.000000   0.000000
      7         23.978858       24.587189   0.000000   0.000000
      8         26.392274       26.664627   0.000000   0.000000
      9         27.580880       27.794719   0.000000   0.000000
     10         32.607258       32.976542   0.000000   0.000000
     11         37.012269       37.461913   0.000000   0.000000
     12         48.136993       51.664829   0.000000   0.000000
 
 -0.4375000E+00  0.4375000E+00  0.6250000E-01  0.2343750E-01
      1          5.898262        7.016907   1.000000   1.000000
      2          6.484644        7.706079   1.000000   1.000000
      3          9.702208       11.029632   1.000000   0.998754
      4         10.167504       12.060003   1.000000   0.000000
      5         10.718876       12.512291   1.000000   0.000000
      6         14.968316       15.507227   0.000000   0.000000
      7         21.800032       22.569443   0.000000   0.000000
      8         23.916116       24.261589   0.000000   0.000000
      9         26.424859       26.681389   0.000000   0.000000
     10         34.114700       34.416295   0.000000   0.000000
     11         38.920467       39.334759   0.000000   0.000000
     12         48.169698       51.641919   0.000000   0.000000
 
 -0.3125000E+00  0.4375000E+00  0.6250000E-01  0.2343750E-01
      1          6.446772        7.650450   1.000000   1.000000
      2          6.902952        8.056950   1.000000   1.000000
      3          8.652911        9.882296   1.000000   1.000000
      4          9.689164       11.508385   1.000000   0.000000
      5         10.528317       12.304762   1.000000   0.000000
      6         17.079461       17.713605   0.000000   0.000000
      7         19.366022       19.936176   0.000000   0.000000
      8         22.590148       23.231353   0.000000   0.000000
      9         28.031828       28.349783   0.000000   0.000000
     10         35.061177       35.295187   0.000000   0.000000
     11         44.488203       44.911562   0.000000   0.000000
     12         47.990405       48.548076   0.000000   0.000000
 
 -0.1875000E+00  0.4375000E+00  0.6250000E-01  0.2343750E-01
      1          6.686569        7.712187   1.000000   1.000000
      2          7.374313        8.600764   1.000000   1.000000
      3          8.296859        9.505180   1.000000   1.000000
      4          9.010802       10.718611   1.000000   1.000000
      5         10.364346       12.160616   1.000000   0.000000
      6         14.941859       15.780093   0.000000   0.000000
      7         18.361767       19.169321   0.000000   0.000000
      8         26.536646       26.928125   0.000000   0.000000
      9         30.692448       31.016032   0.000000   0.000000
     10         36.099745       36.239872   0.000000   0.000000
     11         43.773239       43.941984   0.000000   0.000000
     12         47.703272       48.437151   0.000000   0.000000
 
 -0.6250000E-01  0.4375000E+00  0.6250000E-01  0.2343750E-01
      1          5.944401        6.789170   1.000000   1.000000
      2          8.047214        9.475908   1.000000   1.000000
      3          8.480512        9.950464   1.000000   1.000000
      4          9.009176       10.126078   1.000000   1.000000
      5         10.412296       12.233397   1.000000   0.000000
      6         12.044493       13.259148   0.000000   0.000000
      7         18.874402       19.708322   0.000000   0.000000
      8         31.496353       31.550371   0.000000   0.000000
      9         33.919056       34.207421   0.000000   0.000000
     10         36.529224       36.726836   0.000000   0.000000
     11         41.361578       41.624654   0.000000   0.000000
     12         43.532035       43.708100   0.000000   0.000000
 
 -0.4375000E+00 -0.4375000E+00  0.6250000E-01  0.1171875E-01
      1          5.672006        6.765677   1.000000   1.000000
      2          6.315830        7.542976   1.000000   1.000000
      3         10.355107       12.007444   1.000000   0.000000
      4         10.474764       12.289582   1.000000   0.000000
      5         10.732595       12.531608   1.000000   0.000000
      6         13.891577       14.222683   0.000000   0.000000
      7         21.736651       22.550366   0.000000   0.000000
      8         25.763713       25.997449   0.000000   0.000000
      9         26.913700       27.093770   0.000000   0.000000
     10         32.475374       32.871299   0.000000   0.000000
     11         36.826252       37.272651   0.000000   0.000000
     12         48.193245       51.732646   0.000000   0.000000
 
 -0.3125000E+00 -0.4375000E+00  0.6250000E-01  0.2343750E-01
      1          5.989322        7.007654   1.000000   1.000000
      2          6.612628        7.850142   1.000000   1.000000
      3          9.337591       10.592311   1.000000   1.000000
      4         10.080593       11.898020   1.000000   0.000000
      5         10.556199       12.359674   1.000000   0.000000
      6         13.334758       14.227938   0.000000   0.000000
      7         23.905894       24.399993   0.000000   0.000000
      8         24.709950       25.161527   0.000000   0.000000
      9         27.025331       27.309120   0.000000   0.000000
     10         34.315269       34.596580   0.000000   0.000000
     11         39.120507       39.533234   0.000000   0.000000
     12         48.094763       50.955939   0.000000   0.000000
 
 -0.1875000E+00 -0.4375000E+00  0.6250000E-01  0.2343750E-01
      1          6.412171        7.272614   1.000000   1.000000
      2          7.281665        8.462224   1.000000   1.000000
      3          8.248500        9.555150   1.000000   1.000000
      4          9.191238       10.886498   1.000000   1.000000
      5         10.478805       12.302667   1.000000   0.000000
      6         12.958579       14.099754   0.000000   0.000000
      7         21.032398       21.620236   0.000000   0.000000
      8         28.133763       28.458948   0.000000   0.000000
      9         29.660210       30.015105   0.000000   0.000000
     10         35.622902       35.821959   0.000000   0.000000
     11         44.233874       44.404467   0.000000   0.000000
     12         46.234872       46.922114   0.000000   0.000000
 
 -0.3125000E+00 -0.3125000E+00  0.6250000E-01  0.1171875E-01
      1          5.744086        6.439423   1.000000   1.000000
      2          6.721232        8.001061   1.000000   1.000000
      3          9.519170       10.673634   1.000000   1.000000
      4          9.930684       11.672030   1.000000   0.000000
      5         10.349200       12.152378   1.000000   0.000000
      6         10.789960       12.235105   1.000000   0.000000
      7         26.885868       27.266883   0.000000   0.000000
      8         27.718120       28.075005   0.000000   0.000000
      9         28.835766       29.098789   0.000000   0.000000
     10         32.899286       33.217203   0.000000   0.000000
     11         37.505537       37.978011   0.000000   0.000000
     12         48.135981       51.627302   0.000000   0.000000
 
 -0.1875000E+00 -0.3125000E+00  0.6250000E-01  0.2343750E-01
      1          5.573817        5.885345   1.000000   1.000000
      2          7.179129        8.491011   1.000000   1.000000
      3          8.445799        9.922398   1.000000   1.000000
      4          9.416492       11.086861   1.000000   0.920090
      5          9.930883       11.613219   1.000000   0.000000
      6         10.667773       12.362737   1.000000   0.000000
      7         26.641224       27.038339   0.000000   0.000000
      8         29.177006       29.475277   0.000000   0.000000
      9         31.345360       31.637516   0.000000   0.000000
     10         35.506429       35.710386   0.000000   0.000000
     11         40.539740       41.009601   0.000000   0.000000
     12         47.171906       47.488585   0.000000   0.000000
 
 -0.1875000E+00 -0.1875000E+00  0.6250000E-01  0.1171875E-01
      1          4.282935        4.370455   1.000000   1.000000
      2          7.479103        8.867603   1.000000   1.000000
      3          8.757179       10.382971   1.000000   1.000000
      4          9.121705       10.732352   1.000000   1.000000
      5          9.351971       10.972208   1.000000   0.999998
      6          9.933361       11.823717   1.000000   0.000000
      7         30.448307       30.748076   0.000000   0.000000
      8         32.621522       32.954643   0.000000   0.000000
      9         33.055922       33.120889   0.000000   0.000000
     10         34.752716       34.929067   0.000000   0.000000
     11         40.454382       41.104958   0.000000   0.000000
     12         48.004005       48.058347   0.000000   0.000000
 
  0.1875000E+00  0.1875000E+00  0.1875000E+00  0.3906250E-02
      1          3.208311        3.245702   1.000000   1.000000
      2          8.059450        9.480910   1.000000   1.000000
      3          8.595399       10.178769   1.000000   1.000000
      4          8.595399       10.178769   1.000000   1.000000
      5          9.545714       11.376361   1.000000   0.000000
      6          9.545714       11.376361   1.000000   0.000000
      7         29.626543       29.932945   0.000000   0.000000
      8         35.544663       35.337818   0.000000   0.000000
      9         38.227813       38.533026   0.000000   0.000000
     10         38.227813       38.533026   0.000000   0.000000
     11         43.643713       43.578829   0.000000   0.000000
     12         44.144693       44.274495   0.000000   0.000000
 
  0.3125000E+00  0.1875000E+00  0.1875000E+00  0.1171875E-01
      1          4.303576        4.380843   1.000000   1.000000
      2          7.790306        9.162221   1.000000   1.000000
      3          8.536435       10.115592   1.000000   1.000000
      4          8.850428       10.479344   1.000000   1.000000
      5          9.228365       10.992725   1.000000   0.999976
      6         10.189024       11.985857   1.000000   0.000000
      7         27.929995       28.310414   0.000000   0.000000
      8         30.660112       30.909617   0.000000   0.000000
      9         38.358307       38.346453   0.000000   0.000000
     10         40.354939       40.333519   0.000000   0.000000
     11         40.620374       40.807958   0.000000   0.000000
     12         42.851145       43.219498   0.000000   0.000000
 
  0.4375000E+00  0.1875000E+00  0.1875000E+00  0.1171875E-01
      1          5.929418        6.226164   1.000000   1.000000
      2          7.670589        8.930374   1.000000   1.000000
      3          8.129490        9.647055   1.000000   1.000000
      4          8.918405       10.640927   1.000000   1.000000
      5          9.493053       11.183678   1.000000   0.091315
      6         11.422598       13.040968   0.000000   0.000000
      7         24.373497       24.878317   0.000000   0.000000
      8         27.277571       27.639311   0.000000   0.000000
      9         36.377461       36.393784   0.000000   0.000000
     10         37.171187       37.512427   0.000000   0.000000
     11         42.341811       42.302557   0.000000   0.000000
     12         44.373488       44.619953   0.000000   0.000000
 
 -0.4375000E+00  0.1875000E+00  0.1875000E+00  0.1171875E-01
      1          6.451985        7.348809   1.000000   1.000000
      2          7.695764        8.987187   1.000000   1.000000
      3          8.399528        9.552492   1.000000   1.000000
      4          8.790751       10.477887   1.000000   1.000000
      5         10.190275       11.973664   1.000000   0.000000
      6         13.492858       14.574485   0.000000   0.000000
      7         19.244236       20.004424   0.000000   0.000000
      8         27.512589       27.857597   0.000000   0.000000
      9         33.983996       34.327619   0.000000   0.000000
     10         34.730080       34.801072   0.000000   0.000000