    1    1  100    2
  0.9257385E+01  0.2356864E-09  0.2356864E-09  0.2356864E-09  0.5000000E-15
  1.000000000000000E-004
  CAR 
 Co-fcc                                  
      9     60     12
 
  0.6250000E-01  0.6250000E-01  0.6250000E-01  0.3906250E-02
      1          2.988767        3.050067   1.000000   1.000000
      2          9.735696       11.250133   1.000000   1.000000
      3          9.840805       11.372810   1.000000   1.000000
      4          9.840805       11.372810   1.000000   1.000000
      5         11.189322       13.037582   1.000000   0.000000
      6         11.189322       13.037582   1.000000   0.000000
      7         36.939523       36.764901   0.000000   0.000000
      8         40.863860       41.000417   0.000000   0.000000
      9         42.565585       42.759671   0.000000   0.000000
     10         42.565585       42.759671   0.000000   0.000000
     11         47.187237       47.466590   0.000000   0.000000
     12         47.205944       47.515009   0.000000   0.000000
 
  0.1875000E+00  0.6250000E-01  0.6250000E-01  0.1171875E-01
      1          3.887938        3.958397   1.000000   1.000000
      2          9.457169       10.906401   1.000000   1.000000
      3         10.043404       11.592285   1.000000   1.000000
      4         10.047890       11.601292   1.000000   1.000000
      5         10.983006       12.795478   1.000000   0.036914
      6         11.298944       13.135381   1.000000   0.000000
      7         34.698628       34.919871   0.000000   0.000000
      8         37.399765       37.480593   0.000000   0.000000
      9         41.224223       41.373106   0.000000   0.000000
     10         43.674934       43.876346   0.000000   0.000000
     11         45.534550       45.622000   0.000000   0.000000
     12         47.236741       47.545152   0.000000   0.000000
 
  0.3125000E+00  0.6250000E-01  0.6250000E-01  0.1171875E-01
      1          5.706546        5.894258   1.000000   1.000000
      2          9.319478       10.541490   1.000000   1.000000
      3          9.976943       11.559916   1.000000   1.000000
      4         10.074105       11.686919   1.000000   1.000000
      5         11.240032       13.000557   1.000000   0.000000
      6         11.800029       13.588651   1.000000   0.000000
      7         28.448126       28.955973   0.000000   0.000000
      8         36.142732       36.192682   0.000000   0.000000
      9         40.219546       40.424492   0.000000   0.000000
     10         43.614518       43.940769   0.000000   0.000000
     11         44.854806       45.193884   0.000000   0.000000
     12         45.513416       45.649749   0.000000   0.000000
 
  0.4375000E+00  0.6250000E-01  0.6250000E-01  0.1171875E-01
      1          6.773926        7.489182   1.000000   1.000000
      2          9.682878       11.159328   1.000000   1.000000
      3          9.813006       11.353780   1.000000   1.000000
      4         10.606572       11.423645   1.000000   1.000000
      5         11.949308       13.747993   1.000000   0.000000
      6         12.727058       14.348977   0.558649   0.000000
      7         22.798770       23.585552   0.000000   0.000000
      8         35.346841       35.290597   0.000000   0.000000
      9         39.101252       39.374324   0.000000   0.000000
     10         41.417775       41.776175   0.000000   0.000000
     11         43.878620       44.219821   0.000000   0.000000
     12         45.443229       45.714140   0.000000   0.000000
 
 -0.4375000E+00  0.6250000E-01  0.6250000E-01  0.1171875E-01
      1          6.862184        7.757300   1.000000   1.000000
      2          9.559946       11.105430   1.000000   1.000000
      3          9.745239       11.347612   1.000000   1.000000
      4         11.314396       12.019433   1.000000   1.000000
      5         12.315476       14.153537   1.000000   0.000000
      6         13.461102       14.666011   0.000000   0.000000
      7         20.581006       21.579550   0.000000   0.000000
      8         35.229313       35.100514   0.000000   0.000000
      9         39.342264       39.699646   0.000000   0.000000
     10         39.502110       39.830999   0.000000   0.000000
     11         44.715191       45.010180   0.000000   0.000000
     12         44.774600       45.092592   0.000000   0.000000
 
 -0.3125000E+00  0.6250000E-01  0.6250000E-01  0.1171875E-01
      1          6.591931        7.119877   1.000000   1.000000
      2          9.727726       10.793259   1.000000   1.000000
      3          9.926797       11.352715   1.000000   1.000000
      4          9.989787       11.533687   1.000000   1.000000
      5         12.051853       13.748937   1.000000   0.000000
      6         12.091055       13.879391   1.000000   0.000000
      7         24.504059       25.183971   0.000000   0.000000
      8         36.016027       35.896687   0.000000   0.000000
      9         38.770687       39.159218   0.000000   0.000000
     10         41.508253       41.879287   0.000000   0.000000
     11         44.416355       44.682008   0.000000   0.000000
     12         46.527003       46.780722   0.000000   0.000000
 
 -0.1875000E+00  0.6250000E-01  0.6250000E-01  0.1171875E-01
      1          5.069299        5.186545   1.000000   1.000000
      2          9.253778       10.587340   1.000000   1.000000
      3         10.057797       11.648441   1.000000   1.000000
      4         10.133208       11.719638   1.000000   1.000000
      5         11.152306       12.896157   1.000000   0.000002
      6         11.494419       13.319409   1.000000   0.000000
      7         30.558023       30.986856   0.000000   0.000000
      8         37.294307       37.212230   0.000000   0.000000
      9         39.324809       39.710450   0.000000   0.000000
     10         43.755802       43.883350   0.000000   0.000000
     11         44.474374       44.827308   0.000000   0.000000
     12         48.695751       48.852200   0.000000   0.000000
 
 -0.6250000E-01  0.6250000E-01  0.6250000E-01  0.1171875E-01
      1          3.447397        3.512003   1.000000   1.000000
      2          9.548566       11.031214   1.000000   1.000000
      3          9.980235       11.520618   1.000000   1.000000
      4          9.986005       11.527376   1.000000   1.000000
      5         11.010564       12.828720   1.000000   0.003187
      6         11.274018       13.128109   1.000000   0.000000
      7         36.249100       36.259279   0.000000   0.000000
      8         39.010667       39.081302   0.000000   0.000000
      9         40.669530       40.981114   0.000000   0.000000
     10         42.263593       42.403811   0.000000   0.000000
     11         47.024841       47.272153   0.000000   0.000000
     12         48.669290       48.846330   0.000000   0.000000
 
  0.1875000E+00  0.1875000E+00  0.6250000E-01  0.1171875E-01
      1          4.312379        4.391221   1.000000   1.000000
      2          9.189860       10.618852   1.000000   1.000000
      3         10.230905       11.799395   1.000000   1.000000
      4         10.268801       11.830464   1.000000   1.000000
      5         10.765392       12.505241   1.000000   1.000000
      6         11.431828       13.296263   1.000000   0.000000
      7         35.048557       35.277416   0.000000   0.000000
      8         37.365900       37.403691   0.000000   0.000000
      9         38.287114       38.655429   0.000000   0.000000
     10         40.179448       40.334789   0.000000   0.000000
     11         47.475281       48.366419   0.000000   0.000000
     12         49.118155       49.603202   0.000000   0.000000
 
  0.3125000E+00  0.1875000E+00  0.6250000E-01  0.2343750E-01
      1          5.786626        5.944316   1.000000   1.000000
      2          8.804148       10.146889   1.000000   1.000000
      3          9.959292       11.542216   1.000000   1.000000
      4         10.603048       12.215310   1.000000   1.000000
      5         11.098739       12.752950   1.000000   0.279349
      6         11.904839       13.712200   1.000000   0.000000
      7         31.141319       31.554192   0.000000   0.000000
      8         33.831966       34.119523   0.000000   0.000000
      9         37.797469       38.015670   0.000000   0.000000
     10         40.007275       40.202966   0.000000   0.000000
     11         46.238321       46.957946   0.000000   0.000000
     12         48.792209       49.034673   0.000000   0.000000
 
  0.4375000E+00  0.1875000E+00  0.6250000E-01  0.2343750E-01
      1          7.163252        7.750139   1.000000   1.000000
      2          8.966639       10.091490   1.000000   1.000000
      3          9.572106       11.020975   1.000000   1.000000
      4         10.407332       12.045125   1.000000   1.000000
      5         12.001939       13.758918   1.000000   0.000000
      6         13.321982       14.799289   0.000000   0.000000
      7         25.007939       25.631514   0.000000   0.000000
      8         33.055583       33.314027   0.000000   0.000000
      9         35.522375       35.854772   0.000000   0.000000
     10         39.827551       40.090001   0.000000   0.000000
     11         46.943494       47.148033   0.000000   0.000000
     12         48.980454       50.144399   0.000000   0.000000
 
 -0.4375000E+00  0.1875000E+00  0.6250000E-01  0.2343750E-01
      1          7.424005        8.383512   1.000000   1.000000
      2          9.001115       10.292278   1.000000   1.000000
      3         10.104856       11.230669   1.000000   1.000000
      4         10.208560       11.838194   1.000000   1.000000
      5         12.264891       14.084803   1.000000   0.000000
      6         15.624983       16.582268   0.000000   0.000000
      7         20.726625       21.645623   0.000000   0.000000
      8         32.352656       32.604776   0.000000   0.000000
      9         34.915755       35.302124   0.000000   0.000000
     10         39.431203       39.611926   0.000000   0.000000
     11         46.101148       46.404569   0.000000   0.000000
     12         49.300260       50.078249   0.000000   0.000000
 
 -0.3125000E+00  0.1875000E+00  0.6250000E-01  0.2343750E-01
      1          7.394745        8.155584   1.000000   1.000000
      2          9.190172       10.398525   1.000000   1.000000
      3          9.650465       10.898434   1.000000   1.000000
      4         10.264366       11.903684   1.000000   1.000000
      5         11.846751       13.604031   1.000000   0.000000
      6         14.295764       15.638225   0.000000   0.000000
      7         23.253113       23.976497   0.000000   0.000000
      8         31.658448       31.984903   0.000000   0.000000
      9         36.374631       36.651441   0.000000   0.000000
     10         40.661122       40.860921   0.000000   0.000000
     11         45.387438       45.660411   0.000000   0.000000
     12         49.114187       49.446405   0.000000   0.000000
 
 -0.1875000E+00  0.1875000E+00  0.6250000E-01  0.2343750E-01
      1          6.416121        6.631318   1.000000   1.000000
      2          8.903831       10.199656   1.000000   1.000000
      3          9.729048       11.277288   1.000000   1.000000
      4         10.523938       12.178868   1.000000   1.000000
      5         11.006021       12.689954   1.000000   0.884348
      6         12.525759       14.245099   1.000000   0.000000
      7         29.039805       29.528767   0.000000   0.000000
      8         31.880342       32.228732   0.000000   0.000000
      9         38.922439       39.108918   0.000000   0.000000
     10         42.636790       42.774395   0.000000   0.000000
     11         44.751193       44.943656   0.000000   0.000000
     12         48.288216       48.743422   0.000000   0.000000
 
 -0.6250000E-01  0.1875000E+00  0.6250000E-01  0.2343750E-01
      1          4.716146        4.806706   1.000000   1.000000
      2          9.187621       10.587100   1.000000   1.000000
      3         10.101795       11.674357   1.000000   1.000000
      4         10.272838       11.848867   1.000000   1.000000
      5         10.864350       12.615201   1.000000   0.999536
      6         11.537736       13.366546   1.000000   0.000000
      7         32.893777       33.237789   0.000000   0.000000
      8         35.587866       35.775501   0.000000   0.000000
      9         40.265871       40.421907   0.000000   0.000000
     10         42.168440       42.283193   0.000000   0.000000
     11         46.435715       46.662838   0.000000   0.000000
     12         48.050354       48.368318   0.000000   0.000000
 
  0.3125000E+00  0.3125000E+00  0.6250000E-01  0.1171875E-01
      1          6.432615        6.783146   1.000000   1.000000
      2          8.269432        9.575248   1.000000   1.000000
      3         10.389029       11.763564   1.000000   1.000000
      4         11.147068       12.795503   1.000000   0.036859
      5         11.569057       13.125776   1.000000   0.000000
      6         11.879470       13.763928   1.000000   0.000000
      7         31.712777       32.073568   0.000000   0.000000
      8         33.439679       33.747328   0.000000   0.000000
      9         33.673396       34.027039   0.000000   0.000000
     10         36.574187       36.874402   0.000000   0.000000
     11         42.684473       43.331635   0.000000   0.000000
     12         49.725695       53.137305   0.000000   0.000000
 
  0.4375000E+00  0.3125000E+00  0.6250000E-01  0.2343750E-01
      1          7.117987        7.876900   1.000000   1.000000
      2          8.013659        9.259416   1.000000   1.000000
      3         10.302032       11.538444   1.000000   1.000000
      4         11.468781       13.181498   1.000000   0.000000
      5         12.065494       13.834652   1.000000   0.000000
      6         13.608963       14.938854   0.000000   0.000000
      7         28.063068       28.511640   0.000000   0.000000
      8         30.093439       30.521717   0.000000   0.000000
      9         31.452162       31.844341   0.000000   0.000000
     10         37.972155       38.267846   0.000000   0.000000
     11         43.583105       44.116514   0.000000   0.000000
     12         49.697737       52.735611   0.000000   0.000000
 
 -0.4375000E+00  0.3125000E+00  0.6250000E-01  0.2343750E-01
      1          7.627906        8.730721   1.000000   1.000000
      2          8.195965        9.341170   1.000000   1.000000
      3          9.906251       11.115880   1.000000   1.000000
      4         11.111078       12.847439   1.000000   0.000562
      5         12.343508       14.148722   1.000000   0.000000
      6         17.148306       18.044379   0.000000   0.000000
      7         22.623982       23.253683   0.000000   0.000000
      8         27.913432       28.453407   0.000000   0.000000
      9         31.560333       31.933054   0.000000   0.000000
     10         38.497808       38.762350   0.000000   0.000000
     11         48.172080       48.840865   0.000000   0.000000
     12         49.590969       51.367785   0.000000   0.000000
 
 -0.3125000E+00  0.3125000E+00  0.6250000E-01  0.2343750E-01
      1          8.245402        9.279447   1.000000   1.000000
      2          8.412236        9.603751   1.000000   1.000000
      3          9.325015       10.532204   1.000000   1.000000
      4         10.858609       12.601279   1.000000   0.999894
      5         11.929113       13.661489   1.000000   0.000000
      6         17.532438       18.470249   0.000000   0.000000
      7         22.461035       23.141526   0.000000   0.000000
      8         26.541522       27.105240   0.000000   0.000000
      9         33.436308       33.811722   0.000000   0.000000
     10         39.373701       39.583254   0.000000   0.000000
     11         48.567713       48.741528   0.000000   0.000000
     12         49.286580       52.656134   0.000000   0.000000
 
 -0.1875000E+00  0.3125000E+00  0.6250000E-01  0.2343750E-01
      1          7.792274        8.367477   1.000000   1.000000
      2          8.929887       10.117307   1.000000   1.000000
      3          9.119910       10.563434   1.000000   1.000000
      4         10.630530       12.330011   1.000000   1.000000
      5         11.447332       13.138427   1.000000   0.000000
      6         14.456816       15.856898   0.000000   0.000000
      7         25.556673       26.163282   0.000000   0.000000
      8         28.739055       29.189844   0.000000   0.000000
      9         36.128082       36.420175   0.000000   0.000000
     10         41.290591       41.497933   0.000000   0.000000
     11         45.624880       45.747850   0.000000   0.000000
     12         49.166018       51.018158   0.000000   0.000000
 
 -0.6250000E-01  0.3125000E+00  0.6250000E-01  0.2343750E-01
      1          6.477694        6.813877   1.000000   1.000000
      2          9.268164       10.389642   1.000000   1.000000
      3          9.754284       11.328004   1.000000   1.000000
      4         10.159168       11.780621   1.000000   1.000000
      5         11.530352       13.249321   1.000000   0.000000
      6         12.354318       14.079363   1.000000   0.000000
      7         26.601734       27.178306   0.000000   0.000000
      8         34.609575       34.782111   0.000000   0.000000
      9         38.504324       38.707526   0.000000   0.000000
     10         41.774666       42.085998   0.000000   0.000000
     11         45.437186       45.682520   0.000000   0.000000
     12         47.154454       47.379211   0.000000   0.000000
 
  0.4375000E+00  0.4375000E+00  0.6250000E-01  0.1171875E-01
      1          6.767061        7.751807   1.000000   1.000000
      2          7.548057        8.769611   1.000000   1.000000
      3         11.872203       13.192135   1.000000   0.000000
      4         11.978195       13.818220   1.000000   0.000000
      5         12.374937       14.205759   1.000000   0.000000
      6         14.217983       15.031348   0.000000   0.000000
      7         26.755909       27.415457   0.000000   0.000000
      8         29.225111       29.544331   0.000000   0.000000
      9         30.430604       30.689795   0.000000   0.000000
     10         35.777451       36.205897   0.000000   0.000000
     11         40.960448       41.493232   0.000000   0.000000
     12         49.863148       53.320310   0.000000   0.000000
 
 -0.4375000E+00  0.4375000E+00  0.6250000E-01  0.2343750E-01
      1          6.914324        8.008356   1.000000   1.000000
      2          7.585755        8.785175   1.000000   1.000000
      3         11.334225       12.643379   1.000000   0.994037
      4         11.913351       13.790541   1.000000   0.000000
      5         12.547315       14.334510   1.000000   0.000000
      6         17.038364       17.637288   0.000000   0.000000
      7         24.506053       25.316759   0.000000   0.000000
      8         26.658919       27.056368   0.000000   0.000000
      9         29.256425       29.556907   0.000000   0.000000
     10         37.347221       37.704283   0.000000   0.000000
     11         42.854474       43.371935   0.000000   0.000000
     12         49.846434       53.267396   0.000000   0.000000
 
 -0.3125000E+00  0.4375000E+00  0.6250000E-01  0.2343750E-01
      1          7.540637        8.716781   1.000000   1.000000
      2          8.083737        9.221003   1.000000   1.000000
      3         10.115643       11.329821   1.000000   1.000000
      4         11.346094       13.146212   1.000000   0.000000
      5         12.322235       14.091076   1.000000   0.000000
      6         19.360556       20.051167   0.000000   0.000000
      7         21.811249       22.435162   0.000000   0.000000
      8         25.401015       26.084361   0.000000   0.000000
      9         31.010222       31.375265   0.000000   0.000000
     10         38.339981       38.621768   0.000000   0.000000
     11         48.077817       49.009002   0.000000   0.000000
     12         50.224536       52.283095   0.000000   0.000000
 
 -0.1875000E+00  0.4375000E+00  0.6250000E-01  0.2343750E-01
      1          7.866082        8.890219   1.000000   1.000000
      2          8.615807        9.822109   1.000000   1.000000
      3          9.700733       10.887653   1.000000   1.000000
      4         10.545381       12.232665   1.000000   1.000000
      5         12.132532       13.919116   1.000000   0.000000
      6         17.053118       17.940600   0.000000   0.000000
      7         20.935305       21.782330   0.000000   0.000000
      8         29.377723       29.814233   0.000000   0.000000
      9         33.850008       34.217865   0.000000   0.000000
     10         39.349343       39.537009   0.000000   0.000000
     11         47.381632       47.648950   0.000000   0.000000
     12         49.355974       52.269406   0.000000   0.000000
 
 -0.6250000E-01  0.4375000E+00  0.6250000E-01  0.2343750E-01
      1          7.049385        7.908172   1.000000   1.000000
      2          9.407903       10.828349   1.000000   1.000000
      3          9.923642       11.420380   1.000000   1.000000
      4         10.509028       11.553010   1.000000   1.000000
      5         12.191851       14.002314   1.000000   0.000000
      6         13.929436       15.171024   0.000000   0.000000
      7         21.504247       22.380763   0.000000   0.000000
      8         34.224659       34.295268   0.000000   0.000000
      9         37.266426       37.603875   0.000000   0.000000
     10         39.910863       40.169155   0.000000   0.000000
     11         45.027206       45.349915   0.000000   0.000000
     12         47.211864       47.447145   0.000000   0.000000
 
 -0.4375000E+00 -0.4375000E+00  0.6250000E-01  0.1171875E-01
      1          6.656591        7.726917   1.000000   1.000000
      2          7.385843        8.589663   1.000000   1.000000
      3         12.138732       13.756137   1.000000   0.000000
      4         12.245869       14.060566   1.000000   0.000000
      5         12.563719       14.356579   0.999999   0.000000
      6         15.815074       16.211047   0.000000   0.000000
      7         24.500149       25.359530   0.000000   0.000000
      8         28.522432       28.799425   0.000000   0.000000
      9         29.695008       29.919040   0.000000   0.000000
     10         35.664243       36.120669   0.000000   0.000000
     11         40.756576       41.284009   0.000000   0.000000
     12         49.840202       53.306146   0.000000   0.000000
 
 -0.3125000E+00 -0.4375000E+00  0.6250000E-01  0.2343750E-01
      1          7.038290        8.050065   1.000000   1.000000
      2          7.733340        8.948594   1.000000   1.000000
      3         10.915674       12.155835   1.000000   1.000000
      4         11.805792       13.606823   1.000000   0.000000
      5         12.357965       14.152913   1.000000   0.000000
      6         15.349445       16.272477   0.000000   0.000000
      7         26.564546       27.108343   0.000000   0.000000
      8         27.579902       28.082289   0.000000   0.000000
      9         29.929230       30.258665   0.000000   0.000000
     10         37.541055       37.876134   0.000000   0.000000
     11         43.060412       43.576873   0.000000   0.000000
     12         49.802857       53.165244   0.000000   0.000000
 
 -0.1875000E+00 -0.4375000E+00  0.6250000E-01  0.2343750E-01
      1          7.562497        8.448342   1.000000   1.000000
      2          8.514799        9.677456   1.000000   1.000000
      3          9.657869       10.933705   1.000000   1.000000
      4         10.756412       12.432202   1.000000   1.000000
      5         12.270329       14.083962   1.000000   0.000000
      6         14.980136       16.134577   0.000000   0.000000
      7         23.671771       24.311797   0.000000   0.000000
      8         30.955826       31.327431   0.000000   0.000000
      9         32.827969       33.225868   0.000000   0.000000
     10         38.912460       39.158846   0.000000   0.000000
     11         48.017236       48.240571   0.000000   0.000000
     12         48.884776       50.859349   0.000000   0.000000
 
 -0.3125000E+00 -0.3125000E+00  0.6250000E-01  0.1171875E-01
      1          6.823799        7.558439   1.000000   1.000000
      2          7.854680        9.110914   1.000000   1.000000
      3         11.132658       12.266451   1.000000   1.000000
      4         11.624006       13.351615   1.000000   0.000000
      5         12.125041       13.926922   1.000000   0.000000
      6         12.580069       14.000554   0.999992   0.000000
      7         29.659150       30.092915   0.000000   0.000000
      8         30.695945       31.097428   0.000000   0.000000
      9         31.804535       32.114102   0.000000   0.000000
     10         36.038897       36.412454   0.000000   0.000000
     11         41.512264       42.076234   0.000000   0.000000
     12         49.789137       53.233326   0.000000   0.000000
 
 -0.1875000E+00 -0.3125000E+00  0.6250000E-01  0.2343750E-01
      1          6.746762        7.117964   1.000000   1.000000
      2          8.390181        9.678996   1.000000   1.000000
      3          9.889290       11.332277   1.000000   1.000000
      4         11.019148       12.672654   1.000000   0.954132
      5         11.624201       13.287982   1.000000   0.000000
      6         12.478177       14.159316   1.000000   0.000000
      7         29.515821       29.961250   0.000000   0.000000
      8         32.096024       32.440650   0.000000   0.000000
      9         34.463052       34.801296   0.000000   0.000000
     10         38.734459       38.983013   0.000000   0.000000
     11         44.601522       45.194722   0.000000   0.000000
     12         49.548857       51.228936   0.000000   0.000000
 
 -0.1875000E+00 -0.1875000E+00  0.6250000E-01  0.1171875E-01
      1          5.433684        5.571547   1.000000   1.000000
      2          8.737740       10.103826   1.000000   1.000000
      3         10.251057       11.850512   1.000000   1.000000
      4         10.669550       12.265404   1.000000   1.000000
      5         10.943282       12.544320   1.000000   1.000000
      6         11.642089       13.518543   1.000000   0.000000
      7         33.461577       33.798366   0.000000   0.000000
      8         35.871424       35.992465   0.000000   0.000000
      9         35.886506       36.263505   0.000000   0.000000
     10         37.890623       38.118833   0.000000   0.000000
     11         44.761191       45.547311   0.000000   0.000000
     12         49.725073       51.794331   0.000000   0.000000
 
  0.1875000E+00  0.1875000E+00  0.1875000E+00  0.3906250E-02
      1          4.300746        4.383066   1.000000   1.000000
      2          9.421128       10.820599   1.000000   1.000000
      3         10.054457       11.621494   1.000000   1.000000
      4         10.054457       11.621494   1.000000   1.000000
      5         11.182617       12.996912   1.000000   0.000000
      6         11.182617       12.996912   1.000000   0.000000
      7         32.586007       32.930622   0.000000   0.000000
      8         38.204539       38.048748   0.000000   0.000000
      9         41.760879       42.095575   0.000000   0.000000
     10         41.760879       42.095575   0.000000   0.000000
     11         47.164657       47.172279   0.000000   0.000000
     12         47.762728       47.955421   0.000000   0.000000
 
  0.3125000E+00  0.1875000E+00  0.1875000E+00  0.1171875E-01
      1          5.465609        5.590741   1.000000   1.000000
      2          9.105659       10.455257   1.000000   1.000000
      3          9.984383       11.542911   1.000000   1.000000
      4         10.353695       11.966348   1.000000   1.000000
      5         10.803575       12.549434   1.000000   1.000000
      6         11.934036       13.716197   1.000000   0.000000
      7         30.862736       31.287506   0.000000   0.000000
      8         33.633596       33.910935   0.000000   0.000000
      9         41.535172       41.591923   0.000000   0.000000
     10         43.595835       43.632491   0.000000   0.000000
     11         44.089337       44.316040   0.000000   0.000000
     12         46.825511       47.221472   0.000000   0.000000
 
  0.4375000E+00  0.1875000E+00  0.1875000E+00  0.1171875E-01
      1          7.155709        7.504181   1.000000   1.000000
      2          8.972497       10.207188   1.000000   1.000000
      3          9.500773       10.991691   1.000000   1.000000
      4         10.438671       12.140626   1.000000   1.000000
      5         11.104717       12.781285   1.000000   0.082838
      6         13.341460       14.950115   0.000000   0.000000
      7         27.181477       27.739592   0.000000   0.000000
      8         30.165184       30.569388   0.000000   0.000000
      9         39.499357       39.569258   0.000000   0.000000
     10         40.731426       41.111247   0.000000   0.000000
     11         45.633776       45.646505   0.000000   0.000000
     12         48.204210       48.497850   0.000000   0.000000
 
 -0.4375000E+00  0.1875000E+00  0.1875000E+00  0.1171875E-01
      1          7.617412        8.526067   1.000000   1.000000
      2          8.990061       10.267944   1.000000   1.000000
      3          9.818916       10.943540   1.000000   1.000000
      4         10.287139       11.953485   1.000000   1.000000
      5         11.927443       13.699937   1.000000   0.000000
      6         15.538365       16.650286   0.000000   0.000000
      7         21.854350       22.661885   0.000000   0.000000
      8         30.380526       30.765545   0.000000   0.000000
      9         37.368459       37.756198   0.000000   0.000000
     10         37.817326       37.937476   0.000000   0.000000