       N       E                     dE             d eps       ncg     rms          rms(c)
DAV:   1     0.234367505104E+02    0.23437E+02   -0.35733E+03  2932   0.836E+02
DAV:   2    -0.667384174300E+01   -0.30111E+02   -0.28107E+02  3112   0.141E+02
DAV:   3    -0.739974218897E+01   -0.72590E+00   -0.72364E+00  3404   0.250E+01
DAV:   4    -0.740574762285E+01   -0.60054E-02   -0.60038E-02  3496   0.202E+00
DAV:   5    -0.740585519629E+01   -0.10757E-03   -0.10757E-03  3780   0.241E-01    0.139E+01
DAV:   6    -0.689077671542E+01    0.51508E+00   -0.81192E+00  3744   0.389E+01    0.380E+00
DAV:   7    -0.683043015122E+01    0.60347E-01   -0.56983E-01  3488   0.931E+00    0.259E+00
DAV:   8    -0.681072119299E+01    0.19709E-01   -0.17588E-02  4100   0.113E+00    0.125E+00
DAV:   9    -0.680793016513E+01    0.27910E-02   -0.15462E-03  4712   0.272E-01    0.194E-01
DAV:  10    -0.680774731549E+01    0.18285E-03   -0.62805E-05  3624   0.101E-01    0.319E-02
DAV:  11    -0.680774217709E+01    0.51384E-05   -0.20392E-05  4092   0.472E-02    0.335E-02
DAV:  12    -0.680773997709E+01    0.22000E-05   -0.20823E-06  2568   0.163E-02    0.115E-02
DAV:  13    -0.680773980466E+01    0.17243E-06   -0.56501E-07  2276   0.721E-03
   1 F= -.68077398E+01 E0= -.68072304E+01  d E =-.680774E+01  mag=     1.5600
