PROCAR lm decomposed
# of k-points:   60         # of bands:   12         # of ions:    1

 k-point     1 :    0.06250000 0.06250000 0.06250000     weight = 0.00390625

band     1 # energy    2.98876653 # occ.  1.00000000
 
ion      s     py     pz     px    dxy    dyz    dz2    dxz  x2-y2    tot
    1  0.860  0.005  0.005  0.005  0.000  0.000  0.000  0.000  0.000  0.874
 
band     2 # energy    9.73569623 # occ.  1.00000000
 
ion      s     py     pz     px    dxy    dyz    dz2    dxz  x2-y2    tot
    1  0.000  0.001  0.001  0.001  0.328  0.328  0.000  0.328  0.000  0.987
 
band     3 # energy    9.84080545 # occ.  1.00000000
 
ion      s     py     pz     px    dxy    dyz    dz2    dxz  x2-y2    tot
    1  0.000  0.000  0.000  0.000  0.220  0.524  0.000  0.243  0.001  0.988
 
band     4 # energy    9.84080545 # occ.  1.00000000
 
ion      s     py     pz     px    dxy    dyz    dz2    dxz  x2-y2    tot
    1  0.000  0.000  0.000  0.000  0.438  0.134  0.001  0.414  0.000  0.988
 
band     5 # energy   11.18932186 # occ.  1.00000000
 
ion      s     py     pz     px    dxy    dyz    dz2    dxz  x2-y2    tot
    1  0.000  0.000  0.000  0.000  0.001  0.000  0.984  0.000  0.005  0.990
 
band     6 # energy   11.18932186 # occ.  1.00000000
 
ion      s     py     pz     px    dxy    dyz    dz2    dxz  x2-y2    tot
    1  0.000  0.000  0.000  0.000  0.000  0.001  0.005  0.001  0.984  0.990
 
band     7 # energy   36.93952335 # occ.  0.00000000
 
ion      s     py     pz     px    dxy    dyz    dz2    dxz  x2-y2    tot
    1  0.000  0.003  0.003  0.003  0.044  0.044  0.000  0.044  0.000  0.141
 
band     8 # energy   40.86386042 # occ.  0.00000000
 
ion      s     py     pz     px    dxy    dyz    dz2    dxz  x2-y2    tot
    1  0.025  0.075  0.075  0.075  0.049  0.049  0.000  0.049  0.000  0.396
 
band     9 # energy   42.56558457 # occ.  0.00000000
 
ion      s     py     pz     px    dxy    dyz    dz2    dxz  x2-y2    tot
    1  0.000  0.068  0.079  0.101  0.042  0.054  0.012  0.037  0.013  0.407
 
band    10 # energy   42.56558457 # occ.  0.00000000
 
ion      s     py     pz     px    dxy    dyz    dz2    dxz  x2-y2    tot
    1  0.000  0.097  0.087  0.064  0.047  0.034  0.013  0.052  0.012  0.407
 
band    11 # energy   47.18723743 # occ.  0.00000000
 
ion      s     py     pz     px    dxy    dyz    dz2    dxz  x2-y2    tot
    1  0.000  0.000  0.000  0.000  0.329  0.785  0.002  0.372  0.004  1.493
 
band    12 # energy   47.20594407 # occ.  0.00000000
 
ion      s     py     pz     px    dxy    dyz    dz2    dxz  x2-y2    tot
    1  0.029  0.002  0.000  0.000  0.521  0.103  0.004  0.820  0.002  1.481
 

 k-point     2 :    0.18750000 0.06250000 0.06250000     weight = 0.01171875

band     1 # energy    3.88793817 # occ.  1.00000000
 
ion      s     py     pz     px    dxy    dyz    dz2    dxz  x2-y2    tot
    1  0.785  0.039  0.039  0.004  0.001  0.006  0.000  0.001  0.001  0.876
 
band     2 # energy    9.45716862 # occ.  1.00000000
 
ion      s     py     pz     px    dxy    dyz    dz2    dxz  x2-y2    tot
    1  0.001  0.001  0.001  0.009  0.466  0.035  0.000  0.466  0.000  0.980
 
band     3 # energy   10.04340409 # occ.  1.00000000
 
ion      s     py     pz     px    dxy    dyz    dz2    dxz  x2-y2    tot
    1  0.001  0.004  0.004  0.000  0.017  0.858  0.021  0.017  0.064  0.985
 
band     4 # energy   10.04788970 # occ.  1.00000000
 
ion      s     py     pz     px    dxy    dyz    dz2    dxz  x2-y2    tot
    1  0.000  0.000  0.000  0.000  0.482  0.000  0.016  0.482  0.005  0.986
 
band     5 # energy   10.98300650 # occ.  1.00000000
 
ion      s     py     pz     px    dxy    dyz    dz2    dxz  x2-y2    tot
    1  0.000  0.000  0.000  0.000  0.010  0.000  0.723  0.010  0.241  0.985
 
band     6 # energy   11.29894374 # occ.  1.00000000
 
ion      s     py     pz     px    dxy    dyz    dz2    dxz  x2-y2    tot
    1  0.002  0.001  0.001  0.000  0.002  0.081  0.225  0.002  0.676  0.988
 
band     7 # energy   34.69862822 # occ.  0.00000000
 
ion      s     py     pz     px    dxy    dyz    dz2    dxz  x2-y2    tot
    1  0.021  0.036  0.036  0.102  0.222  0.092  0.001  0.222  0.002  0.735
 
band     8 # energy   37.39976505 # occ.  0.00000000
 
ion      s     py     pz     px    dxy    dyz    dz2    dxz  x2-y2    tot
    1  0.043  0.068  0.068  0.010  0.048  0.146  0.008  0.048  0.025  0.464
 
band     9 # energy   41.22422280 # occ.  0.00000000
 
ion      s     py     pz     px    dxy    dyz    dz2    dxz  x2-y2    tot
    1  0.000  0.009  0.009  0.231  0.034  0.093  0.003  0.034  0.009  0.422
 
band    10 # energy   43.67493447 # occ.  0.00000000
 
ion      s     py     pz     px    dxy    dyz    dz2    dxz  x2-y2    tot
    1  0.000  0.078  0.078  0.000  0.079  0.000  0.193  0.079  0.064  0.572
 
band    11 # energy   45.53455049 # occ.  0.00000000
 
ion      s     py     pz     px    dxy    dyz    dz2    dxz  x2-y2    tot
    1  0.000  0.071  0.071  0.009  0.000  0.427  0.011  0.000  0.034  0.624
 
band    12 # energy   47.23674149 # occ.  0.00000000
 
ion      s     py     pz     px    dxy    dyz    dz2    dxz  x2-y2    tot
    1  0.000  0.006  0.006  0.000  0.632  0.000  0.072  0.632  0.024  1.372
 

 k-point     3 :    0.31250000 0.06250000 0.06250000     weight = 0.01171875

band     1 # energy    5.70654603 # occ.  1.00000000
 
ion      s     py     pz     px    dxy    dyz    dz2    dxz  x2-y2    tot
    1  0.577  0.073  0.073  0.020  0.040  0.067  0.001  0.040  0.003  0.895
 
band     2 # energy    9.31947752 # occ.  1.00000000
 
ion      s     py     pz     px    dxy    dyz    dz2    dxz  x2-y2    tot
    1  0.031  0.032  0.032  0.046  0.378  0.056  0.001  0.378  0.002  0.957
 
band     3 # energy    9.97694301 # occ.  1.00000000
 
ion      s     py     pz     px    dxy    dyz    dz2    dxz  x2-y2    tot
    1  0.000  0.004  0.004  0.000  0.036  0.485  0.103  0.036  0.310  0.980
 
band     4 # energy   10.07410523 # occ.  1.00000000
 
ion      s     py     pz     px    dxy    dyz    dz2    dxz  x2-y2    tot
    1  0.000  0.000  0.000  0.000  0.278  0.000  0.320  0.278  0.107  0.982
 
band     5 # energy   11.24003235 # occ.  1.00000000
 
ion      s     py     pz     px    dxy    dyz    dz2    dxz  x2-y2    tot
    1  0.000  0.001  0.001  0.000  0.214  0.000  0.414  0.214  0.138  0.982
 
band     6 # energy   11.80002878 # occ.  1.00000000
 
ion      s     py     pz     px    dxy    dyz    dz2    dxz  x2-y2    tot
    1  0.011  0.007  0.007  0.000  0.017  0.362  0.141  0.017  0.422  0.985
 
band     7 # energy   28.44812616 # occ.  0.00000000
 
ion      s     py     pz     px    dxy    dyz    dz2    dxz  x2-y2    tot
    1  0.123  0.078  0.078  0.137  0.176  0.142  0.001  0.176  0.004  0.917
 
band     8 # energy   36.14273243 # occ.  0.00000000
 
ion      s     py     pz     px    dxy    dyz    dz2    dxz  x2-y2    tot
    1  0.024  0.014  0.014  0.079  0.117  0.047  0.019  0.117  0.056  0.487
 
band     9 # energy   40.21954606 # occ.  0.00000000
 
ion      s     py     pz     px    dxy    dyz    dz2    dxz  x2-y2    tot
    1  0.002  0.075  0.075  0.156  0.017  0.217  0.005  0.017  0.015  0.579
 
band    10 # energy   43.61451806 # occ.  0.00000000
 
ion      s     py     pz     px    dxy    dyz    dz2    dxz  x2-y2    tot
    1  0.000  0.075  0.075  0.000  0.279  0.000  0.267  0.279  0.089  1.063
 
band    11 # energy   44.85480608 # occ.  0.00000000
 
ion      s     py     pz     px    dxy    dyz    dz2    dxz  x2-y2    tot
    1  0.000  0.138  0.138  0.000  0.041  0.000  0.407  0.041  0.136  0.901
 
band    12 # energy   45.51341626 # occ.  0.00000000
 
ion      s     py     pz     px    dxy    dyz    dz2    dxz  x2-y2    tot
    1  0.140  0.058  0.058  0.011  0.010  0.006  0.072  0.010  0.217  0.582
 

 k-point     4 :    0.43750000 0.06250000 0.06250000     weight = 0.01171875

band     1 # energy    6.77392594 # occ.  1.00000000
 
ion      s     py     pz     px    dxy    dyz    dz2    dxz  x2-y2    tot
    1  0.263  0.024  0.024  0.001  0.207  0.223  0.000  0.207  0.001  0.951
 
band     2 # energy    9.68287763 # occ.  1.00000000
 
ion      s     py     pz     px    dxy    dyz    dz2    dxz  x2-y2    tot
    1  0.000  0.004  0.004  0.000  0.045  0.293  0.146  0.045  0.438  0.976
 
band     3 # energy    9.81300597 # occ.  1.00000000
 
ion      s     py     pz     px    dxy    dyz    dz2    dxz  x2-y2    tot
    1  0.000  0.000  0.000  0.000  0.190  0.000  0.449  0.190  0.150  0.980
 
band     4 # energy   10.60657198 # occ.  1.00000000
 
ion      s     py     pz     px    dxy    dyz    dz2    dxz  x2-y2    tot
    1  0.070  0.134  0.134  0.134  0.176  0.021  0.016  0.176  0.047  0.908
 
band     5 # energy   11.94930837 # occ.  1.00000000
 
ion      s     py     pz     px    dxy    dyz    dz2    dxz  x2-y2    tot
    1  0.000  0.001  0.001  0.000  0.303  0.000  0.285  0.303  0.095  0.987
 
band     6 # energy   12.72705800 # occ.  0.55864919
 
ion      s     py     pz     px    dxy    dyz    dz2    dxz  x2-y2    tot
    1  0.040  0.055  0.055  0.033  0.015  0.421  0.084  0.015  0.251  0.966
 
band     7 # energy   22.79877021 # occ.  0.00000000
 
ion      s     py     pz     px    dxy    dyz    dz2    dxz  x2-y2    tot
    1  0.307  0.046  0.046  0.102  0.166  0.136  0.001  0.166  0.003  0.970
 
band     8 # energy   35.34684146 # occ.  0.00000000
 
ion      s     py     pz     px    dxy    dyz    dz2    dxz  x2-y2    tot
    1  0.008  0.000  0.000  0.076  0.055  0.029  0.026  0.055  0.077  0.325
 
band     9 # energy   39.10125166 # occ.  0.00000000
 
ion      s     py     pz     px    dxy    dyz    dz2    dxz  x2-y2    tot
    1  0.020  0.106  0.106  0.219  0.032  0.060  0.011  0.032  0.034  0.619
 
band    10 # energy   41.41777529 # occ.  0.00000000
 
ion      s     py     pz     px    dxy    dyz    dz2    dxz  x2-y2    tot
    1  0.000  0.236  0.236  0.000  0.001  0.000  0.208  0.001  0.069  0.752
 
band    11 # energy   43.87862006 # occ.  0.00000000
 
ion      s     py     pz     px    dxy    dyz    dz2    dxz  x2-y2    tot
    1  0.000  0.036  0.036  0.000  0.260  0.000  0.496  0.260  0.165  1.252
 
band    12 # energy   45.44322877 # occ.  0.00000000
 
ion      s     py     pz     px    dxy    dyz    dz2    dxz  x2-y2    tot
    1  0.118  0.017  0.017  0.013  0.000  0.239  0.164  0.000  0.491  1.058
 

 k-point     5 :   -0.43750000 0.06250000 0.06250000     weight = 0.01171875

band     1 # energy    6.86218412 # occ.  1.00000000
 
ion      s     py     pz     px    dxy    dyz    dz2    dxz  x2-y2    tot
    1  0.194  0.000  0.000  0.009  0.246  0.269  0.000  0.246  0.000  0.965
 
band     2 # energy    9.55994640 # occ.  1.00000000
 
ion      s     py     pz     px    dxy    dyz    dz2    dxz  x2-y2    tot
    1  0.000  0.004  0.004  0.001  0.064  0.202  0.159  0.064  0.477  0.974
 
band     3 # energy    9.74523905 # occ.  1.00000000
 
ion      s     py     pz     px    dxy    dyz    dz2    dxz  x2-y2    tot
    1  0.000  0.001  0.001  0.000  0.188  0.000  0.452  0.188  0.151  0.980
 
band     4 # energy   11.31439562 # occ.  1.00000000
 
ion      s     py     pz     px    dxy    dyz    dz2    dxz  x2-y2    tot
    1  0.003  0.115  0.115  0.114  0.054  0.323  0.037  0.054  0.111  0.926
 
band     5 # energy   12.31547603 # occ.  1.00000000
 
ion      s     py     pz     px    dxy    dyz    dz2    dxz  x2-y2    tot
    1  0.000  0.000  0.000  0.000  0.308  0.000  0.283  0.308  0.094  0.993
 
band     6 # energy   13.46110186 # occ.  0.00000000
 
ion      s     py     pz     px    dxy    dyz    dz2    dxz  x2-y2    tot
    1  0.006  0.148  0.148  0.168  0.061  0.120  0.050  0.061  0.150  0.912
 
band     7 # energy   20.58100609 # occ.  0.00000000
 
ion      s     py     pz     px    dxy    dyz    dz2    dxz  x2-y2    tot
    1  0.457  0.011  0.011  0.000  0.168  0.182  0.000  0.168  0.000  0.999
 
band     8 # energy   35.22931273 # occ.  0.00000000
 
ion      s     py     pz     px    dxy    dyz    dz2    dxz  x2-y2    tot
    1  0.000  0.004  0.004  0.035  0.008  0.045  0.026  0.008  0.077  0.207
 
band     9 # energy   39.34226409 # occ.  0.00000000
 
ion      s     py     pz     px    dxy    dyz    dz2    dxz  x2-y2    tot
    1  0.000  0.242  0.242  0.000  0.048  0.000  0.157  0.048  0.052  0.789
 
band    10 # energy   39.50210954 # occ.  0.00000000
 
ion      s     py     pz     px    dxy    dyz    dz2    dxz  x2-y2    tot
    1  0.039  0.085  0.085  0.312  0.019  0.002  0.027  0.019  0.080  0.669
 
band    11 # energy   44.71519052 # occ.  0.00000000
 
ion      s     py     pz     px    dxy    dyz    dz2    dxz  x2-y2    tot
    1  0.024  0.004  0.004  0.029  0.035  0.340  0.180  0.035  0.540  1.191
 
band    12 # energy   44.77459964 # occ.  0.00000000
 
ion      s     py     pz     px    dxy    dyz    dz2    dxz  x2-y2    tot
    1  0.000  0.051  0.051  0.000  0.174  0.000  0.529  0.174  0.176  1.155
 

 k-point     6 :   -0.31250000 0.06250000 0.06250000     weight = 0.01171875

band     1 # energy    6.59193061 # occ.  1.00000000
 
ion      s     py     pz     px    dxy    dyz    dz2    dxz  x2-y2    tot
    1  0.347  0.016  0.016  0.060  0.160  0.167  0.002  0.160  0.005  0.934
 
band     2 # energy    9.72772582 # occ.  1.00000000
 
ion      s     py     pz     px    dxy    dyz    dz2    dxz  x2-y2    tot
    1  0.003  0.011  0.011  0.008  0.120  0.075  0.155  0.120  0.465  0.968
 
band     3 # energy    9.92679678 # occ.  1.00000000
 
ion      s     py     pz     px    dxy    dyz    dz2    dxz  x2-y2    tot
    1  0.000  0.001  0.001  0.000  0.231  0.000  0.387  0.231  0.129  0.981
 
band     4 # energy    9.98978683 # occ.  1.00000000
 
ion      s     py     pz     px    dxy    dyz    dz2    dxz  x2-y2    tot
    1  0.080  0.093  0.093  0.097  0.007  0.551  0.000  0.007  0.000  0.927
 
band     5 # energy   12.05185331 # occ.  1.00000000
 
ion      s     py     pz     px    dxy    dyz    dz2    dxz  x2-y2    tot
    1  0.000  0.001  0.001  0.000  0.261  0.000  0.350  0.261  0.117  0.990
 
band     6 # energy   12.09105506 # occ.  1.00000000
 
ion      s     py     pz     px    dxy    dyz    dz2    dxz  x2-y2    tot
    1  0.032  0.018  0.018  0.043  0.179  0.152  0.088  0.179  0.264  0.973
 
band     7 # energy   24.50405922 # occ.  0.00000000
 
ion      s     py     pz     px    dxy    dyz    dz2    dxz  x2-y2    tot
    1  0.234  0.103  0.103  0.049  0.143  0.177  0.001  0.143  0.003  0.954
 
band     8 # energy   36.01602685 # occ.  0.00000000
 
ion      s     py     pz     px    dxy    dyz    dz2    dxz  x2-y2    tot
    1  0.005  0.008  0.008  0.005  0.000  0.111  0.022  0.000  0.067  0.226
 
band     9 # energy   38.77068724 # occ.  0.00000000
 
ion      s     py     pz     px    dxy    dyz    dz2    dxz  x2-y2    tot
    1  0.000  0.220  0.220  0.000  0.162  0.000  0.106  0.162  0.035  0.905
 
band    10 # energy   41.50825311 # occ.  0.00000000
 
ion      s     py     pz     px    dxy    dyz    dz2    dxz  x2-y2    tot
    1  0.059  0.038  0.038  0.358  0.000  0.106  0.042  0.000  0.125  0.765
 
band    11 # energy   44.41635518 # occ.  0.00000000
 
ion      s     py     pz     px    dxy    dyz    dz2    dxz  x2-y2    tot
    1  0.000  0.004  0.004  0.022  0.080  0.251  0.166  0.080  0.497  1.105
 
band    12 # energy   46.52700325 # occ.  0.00000000
 
ion      s     py     pz     px    dxy    dyz    dz2    dxz  x2-y2    tot
    1  0.000  0.059  0.059  0.000  0.042  0.000  0.531  0.042  0.177  0.911
 

 k-point     7 :   -0.18750000 0.06250000 0.06250000     weight = 0.01171875

band     1 # energy    5.06929862 # occ.  1.00000000
 
ion      s     py     pz     px    dxy    dyz    dz2    dxz  x2-y2    tot
    1  0.665  0.030  0.030  0.092  0.023  0.014  0.001  0.023  0.004  0.884
 
band     2 # energy    9.25377763 # occ.  1.00000000
 
ion      s     py     pz     px    dxy    dyz    dz2    dxz  x2-y2    tot
    1  0.012  0.020  0.020  0.013  0.136  0.630  0.000  0.136  0.001  0.969
 
band     3 # energy   10.05779690 # occ.  1.00000000
 
ion      s     py     pz     px    dxy    dyz    dz2    dxz  x2-y2    tot
    1  0.000  0.001  0.001  0.001  0.201  0.222  0.088  0.201  0.264  0.981
 
band     4 # energy   10.13320818 # occ.  1.00000000
 
ion      s     py     pz     px    dxy    dyz    dz2    dxz  x2-y2    tot
    1  0.000  0.002  0.002  0.000  0.364  0.000  0.189  0.364  0.063  0.984
 
band     5 # energy   11.15230615 # occ.  1.00000000
 
ion      s     py     pz     px    dxy    dyz    dz2    dxz  x2-y2    tot
    1  0.008  0.001  0.001  0.008  0.121  0.103  0.155  0.121  0.465  0.981
 
band     6 # energy   11.49441868 # occ.  1.00000000
 
ion      s     py     pz     px    dxy    dyz    dz2    dxz  x2-y2    tot
    1  0.000  0.001  0.001  0.000  0.125  0.000  0.551  0.125  0.184  0.987
 
band     7 # energy   30.55802286 # occ.  0.00000000
 
ion      s     py     pz     px    dxy    dyz    dz2    dxz  x2-y2    tot
    1  0.084  0.111  0.111  0.058  0.158  0.201  0.001  0.158  0.004  0.886
 
band     8 # energy   37.29430695 # occ.  0.00000000
 
ion      s     py     pz     px    dxy    dyz    dz2    dxz  x2-y2    tot
    1  0.023  0.001  0.001  0.006  0.002  0.184  0.015  0.002  0.046  0.279
 
band     9 # energy   39.32480916 # occ.  0.00000000
 
ion      s     py     pz     px    dxy    dyz    dz2    dxz  x2-y2    tot
    1  0.000  0.184  0.184  0.000  0.245  0.000  0.058  0.245  0.019  0.936
 
band    10 # energy   43.75580220 # occ.  0.00000000
 
ion      s     py     pz     px    dxy    dyz    dz2    dxz  x2-y2    tot
    1  0.023  0.026  0.026  0.030  0.000  0.001  0.125  0.000  0.376  0.607
 
band    11 # energy   44.47437390 # occ.  0.00000000
 
ion      s     py     pz     px    dxy    dyz    dz2    dxz  x2-y2    tot
    1  0.034  0.013  0.013  0.277  0.105  0.367  0.001  0.105  0.004  0.919
 
band    12 # energy   48.69575068 # occ.  0.00000000
 
ion      s     py     pz     px    dxy    dyz    dz2    dxz  x2-y2    tot
    1  0.000  0.035  0.035  0.000  0.032  0.000  0.369  0.032  0.123  0.627
 

 k-point     8 :   -0.06250000 0.06250000 0.06250000     weight = 0.01171875

band     1 # energy    3.44739738 # occ.  1.00000000
 
ion      s     py     pz     px    dxy    dyz    dz2    dxz  x2-y2    tot
    1  0.822  0.004  0.004  0.041  0.001  0.000  0.000  0.001  0.001  0.875
 
band     2 # energy    9.54856631 # occ.  1.00000000
 
ion      s     py     pz     px    dxy    dyz    dz2    dxz  x2-y2    tot
    1  0.000  0.001  0.001  0.000  0.059  0.863  0.000  0.059  0.000  0.984
 
band     3 # energy    9.98023504 # occ.  1.00000000
 
ion      s     py     pz     px    dxy    dyz    dz2    dxz  x2-y2    tot
    1  0.000  0.001  0.001  0.001  0.427  0.120  0.002  0.427  0.007  0.987
 
band     4 # energy    9.98600521 # occ.  1.00000000
 
ion      s     py     pz     px    dxy    dyz    dz2    dxz  x2-y2    tot
    1  0.000  0.002  0.002  0.000  0.486  0.000  0.009  0.486  0.003  0.987
 
band     5 # energy   11.01056391 # occ.  1.00000000
 
ion      s     py     pz     px    dxy    dyz    dz2    dxz  x2-y2    tot
    1  0.001  0.000  0.000  0.000  0.004  0.001  0.244  0.004  0.732  0.986
 
band     6 # energy   11.27401779 # occ.  1.00000000
 
ion      s     py     pz     px    dxy    dyz    dz2    dxz  x2-y2    tot
    1  0.000  0.000  0.000  0.000  0.006  0.000  0.734  0.006  0.245  0.990
 
band     7 # energy   36.24910018 # occ.  0.00000000
 
ion      s     py     pz     px    dxy    dyz    dz2    dxz  x2-y2    tot
    1  0.004  0.027  0.027  0.007  0.068  0.266  0.000  0.068  0.001  0.468
 
band     8 # energy   39.01066686 # occ.  0.00000000
 
ion      s     py     pz     px    dxy    dyz    dz2    dxz  x2-y2    tot
    1  0.039  0.049  0.049  0.064  0.063  0.012  0.009  0.063  0.026  0.373
 
band     9 # energy   40.66953032 # occ.  0.00000000
 
ion      s     py     pz     px    dxy    dyz    dz2    dxz  x2-y2    tot
    1  0.000  0.153  0.153  0.000  0.222  0.000  0.011  0.222  0.004  0.764
 
band    10 # energy   42.26359280 # occ.  0.00000000
 
ion      s     py     pz     px    dxy    dyz    dz2    dxz  x2-y2    tot
    1  0.008  0.079  0.079  0.033  0.047  0.008  0.030  0.047  0.091  0.423
 
band    11 # energy   47.02484128 # occ.  0.00000000
 
ion      s     py     pz     px    dxy    dyz    dz2    dxz  x2-y2    tot
    1  0.002  0.000  0.000  0.066  0.328  0.453  0.000  0.328  0.000  1.177
 
band    12 # energy   48.66928984 # occ.  0.00000000
 
ion      s     py     pz     px    dxy    dyz    dz2    dxz  x2-y2    tot
    1  0.000  0.000  0.000  0.000  0.421  0.000  0.027  0.418  0.009  0.876
 

 k-point     9 :    0.18750000 0.18750000 0.06250000     weight = 0.01171875

band     1 # energy    4.31237930 # occ.  1.00000000
 
ion      s     py     pz     px    dxy    dyz    dz2    dxz  x2-y2    tot
    1  0.744  0.004  0.107  0.004  0.000  0.002  0.014  0.002  0.000  0.877
 
band     2 # energy    9.18986042 # occ.  1.00000000
 
ion      s     py     pz     px    dxy    dyz    dz2    dxz  x2-y2    tot
    1  0.000  0.002  0.000  0.002  0.937  0.019  0.000  0.019  0.000  0.979
 
band     3 # energy   10.23090538 # occ.  1.00000000
 
ion      s     py     pz     px    dxy    dyz    dz2    dxz  x2-y2    tot
    1  0.000  0.004  0.000  0.004  0.036  0.405  0.129  0.405  0.000  0.983
 
band     4 # energy   10.26880149 # occ.  1.00000000
 
ion      s     py     pz     px    dxy    dyz    dz2    dxz  x2-y2    tot
    1  0.000  0.004  0.000  0.004  0.000  0.471  0.000  0.471  0.033  0.985
 
band     5 # energy   10.76539204 # occ.  1.00000000
 
ion      s     py     pz     px    dxy    dyz    dz2    dxz  x2-y2    tot
    1  0.010  0.001  0.005  0.001  0.005  0.061  0.837  0.061  0.000  0.980
 
band     6 # energy   11.43182752 # occ.  1.00000000
 
ion      s     py     pz     px    dxy    dyz    dz2    dxz  x2-y2    tot
    1  0.000  0.000  0.000  0.000  0.000  0.017  0.000  0.017  0.956  0.990
 
band     7 # energy   35.04855724 # occ.  0.00000000
 
ion      s     py     pz     px    dxy    dyz    dz2    dxz  x2-y2    tot
    1  0.015  0.080  0.011  0.080  0.348  0.108  0.013  0.108  0.000  0.762
 
band     8 # energy   37.36589976 # occ.  0.00000000
 
ion      s     py     pz     px    dxy    dyz    dz2    dxz  x2-y2    tot
    1  0.034  0.020  0.016  0.020  0.183  0.025  0.128  0.025  0.000  0.451
 
band     9 # energy   38.28711439 # occ.  0.00000000
 
ion      s     py     pz     px    dxy    dyz    dz2    dxz  x2-y2    tot
    1  0.000  0.193  0.000  0.193  0.000  0.239  0.000  0.239  0.010  0.875
 
band    10 # energy   40.17944759 # occ.  0.00000000
 
ion      s     py     pz     px    dxy    dyz    dz2    dxz  x2-y2    tot
    1  0.001  0.086  0.002  0.086  0.039  0.088  0.213  0.088  0.000  0.603
 
band    11 # energy   47.47528083 # occ.  0.00000000
 
ion      s     py     pz     px    dxy    dyz    dz2    dxz  x2-y2    tot
    1  1.446  0.010  0.431  0.010  0.023  0.002  0.120  0.002  0.000  2.044
 
band    12 # energy   49.11815489 # occ.  0.00000000
 
ion      s     py     pz     px    dxy    dyz    dz2    dxz  x2-y2    tot
    1  1.493  0.000  0.008  0.000  0.310  0.150  0.045  0.150  0.000  2.156
 

 k-point    10 :    0.31250000 0.18750000 0.06250000     weight = 0.02343750

band     1 # energy    5.78662590 # occ.  1.00000000
 
ion      s     py     pz     px    dxy    dyz    dz2    dxz  x2-y2    tot
    1  0.577  0.030  0.169  0.003  0.004  0.033  0.063  0.005  0.001  0.884
 
band     2 # energy    8.80414764 # occ.  1.00000000
 
ion      s     py     pz     px    dxy    dyz    dz2    dxz  x2-y2    tot
    1  0.002  0.003  0.002  0.016  0.865  0.006  0.003  0.076  0.000  0.973
 
band     3 # energy    9.95929183 # occ.  1.00000000
 
ion      s     py     pz     px    dxy    dyz    dz2    dxz  x2-y2    tot
    1  0.009  0.005  0.003  0.000  0.018  0.361  0.525  0.016  0.037  0.973
 
band     4 # energy   10.60304763 # occ.  1.00000000
 
ion      s     py     pz     px    dxy    dyz    dz2    dxz  x2-y2    tot
    1  0.002  0.003  0.002  0.006  0.045  0.119  0.047  0.584  0.174  0.982
 
band     5 # energy   11.09873880 # occ.  1.00000000
 
ion      s     py     pz     px    dxy    dyz    dz2    dxz  x2-y2    tot
    1  0.020  0.005  0.020  0.004  0.035  0.122  0.269  0.279  0.224  0.978
 
band     6 # energy   11.90483928 # occ.  1.00000000
 
ion      s     py     pz     px    dxy    dyz    dz2    dxz  x2-y2    tot
    1  0.016  0.006  0.011  0.000  0.001  0.331  0.066  0.004  0.552  0.987
 
band     7 # energy   31.14131928 # occ.  0.00000000
 
ion      s     py     pz     px    dxy    dyz    dz2    dxz  x2-y2    tot
    1  0.055  0.104  0.017  0.188  0.238  0.105  0.030  0.153  0.004  0.894
 
band     8 # energy   33.83196590 # occ.  0.00000000
 
ion      s     py     pz     px    dxy    dyz    dz2    dxz  x2-y2    tot
    1  0.035  0.119  0.005  0.126  0.158  0.129  0.091  0.093  0.023  0.778
 
band     9 # energy   37.79746908 # occ.  0.00000000
 
ion      s     py     pz     px    dxy    dyz    dz2    dxz  x2-y2    tot
    1  0.012  0.102  0.083  0.037  0.030  0.069  0.342  0.032  0.011  0.719
 
band    10 # energy   40.00727548 # occ.  0.00000000
 
ion      s     py     pz     px    dxy    dyz    dz2    dxz  x2-y2    tot
    1  0.025  0.000  0.060  0.112  0.336  0.000  0.088  0.085  0.000  0.707
 
band    11 # energy   46.23832077 # occ.  0.00000000
 
ion      s     py     pz     px    dxy    dyz    dz2    dxz  x2-y2    tot
    1  0.697  0.164  0.312  0.019  0.005  0.062  0.024  0.004  0.000  1.288
 
band    12 # energy   48.79220877 # occ.  0.00000000
 
ion      s     py     pz     px    dxy    dyz    dz2    dxz  x2-y2    tot
    1  0.828  0.033  0.007  0.000  0.058  0.014  0.212  0.022  0.155  1.329
 

 k-point    11 :    0.43750000 0.18750000 0.06250000     weight = 0.02343750

band     1 # energy    7.16325175 # occ.  1.00000000
 
ion      s     py     pz     px    dxy    dyz    dz2    dxz  x2-y2    tot
    1  0.271  0.021  0.111  0.000  0.192  0.146  0.094  0.092  0.001  0.930
 
band     2 # energy    8.96663856 # occ.  1.00000000
 
ion      s     py     pz     px    dxy    dyz    dz2    dxz  x2-y2    tot
    1  0.018  0.054  0.033  0.053  0.335  0.025  0.348  0.060  0.012  0.939
 
band     3 # energy    9.57210641 # occ.  1.00000000
 
ion      s     py     pz     px    dxy    dyz    dz2    dxz  x2-y2    tot
    1  0.034  0.001  0.032  0.010  0.317  0.288  0.240  0.007  0.042  0.972
 
band     4 # energy   10.40733151 # occ.  1.00000000
 
ion      s     py     pz     px    dxy    dyz    dz2    dxz  x2-y2    tot
    1  0.003  0.005  0.007  0.002  0.039  0.077  0.052  0.305  0.488  0.978
 
band     5 # energy   12.00193948 # occ.  1.00000000
 
ion      s     py     pz     px    dxy    dyz    dz2    dxz  x2-y2    tot
    1  0.004  0.001  0.011  0.006  0.038  0.055  0.059  0.466  0.345  0.986
 
band     6 # energy   13.32198176 # occ.  0.00000000
 
ion      s     py     pz     px    dxy    dyz    dz2    dxz  x2-y2    tot
    1  0.091  0.041  0.107  0.021  0.018  0.387  0.179  0.027  0.094  0.965
 
band     7 # energy   25.00793921 # occ.  0.00000000
 
ion      s     py     pz     px    dxy    dyz    dz2    dxz  x2-y2    tot
    1  0.190  0.108  0.017  0.186  0.199  0.097  0.019  0.121  0.004  0.942
 
band     8 # energy   33.05558287 # occ.  0.00000000
 
ion      s     py     pz     px    dxy    dyz    dz2    dxz  x2-y2    tot
    1  0.010  0.075  0.009  0.142  0.139  0.078  0.194  0.041  0.061  0.749
 
band     9 # energy   35.52237468 # occ.  0.00000000
 
ion      s     py     pz     px    dxy    dyz    dz2    dxz  x2-y2    tot
    1  0.072  0.054  0.193  0.109  0.000  0.009  0.247  0.060  0.047  0.791
 
band    10 # energy   39.82755100 # occ.  0.00000000
 
ion      s     py     pz     px    dxy    dyz    dz2    dxz  x2-y2    tot
    1  0.071  0.127  0.116  0.027  0.271  0.026  0.029  0.018  0.008  0.694
 
band    11 # energy   46.94349382 # occ.  0.00000000
 
ion      s     py     pz     px    dxy    dyz    dz2    dxz  x2-y2    tot
    1  0.086  0.093  0.001  0.002  0.228  0.017  0.166  0.053  0.246  0.892
 
band    12 # energy   48.98045385 # occ.  0.00000000
 
ion      s     py     pz     px    dxy    dyz    dz2    dxz  x2-y2    tot
    1  4.811  0.031  0.016  0.011  0.016  0.009  0.038  0.004  0.000  4.936
 

 k-point    12 :   -0.43750000 0.18750000 0.06250000     weight = 0.02343750

band     1 # energy    7.42400536 # occ.  1.00000000
 
ion      s     py     pz     px    dxy    dyz    dz2    dxz  x2-y2    tot
    1  0.141  0.000  0.032  0.013  0.352  0.243  0.011  0.172  0.000  0.965
 
band     2 # energy    9.00111456 # occ.  1.00000000
 
ion      s     py     pz     px    dxy    dyz    dz2    dxz  x2-y2    tot
    1  0.000  0.040  0.005  0.018  0.030  0.076  0.687  0.012  0.076  0.943
 
band     3 # energy   10.10485588 # occ.  1.00000000
 
ion      s     py     pz     px    dxy    dyz    dz2    dxz  x2-y2    tot
    1  0.003  0.047  0.067  0.074  0.307  0.332  0.056  0.004  0.066  0.956
 
band     4 # energy   10.20856045 # occ.  1.00000000
 
ion      s     py     pz     px    dxy    dyz    dz2    dxz  x2-y2    tot
    1  0.001  0.015  0.027  0.002  0.114  0.001  0.031  0.261  0.522  0.973
 
band     5 # energy   12.26489087 # occ.  1.00000000
 
ion      s     py     pz     px    dxy    dyz    dz2    dxz  x2-y2    tot
    1  0.000  0.000  0.000  0.000  0.037  0.170  0.031  0.463  0.290  0.991
 
band     6 # energy   15.62498294 # occ.  0.00000000
 
ion      s     py     pz     px    dxy    dyz    dz2    dxz  x2-y2    tot
    1  0.010  0.145  0.209  0.149  0.071  0.117  0.178  0.015  0.024  0.919
 
band     7 # energy   20.72662463 # occ.  0.00000000
 
ion      s     py     pz     px    dxy    dyz    dz2    dxz  x2-y2    tot
    1  0.420  0.015  0.015  0.061  0.188  0.142  0.001  0.140  0.001  0.983
 
band     8 # energy   32.35265568 # occ.  0.00000000
 
ion      s     py     pz     px    dxy    dyz    dz2    dxz  x2-y2    tot