<?xml version="1.0" encoding="ISO-8859-1"?>
<modeling>
 <generator>
  <i name="program" type="string">vasp </i>
  <i name="version" type="string">6.3.2  </i>
  <i name="subversion" type="string">27Jun22 (build Aug 12 2022 00:53:59) complex                          parallel </i>
  <i name="platform" type="string">tv2STD </i>
  <i name="date" type="string">2024 12 03 </i>
  <i name="time" type="string">02:18:46 </i>
 </generator>
 <incar>
  <i type="string" name="SYSTEM">Co-fcc</i>
  <i type="int" name="ISTART">     0</i>
  <i type="string" name="PREC">Accurate      normal | accurate</i>
  <i type="string" name="ALGO">Normal     Normal, Fast, Very_Fast</i>
  <i type="logical" name="ADDGRID"> F  </i>
  <i type="int" name="ISPIN">     2</i>
  <i type="int" name="ICHARG">     2</i>
  <i type="int" name="INIWAV">     1</i>
  <i type="int" name="NELM">   100</i>
  <i type="int" name="IBRION">     2</i>
  <i name="EDIFF">      0.00000100</i>
  <i name="EDIFFG">     -0.02000000</i>
  <i type="int" name="NSW">   100</i>
  <i type="int" name="ISIF">     2</i>
  <i type="int" name="ISYM">     1</i>
  <i name="ENCUT">    400.00000000</i>
  <v name="MAGMOM">      3.00000000</v>
  <i type="logical" name="LREAL"> F  </i>
  <i type="int" name="ISMEAR">     0</i>
  <i name="SIGMA">      0.05000000</i>
  <i type="int" name="NWRITE">     2</i>
  <i type="logical" name="LWAVE"> T  </i>
  <i type="logical" name="LCHARG"> T  </i>
  <i type="int" name="LORBIT">    11</i>
 </incar>
 <primitive_cell>
  <structure name="primitive_cell" >
   <crystal>
    <varray name="basis" >
     <v>       0.00000000       1.66655418       1.66655418 </v>
     <v>       1.66655418       0.00000000       1.66655418 </v>
     <v>       1.66655418       1.66655418       0.00000000 </v>
    </varray>
    <i name="volume">      9.25738459 </i>
    <varray name="rec_basis" >
     <v>      -0.30002025       0.30002025       0.30002025 </v>
     <v>       0.30002025      -0.30002025       0.30002025 </v>
     <v>       0.30002025       0.30002025      -0.30002025 </v>
    </varray>
   </crystal>
   <varray name="positions" >
    <v>       0.00000000       0.00000000       0.00000000 </v>
   </varray>
  </structure>
  <varray name="primitive_index" >
   <v type="int" >        1 </v>
  </varray>
 </primitive_cell>
 <kpoints>
  <generation param="Monkhorst-Pack">
   <v type="int" name="divisions">       8        8        8 </v>
   <v name="usershift">      0.00000000       0.00000000       0.00000000 </v>
   <v name="genvec1">      0.12500000       0.00000000       0.00000000 </v>
   <v name="genvec2">      0.00000000       0.12500000       0.00000000 </v>
   <v name="genvec3">      0.00000000       0.00000000       0.12500000 </v>
   <v name="shift">      0.50000000       0.50000000       0.50000000 </v>
  </generation>
  <varray name="kpointlist" >
   <v>       0.06250000       0.06250000       0.06250000 </v>
   <v>       0.18750000       0.06250000       0.06250000 </v>
   <v>       0.31250000       0.06250000       0.06250000 </v>
   <v>       0.43750000       0.06250000       0.06250000 </v>
   <v>      -0.43750000       0.06250000       0.06250000 </v>
   <v>      -0.31250000       0.06250000       0.06250000 </v>
   <v>      -0.18750000       0.06250000       0.06250000 </v>
   <v>      -0.06250000       0.06250000       0.06250000 </v>
   <v>       0.18750000       0.18750000       0.06250000 </v>
   <v>       0.31250000       0.18750000       0.06250000 </v>
   <v>       0.43750000       0.18750000       0.06250000 </v>
   <v>      -0.43750000       0.18750000       0.06250000 </v>
   <v>      -0.31250000       0.18750000       0.06250000 </v>
   <v>      -0.18750000       0.18750000       0.06250000 </v>
   <v>      -0.06250000       0.18750000       0.06250000 </v>
   <v>       0.31250000       0.31250000       0.06250000 </v>
   <v>       0.43750000       0.31250000       0.06250000 </v>
   <v>      -0.43750000       0.31250000       0.06250000 </v>
   <v>      -0.31250000       0.31250000       0.06250000 </v>
   <v>      -0.18750000       0.31250000       0.06250000 </v>
   <v>      -0.06250000       0.31250000       0.06250000 </v>
   <v>       0.43750000       0.43750000       0.06250000 </v>
   <v>      -0.43750000       0.43750000       0.06250000 </v>
   <v>      -0.31250000       0.43750000       0.06250000 </v>
   <v>      -0.18750000       0.43750000       0.06250000 </v>
   <v>      -0.06250000       0.43750000       0.06250000 </v>
   <v>      -0.43750000      -0.43750000       0.06250000 </v>
   <v>      -0.31250000      -0.43750000       0.06250000 </v>
   <v>      -0.18750000      -0.43750000       0.06250000 </v>
   <v>      -0.31250000      -0.31250000       0.06250000 </v>
   <v>      -0.18750000      -0.31250000       0.06250000 </v>
   <v>      -0.18750000      -0.18750000       0.06250000 </v>
   <v>       0.18750000       0.18750000       0.18750000 </v>
   <v>       0.31250000       0.18750000       0.18750000 </v>
   <v>       0.43750000       0.18750000       0.18750000 </v>
   <v>      -0.43750000       0.18750000       0.18750000 </v>
   <v>      -0.31250000       0.18750000       0.18750000 </v>
   <v>      -0.18750000       0.18750000       0.18750000 </v>
   <v>       0.31250000       0.31250000       0.18750000 </v>
   <v>       0.43750000       0.31250000       0.18750000 </v>
   <v>      -0.43750000       0.31250000       0.18750000 </v>
   <v>      -0.31250000       0.31250000       0.18750000 </v>
   <v>      -0.18750000       0.31250000       0.18750000 </v>
   <v>       0.43750000       0.43750000       0.18750000 </v>
   <v>      -0.43750000       0.43750000       0.18750000 </v>
   <v>      -0.31250000       0.43750000       0.18750000 </v>
   <v>      -0.18750000       0.43750000       0.18750000 </v>
   <v>      -0.43750000      -0.43750000       0.18750000 </v>
   <v>      -0.31250000      -0.43750000       0.18750000 </v>
   <v>      -0.31250000      -0.31250000       0.18750000 </v>
   <v>       0.31250000       0.31250000       0.31250000 </v>
   <v>       0.43750000       0.31250000       0.31250000 </v>
   <v>      -0.43750000       0.31250000       0.31250000 </v>
   <v>      -0.31250000       0.31250000       0.31250000 </v>
   <v>       0.43750000       0.43750000       0.31250000 </v>
   <v>      -0.43750000       0.43750000       0.31250000 </v>
   <v>      -0.31250000       0.43750000       0.31250000 </v>
   <v>      -0.43750000      -0.43750000       0.31250000 </v>
   <v>       0.43750000       0.43750000       0.43750000 </v>
   <v>      -0.43750000       0.43750000       0.43750000 </v>
  </varray>
  <varray name="weights" >
   <v>       0.00390625 </v>
   <v>       0.01171875 </v>
   <v>       0.01171875 </v>
   <v>       0.01171875 </v>
   <v>       0.01171875 </v>
   <v>       0.01171875 </v>
   <v>       0.01171875 </v>
   <v>       0.01171875 </v>
   <v>       0.01171875 </v>
   <v>       0.02343750 </v>
   <v>       0.02343750 </v>
   <v>       0.02343750 </v>
   <v>       0.02343750 </v>
   <v>       0.02343750 </v>
   <v>       0.02343750 </v>
   <v>       0.01171875 </v>
   <v>       0.02343750 </v>
   <v>       0.02343750 </v>
   <v>       0.02343750 </v>
   <v>       0.02343750 </v>
   <v>       0.02343750 </v>
   <v>       0.01171875 </v>
   <v>       0.02343750 </v>
   <v>       0.02343750 </v>
   <v>       0.02343750 </v>
   <v>       0.02343750 </v>
   <v>       0.01171875 </v>
   <v>       0.02343750 </v>
   <v>       0.02343750 </v>
   <v>       0.01171875 </v>
   <v>       0.02343750 </v>
   <v>       0.01171875 </v>
   <v>       0.00390625 </v>
   <v>       0.01171875 </v>
   <v>       0.01171875 </v>
   <v>       0.01171875 </v>
   <v>       0.01171875 </v>
   <v>       0.01171875 </v>
   <v>       0.01171875 </v>
   <v>       0.02343750 </v>
   <v>       0.02343750 </v>
   <v>       0.02343750 </v>
   <v>       0.02343750 </v>
   <v>       0.01171875 </v>
   <v>       0.02343750 </v>
   <v>       0.02343750 </v>
   <v>       0.02343750 </v>
   <v>       0.01171875 </v>
   <v>       0.02343750 </v>
   <v>       0.01171875 </v>
   <v>       0.00390625 </v>
   <v>       0.01171875 </v>
   <v>       0.01171875 </v>
   <v>       0.01171875 </v>
   <v>       0.01171875 </v>
   <v>       0.02343750 </v>
   <v>       0.02343750 </v>
   <v>       0.01171875 </v>
   <v>       0.00390625 </v>
   <v>       0.01171875 </v>
  </varray>
 </kpoints>
 <parameters>
  <separator name="general" >
   <i type="string" name="SYSTEM">Co-fcc</i>
   <i type="logical" name="LCOMPAT"> F  </i>
  </separator>
  <separator name="electronic" >
   <i type="string" name="PREC">accura</i>
   <i name="ENMAX">    400.00000000</i>
   <i name="ENAUG">    477.81800000</i>
   <i name="EDIFF">      0.00000100</i>
   <i type="int" name="IALGO">    38</i>
   <i type="int" name="IWAVPR">    11</i>
   <i type="int" name="NBANDS">    12</i>
   <i type="int" name="NBANDSLOW">    -1</i>
   <i type="int" name="NBANDSHIGH">    -1</i>
   <i name="NELECT">      9.00000000</i>
   <i type="int" name="TURBO">     0</i>
   <i type="int" name="IRESTART">     0</i>
   <i type="int" name="NREBOOT">     0</i>
   <i type="int" name="NMIN">     0</i>
   <i name="EREF">      0.00000000</i>
   <separator name="electronic smearing" >
    <i type="int" name="ISMEAR">     0</i>
    <i name="SIGMA">      0.05000000</i>
    <i name="KSPACING">      0.50000000</i>
    <i type="logical" name="KGAMMA"> T  </i>
    <i type="logical" name="KBLOWUP"> T  </i>
   </separator>
   <separator name="electronic projectors" >
    <i type="logical" name="LREAL"> F  </i>
    <v name="ROPT">      0.00000000</v>
    <i type="int" name="LMAXPAW">  -100</i>
    <i type="int" name="LMAXMIX">     2</i>
    <i type="logical" name="NLSPLINE"> F  </i>
   </separator>
   <separator name="electronic startup" >
    <i type="int" name="ISTART">     0</i>
    <i type="int" name="ICHARG">     2</i>
    <i type="int" name="INIWAV">     1</i>
   </separator>
   <separator name="electronic spin" >
    <i type="int" name="ISPIN">     2</i>
    <i type="logical" name="LNONCOLLINEAR"> F  </i>
    <v name="MAGMOM">      3.00000000</v>
    <i name="NUPDOWN">     -1.00000000</i>
    <i type="logical" name="LSORBIT"> F  </i>
    <v name="SAXIS">      0.00000000      0.00000000      1.00000000</v>
    <i type="logical" name="LSPIRAL"> F  </i>
    <v name="QSPIRAL">      0.00000000      0.00000000      0.00000000</v>
    <i type="logical" name="LZEROZ"> F  </i>
   </separator>
   <separator name="electronic exchange-correlation" >
    <i type="logical" name="LASPH"> F  </i>
    <i type="logical" name="LMETAGGA"> F  </i>
   </separator>
   <separator name="electronic convergence" >
    <i type="int" name="NELM">   100</i>
    <i type="int" name="NELMDL">    -5</i>
    <i type="int" name="NELMIN">     2</i>
    <i name="ENINI">    400.00000000</i>
    <separator name="electronic convergence detail" >
     <i type="logical" name="LDIAG"> T  </i>
     <i type="logical" name="LSUBROT"> F  </i>
     <i name="WEIMIN">      0.00100000</i>
     <i name="EBREAK">      0.00000002</i>
     <i name="DEPER">      0.30000000</i>
     <i type="int" name="NRMM">     4</i>
     <i name="TIME">      0.40000000</i>
    </separator>
   </separator>
   <separator name="electronic mixer" >
    <i name="AMIX">      0.40000000</i>
    <i name="BMIX">      1.00000000</i>
    <i name="AMIN">      0.10000000</i>
    <i name="AMIX_MAG">      1.60000000</i>
    <i name="BMIX_MAG">      1.00000000</i>
    <separator name="electronic mixer details" >
     <i type="int" name="IMIX">     4</i>
     <i type="logical" name="MIXFIRST"> F  </i>
     <i type="int" name="MAXMIX">   -45</i>
     <i name="WC">    100.00000000</i>
     <i type="int" name="INIMIX">     1</i>
     <i type="int" name="MIXPRE">     1</i>
     <i type="int" name="MREMOVE">     5</i>
    </separator>
   </separator>
   <separator name="electronic dipolcorrection" >
    <i type="logical" name="LDIPOL"> F  </i>
    <i type="logical" name="LMONO"> F  </i>
    <i type="int" name="IDIPOL">     0</i>
    <i name="EPSILON">      1.00000000</i>
    <v name="DIPOL">   -100.00000000   -100.00000000   -100.00000000</v>
    <i name="EFIELD">      0.00000000</i>
   </separator>
  </separator>
  <separator name="grids" >
   <i type="int" name="NGX">    16</i>
   <i type="int" name="NGY">    16</i>
   <i type="int" name="NGZ">    16</i>
   <i type="int" name="NGXF">    32</i>
   <i type="int" name="NGYF">    32</i>
   <i type="int" name="NGZF">    32</i>
   <i type="logical" name="ADDGRID"> F  </i>
  </separator>
  <separator name="ionic" >
   <i type="int" name="NSW">   100</i>
   <i type="int" name="IBRION">     2</i>
   <i type="int" name="MDALGO">     0</i>
   <i type="int" name="ISIF">     2</i>
   <i name="PSTRESS">      0.00000000</i>
   <i name="EDIFFG">     -0.02000000</i>
   <i type="int" name="NFREE">     1</i>
   <i name="POTIM">      0.50000000</i>
   <i name="SMASS">     -3.00000000</i>
   <i name="SCALEE">      1.00000000</i>
  </separator>
  <separator name="ionic md" >
   <i name="TEBEG">      0.00010000</i>
   <i name="TEEND">      0.00010000</i>
   <i type="int" name="NBLOCK">     1</i>
   <i type="int" name="KBLOCK">   100</i>
   <i type="int" name="NPACO">   256</i>
   <i name="APACO">     10.00000000</i>
  </separator>
  <separator name="symmetry" >
   <i type="int" name="ISYM">     1</i>
   <i name="SYMPREC">      0.00001000</i>
  </separator>
  <separator name="dos" >
   <i type="int" name="LORBIT">    11</i>
   <v name="RWIGS">     -1.00000000</v>
   <i type="int" name="NEDOS">   301</i>
   <i name="EMIN">     10.00000000</i>
   <i name="EMAX">    -10.00000000</i>
   <i name="EFERMI">      0.00000000</i>
  </separator>
  <separator name="writing" >
   <i type="int" name="NWRITE">     2</i>
   <i type="logical" name="LWAVE"> T  </i>
   <i type="logical" name="LDOWNSAMPLE"> F  </i>
   <i type="logical" name="LCHARG"> T  </i>
   <i type="logical" name="LPARD"> F  </i>
   <i type="logical" name="LVTOT"> F  </i>
   <i type="logical" name="LVHAR"> F  </i>
   <i type="logical" name="LELF"> F  </i>
   <i type="logical" name="LOPTICS"> F  </i>
   <v name="STM">      0.00000000      0.00000000      0.00000000      0.00000000      0.00000000      0.00000000      0.00000000</v>
  </separator>
  <separator name="performance" >
   <i type="int" name="NPAR">     4</i>
   <i type="int" name="NSIM">     4</i>
   <i type="int" name="NBLK">    -1</i>
   <i type="logical" name="LPLANE"> T  </i>
   <i type="logical" name="LSCALAPACK"> T  </i>
   <i type="logical" name="LSCAAWARE"> T  </i>
   <i type="logical" name="LSCALU"> F  </i>
   <i type="logical" name="LASYNC"> F  </i>
   <i type="logical" name="LORBITALREAL"> F  </i>
  </separator>
  <separator name="miscellaneous" >
   <i type="int" name="IDIOT">     3</i>
   <i type="int" name="PHON_NSTRUCT">    -1</i>
   <i type="logical" name="LMUSIC"> F  </i>
   <v name="POMASS">     58.93300000</v>
   <v name="DARWINR">      0.00000000</v>
   <v name="DARWINV">      1.00000000</v>
   <i type="logical" name="LCORR"> T  </i>
  </separator>
  <i type="logical" name="GGA_COMPAT"> T  </i>
  <i type="logical" name="LBERRY"> F  </i>
  <i type="int" name="ICORELEVEL">     0</i>
  <i type="logical" name="LDAU"> F  </i>
  <i type="int" name="I_CONSTRAINED_M">     0</i>
  <separator name="electronic exchange-correlation" >
   <i type="string" name="GGA">--</i>
   <i type="int" name="VOSKOWN">     0</i>
   <i type="logical" name="LHFCALC"> F  </i>
   <i type="string" name="PRECFOCK"></i>
   <i type="logical" name="LSYMGRAD"> F  </i>
   <i type="logical" name="LHFONE"> F  </i>
   <i type="logical" name="LRHFCALC"> F  </i>
   <i type="logical" name="LTHOMAS"> F  </i>
   <i type="logical" name="LMODELHF"> F  </i>
   <i type="logical" name="LFOCKACE"> F  </i>
   <i name="ENCUT4O">     -1.00000000</i>
   <i type="int" name="EXXOEP">     0</i>
   <i type="int" name="FOURORBIT">     0</i>
   <i name="AEXX">      0.00000000</i>
   <i name="HFALPHA">      0.00000000</i>
   <i name="MCALPHA">      0.00000000</i>
   <i name="ALDAX">      1.00000000</i>
   <i name="AGGAX">      1.00000000</i>
   <i name="ALDAC">      1.00000000</i>
   <i name="AGGAC">      1.00000000</i>
   <i type="int" name="NKREDX">     1</i>
   <i type="int" name="NKREDY">     1</i>
   <i type="int" name="NKREDZ">     1</i>
   <i type="logical" name="SHIFTRED"> F  </i>
   <i type="logical" name="ODDONLY"> F  </i>
   <i type="logical" name="EVENONLY"> F  </i>
   <i type="int" name="LMAXFOCK">     0</i>
   <i type="int" name="NMAXFOCKAE">     0</i>
   <i type="logical" name="LFOCKAEDFT"> F  </i>
   <i name="HFSCREEN">      0.00000000</i>
   <i name="HFSCREENC">      0.00000000</i>
   <i type="int" name="NBANDSGWLOW">     0</i>
  </separator>
  <separator name="vdW DFT" >
   <i type="logical" name="LUSE_VDW"> F  </i>
   <i name="Zab_VDW">     -0.84910000</i>
   <i name="PARAM1">      0.12340000</i>
   <i name="PARAM2">      1.00000000</i>
   <i name="PARAM3">      0.00000000</i>
  </separator>
  <separator name="model GW" >
   <i type="int" name="MODEL_GW">     0</i>
   <i name="MODEL_EPS0">      5.55443075</i>
   <i name="MODEL_ALPHA">      1.00000000</i>
  </separator>
  <separator name="linear response parameters" >
   <i type="logical" name="LEPSILON"> F  </i>
   <i type="logical" name="LRPA"> F  </i>
   <i type="logical" name="LNABLA"> F  </i>
   <i type="logical" name="LVEL"> F  </i>
   <i name="CSHIFT">      0.10000000</i>
   <i name="OMEGAMAX">     -1.00000000</i>
   <i name="DEG_THRESHOLD">      0.00200000</i>
   <i name="RTIME">     -0.10000000</i>
   <i name="WPLASMAI">      0.00000000</i>
   <v name="DFIELD">      0.00000000      0.00000000      0.00000000</v>
   <v name="WPLASMA">      0.00000000      0.00000000      0.00000000      0.00000000      0.00000000      0.00000000      0.00000000      0.00000000      0.00000000</v>
  </separator>
  <separator name="orbital magnetization" >
   <i type="logical" name="NUCIND"> F  </i>
   <v name="MAGPOS">      0.00000000      0.00000000      0.00000000</v>
   <i type="logical" name="LNICSALL"> T  </i>
   <i type="logical" name="ORBITALMAG"> F  </i>
   <i type="logical" name="LMAGBLOCH"> F  </i>
   <i type="logical" name="LCHIMAG"> F  </i>
   <i type="logical" name="LGAUGE"> T  </i>
   <i type="int" name="MAGATOM">     0</i>
   <v name="MAGDIPOL">      0.00000000      0.00000000      0.00000000</v>
   <v name="AVECCONST">      0.00000000      0.00000000      0.00000000</v>
  </separator>
  <separator name="response functions" >
   <i type="logical" name="LFINITE_TEMPERATURE"> F  </i>
   <i type="logical" name="LADDER"> F  </i>
   <i type="logical" name="LRPAFORCE"> F  </i>
   <i type="logical" name="LFXC"> F  </i>
   <i type="logical" name="LHARTREE"> T  </i>
   <i type="int" name="IBSE">     0</i>
   <v type="int" name="KPOINT">    -1     0     0     0</v>
   <i type="logical" name="LTCTC"> F  </i>
   <i type="logical" name="LTCTE"> F  </i>
   <i type="logical" name="LTETE"> F  </i>
   <i type="logical" name="LTRIPLET"> F  </i>
   <i type="logical" name="LFXCEPS"> F  </i>
   <i type="logical" name="LFXHEG"> F  </i>
   <i type="int" name="NATURALO">     2</i>
   <i type="logical" name="LHOLEGF"> F  </i>
   <i type="logical" name="L2ORDER"> F  </i>
   <i type="logical" name="LDMP1"> F  </i>
   <i type="logical" name="LMP2LT"> F  </i>
   <i type="logical" name="LSMP2LT"> F  </i>
   <i type="logical" name="LGWLF"> F  </i>
   <i name="ENCUTGW">     -2.00000000</i>
   <i name="ENCUTGWSOFT">     -2.00000000</i>
   <i name="ENCUTLF">     -1.00000000</i>
   <i type="logical" name="LESF_SPLINES"> F  </i>
   <i type="int" name="LMAXMP2">    -1</i>
   <i name="SCISSOR">      0.00000000</i>
   <i type="int" name="NOMEGA">     0</i>
   <i type="int" name="NOMEGAR">     0</i>
   <i type="int" name="NBANDSGW">    -1</i>
   <i type="int" name="NBANDSO">    -1</i>
   <i type="int" name="NBANDSV">    -1</i>
   <i type="int" name="NELMGW">     1</i>
   <i type="int" name="NELMHF">     1</i>
   <i type="int" name="DIM">     3</i>
   <i type="int" name="IESPILON">     4</i>
   <i type="int" name="ANTIRES">     0</i>
   <i name="OMEGAMAX">    -30.00000000</i>
   <i name="OMEGAMIN">    -30.00000000</i>
   <i name="OMEGATL">   -200.00000000</i>
   <i type="int" name="OMEGAGRID">     0</i>
   <i name="CSHIFT">     -0.10000000</i>
   <i type="logical" name="LSELFENERGY"> F  </i>
   <i type="logical" name="LSPECTRAL"> F  </i>
   <i type="logical" name="LSPECTRALGW"> F  </i>
   <i type="logical" name="LSINGLES"> F  </i>
   <i type="logical" name="LFERMIGW"> F  </i>
   <i type="logical" name="ODDONLYGW"> F  </i>
   <i type="logical" name="EVENONLYGW"> F  </i>
   <i type="int" name="NKREDLFX">     1</i>
   <i type="int" name="NKREDLFY">     1</i>
   <i type="int" name="NKREDLFZ">     1</i>
   <i type="int" name="MAXMEM">  2800</i>
   <i type="int" name="TELESCOPE">     0</i>
   <i type="int" name="NTAUPAR">    -1</i>
   <i type="int" name="NOMEGAPAR">    -1</i>
   <i name="DAMP_NEWTON">      0.80000001</i>
   <i name="LAMBDA">      1.00000000</i>
  </separator>
  <separator name="External order field" >
   <i name="OFIELD_KAPPA">      0.00000000</i>
   <v name="OFIELD_K">      0.00000000      0.00000000      0.00000000</v>
   <i name="OFIELD_Q6_NEAR">      0.00000000</i>
   <i name="OFIELD_Q6_FAR">      0.00000000</i>
   <i name="OFIELD_A">      0.00000000</i>
  </separator>
  <separator name="optional k-points parameters" >
   <i type="int" name="KPOINTS_OPT_MODE">     1</i>
   <i type="logical" name="LKPOINTS_OPT"> F  </i>
  </separator>
 </parameters>
 <atominfo>
  <atoms>       1 </atoms>
  <types>       1 </types>
  <array name="atoms" >
   <dimension dim="1">ion</dimension>
   <field type="string">element</field>
   <field type="int">atomtype</field>
   <set>
    <rc><c>Co</c><c>   1</c></rc>
   </set>
  </array>
  <array name="atomtypes" >
   <dimension dim="1">type</dimension>
   <field type="int">atomspertype</field>
   <field type="string">element</field>
   <field>mass</field>
   <field>valence</field>
   <field type="string">pseudopotential</field>
   <set>
    <rc><c>   1</c><c>Co</c><c>     58.93300000</c><c>      9.00000000</c><c>  PAW_PBE Co 02Aug2007                  </c></rc>
   </set>
  </array>
 </atominfo>
 <structure name="initialpos" >
  <crystal>
   <varray name="basis" >
    <v>       0.00000000       1.66655418       1.66655418 </v>
    <v>       1.66655418       0.00000000       1.66655418 </v>
    <v>       1.66655418       1.66655418       0.00000000 </v>
   </varray>
   <i name="volume">      9.25738459 </i>
   <varray name="rec_basis" >
    <v>      -0.30002025       0.30002025       0.30002025 </v>
    <v>       0.30002025      -0.30002025       0.30002025 </v>
    <v>       0.30002025       0.30002025      -0.30002025 </v>
   </varray>
  </crystal>
  <varray name="positions" >
   <v>       0.00000000       0.00000000       0.00000000 </v>
  </varray>
 </structure>
 <calculation>
  <scstep>
   <time name="dav">    0.26    0.26</time>
   <time name="total">    0.27    0.28</time>
   <energy>
    <i name="alphaZ">     45.75557004 </i>
    <i name="ewald">   -802.20975556 </i>
    <i name="hartreedc">   -133.35879723 </i>
    <i name="XCdc">     18.36837927 </i>
    <i name="pawpsdc">    719.99081943 </i>
    <i name="pawaedc">   -772.94345096 </i>
    <i name="eentropy">     -0.00120140 </i>
    <i name="bandstr">    134.47745281 </i>
    <i name="atom">    813.35773410 </i>
    <i name="e_fr_energy">     23.43675051 </i>
    <i name="e_wo_entrp">     23.43795191 </i>
    <i name="e_0_energy">     23.43735121 </i>
   </energy>
  </scstep>
  <scstep>
   <time name="dav">    0.26    0.26</time>
   <time name="total">    0.26    0.26</time>
   <energy>
    <i name="e_fr_energy">     -6.67384174 </i>
    <i name="e_wo_entrp">     -6.67262318 </i>
    <i name="e_0_energy">     -6.67323246 </i>
   </energy>
  </scstep>
  <scstep>
   <time name="dav">    0.27    0.28</time>
   <time name="total">    0.27    0.28</time>
   <energy>
    <i name="e_fr_energy">     -7.39974219 </i>
    <i name="e_wo_entrp">     -7.39783041 </i>
    <i name="e_0_energy">     -7.39878630 </i>
   </energy>
  </scstep>
  <scstep>
   <time name="dav">    0.28    0.28</time>
   <time name="total">    0.28    0.28</time>
   <energy>
    <i name="e_fr_energy">     -7.40574762 </i>
    <i name="e_wo_entrp">     -7.40382961 </i>
    <i name="e_0_energy">     -7.40478862 </i>
   </energy>
  </scstep>
  <scstep>
   <time name="dav">    0.30    0.30</time>
   <time name="total">    0.31    0.31</time>
   <energy>
    <i name="e_fr_energy">     -7.40585520 </i>
    <i name="e_wo_entrp">     -7.40393701 </i>
    <i name="e_0_energy">     -7.40489611 </i>
   </energy>
  </scstep>
  <scstep>
   <time name="dav">    0.29    0.29</time>
   <time name="total">    0.31    0.31</time>
   <energy>
    <i name="e_fr_energy">     -6.89077672 </i>
    <i name="e_wo_entrp">     -6.88960944 </i>
    <i name="e_0_energy">     -6.89019308 </i>
   </energy>
  </scstep>
  <scstep>
   <time name="dav">    0.28    0.28</time>
   <time name="total">    0.29    0.30</time>
   <energy>
    <i name="e_fr_energy">     -6.83043015 </i>
    <i name="e_wo_entrp">     -6.82942911 </i>
    <i name="e_0_energy">     -6.82992963 </i>
   </energy>
  </scstep>
  <scstep>
   <time name="dav">    0.31    0.32</time>
   <time name="total">    0.33    0.33</time>
   <energy>
    <i name="e_fr_energy">     -6.81072119 </i>
    <i name="e_wo_entrp">     -6.80975468 </i>
    <i name="e_0_energy">     -6.81023793 </i>
   </energy>
  </scstep>
  <scstep>
   <time name="dav">    0.35    0.35</time>
   <time name="total">    0.37    0.37</time>
   <energy>
    <i name="e_fr_energy">     -6.80793017 </i>
    <i name="e_wo_entrp">     -6.80691917 </i>
    <i name="e_0_energy">     -6.80742467 </i>
   </energy>
  </scstep>
  <scstep>
   <time name="dav">    0.28    0.29</time>
   <time name="total">    0.30    0.30</time>
   <energy>
    <i name="e_fr_energy">     -6.80774732 </i>
    <i name="e_wo_entrp">     -6.80672965 </i>
    <i name="e_0_energy">     -6.80723848 </i>
   </energy>
  </scstep>
  <scstep>
   <time name="dav">    0.31    0.31</time>
   <time name="total">    0.33    0.33</time>
   <energy>
    <i name="e_fr_energy">     -6.80774218 </i>
    <i name="e_wo_entrp">     -6.80672352 </i>
    <i name="e_0_energy">     -6.80723285 </i>
   </energy>
  </scstep>
  <scstep>
   <time name="dav">    0.23    0.23</time>
   <time name="total">    0.25    0.25</time>
   <energy>
    <i name="e_fr_energy">     -6.80773998 </i>
    <i name="e_wo_entrp">     -6.80672138 </i>
    <i name="e_0_energy">     -6.80723068 </i>
   </energy>
  </scstep>
  <scstep>
   <time name="dav">    0.22    0.22</time>
   <time name="total">    0.23    0.23</time>
   <energy>
    <i name="alphaZ">     45.75557004 </i>
    <i name="ewald">   -802.20975556 </i>
    <i name="hartreedc">   -115.90386414 </i>
    <i name="XCdc">     16.90347265 </i>
    <i name="pawpsdc">   1011.64987337 </i>
    <i name="pawaedc">  -1065.62002641 </i>
    <i name="eentropy">     -0.00101873 </i>
    <i name="bandstr">     89.26027486 </i>
    <i name="atom">    813.35773410 </i>
    <i name="e_fr_energy">     -6.80773980 </i>
    <i name="e_wo_entrp">     -6.80672107 </i>
    <i name="e_0_energy">     -6.80723044 </i>
   </energy>
  </scstep>
  <structure>
   <crystal>
    <varray name="basis" >
     <v>       0.00000000       1.66655418       1.66655418 </v>
     <v>       1.66655418       0.00000000       1.66655418 </v>
     <v>       1.66655418       1.66655418       0.00000000 </v>
    </varray>
    <i name="volume">      9.25738459 </i>
    <varray name="rec_basis" >
     <v>      -0.30002025       0.30002025       0.30002025 </v>
     <v>       0.30002025      -0.30002025       0.30002025 </v>
     <v>       0.30002025       0.30002025      -0.30002025 </v>
    </varray>
   </crystal>
   <varray name="positions" >
    <v>       0.00000000       0.00000000       0.00000000 </v>
   </varray>
  </structure>
  <varray name="forces" >
   <v>      -0.00000000      -0.00000000      -0.00000000 </v>
  </varray>
  <varray name="stress" >
   <v>     498.64089155       0.00000000      -0.00000000 </v>
   <v>       0.00000000     498.64089155      -0.00000000 </v>
   <v>       0.00000000      -0.00000000     498.64089155 </v>
  </varray>
  <energy>
   <i name="e_fr_energy">     -6.80773980 </i>
   <i name="e_wo_entrp">     -6.80672107 </i>
   <i name="e_0_energy">     -6.80723044 </i>
  </energy>
  <time name="totalsc">    3.93    4.01</time>
  <eigenvalues>
   <array>
    <dimension dim="1">band</dimension>
    <dimension dim="2">kpoint</dimension>
    <dimension dim="3">spin</dimension>
    <field>eigene</field>
    <field>occ</field>
    <set>
     <set comment="spin 1">
      <set comment="kpoint 1">
       <r>    2.9888    1.0000 </r>
       <r>    9.7357    1.0000 </r>
       <r>    9.8408    1.0000 </r>
       <r>    9.8408    1.0000 </r>
       <r>   11.1893    1.0000 </r>
       <r>   11.1893    1.0000 </r>
       <r>   36.9395    0.0000 </r>
       <r>   40.8639    0.0000 </r>
       <r>   42.5656    0.0000 </r>
       <r>   42.5656    0.0000 </r>
       <r>   47.1872    0.0000 </r>
       <r>   47.2059    0.0000 </r>
      </set>
      <set comment="kpoint 2">
       <r>    3.8879    1.0000 </r>
       <r>    9.4572    1.0000 </r>
       <r>   10.0434    1.0000 </r>
       <r>   10.0479    1.0000 </r>
       <r>   10.9830    1.0000 </r>
       <r>   11.2989    1.0000 </r>
       <r>   34.6986    0.0000 </r>
       <r>   37.3998    0.0000 </r>
       <r>   41.2242    0.0000 </r>
       <r>   43.6749    0.0000 </r>
       <r>   45.5346    0.0000 </r>
       <r>   47.2367    0.0000 </r>
      </set>
      <set comment="kpoint 3">
       <r>    5.7065    1.0000 </r>
       <r>    9.3195    1.0000 </r>
       <r>    9.9769    1.0000 </r>
       <r>   10.0741    1.0000 </r>
       <r>   11.2400    1.0000 </r>
       <r>   11.8000    1.0000 </r>
       <r>   28.4481    0.0000 </r>
       <r>   36.1427    0.0000 </r>
       <r>   40.2195    0.0000 </r>
       <r>   43.6145    0.0000 </r>
       <r>   44.8548    0.0000 </r>
       <r>   45.5134    0.0000 </r>
      </set>
      <set comment="kpoint 4">
       <r>    6.7739    1.0000 </r>
       <r>    9.6829    1.0000 </r>
       <r>    9.8130    1.0000 </r>
       <r>   10.6066    1.0000 </r>
       <r>   11.9493    1.0000 </r>
       <r>   12.7271    0.5586 </r>
       <r>   22.7988    0.0000 </r>
       <r>   35.3468    0.0000 </r>
       <r>   39.1013    0.0000 </r>
       <r>   41.4178    0.0000 </r>
       <r>   43.8786    0.0000 </r>
       <r>   45.4432    0.0000 </r>
      </set>
      <set comment="kpoint 5">
       <r>    6.8622    1.0000 </r>
       <r>    9.5599    1.0000 </r>
       <r>    9.7452    1.0000 </r>
       <r>   11.3144    1.0000 </r>
       <r>   12.3155    1.0000 </r>
       <r>   13.4611    0.0000 </r>
       <r>   20.5810    0.0000 </r>
       <r>   35.2293    0.0000 </r>
       <r>   39.3423    0.0000 </r>
       <r>   39.5021    0.0000 </r>
       <r>   44.7152    0.0000 </r>
       <r>   44.7746    0.0000 </r>
      </set>
      <set comment="kpoint 6">
       <r>    6.5919    1.0000 </r>
       <r>    9.7277    1.0000 </r>
       <r>    9.9268    1.0000 </r>
       <r>    9.9898    1.0000 </r>
       <r>   12.0519    1.0000 </r>
       <r>   12.0911    1.0000 </r>
       <r>   24.5041    0.0000 </r>
       <r>   36.0160    0.0000 </r>
       <r>   38.7707    0.0000 </r>
       <r>   41.5083    0.0000 </r>
       <r>   44.4164    0.0000 </r>
       <r>   46.5270    0.0000 </r>
      </set>
      <set comment="kpoint 7">
       <r>    5.0693    1.0000 </r>
       <r>    9.2538    1.0000 </r>
       <r>   10.0578    1.0000 </r>
       <r>   10.1332    1.0000 </r>
       <r>   11.1523    1.0000 </r>
       <r>   11.4944    1.0000 </r>
       <r>   30.5580    0.0000 </r>
       <r>   37.2943    0.0000 </r>
       <r>   39.3248    0.0000 </r>
       <r>   43.7558    0.0000 </r>
       <r>   44.4744    0.0000 </r>
       <r>   48.6958    0.0000 </r>
      </set>
      <set comment="kpoint 8">
       <r>    3.4474    1.0000 </r>
       <r>    9.5486    1.0000 </r>
       <r>    9.9802    1.0000 </r>
       <r>    9.9860    1.0000 </r>
       <r>   11.0106    1.0000 </r>
       <r>   11.2740    1.0000 </r>
       <r>   36.2491    0.0000 </r>
       <r>   39.0107    0.0000 </r>
       <r>   40.6695    0.0000 </r>
       <r>   42.2636    0.0000 </r>
       <r>   47.0248    0.0000 </r>
       <r>   48.6693    0.0000 </r>
      </set>
      <set comment="kpoint 9">
       <r>    4.3124    1.0000 </r>
       <r>    9.1899    1.0000 </r>
       <r>   10.2309    1.0000 </r>
       <r>   10.2688    1.0000 </r>
       <r>   10.7654    1.0000 </r>
       <r>   11.4318    1.0000 </r>
       <r>   35.0486    0.0000 </r>
       <r>   37.3659    0.0000 </r>
       <r>   38.2871    0.0000 </r>
       <r>   40.1794    0.0000 </r>
       <r>   47.4753    0.0000 </r>
       <r>   49.1182    0.0000 </r>
      </set>
      <set comment="kpoint 10">
       <r>    5.7866    1.0000 </r>
       <r>    8.8041    1.0000 </r>
       <r>    9.9593    1.0000 </r>
       <r>   10.6030    1.0000 </r>
       <r>   11.0987    1.0000 </r>
       <r>   11.9048    1.0000 </r>
       <r>   31.1413    0.0000 </r>
       <r>   33.8320    0.0000 </r>
       <r>   37.7975    0.0000 </r>
       <r>   40.0073    0.0000 </r>
       <r>   46.2383    0.0000 </r>
       <r>   48.7922    0.0000 </r>
      </set>
      <set comment="kpoint 11">
       <r>    7.1633    1.0000 </r>
       <r>    8.9666    1.0000 </r>
       <r>    9.5721    1.0000 </r>
       <r>   10.4073    1.0000 </r>
       <r>   12.0019    1.0000 </r>
       <r>   13.3220    0.0000 </r>
       <r>   25.0079    0.0000 </r>
       <r>   33.0556    0.0000 </r>
       <r>   35.5224    0.0000 </r>
       <r>   39.8276    0.0000 </r>
       <r>   46.9435    0.0000 </r>
       <r>   48.9805    0.0000 </r>
      </set>
      <set comment="kpoint 12">
       <r>    7.4240    1.0000 </r>
       <r>    9.0011    1.0000 </r>
       <r>   10.1049    1.0000 </r>
       <r>   10.2086    1.0000 </r>
       <r>   12.2649    1.0000 </r>
       <r>   15.6250    0.0000 </r>
       <r>   20.7266    0.0000 </r>
       <r>   32.3527    0.0000 </r>
       <r>   34.9158    0.0000 </r>
       <r>   39.4312    0.0000 </r>
       <r>   46.1011    0.0000 </r>
       <r>   49.3003    0.0000 </r>
      </set>
      <set comment="kpoint 13">
       <r>    7.3947    1.0000 </r>
       <r>    9.1902    1.0000 </r>
       <r>    9.6505    1.0000 </r>
       <r>   10.2644    1.0000 </r>
       <r>   11.8468    1.0000 </r>
       <r>   14.2958    0.0000 </r>
       <r>   23.2531    0.0000 </r>
       <r>   31.6584    0.0000 </r>
       <r>   36.3746    0.0000 </r>
       <r>   40.6611    0.0000 </r>
       <r>   45.3874    0.0000 </r>
       <r>   49.1142    0.0000 </r>
      </set>
      <set comment="kpoint 14">
       <r>    6.4161    1.0000 </r>
       <r>    8.9038    1.0000 </r>
       <r>    9.7290    1.0000 </r>
       <r>   10.5239    1.0000 </r>
       <r>   11.0060    1.0000 </r>
       <r>   12.5258    1.0000 </r>
       <r>   29.0398    0.0000 </r>
       <r>   31.8803    0.0000 </r>
       <r>   38.9224    0.0000 </r>
       <r>   42.6368    0.0000 </r>
       <r>   44.7512    0.0000 </r>
       <r>   48.2882    0.0000 </r>
      </set>
      <set comment="kpoint 15">
       <r>    4.7161    1.0000 </r>
       <r>    9.1876    1.0000 </r>
       <r>   10.1018    1.0000 </r>
       <r>   10.2728    1.0000 </r>
       <r>   10.8643    1.0000 </r>
       <r>   11.5377    1.0000 </r>
       <r>   32.8938    0.0000 </r>
       <r>   35.5879    0.0000 </r>
       <r>   40.2659    0.0000 </r>
       <r>   42.1684    0.0000 </r>
       <r>   46.4357    0.0000 </r>
       <r>   48.0504    0.0000 </r>
      </set>
      <set comment="kpoint 16">
       <r>    6.4326    1.0000 </r>
       <r>    8.2694    1.0000 </r>
       <r>   10.3890    1.0000 </r>
       <r>   11.1471    1.0000 </r>
       <r>   11.5691    1.0000 </r>
       <r>   11.8795    1.0000 </r>
       <r>   31.7128    0.0000 </r>
       <r>   33.4397    0.0000 </r>
       <r>   33.6734    0.0000 </r>
       <r>   36.5742    0.0000 </r>
       <r>   42.6845    0.0000 </r>
       <r>   49.7257    0.0000 </r>
      </set>
      <set comment="kpoint 17">
       <r>    7.1180    1.0000 </r>
       <r>    8.0137    1.0000 </r>
       <r>   10.3020    1.0000 </r>
       <r>   11.4688    1.0000 </r>
       <r>   12.0655    1.0000 </r>
       <r>   13.6090    0.0000 </r>
       <r>   28.0631    0.0000 </r>
       <r>   30.0934    0.0000 </r>
       <r>   31.4522    0.0000 </r>
       <r>   37.9722    0.0000 </r>
       <r>   43.5831    0.0000 </r>
       <r>   49.6977    0.0000 </r>
      </set>
      <set comment="kpoint 18">
       <r>    7.6279    1.0000 </r>
       <r>    8.1960    1.0000 </r>
       <r>    9.9063    1.0000 </r>
       <r>   11.1111    1.0000 </r>
       <r>   12.3435    1.0000 </r>
       <r>   17.1483    0.0000 </r>
       <r>   22.6240    0.0000 </r>
       <r>   27.9134    0.0000 </r>
       <r>   31.5603    0.0000 </r>
       <r>   38.4978    0.0000 </r>
       <r>   48.1721    0.0000 </r>
       <r>   49.5910    0.0000 </r>
      </set>
      <set comment="kpoint 19">
       <r>    8.2454    1.0000 </r>
       <r>    8.4122    1.0000 </r>
       <r>    9.3250    1.0000 </r>
       <r>   10.8586    1.0000 </r>
       <r>   11.9291    1.0000 </r>
       <r>   17.5324    0.0000 </r>
       <r>   22.4610    0.0000 </r>
       <r>   26.5415    0.0000 </r>
       <r>   33.4363    0.0000 </r>
       <r>   39.3737    0.0000 </r>
       <r>   48.5677    0.0000 </r>
       <r>   49.2866    0.0000 </r>
      </set>
      <set comment="kpoint 20">
       <r>    7.7923    1.0000 </r>
       <r>    8.9299    1.0000 </r>
       <r>    9.1199    1.0000 </r>
       <r>   10.6305    1.0000 </r>
       <r>   11.4473    1.0000 </r>
       <r>   14.4568    0.0000 </r>
       <r>   25.5567    0.0000 </r>
       <r>   28.7391    0.0000 </r>
       <r>   36.1281    0.0000 </r>
       <r>   41.2906    0.0000 </r>
       <r>   45.6249    0.0000 </r>
       <r>   49.1660    0.0000 </r>
      </set>
      <set comment="kpoint 21">
       <r>    6.4777    1.0000 </r>
       <r>    9.2682    1.0000 </r>
       <r>    9.7543    1.0000 </r>
       <r>   10.1592    1.0000 </r>
       <r>   11.5304    1.0000 </r>
       <r>   12.3543    1.0000 </r>
       <r>   26.6017    0.0000 </r>
       <r>   34.6096    0.0000 </r>
       <r>   38.5043    0.0000 </r>
       <r>   41.7747    0.0000 </r>
       <r>   45.4372    0.0000 </r>
       <r>   47.1545    0.0000 </r>
      </set>
      <set comment="kpoint 22">
       <r>    6.7671    1.0000 </r>
       <r>    7.5481    1.0000 </r>
       <r>   11.8722    1.0000 </r>
       <r>   11.9782    1.0000 </r>
       <r>   12.3749    1.0000 </r>
       <r>   14.2180    0.0000 </r>
       <r>   26.7559    0.0000 </r>
       <r>   29.2251    0.0000 </r>
       <r>   30.4306    0.0000 </r>
       <r>   35.7775    0.0000 </r>
       <r>   40.9604    0.0000 </r>
       <r>   49.8631    0.0000 </r>
      </set>
      <set comment="kpoint 23">
       <r>    6.9143    1.0000 </r>
       <r>    7.5858    1.0000 </r>
       <r>   11.3342    1.0000 </r>
       <r>   11.9134    1.0000 </r>
       <r>   12.5473    1.0000 </r>
       <r>   17.0384    0.0000 </r>
       <r>   24.5061    0.0000 </r>
       <r>   26.6589    0.0000 </r>
       <r>   29.2564    0.0000 </r>
       <r>   37.3472    0.0000 </r>
       <r>   42.8545    0.0000 </r>
       <r>   49.8464    0.0000 </r>
      </set>
      <set comment="kpoint 24">
       <r>    7.5406    1.0000 </r>
       <r>    8.0837    1.0000 </r>
       <r>   10.1156    1.0000 </r>
       <r>   11.3461    1.0000 </r>
       <r>   12.3222    1.0000 </r>
       <r>   19.3606    0.0000 </r>
       <r>   21.8112    0.0000 </r>
       <r>   25.4010    0.0000 </r>
       <r>   31.0102    0.0000 </r>
       <r>   38.3400    0.0000 </r>
       <r>   48.0778    0.0000 </r>
       <r>   50.2245    0.0000 </r>
      </set>
      <set comment="kpoint 25">
       <r>    7.8661    1.0000 </r>
       <r>    8.6158    1.0000 </r>
       <r>    9.7007    1.0000 </r>
       <r>   10.5454    1.0000 </r>
       <r>   12.1325    1.0000 </r>
       <r>   17.0531    0.0000 </r>
       <r>   20.9353    0.0000 </r>
       <r>   29.3777    0.0000 </r>
       <r>   33.8500    0.0000 </r>
       <r>   39.3493    0.0000 </r>
       <r>   47.3816    0.0000 </r>
       <r>   49.3560    0.0000 </r>
      </set>
      <set comment="kpoint 26">
       <r>    7.0494    1.0000 </r>
       <r>    9.4079    1.0000 </r>
       <r>    9.9236    1.0000 </r>
       <r>   10.5090    1.0000 </r>
       <r>   12.1919    1.0000 </r>
       <r>   13.9294    0.0000 </r>
       <r>   21.5042    0.0000 </r>
       <r>   34.2247    0.0000 </r>
       <r>   37.2664    0.0000 </r>
       <r>   39.9109    0.0000 </r>
       <r>   45.0272    0.0000 </r>
       <r>   47.2119    0.0000 </r>
      </set>
      <set comment="kpoint 27">
       <r>    6.6566    1.0000 </r>
       <r>    7.3858    1.0000 </r>
       <r>   12.1387    1.0000 </r>
       <r>   12.2459    1.0000 </r>
       <r>   12.5637    1.0000 </r>
       <r>   15.8151    0.0000 </r>
       <r>   24.5001    0.0000 </r>
       <r>   28.5224    0.0000 </r>
       <r>   29.6950    0.0000 </r>
       <r>   35.6642    0.0000 </r>
       <r>   40.7566    0.0000 </r>
       <r>   49.8402    0.0000 </r>
      </set>
      <set comment="kpoint 28">
       <r>    7.0383    1.0000 </r>
       <r>    7.7333    1.0000 </r>
       <r>   10.9157    1.0000 </r>
       <r>   11.8058    1.0000 </r>
       <r>   12.3580    1.0000 </r>
       <r>   15.3494    0.0000 </r>
       <r>   26.5645    0.0000 </r>
       <r>   27.5799    0.0000 </r>
       <r>   29.9292    0.0000 </r>
       <r>   37.5411    0.0000 </r>
       <r>   43.0604    0.0000 </r>
       <r>   49.8029    0.0000 </r>
      </set>
      <set comment="kpoint 29">
       <r>    7.5625    1.0000 </r>
       <r>    8.5148    1.0000 </r>
       <r>    9.6579    1.0000 </r>
       <r>   10.7564    1.0000 </r>
       <r>   12.2703    1.0000 </r>
       <r>   14.9801    0.0000 </r>
       <r>   23.6718    0.0000 </r>
       <r>   30.9558    0.0000 </r>
       <r>   32.8280    0.0000 </r>
       <r>   38.9125    0.0000 </r>
       <r>   48.0172    0.0000 </r>
       <r>   48.8848    0.0000 </r>
      </set>
      <set comment="kpoint 30">
       <r>    6.8238    1.0000 </r>
       <r>    7.8547    1.0000 </r>
       <r>   11.1327    1.0000 </r>
       <r>   11.6240    1.0000 </r>
       <r>   12.1250    1.0000 </r>
       <r>   12.5801    1.0000 </r>
       <r>   29.6591    0.0000 </r>
       <r>   30.6959    0.0000 </r>
       <r>   31.8045    0.0000 </r>
       <r>   36.0389    0.0000 </r>
       <r>   41.5123    0.0000 </r>
       <r>   49.7891    0.0000 </r>
      </set>
      <set comment="kpoint 31">
       <r>    6.7468    1.0000 </r>
       <r>    8.3902    1.0000 </r>
       <r>    9.8893    1.0000 </r>
       <r>   11.0191    1.0000 </r>
       <r>   11.6242    1.0000 </r>
       <r>   12.4782    1.0000 </r>
       <r>   29.5158    0.0000 </r>
       <r>   32.0960    0.0000 </r>
       <r>   34.4631    0.0000 </r>
       <r>   38.7345    0.0000 </r>
       <r>   44.6015    0.0000 </r>
       <r>   49.5489    0.0000 </r>
      </set>
      <set comment="kpoint 32">
       <r>    5.4337    1.0000 </r>
       <r>    8.7377    1.0000 </r>
       <r>   10.2511    1.0000 </r>
       <r>   10.6696    1.0000 </r>
       <r>   10.9433    1.0000 </r>
       <r>   11.6421    1.0000 </r>
       <r>   33.4616    0.0000 </r>
       <r>   35.8714    0.0000 </r>
       <r>   35.8865    0.0000 </r>
       <r>   37.8906    0.0000 </r>
       <r>   44.7612    0.0000 </r>
       <r>   49.7251    0.0000 </r>
      </set>
      <set comment="kpoint 33">
       <r>    4.3007    1.0000 </r>
       <r>    9.4211    1.0000 </r>
       <r>   10.0545    1.0000 </r>
       <r>   10.0545    1.0000 </r>
       <r>   11.1826    1.0000 </r>
       <r>   11.1826    1.0000 </r>
       <r>   32.5860    0.0000 </r>
       <r>   38.2045    0.0000 </r>
       <r>   41.7609    0.0000 </r>
       <r>   41.7609    0.0000 </r>
       <r>   47.1647    0.0000 </r>
       <r>   47.7627    0.0000 </r>
      </set>
      <set comment="kpoint 34">
       <r>    5.4656    1.0000 </r>
       <r>    9.1057    1.0000 </r>
       <r>    9.9844    1.0000 </r>
       <r>   10.3537    1.0000 </r>
       <r>   10.8036    1.0000 </r>
       <r>   11.9340    1.0000 </r>
       <r>   30.8627    0.0000 </r>
       <r>   33.6336    0.0000 </r>
       <r>   41.5352    0.0000 </r>
       <r>   43.5958    0.0000 </r>
       <r>   44.0893    0.0000 </r>
       <r>   46.8255    0.0000 </r>
      </set>
      <set comment="kpoint 35">
       <r>    7.1557    1.0000 </r>
       <r>    8.9725    1.0000 </r>
       <r>    9.5008    1.0000 </r>
       <r>   10.4387    1.0000 </r>
       <r>   11.1047    1.0000 </r>
       <r>   13.3415    0.0000 </r>
       <r>   27.1815    0.0000 </r>
       <r>   30.1652    0.0000 </r>
       <r>   39.4994    0.0000 </r>
       <r>   40.7314    0.0000 </r>
       <r>   45.6338    0.0000 </r>
       <r>   48.2042    0.0000 </r>
      </set>
      <set comment="kpoint 36">
       <r>    7.6174    1.0000 </r>
       <r>    8.9901    1.0000 </r>
       <r>    9.8189    1.0000 </r>
       <r>   10.2871    1.0000 </r>
       <r>   11.9274    1.0000 </r>
       <r>   15.5384    0.0000 </r>
       <r>   21.8544    0.0000 </r>
       <r>   30.3805    0.0000 </r>
       <r>   37.3685    0.0000 </r>
       <r>   37.8173    0.0000 </r>
       <r>   48.0243    0.0000 </r>
       <r>   48.4136    0.0000 </r>
      </set>
      <set comment="kpoint 37">
       <r>    7.4796    1.0000 </r>
       <r>    8.8113    1.0000 </r>
       <r>    9.8792    1.0000 </r>
       <r>   10.3839    1.0000 </r>
       <r>   12.3580    1.0000 </r>
       <r>   15.3213    0.0000 </r>
       <r>   21.7977    0.0000 </r>
       <r>   31.7121    0.0000 </r>
       <r>   35.2433    0.0000 </r>
       <r>   37.5511    0.0000 </r>
       <r>   48.8926    0.0000 </r>
       <r>   49.6013    0.0000 </r>
      </set>
      <set comment="kpoint 38">
       <r>    6.9187    1.0000 </r>
       <r>    8.5861    1.0000 </r>
       <r>    9.7509    1.0000 </r>
       <r>   10.6237    1.0000 </r>
       <r>   12.1373    1.0000 </r>
       <r>   12.5711    1.0000 </r>
       <r>   27.1098    0.0000 </r>
       <r>   33.7982    0.0000 </r>
       <r>   34.7812    0.0000 </r>
       <r>   38.1964    0.0000 </r>
       <r>   46.8703    0.0000 </r>
       <r>   49.5435    0.0000 </r>
      </set>
      <set comment="kpoint 39">
       <r>    6.0462    1.0000 </r>
       <r>    8.9597    1.0000 </r>
       <r>    9.8742    1.0000 </r>
       <r>   10.3233    1.0000 </r>
       <r>   11.5878    1.0000 </r>
       <r>   11.8349    1.0000 </r>
       <r>   28.7302    0.0000 </r>
       <r>   35.9641    0.0000 </r>
       <r>   36.9270    0.0000 </r>
       <r>   40.5218    0.0000 </r>
       <r>   47.1730    0.0000 </r>
       <r>   48.4599    0.0000 </r>
      </set>
      <set comment="kpoint 40">
       <r>    7.2738    1.0000 </r>
       <r>    8.6244    1.0000 </r>
       <r>    9.4308    1.0000 </r>
       <r>   10.8581    1.0000 </r>
       <r>   11.4675    1.0000 </r>
       <r>   13.3950    0.0000 </r>
       <r>   27.4311    0.0000 </r>
       <r>   30.3352    0.0000 </r>
       <r>   35.1680    0.0000 </r>
       <r>   41.6696    0.0000 </r>
       <r>   45.3776    0.0000 </r>
       <r>   48.4632    0.0000 </r>
      </set>
      <set comment="kpoint 41">
       <r>    8.1312    1.0000 </r>
       <r>    8.6141    1.0000 </r>
       <r>    9.0211    1.0000 </r>
       <r>   10.9427    1.0000 </r>
       <r>   11.8834    1.0000 </r>
       <r>   16.0721    0.0000 </r>
       <r>   24.1794    0.0000 </r>
       <r>   27.6141    0.0000 </r>
       <r>   32.3175    0.0000 </r>
       <r>   42.6806    0.0000 </r>
       <r>   45.0612    0.0000 </r>
       <r>   49.0328    0.0000 </r>
      </set>
      <set comment="kpoint 42">
       <r>    8.0598    1.0000 </r>
       <r>    8.3512    1.0000 </r>
       <r>    9.4484    1.0000 </r>
       <r>   10.8782    1.0000 </r>
       <r>   12.2564    1.0000 </r>
       <r>   18.1304    0.0000 </r>
       <r>   21.2235    0.0000 </r>
       <r>   28.5363    0.0000 </r>
       <r>   30.4976    0.0000 </r>
       <r>   41.3966    0.0000 </r>
       <r>   46.6209    0.0000 </r>
       <r>   49.2262    0.0000 </r>
      </set>
      <set comment="kpoint 43">
       <r>    7.6179    1.0000 </r>
       <r>    8.3216    1.0000 </r>
       <r>    9.5185    1.0000 </r>
       <r>   11.2422    1.0000 </r>
       <r>   11.9331    1.0000 </r>
       <r>   14.7917    0.0000 </r>
       <r>   26.0598    0.0000 </r>
       <r>   28.9730    0.0000 </r>
       <r>   31.5260    0.0000 </r>
       <r>   40.9102    0.0000 </r>
       <r>   45.6995    0.0000 </r>
       <r>   48.7434    0.0000 </r>
      </set>
      <set comment="kpoint 44">
       <r>    7.2979    1.0000 </r>
       <r>    8.1945    1.0000 </r>
       <r>   10.0409    1.0000 </r>
       <r>   11.0016    1.0000 </r>
       <r>   12.3473    1.0000 </r>
       <r>   14.1003    0.0000 </r>
       <r>   25.7183    0.0000 </r>
       <r>   30.6604    0.0000 </r>
       <r>   33.0250    0.0000 </r>
       <r>   37.2301    0.0000 </r>
       <r>   45.9928    0.0000 </r>
       <r>   49.6918    0.0000 </r>
      </set>
      <set comment="kpoint 45">
       <r>    7.4962    1.0000 </r>
       <r>    8.0944    1.0000 </r>
       <r>    9.9391    1.0000 </r>
       <r>   11.4750    1.0000 </r>
       <r>   12.3068    1.0000 </r>
       <r>   16.7386    0.0000 </r>
       <r>   24.9786    0.0000 </r>
       <r>   27.2843    0.0000 </r>
       <r>   28.8783    0.0000 </r>
       <r>   40.4171    0.0000 </r>
       <r>   45.8316    0.0000 </r>
       <r>   49.3545    0.0000 </r>
      </set>
      <set comment="kpoint 46">
       <r>    7.7208    1.0000 </r>
       <r>    8.5569    1.0000 </r>
       <r>    9.3391    1.0000 </r>
       <r>   11.1582    1.0000 </r>
       <r>   12.5402    1.0000 </r>
       <r>   20.4780    0.0000 </r>
       <r>   22.4451    0.0000 </r>
       <r>   25.1863    0.0000 </r>
       <r>   27.1687    0.0000 </r>
       <r>   43.5692    0.0000 </r>
       <r>   47.3178    0.0000 </r>
       <r>   48.8046    0.0000 </r>
      </set>
      <set comment="kpoint 47">
       <r>    7.9336    1.0000 </r>
       <r>    8.5647    1.0000 </r>
       <r>    9.1590    1.0000 </r>
       <r>   11.1242    1.0000 </r>
       <r>   12.2842    1.0000 </r>
       <r>   18.2033    0.0000 </r>
       <r>   23.1190    0.0000 </r>
       <r>   26.6878    0.0000 </r>
       <r>   28.9293    0.0000 </r>
       <r>   43.5727    0.0000 </r>
       <r>   45.5535    0.0000 </r>
       <r>   48.9247    0.0000 </r>
      </set>
      <set comment="kpoint 48">
       <r>    7.1441    1.0000 </r>
       <r>    7.7618    1.0000 </r>
       <r>   10.8794    1.0000 </r>
       <r>   11.6743    1.0000 </r>
       <r>   12.4129    1.0000 </r>
       <r>   17.9731    0.0000 </r>
       <r>   23.6390    0.0000 </r>
       <r>   25.3116    0.0000 </r>
       <r>   31.1189    0.0000 </r>
       <r>   36.7420    0.0000 </r>
       <r>   45.2558    0.0000 </r>
       <r>   49.8796    0.0000 </r>
      </set>
      <set comment="kpoint 49">
       <r>    7.3420    1.0000 </r>
       <r>    7.9806    1.0000 </r>
       <r>   10.2809    1.0000 </r>
       <r>   11.5143    1.0000 </r>
       <r>   12.5418    1.0000 </r>
       <r>   18.6934    0.0000 </r>
       <r>   24.0743    0.0000 </r>
       <r>   25.2538    0.0000 </r>
       <r>   28.0743    0.0000 </r>
       <r>   40.1773    0.0000 </r>
       <r>   45.8852    0.0000 </r>
       <r>   49.8148    0.0000 </r>
      </set>
      <set comment="kpoint 50">
       <r>    7.2569    1.0000 </r>
       <r>    7.9030    1.0000 </r>
       <r>   10.5435    1.0000 </r>
       <r>   11.3902    1.0000 </r>
       <r>   12.4315    1.0000 </r>
       <r>   16.0822    0.0000 </r>
       <r>   24.5937    0.0000 </r>
       <r>   27.4791    0.0000 </r>
       <r>   31.7730    0.0000 </r>
       <r>   36.8696    0.0000 </r>
       <r>   45.4778    0.0000 </r>
       <r>   49.8215    0.0000 </r>
      </set>
      <set comment="kpoint 51">
       <r>    6.1161    1.0000 </r>
       <r>    9.7136    1.0000 </r>
       <r>    9.9219    1.0000 </r>
       <r>    9.9219    1.0000 </r>
       <r>   11.6816    1.0000 </r>
       <r>   11.6816    1.0000 </r>
       <r>   26.3183    0.0000 </r>
       <r>   36.8759    0.0000 </r>
       <r>   41.1258    0.0000 </r>
       <r>   41.1258    0.0000 </r>
       <r>   45.4294    0.0000 </r>
       <r>   45.4294    0.0000 </r>
      </set>
      <set comment="kpoint 52">
       <r>    6.9524    1.0000 </r>
       <r>    9.5671    1.0000 </r>
       <r>    9.6047    1.0000 </r>
       <r>   10.0837    1.0000 </r>
       <r>   11.5403    1.0000 </r>
       <r>   13.1395    0.0000 </r>
       <r>   24.7801    0.0000 </r>
       <r>   33.0369    0.0000 </r>
       <r>   39.0073    0.0000 </r>
       <r>   41.0252    0.0000 </r>
       <r>   45.8898    0.0000 </r>
       <r>   45.9077    0.0000 </r>
      </set>
      <set comment="kpoint 53">
       <r>    8.1059    1.0000 </r>
       <r>    8.7942    1.0000 </r>
       <r>    9.2074    1.0000 </r>
       <r>   10.6213    1.0000 </r>
       <r>   11.6147    1.0000 </r>
       <r>   15.7853    0.0000 </r>
       <r>   23.8909    0.0000 </r>
       <r>   27.4656    0.0000 </r>
       <r>   36.9719    0.0000 </r>
       <r>   37.9064    0.0000 </r>
       <r>   48.8745    0.0000 </r>
       <r>   49.3916    0.0000 </r>
      </set>
      <set comment="kpoint 54">
       <r>    7.8660    1.0000 </r>
       <r>    8.2822    1.0000 </r>
       <r>    9.7678    1.0000 </r>
       <r>   11.0747    1.0000 </r>
       <r>   12.0807    1.0000 </r>
       <r>   19.1931    0.0000 </r>
       <r>   21.0500    0.0000 </r>
       <r>   25.8206    0.0000 </r>
       <r>   33.6622    0.0000 </r>
       <r>   37.1456    0.0000 </r>
       <r>   49.1139    0.0000 </r>
       <r>   52.3142    0.0000 </r>
      </set>
      <set comment="kpoint 55">
       <r>    7.0611    1.0000 </r>
       <r>    9.3141    1.0000 </r>
       <r>    9.9690    1.0000 </r>
       <r>   10.0888    1.0000 </r>
       <r>   12.2904    1.0000 </r>
       <r>   13.4014    0.0000 </r>
       <r>   22.9939    0.0000 </r>
       <r>   34.4638    0.0000 </r>
       <r>   36.7850    0.0000 </r>
       <r>   38.7996    0.0000 </r>
       <r>   47.0328    0.0000 </r>
       <r>   47.9475    0.0000 </r>
      </set>
      <set comment="kpoint 56">
       <r>    7.7925    1.0000 </r>
       <r>    8.6925    1.0000 </r>
       <r>    9.5663    1.0000 </r>
       <r>   10.5737    1.0000 </r>
       <r>   12.1322    1.0000 </r>
       <r>   16.0168    0.0000 </r>
       <r>   22.0302    0.0000 </r>
       <r>   30.4408    0.0000 </r>
       <r>   32.8439    0.0000 </r>
       <r>   41.1130    0.0000 </r>
       <r>   45.6176    0.0000 </r>
       <r>   49.2680    0.0000 </r>
      </set>
      <set comment="kpoint 57">
       <r>    7.9497    1.0000 </r>
       <r>    8.4552    1.0000 </r>
       <r>    9.3528    1.0000 </r>
       <r>   11.0674    1.0000 </r>
       <r>   12.2864    1.0000 </r>
       <r>   19.6625    0.0000 </r>
       <r>   21.4320    0.0000 </r>
       <r>   25.9040    0.0000 </r>
       <r>   29.8819    0.0000 </r>
       <r>   41.4952    0.0000 </r>
       <r>   47.9163    0.0000 </r>
       <r>   49.1458    0.0000 </r>
      </set>
      <set comment="kpoint 58">
       <r>    7.7799    1.0000 </r>
       <r>    8.4186    1.0000 </r>
       <r>    9.8049    1.0000 </r>
       <r>   10.7546    1.0000 </r>
       <r>   12.2574    1.0000 </r>
       <r>   17.5259    0.0000 </r>
       <r>   21.0123    0.0000 </r>
       <r>   28.5068    0.0000 </r>
       <r>   34.1927    0.0000 </r>
       <r>   37.2132    0.0000 </r>
       <r>   49.0963    0.0000 </r>
       <r>   50.9954    0.0000 </r>
      </set>
      <set comment="kpoint 59">
       <r>    6.7315    1.0000 </r>
       <r>    9.6943    1.0000 </r>
       <r>    9.6943    1.0000 </r>
       <r>   11.8146    1.0000 </r>
       <r>   12.2261    1.0000 </r>
       <r>   12.2261    1.0000 </r>
       <r>   21.3672    0.0000 </r>
       <r>   35.8040    0.0000 </r>
       <r>   40.7598    0.0000 </r>
       <r>   40.7598    0.0000 </r>
       <r>   43.5749    0.0000 </r>
       <r>   43.5749    0.0000 </r>
      </set>
      <set comment="kpoint 60">
       <r>    7.1675    1.0000 </r>
       <r>    9.2919    1.0000 </r>
       <r>    9.9566    1.0000 </r>
       <r>   10.5473    1.0000 </r>
       <r>   12.2033    1.0000 </r>
       <r>   14.7776    0.0000 </r>
       <r>   20.6525    0.0000 </r>
       <r>   33.3512    0.0000 </r>
       <r>   38.0242    0.0000 </r>
       <r>   38.1636    0.0000 </r>
       <r>   46.4727    0.0000 </r>
       <r>   46.7464    0.0000 </r>
      </set>
     </set>
     <set comment="spin 2">
      <set comment="kpoint 1">
       <r>    3.0501    1.0000 </r>
       <r>   11.2501    1.0000 </r>
       <r>   11.3728    1.0000 </r>
       <r>   11.3728    1.0000 </r>
       <r>   13.0376    0.0000 </r>
       <r>   13.0376    0.0000 </r>
       <r>   36.7649    0.0000 </r>
       <r>   41.0004    0.0000 </r>
       <r>   42.7597    0.0000 </r>
       <r>   42.7597    0.0000 </r>
       <r>   47.4666    0.0000 </r>
       <r>   47.5150    0.0000 </r>
      </set>
      <set comment="kpoint 2">
       <r>    3.9584    1.0000 </r>
       <r>   10.9064    1.0000 </r>
       <r>   11.5923    1.0000 </r>
       <r>   11.6013    1.0000 </r>
       <r>   12.7955    0.0369 </r>
       <r>   13.1354    0.0000 </r>
       <r>   34.9199    0.0000 </r>
       <r>   37.4806    0.0000 </r>
       <r>   41.3731    0.0000 </r>
       <r>   43.8763    0.0000 </r>
       <r>   45.6220    0.0000 </r>
       <r>   47.5452    0.0000 </r>
      </set>
      <set comment="kpoint 3">
       <r>    5.8943    1.0000 </r>
       <r>   10.5415    1.0000 </r>
       <r>   11.5599    1.0000 </r>
       <r>   11.6869    1.0000 </r>
       <r>   13.0006    0.0000 </r>
       <r>   13.5887    0.0000 </r>
       <r>   28.9560    0.0000 </r>
       <r>   36.1927    0.0000 </r>
       <r>   40.4245    0.0000 </r>
       <r>   43.9408    0.0000 </r>
       <r>   45.1939    0.0000 </r>
       <r>   45.6497    0.0000 </r>
      </set>
      <set comment="kpoint 4">
       <r>    7.4892    1.0000 </r>
       <r>   11.1593    1.0000 </r>
       <r>   11.3538    1.0000 </r>
       <r>   11.4236    1.0000 </r>
       <r>   13.7480    0.0000 </r>
       <r>   14.3490    0.0000 </r>
       <r>   23.5856    0.0000 </r>
       <r>   35.2906    0.0000 </r>
       <r>   39.3743    0.0000 </r>
       <r>   41.7762    0.0000 </r>
       <r>   44.2198    0.0000 </r>
       <r>   45.7141    0.0000 </r>
      </set>
      <set comment="kpoint 5">
       <r>    7.7573    1.0000 </r>
       <r>   11.1054    1.0000 </r>
       <r>   11.3476    1.0000 </r>
       <r>   12.0194    1.0000 </r>
       <r>   14.1535    0.0000 </r>
       <r>   14.6660    0.0000 </r>
       <r>   21.5795    0.0000 </r>
       <r>   35.1005    0.0000 </r>
       <r>   39.6996    0.0000 </r>
       <r>   39.8310    0.0000 </r>
       <r>   45.0102    0.0000 </r>
       <r>   45.0926    0.0000 </r>
      </set>
      <set comment="kpoint 6">
       <r>    7.1199    1.0000 </r>
       <r>   10.7933    1.0000 </r>
       <r>   11.3527    1.0000 </r>
       <r>   11.5337    1.0000 </r>
       <r>   13.7489    0.0000 </r>
       <r>   13.8794    0.0000 </r>
       <r>   25.1840    0.0000 </r>
       <r>   35.8967    0.0000 </r>
       <r>   39.1592    0.0000 </r>
       <r>   41.8793    0.0000 </r>
       <r>   44.6820    0.0000 </r>
       <r>   46.7807    0.0000 </r>
      </set>
      <set comment="kpoint 7">
       <r>    5.1865    1.0000 </r>
       <r>   10.5873    1.0000 </r>
       <r>   11.6484    1.0000 </r>
       <r>   11.7196    1.0000 </r>
       <r>   12.8962    0.0000 </r>
       <r>   13.3194    0.0000 </r>
       <r>   30.9869    0.0000 </r>
       <r>   37.2122    0.0000 </r>
       <r>   39.7104    0.0000 </r>
       <r>   43.8833    0.0000 </r>
       <r>   44.8273    0.0000 </r>
       <r>   48.8522    0.0000 </r>
      </set>
      <set comment="kpoint 8">
       <r>    3.5120    1.0000 </r>
       <r>   11.0312    1.0000 </r>
       <r>   11.5206    1.0000 </r>
       <r>   11.5274    1.0000 </r>
       <r>   12.8287    0.0032 </r>
       <r>   13.1281    0.0000 </r>
       <r>   36.2593    0.0000 </r>
       <r>   39.0813    0.0000 </r>
       <r>   40.9811    0.0000 </r>
       <r>   42.4038    0.0000 </r>
       <r>   47.2722    0.0000 </r>
       <r>   48.8463    0.0000 </r>
      </set>
      <set comment="kpoint 9">
       <r>    4.3912    1.0000 </r>
       <r>   10.6189    1.0000 </r>
       <r>   11.7994    1.0000 </r>
       <r>   11.8305    1.0000 </r>
       <r>   12.5052    1.0000 </r>
       <r>   13.2963    0.0000 </r>
       <r>   35.2774    0.0000 </r>
       <r>   37.4037    0.0000 </r>
       <r>   38.6554    0.0000 </r>
       <r>   40.3348    0.0000 </r>
       <r>   48.3664    0.0000 </r>
       <r>   49.6032    0.0000 </r>
      </set>
      <set comment="kpoint 10">
       <r>    5.9443    1.0000 </r>
       <r>   10.1469    1.0000 </r>
       <r>   11.5422    1.0000 </r>
       <r>   12.2153    1.0000 </r>
       <r>   12.7529    0.2793 </r>
       <r>   13.7122    0.0000 </r>
       <r>   31.5542    0.0000 </r>
       <r>   34.1195    0.0000 </r>
       <r>   38.0157    0.0000 </r>
       <r>   40.2030    0.0000 </r>
       <r>   46.9579    0.0000 </r>
       <r>   49.0347    0.0000 </r>
      </set>
      <set comment="kpoint 11">
       <r>    7.7501    1.0000 </r>
       <r>   10.0915    1.0000 </r>
       <r>   11.0210    1.0000 </r>
       <r>   12.0451    1.0000 </r>
       <r>   13.7589    0.0000 </r>
       <r>   14.7993    0.0000 </r>
       <r>   25.6315    0.0000 </r>
       <r>   33.3140    0.0000 </r>
       <r>   35.8548    0.0000 </r>
       <r>   40.0900    0.0000 </r>
       <r>   47.1480    0.0000 </r>
       <r>   50.1444    0.0000 </r>
      </set>
      <set comment="kpoint 12">
       <r>    8.3835    1.0000 </r>
       <r>   10.2923    1.0000 </r>
       <r>   11.2307    1.0000 </r>
       <r>   11.8382    1.0000 </r>
       <r>   14.0848    0.0000 </r>
       <r>   16.5823    0.0000 </r>
       <r>   21.6456    0.0000 </r>
       <r>   32.6048    0.0000 </r>
       <r>   35.3021    0.0000 </r>
       <r>   39.6119    0.0000 </r>
       <r>   46.4046    0.0000 </r>
       <r>   50.0782    0.0000 </r>
      </set>
      <set comment="kpoint 13">
       <r>    8.1556    1.0000 </r>
       <r>   10.3985    1.0000 </r>
       <r>   10.8984    1.0000 </r>
       <r>   11.9037    1.0000 </r>
       <r>   13.6040    0.0000 </r>
       <r>   15.6382    0.0000 </r>
       <r>   23.9765    0.0000 </r>
       <r>   31.9849    0.0000 </r>
       <r>   36.6514    0.0000 </r>
       <r>   40.8609    0.0000 </r>
       <r>   45.6604    0.0000 </r>
       <r>   49.4464    0.0000 </r>
      </set>
      <set comment="kpoint 14">
       <r>    6.6313    1.0000 </r>
       <r>   10.1997    1.0000 </r>
       <r>   11.2773    1.0000 </r>
       <r>   12.1789    1.0000 </r>
       <r>   12.6900    0.8843 </r>
       <r>   14.2451    0.0000 </r>
       <r>   29.5288    0.0000 </r>
       <r>   32.2287    0.0000 </r>
       <r>   39.1089    0.0000 </r>
       <r>   42.7744    0.0000 </r>
       <r>   44.9437    0.0000 </r>
       <r>   48.7434    0.0000 </r>
      </set>
      <set comment="kpoint 15">
       <r>    4.8067    1.0000 </r>
       <r>   10.5871    1.0000 </r>
       <r>   11.6744    1.0000 </r>
       <r>   11.8489    1.0000 </r>
       <r>   12.6152    0.9995 </r>
       <r>   13.3665    0.0000 </r>
       <r>   33.2378    0.0000 </r>
       <r>   35.7755    0.0000 </r>
       <r>   40.4219    0.0000 </r>
       <r>   42.2832    0.0000 </r>
       <r>   46.6628    0.0000 </r>
       <r>   48.3683    0.0000 </r>
      </set>
      <set comment="kpoint 16">
       <r>    6.7831    1.0000 </r>
       <r>    9.5752    1.0000 </r>
       <r>   11.7636    1.0000 </r>
       <r>   12.7955    0.0369 </r>
       <r>   13.1258    0.0000 </r>
       <r>   13.7639    0.0000 </r>
       <r>   32.0736    0.0000 </r>
       <r>   33.7473    0.0000 </r>
       <r>   34.0270    0.0000 </r>
       <r>   36.8744    0.0000 </r>
       <r>   43.3316    0.0000 </r>
       <r>   53.1373    0.0000 </r>
      </set>
      <set comment="kpoint 17">
       <r>    7.8769    1.0000 </r>
       <r>    9.2594    1.0000 </r>
       <r>   11.5384    1.0000 </r>
       <r>   13.1815    0.0000 </r>
       <r>   13.8347    0.0000 </r>
       <r>   14.9389    0.0000 </r>
       <r>   28.5116    0.0000 </r>
       <r>   30.5217    0.0000 </r>
       <r>   31.8443    0.0000 </r>
       <r>   38.2678    0.0000 </r>
       <r>   44.1165    0.0000 </r>
       <r>   52.7356    0.0000 </r>
      </set>
      <set comment="kpoint 18">
       <r>    8.7307    1.0000 </r>
       <r>    9.3412    1.0000 </r>
       <r>   11.1159    1.0000 </r>
       <r>   12.8474    0.0006 </r>
       <r>   14.1487    0.0000 </r>
       <r>   18.0444    0.0000 </r>
       <r>   23.2537    0.0000 </r>
       <r>   28.4534    0.0000 </r>
       <r>   31.9331    0.0000 </r>
       <r>   38.7624    0.0000 </r>
       <r>   48.8409    0.0000 </r>
       <r>   51.3678    0.0000 </r>
      </set>
      <set comment="kpoint 19">
       <r>    9.2794    1.0000 </r>
       <r>    9.6038    1.0000 </r>
       <r>   10.5322    1.0000 </r>
       <r>   12.6013    0.9999 </r>
       <r>   13.6615    0.0000 </r>
       <r>   18.4702    0.0000 </r>
       <r>   23.1415    0.0000 </r>
       <r>   27.1052    0.0000 </r>
       <r>   33.8117    0.0000 </r>
       <r>   39.5833    0.0000 </r>
       <r>   48.7415    0.0000 </r>
       <r>   52.6561    0.0000 </r>
      </set>
      <set comment="kpoint 20">
       <r>    8.3675    1.0000 </r>
       <r>   10.1173    1.0000 </r>
       <r>   10.5634    1.0000 </r>
       <r>   12.3300    1.0000 </r>
       <r>   13.1384    0.0000 </r>
       <r>   15.8569    0.0000 </r>
       <r>   26.1633    0.0000 </r>
       <r>   29.1898    0.0000 </r>
       <r>   36.4202    0.0000 </r>
       <r>   41.4979    0.0000 </r>
       <r>   45.7478    0.0000 </r>
       <r>   51.0182    0.0000 </r>
      </set>
      <set comment="kpoint 21">
       <r>    6.8139    1.0000 </r>
       <r>   10.3896    1.0000 </r>
       <r>   11.3280    1.0000 </r>
       <r>   11.7806    1.0000 </r>
       <r>   13.2493    0.0000 </r>
       <r>   14.0794    0.0000 </r>
       <r>   27.1783    0.0000 </r>
       <r>   34.7821    0.0000 </r>
       <r>   38.7075    0.0000 </r>
       <r>   42.0860    0.0000 </r>
       <r>   45.6825    0.0000 </r>
       <r>   47.3792    0.0000 </r>
      </set>
      <set comment="kpoint 22">
       <r>    7.7518    1.0000 </r>
       <r>    8.7696    1.0000 </r>
       <r>   13.1921    0.0000 </r>
       <r>   13.8182    0.0000 </r>
       <r>   14.2058    0.0000 </r>
       <r>   15.0313    0.0000 </r>
       <r>   27.4155    0.0000 </r>
       <r>   29.5443    0.0000 </r>
       <r>   30.6898    0.0000 </r>
       <r>   36.2059    0.0000 </r>
       <r>   41.4932    0.0000 </r>
       <r>   53.3203    0.0000 </r>
      </set>
      <set comment="kpoint 23">
       <r>    8.0084    1.0000 </r>
       <r>    8.7852    1.0000 </r>
       <r>   12.6434    0.9940 </r>
       <r>   13.7905    0.0000 </r>
       <r>   14.3345    0.0000 </r>
       <r>   17.6373    0.0000 </r>
       <r>   25.3168    0.0000 </r>
       <r>   27.0564    0.0000 </r>
       <r>   29.5569    0.0000 </r>
       <r>   37.7043    0.0000 </r>
       <r>   43.3719    0.0000 </r>
       <r>   53.2674    0.0000 </r>
      </set>
      <set comment="kpoint 24">
       <r>    8.7168    1.0000 </r>
       <r>    9.2210    1.0000 </r>
       <r>   11.3298    1.0000 </r>
       <r>   13.1462    0.0000 </r>
       <r>   14.0911    0.0000 </r>
       <r>   20.0512    0.0000 </r>
       <r>   22.4352    0.0000 </r>
       <r>   26.0844    0.0000 </r>
       <r>   31.3753    0.0000 </r>
       <r>   38.6218    0.0000 </r>
       <r>   49.0090    0.0000 </r>
       <r>   52.2831    0.0000 </r>
      </set>
      <set comment="kpoint 25">
       <r>    8.8902    1.0000 </r>
       <r>    9.8221    1.0000 </r>
       <r>   10.8877    1.0000 </r>
       <r>   12.2327    1.0000 </r>
       <r>   13.9191    0.0000 </r>
       <r>   17.9406    0.0000 </r>
       <r>   21.7823    0.0000 </r>
       <r>   29.8142    0.0000 </r>
       <r>   34.2179    0.0000 </r>
       <r>   39.5370    0.0000 </r>
       <r>   47.6490    0.0000 </r>
       <r>   52.2694    0.0000 </r>
      </set>
      <set comment="kpoint 26">
       <r>    7.9082    1.0000 </r>
       <r>   10.8283    1.0000 </r>
       <r>   11.4204    1.0000 </r>
       <r>   11.5530    1.0000 </r>
       <r>   14.0023    0.0000 </r>
       <r>   15.1710    0.0000 </r>
       <r>   22.3808    0.0000 </r>
       <r>   34.2953    0.0000 </r>
       <r>   37.6039    0.0000 </r>
       <r>   40.1692    0.0000 </r>
       <r>   45.3499    0.0000 </r>
       <r>   47.4471    0.0000 </r>
      </set>
      <set comment="kpoint 27">
       <r>    7.7269    1.0000 </r>
       <r>    8.5897    1.0000 </r>
       <r>   13.7561    0.0000 </r>
       <r>   14.0606    0.0000 </r>
       <r>   14.3566    0.0000 </r>
       <r>   16.2110    0.0000 </r>
       <r>   25.3595    0.0000 </r>
       <r>   28.7994    0.0000 </r>
       <r>   29.9190    0.0000 </r>
       <r>   36.1207    0.0000 </r>
       <r>   41.2840    0.0000 </r>
       <r>   53.3061    0.0000 </r>
      </set>
      <set comment="kpoint 28">
       <r>    8.0501    1.0000 </r>
       <r>    8.9486    1.0000 </r>
       <r>   12.1558    1.0000 </r>
       <r>   13.6068    0.0000 </r>
       <r>   14.1529    0.0000 </r>
       <r>   16.2725    0.0000 </r>
       <r>   27.1083    0.0000 </r>
       <r>   28.0823    0.0000 </r>
       <r>   30.2587    0.0000 </r>
       <r>   37.8761    0.0000 </r>
       <r>   43.5769    0.0000 </r>
       <r>   53.1652    0.0000 </r>
      </set>
      <set comment="kpoint 29">
       <r>    8.4483    1.0000 </r>
       <r>    9.6775    1.0000 </r>
       <r>   10.9337    1.0000 </r>
       <r>   12.4322    1.0000 </r>
       <r>   14.0840    0.0000 </r>
       <r>   16.1346    0.0000 </r>
       <r>   24.3118    0.0000 </r>
       <r>   31.3274    0.0000 </r>
       <r>   33.2259    0.0000 </r>
       <r>   39.1588    0.0000 </r>
       <r>   48.2406    0.0000 </r>
       <r>   50.8593    0.0000 </r>
      </set>
      <set comment="kpoint 30">
       <r>    7.5584    1.0000 </r>
       <r>    9.1109    1.0000 </r>
       <r>   12.2665    1.0000 </r>
       <r>   13.3516    0.0000 </r>
       <r>   13.9269    0.0000 </r>
       <r>   14.0006    0.0000 </r>
       <r>   30.0929    0.0000 </r>
       <r>   31.0974    0.0000 </r>
       <r>   32.1141    0.0000 </r>
       <r>   36.4125    0.0000 </r>
       <r>   42.0762    0.0000 </r>
       <r>   53.2333    0.0000 </r>
      </set>
      <set comment="kpoint 31">
       <r>    7.1180    1.0000 </r>
       <r>    9.6790    1.0000 </r>
       <r>   11.3323    1.0000 </r>
       <r>   12.6727    0.9541 </r>
       <r>   13.2880    0.0000 </r>
       <r>   14.1593    0.0000 </r>
       <r>   29.9613    0.0000 </r>
       <r>   32.4407    0.0000 </r>
       <r>   34.8013    0.0000 </r>
       <r>   38.9830    0.0000 </r>
       <r>   45.1947    0.0000 </r>
       <r>   51.2289    0.0000 </r>
      </set>
      <set comment="kpoint 32">
       <r>    5.5715    1.0000 </r>
       <r>   10.1038    1.0000 </r>
       <r>   11.8505    1.0000 </r>
       <r>   12.2654    1.0000 </r>
       <r>   12.5443    1.0000 </r>
       <r>   13.5185    0.0000 </r>
       <r>   33.7984    0.0000 </r>
       <r>   35.9925    0.0000 </r>
       <r>   36.2635    0.0000 </r>
       <r>   38.1188    0.0000 </r>
       <r>   45.5473    0.0000 </r>
       <r>   51.7943    0.0000 </r>
      </set>
      <set comment="kpoint 33">
       <r>    4.3831    1.0000 </r>
       <r>   10.8206    1.0000 </r>
       <r>   11.6215    1.0000 </r>
       <r>   11.6215    1.0000 </r>
       <r>   12.9969    0.0000 </r>
       <r>   12.9969    0.0000 </r>
       <r>   32.9306    0.0000 </r>
       <r>   38.0487    0.0000 </r>
       <r>   42.0956    0.0000 </r>
       <r>   42.0956    0.0000 </r>
       <r>   47.1723    0.0000 </r>
       <r>   47.9554    0.0000 </r>
      </set>
      <set comment="kpoint 34">
       <r>    5.5907    1.0000 </r>
       <r>   10.4553    1.0000 </r>
       <r>   11.5429    1.0000 </r>
       <r>   11.9663    1.0000 </r>
       <r>   12.5494    1.0000 </r>
       <r>   13.7162    0.0000 </r>
       <r>   31.2875    0.0000 </r>
       <r>   33.9109    0.0000 </r>
       <r>   41.5919    0.0000 </r>
       <r>   43.6325    0.0000 </r>
       <r>   44.3160    0.0000 </r>
       <r>   47.2215    0.0000 </r>
      </set>
      <set comment="kpoint 35">
       <r>    7.5042    1.0000 </r>
       <r>   10.2072    1.0000 </r>
       <r>   10.9917    1.0000 </r>
       <r>   12.1406    1.0000 </r>
       <r>   12.7813    0.0828 </r>
       <r>   14.9501    0.0000 </r>
       <r>   27.7396    0.0000 </r>
       <r>   30.5694    0.0000 </r>
       <r>   39.5693    0.0000 </r>
       <r>   41.1112    0.0000 </r>
       <r>   45.6465    0.0000 </r>
       <r>   48.4978    0.0000 </r>
      </set>
      <set comment="kpoint 36">
       <r>    8.5261    1.0000 </r>
       <r>   10.2679    1.0000 </r>
       <r>   10.9435    1.0000 </r>
       <r>   11.9535    1.0000 </r>
       <r>   13.6999    0.0000 </r>
       <r>   16.6503    0.0000 </r>
       <r>   22.6619    0.0000 </r>
       <r>   30.7655    0.0000 </r>
       <r>   37.7562    0.0000 </r>
       <r>   37.9375    0.0000 </r>
       <r>   48.2998    0.0000 </r>
       <r>   48.6876    0.0000 </r>
      </set>
      <set comment="kpoint 37">
       <r>    8.4237    1.0000 </r>
       <r>    9.9969    1.0000 </r>
       <r>   11.0942    1.0000 </r>
       <r>   12.0424    1.0000 </r>
       <r>   14.1964    0.0000 </r>
       <r>   16.3625    0.0000 </r>
       <r>   22.5819    0.0000 </r>
       <r>   32.0349    0.0000 </r>
       <r>   35.6091    0.0000 </r>
       <r>   37.7871    0.0000 </r>
       <r>   49.4108    0.0000 </r>
       <r>   49.8393    0.0000 </r>
      </set>
      <set comment="kpoint 38">
       <r>    7.3605    1.0000 </r>
       <r>    9.8106    1.0000 </r>
       <r>   11.2046    1.0000 </r>
       <r>   12.2758    1.0000 </r>
       <r>   13.9905    0.0000 </r>
       <r>   14.0263    0.0000 </r>
       <r>   27.6376    0.0000 </r>
       <r>   34.0221    0.0000 </r>
       <r>   35.1494    0.0000 </r>
       <r>   38.5191    0.0000 </r>
       <r>   47.4705    0.0000 </r>
       <r>   50.6339    0.0000 </r>
      </set>
      <set comment="kpoint 39">
       <r>    6.2568    1.0000 </r>
       <r>   10.2290    1.0000 </r>
       <r>   11.4600    1.0000 </r>
       <r>   11.9367    1.0000 </r>
       <r>   13.2061    0.0000 </r>
       <r>   13.6756    0.0000 </r>
       <r>   29.2220    0.0000 </r>
       <r>   35.9965    0.0000 </r>
       <r>   37.3155    0.0000 </r>
       <r>   40.8190    0.0000 </r>
       <r>   47.5188    0.0000 </r>
       <r>   48.9256    0.0000 </r>
      </set>
      <set comment="kpoint 40">
       <r>    7.7050    1.0000 </r>
       <r>    9.8743    1.0000 </r>
       <r>   10.9028    1.0000 </r>
       <r>   12.5275    1.0000 </r>
       <r>   13.1536    0.0000 </r>
       <r>   14.9464    0.0000 </r>
       <r>   27.9605    0.0000 </r>
       <r>   30.7310    0.0000 </r>
       <r>   35.4863    0.0000 </r>
       <r>   41.8511    0.0000 </r>
       <r>   45.6000    0.0000 </r>
       <r>   49.8456    0.0000 </r>
      </set>
      <set comment="kpoint 41">
       <r>    8.9880    1.0000 </r>
       <r>    9.8659    1.0000 </r>
       <r>   10.2883    1.0000 </r>
       <r>   12.6627    0.9755 </r>
       <r>   13.6057    0.0000 </r>
       <r>   17.1861    0.0000 </r>
       <r>   24.8029    0.0000 </r>
       <r>   28.1035    0.0000 </r>
       <r>   32.7165    0.0000 </r>
       <r>   42.8441    0.0000 </r>
       <r>   45.2362    0.0000 </r>
       <r>   51.8333    0.0000 </r>
      </set>
      <set comment="kpoint 42">
       <r>    9.1845    1.0000 </r>
       <r>    9.4876    1.0000 </r>
       <r>   10.6616    1.0000 </r>
       <r>   12.5978    0.9999 </r>
       <r>   14.0356    0.0000 </r>
       <r>   18.9552    0.0000 </r>
       <r>   21.9836    0.0000 </r>
       <r>   29.0177    0.0000 </r>
       <r>   30.9313    0.0000 </r>
       <r>   41.5742    0.0000 </r>
       <r>   46.8469    0.0000 </r>
       <r>   52.3715    0.0000 </r>
      </set>
      <set comment="kpoint 43">
       <r>    8.4233    1.0000 </r>
       <r>    9.5473    1.0000 </r>
       <r>   10.8022    1.0000 </r>
       <r>   12.9553    0.0000 </r>
       <r>   13.6658    0.0000 </r>
       <r>   16.0362    0.0000 </r>
       <r>   26.5990    0.0000 </r>
       <r>   29.4010    0.0000 </r>
       <r>   31.9545    0.0000 </r>
       <r>   41.1260    0.0000 </r>
       <r>   46.0269    0.0000 </r>
       <r>   50.2420    0.0000 </r>
      </set>
      <set comment="kpoint 44">
       <r>    8.1059    1.0000 </r>
       <r>    9.4000    1.0000 </r>
       <r>   11.2855    1.0000 </r>
       <r>   12.7066    0.7664 </r>
       <r>   14.2008    0.0000 </r>
       <r>   15.3113    0.0000 </r>
       <r>   26.2500    0.0000 </r>
       <r>   31.0847    0.0000 </r>
       <r>   33.3627    0.0000 </r>
       <r>   37.5523    0.0000 </r>
       <r>   46.5431    0.0000 </r>
       <r>   52.6834    0.0000 </r>
      </set>
      <set comment="kpoint 45">
       <r>    8.5569    1.0000 </r>
       <r>    9.2987    1.0000 </r>
       <r>   11.1471    1.0000 </r>
       <r>   13.2530    0.0000 </r>
       <r>   14.0703    0.0000 </r>
       <r>   17.6599    0.0000 </r>
       <r>   25.5085    0.0000 </r>
       <r>   27.8327    0.0000 </r>
       <r>   29.3146    0.0000 </r>
       <r>   40.6600    0.0000 </r>
       <r>   46.3044    0.0000 </r>
       <r>   51.0663    0.0000 </r>
      </set>
      <set comment="kpoint 46">
       <r>    8.8880    1.0000 </r>
       <r>    9.7457    1.0000 </r>
       <r>   10.5412    1.0000 </r>
       <r>   12.9235    0.0000 </r>
       <r>   14.3225    0.0000 </r>
       <r>   21.1322    0.0000 </r>
       <r>   23.0448    0.0000 </r>
       <r>   25.8463    0.0000 </r>
       <r>   27.6624    0.0000 </r>
       <r>   43.7579    0.0000 </r>
       <r>   47.4767    0.0000 </r>
       <r>   50.1009    0.0000 </r>
      </set>
      <set comment="kpoint 47">
       <r>    9.0546    1.0000 </r>
       <r>    9.7502    1.0000 </r>
       <r>   10.3504    1.0000 </r>
       <r>   12.8774    0.0000 </r>
       <r>   14.0395    0.0000 </r>
       <r>   19.0605    0.0000 </r>
       <r>   23.7307    0.0000 </r>
       <r>   27.2241    0.0000 </r>
       <r>   29.4105    0.0000 </r>
       <r>   43.7421    0.0000 </r>
       <r>   45.7313    0.0000 </r>
       <r>   51.2397    0.0000 </r>
      </set>
      <set comment="kpoint 48">
[...]
       </set>
       <set comment="band 5">
        <r>  0.0002  0.0000  0.0006  0.0009  0.0025  0.0310  0.0001  0.9526  0.0061 </r>
       </set>
       <set comment="band 6">
        <r>  0.0243  0.0080  0.5509  0.0012  0.0003  0.3201  0.0312  0.0161  0.0023 </r>
       </set>
       <set comment="band 7">
        <r>  0.0020  0.1523  0.0132  0.2973  0.1652  0.0099  0.2398  0.0056  0.0230 </r>
       </set>
       <set comment="band 8">
        <r>  0.2674  0.0189  0.0329  0.1403  0.1090  0.0053  0.3431  0.0008  0.0007 </r>
       </set>
       <set comment="band 9">
        <r>  0.2828  0.1850  0.0050  0.1529  0.0544  0.0014  0.0013  0.0016  0.1142 </r>
       </set>
       <set comment="band 10">
        <r>  0.0219  0.0258  0.0005  0.0685  0.7688  0.0000  0.0128  0.0013  0.0050 </r>
       </set>
       <set comment="band 11">
        <r>  0.3418  0.2583  0.0055  0.0132  0.0709  0.0001  0.1675  0.0003  0.0100 </r>
       </set>
       <set comment="band 12">
        <r>  0.4842  0.0033  0.0286  0.0001  0.0002  0.3831  0.0190  0.0024  0.0300 </r>
       </set>
      </set>
      <set comment="kpoint 50">
       <set comment="band 1">
        <r>  0.0909  0.0113  0.0506  0.0113  0.0650  0.0068  0.6680  0.0068  0.0000 </r>
       </set>
       <set comment="band 2">
        <r>  0.0005  0.0315  0.0002  0.0315  0.8353  0.0080  0.0555  0.0080  0.0000 </r>
       </set>
       <set comment="band 3">
        <r>  0.0426  0.0000  0.2165  0.0000  0.0310  0.2975  0.0741  0.2975  0.0000 </r>
       </set>
       <set comment="band 4">
        <r>  0.0000  0.0068  0.0000  0.0068  0.0000  0.1620  0.0000  0.1620  0.6429 </r>
       </set>
       <set comment="band 5">
        <r>  0.0000  0.0000  0.0000  0.0000  0.0000  0.3304  0.0000  0.3304  0.3336 </r>
       </set>
       <set comment="band 6">
        <r>  0.0762  0.0190  0.3386  0.0190  0.0053  0.1874  0.1255  0.1874  0.0000 </r>
       </set>
       <set comment="band 7">
        <r>  0.1013  0.2132  0.0036  0.2132  0.1847  0.0404  0.0881  0.0404  0.0000 </r>
       </set>
       <set comment="band 8">
        <r>  0.2247  0.0002  0.1712  0.0002  0.0319  0.0044  0.4644  0.0044  0.0000 </r>
       </set>
       <set comment="band 9">
        <r>  0.0000  0.3054  0.0000  0.3054  0.0000  0.0262  0.0000  0.0262  0.1045 </r>
       </set>
       <set comment="band 10">
        <r>  0.1355  0.0009  0.0212  0.0009  0.7490  0.0002  0.0286  0.0002  0.0000 </r>
       </set>
       <set comment="band 11">
        <r>  0.3280  0.0996  0.0340  0.0996  0.2044  0.0064  0.1102  0.0064  0.0000 </r>
       </set>
       <set comment="band 12">
        <r>  5.7734  0.0075  0.0052  0.0075  0.0114  0.0012  0.0039  0.0012  0.0000 </r>
       </set>
      </set>
      <set comment="kpoint 51">
       <set comment="band 1">
        <r>  0.5246  0.0579  0.0579  0.0579  0.0691  0.0691  0.0000  0.0691  0.0000 </r>
       </set>
       <set comment="band 2">
        <r>  0.0312  0.0721  0.0721  0.0721  0.2301  0.2301  0.0000  0.2301  0.0000 </r>
       </set>
       <set comment="band 3">
        <r>  0.0000  0.0006  0.0000  0.0007  0.0043  0.3048  0.0051  0.2371  0.4315 </r>
       </set>
       <set comment="band 4">
        <r>  0.0000  0.0003  0.0009  0.0001  0.3599  0.0593  0.4315  0.1270  0.0051 </r>
       </set>
       <set comment="band 5">
        <r>  0.0000  0.0011  0.0000  0.0013  0.0015  0.2358  0.0028  0.2006  0.5422 </r>
       </set>
       <set comment="band 6">
        <r>  0.0000  0.0005  0.0016  0.0003  0.2904  0.0562  0.5422  0.0913  0.0028 </r>
       </set>
       <set comment="band 7">
        <r>  0.1803  0.0861  0.0861  0.0861  0.1640  0.1640  0.0000  0.1640  0.0000 </r>
       </set>
       <set comment="band 8">
        <r>  0.0083  0.0041  0.0041  0.0041  0.0253  0.0253  0.0000  0.0253  0.0000 </r>
       </set>
       <set comment="band 9">
        <r>  0.0000  0.1988  0.0800  0.0751  0.1081  0.1015  0.0449  0.2687  0.0875 </r>
       </set>
       <set comment="band 10">
        <r>  0.0000  0.0371  0.1560  0.1609  0.2108  0.2174  0.0875  0.0502  0.0449 </r>
       </set>
       <set comment="band 11">
        <r>  0.0000  0.0007  0.0681  0.0674  0.0058  0.0058  0.5430  0.0001  0.1813 </r>
       </set>
       <set comment="band 12">
        <r>  0.0000  0.0901  0.0227  0.0234  0.0019  0.0020  0.1813  0.0077  0.5430 </r>
       </set>
      </set>
      <set comment="kpoint 52">
       <set comment="band 1">
        <r>  0.3782  0.0903  0.0903  0.0026  0.0873  0.1724  0.0033  0.0873  0.0098 </r>
       </set>
       <set comment="band 2">
        <r>  0.0254  0.0764  0.0764  0.0998  0.2801  0.0131  0.0199  0.2801  0.0597 </r>
       </set>
       <set comment="band 3">
        <r>  0.0018  0.0022  0.0022  0.0041  0.0678  0.3456  0.1204  0.0678  0.3612 </r>
       </set>
       <set comment="band 4">
        <r>  0.0000  0.0008  0.0008  0.0000  0.1894  0.0000  0.4493  0.1894  0.1498 </r>
       </set>
       <set comment="band 5">
        <r>  0.0000  0.0013  0.0013  0.0000  0.3031  0.0000  0.2803  0.3031  0.0934 </r>
       </set>
       <set comment="band 6">
        <r>  0.0412  0.0331  0.0331  0.0085  0.0074  0.4445  0.1018  0.0074  0.3054 </r>
       </set>
       <set comment="band 7">
        <r>  0.2101  0.0460  0.0460  0.1676  0.1738  0.1131  0.0048  0.1738  0.0144 </r>
       </set>
       <set comment="band 8">
        <r>  0.0404  0.0205  0.0205  0.1671  0.1061  0.0794  0.0394  0.1061  0.1181 </r>
       </set>
       <set comment="band 9">
        <r>  0.0404  0.1064  0.1064  0.0870  0.0053  0.0047  0.0014  0.0053  0.0043 </r>
       </set>
       <set comment="band 10">
        <r>  0.0000  0.1625  0.1625  0.0000  0.0014  0.0000  0.4632  0.0014  0.1544 </r>
       </set>
       <set comment="band 11">
        <r>  0.0773  0.0102  0.0102  0.0249  0.0146  0.1459  0.0736  0.0146  0.2207 </r>
       </set>
       <set comment="band 12">
        <r>  0.0000  0.0765  0.0765  0.0000  0.3275  0.0000  0.1984  0.3275  0.0661 </r>
       </set>
      </set>
      <set comment="kpoint 53">
       <set comment="band 1">
        <r>  0.1799  0.1145  0.1145  0.0030  0.0342  0.4241  0.0082  0.0342  0.0245 </r>
       </set>
       <set comment="band 2">
        <r>  0.0005  0.0392  0.0392  0.0209  0.0378  0.1174  0.1584  0.0378  0.4753 </r>
       </set>
       <set comment="band 3">
        <r>  0.0045  0.0033  0.0033  0.1088  0.3453  0.1042  0.0138  0.3453  0.0413 </r>
       </set>
       <set comment="band 4">
        <r>  0.0000  0.0054  0.0054  0.0000  0.0438  0.0000  0.6567  0.0438  0.2189 </r>
       </set>
       <set comment="band 5">
        <r>  0.0000  0.0004  0.0004  0.0000  0.4482  0.0000  0.0648  0.4482  0.0216 </r>
       </set>
       <set comment="band 6">
        <r>  0.1269  0.0989  0.0989  0.0064  0.0003  0.3820  0.0616  0.0003  0.1847 </r>
       </set>
       <set comment="band 7">
        <r>  0.1069  0.0093  0.0093  0.3845  0.2035  0.0312  0.0078  0.2035  0.0235 </r>
       </set>
       <set comment="band 8">
        <r>  0.2218  0.0437  0.0437  0.1168  0.0426  0.0838  0.0620  0.0426  0.1860 </r>
       </set>
       <set comment="band 9">
        <r>  0.0000  0.2212  0.2212  0.0000  0.0010  0.0000  0.3606  0.0010  0.1202 </r>
       </set>
       <set comment="band 10">
        <r>  0.1089  0.0689  0.0689  0.0056  0.0001  0.1591  0.0213  0.0001  0.0640 </r>
       </set>
       <set comment="band 11">
        <r>  0.0257  0.0001  0.0001  0.0786  0.0490  0.0353  0.0083  0.0490  0.0250 </r>
       </set>
       <set comment="band 12">
        <r>  0.0000  0.0107  0.0107  0.0000  0.4081  0.0000  0.0425  0.4081  0.0142 </r>
       </set>
      </set>
      <set comment="kpoint 54">
       <set comment="band 1">
        <r>  0.0448  0.0012  0.0012  0.0068  0.0066  0.3698  0.1263  0.0066  0.3790 </r>
       </set>
       <set comment="band 2">
        <r>  0.0149  0.0999  0.0999  0.0000  0.0063  0.4229  0.0715  0.0063  0.2145 </r>
       </set>
       <set comment="band 3">
        <r>  0.0016  0.0016  0.0016  0.1900  0.3686  0.0294  0.0010  0.3686  0.0031 </r>
       </set>
       <set comment="band 4">
        <r>  0.0000  0.0075  0.0075  0.0000  0.0351  0.0000  0.6677  0.0351  0.2226 </r>
       </set>
       <set comment="band 5">
        <r>  0.0000  0.0002  0.0002  0.0000  0.4585  0.0000  0.0528  0.4585  0.0176 </r>
       </set>
       <set comment="band 6">
        <r>  0.0718  0.1715  0.1715  0.0836  0.0174  0.2108  0.0444  0.0174  0.1333 </r>
       </set>
       <set comment="band 7">
        <r>  0.1198  0.0115  0.0115  0.4138  0.1801  0.0541  0.0000  0.1801  0.0001 </r>
       </set>
       <set comment="band 8">
        <r>  0.3327  0.0160  0.0160  0.0648  0.0109  0.0483  0.0952  0.0109  0.2856 </r>
       </set>
       <set comment="band 9">
        <r>  0.0000  0.2753  0.2753  0.0000  0.0020  0.0000  0.2079  0.0020  0.0693 </r>
       </set>
       <set comment="band 10">
        <r>  0.1454  0.0275  0.0275  0.0036  0.0000  0.4501  0.0189  0.0000  0.0568 </r>
       </set>
       <set comment="band 11">
        <r>  2.5185  0.0595  0.0595  0.0057  0.0002  0.2142  0.0147  0.0002  0.0441 </r>
       </set>
       <set comment="band 12">
        <r>  0.0004  0.0050  0.0053  0.0000  0.2898  0.0000  0.0328  0.2939  0.0107 </r>
       </set>
      </set>
      <set comment="kpoint 55">
       <set comment="band 1">
        <r>  0.2843  0.0072  0.0950  0.0072  0.2021  0.1576  0.0309  0.1576  0.0000 </r>
       </set>
       <set comment="band 2">
        <r>  0.0142  0.0967  0.0664  0.0967  0.1432  0.0495  0.3988  0.0495  0.0000 </r>
       </set>
       <set comment="band 3">
        <r>  0.0205  0.0182  0.0467  0.0182  0.4778  0.0733  0.2447  0.0733  0.0000 </r>
       </set>
       <set comment="band 4">
        <r>  0.0000  0.0035  0.0000  0.0035  0.0000  0.2237  0.0000  0.2237  0.5263 </r>
       </set>
       <set comment="band 5">
        <r>  0.0000  0.0003  0.0000  0.0003  0.0000  0.2687  0.0000  0.2687  0.4550 </r>
       </set>
       <set comment="band 6">
        <r>  0.0392  0.0395  0.0942  0.0395  0.0957  0.1765  0.3013  0.1765  0.0000 </r>
       </set>
       <set comment="band 7">
        <r>  0.2813  0.0960  0.0119  0.0960  0.1992  0.1326  0.0100  0.1326  0.0000 </r>
       </set>
       <set comment="band 8">
        <r>  0.0016  0.0010  0.0702  0.0010  0.1087  0.0065  0.2862  0.0065  0.0000 </r>
       </set>
       <set comment="band 9">
        <r>  0.0000  0.2425  0.0000  0.2425  0.0000  0.0988  0.0000  0.0988  0.1743 </r>
       </set>
       <set comment="band 10">
        <r>  0.1061  0.0369  0.2580  0.0369  0.1528  0.0072  0.0968  0.0072  0.0000 </r>
       </set>
       <set comment="band 11">
        <r>  0.0333  0.0001  0.0148  0.0001  0.3554  0.0272  0.5052  0.0272  0.0000 </r>
       </set>
       <set comment="band 12">
        <r>  0.0000  0.0511  0.0000  0.0511  0.0000  0.0843  0.0000  0.0843  0.5920 </r>
       </set>
      </set>
      <set comment="kpoint 56">
       <set comment="band 1">
        <r>  0.1511  0.0186  0.0896  0.0102  0.2686  0.2463  0.0654  0.1011  0.0016 </r>
       </set>
       <set comment="band 2">
        <r>  0.0000  0.0879  0.0249  0.0551  0.0737  0.0391  0.4917  0.0230  0.1211 </r>
       </set>
       <set comment="band 3">
        <r>  0.0141  0.0127  0.0625  0.0541  0.4070  0.3394  0.0420  0.0044  0.0328 </r>
       </set>
       <set comment="band 4">
        <r>  0.0000  0.0020  0.0156  0.0029  0.0323  0.0092  0.1491  0.2405  0.5239 </r>
       </set>
       <set comment="band 5">
        <r>  0.0007  0.0004  0.0031  0.0023  0.0873  0.0630  0.0631  0.5526  0.2155 </r>
       </set>
       <set comment="band 6">
        <r>  0.0670  0.0801  0.1823  0.0546  0.0240  0.2938  0.1637  0.0099  0.0747 </r>
       </set>
       <set comment="band 7">
        <r>  0.2795  0.0382  0.0001  0.1928  0.2170  0.0868  0.0131  0.1210  0.0125 </r>
       </set>
       <set comment="band 8">
        <r>  0.0269  0.0904  0.0094  0.1689  0.1081  0.0713  0.1923  0.0190  0.1262 </r>
       </set>
       <set comment="band 9">
        <r>  0.1668  0.0000  0.2641  0.0828  0.0020  0.0169  0.2038  0.0336  0.0499 </r>
       </set>
       <set comment="band 10">
        <r>  0.0046  0.2486  0.0413  0.0339  0.1119  0.0045  0.0064  0.0035  0.0000 </r>
       </set>
       <set comment="band 11">
        <r>  0.0690  0.0203  0.0007  0.0055  0.3061  0.1725  0.0868  0.0458  0.2557 </r>
       </set>
       <set comment="band 12">
        <r>  5.2884  0.0185  0.0043  0.0047  0.0134  0.0069  0.0314  0.0040  0.0052 </r>
       </set>
      </set>
      <set comment="kpoint 57">
       <set comment="band 1">
        <r>  0.0020  0.0841  0.0172  0.0036  0.0003  0.0035  0.4600  0.0001  0.3367 </r>
       </set>
       <set comment="band 2">
        <r>  0.0404  0.0134  0.0990  0.0066  0.0355  0.7557  0.0015  0.0123  0.0047 </r>
       </set>
       <set comment="band 3">
        <r>  0.0009  0.0015  0.0062  0.1552  0.6877  0.0500  0.0036  0.0621  0.0006 </r>
       </set>
       <set comment="band 4">
        <r>  0.0091  0.0013  0.0094  0.0019  0.0004  0.0034  0.3886  0.0268  0.5314 </r>
       </set>
       <set comment="band 5">
        <r>  0.0009  0.0000  0.0000  0.0034  0.1099  0.0059  0.0108  0.8449  0.0142 </r>
       </set>
       <set comment="band 6">
        <r>  0.0613  0.1118  0.2640  0.0702  0.0281  0.2209  0.1125  0.0010  0.0616 </r>
       </set>
       <set comment="band 7">
        <r>  0.1134  0.0001  0.0284  0.4282  0.2635  0.0504  0.0001  0.0790  0.0034 </r>
       </set>
       <set comment="band 8">
        <r>  0.2523  0.0870  0.0018  0.0737  0.0255  0.0480  0.1404  0.0037  0.2473 </r>
       </set>
       <set comment="band 9">
        <r>  0.2001  0.0706  0.2603  0.0043  0.0003  0.0724  0.2161  0.0025  0.0148 </r>
       </set>
       <set comment="band 10">
        <r>  0.0346  0.1527  0.0354  0.0023  0.0004  0.3720  0.0058  0.0005  0.0729 </r>
       </set>
       <set comment="band 11">
        <r>  0.0086  0.0156  0.0003  0.0463  0.4833  0.0363  0.0110  0.0175  0.0200 </r>
       </set>
       <set comment="band 12">
        <r>  3.1185  0.1099  0.0170  0.0000  0.0139  0.1367  0.0044  0.0000  0.0692 </r>
       </set>
      </set>
      <set comment="kpoint 58">
       <set comment="band 1">
        <r>  0.0964  0.0022  0.0444  0.0022  0.4960  0.0766  0.1657  0.0766  0.0000 </r>
       </set>
       <set comment="band 2">
        <r>  0.0005  0.0890  0.0066  0.0890  0.1258  0.0142  0.5767  0.0142  0.0000 </r>
       </set>
       <set comment="band 3">
        <r>  0.0113  0.0115  0.1489  0.0115  0.2124  0.2681  0.0346  0.2681  0.0000 </r>
       </set>
       <set comment="band 4">
        <r>  0.0000  0.0064  0.0000  0.0064  0.0000  0.1361  0.0000  0.1361  0.6911 </r>
       </set>
       <set comment="band 5">
        <r>  0.0000  0.0002  0.0000  0.0002  0.0000  0.3574  0.0000  0.3574  0.2756 </r>
       </set>
       <set comment="band 6">
        <r>  0.0064  0.1068  0.2517  0.1068  0.0731  0.0919  0.2085  0.0919  0.0000 </r>
       </set>
       <set comment="band 7">
        <r>  0.3247  0.0713  0.0538  0.0713  0.1995  0.1133  0.0077  0.1133  0.0000 </r>
       </set>
       <set comment="band 8">
        <r>  0.1537  0.0117  0.2001  0.0117  0.0364  0.0293  0.3858  0.0293  0.0000 </r>
       </set>
       <set comment="band 9">
        <r>  0.0000  0.2704  0.0000  0.2704  0.0000  0.0182  0.0000  0.0182  0.2545 </r>
       </set>
       <set comment="band 10">
        <r>  0.1413  0.0309  0.0351  0.0309  0.3974  0.0002  0.0379  0.0002  0.0000 </r>
       </set>
       <set comment="band 11">
        <r>  0.0012  0.0444  0.0326  0.0444  0.3811  0.0063  0.0558  0.0063  0.0000 </r>
       </set>
       <set comment="band 12">
        <r>  0.0000  0.0273  0.0000  0.0273  0.0000  0.2175  0.0000  0.2174  0.2571 </r>
       </set>
      </set>
      <set comment="kpoint 59">
       <set comment="band 1">
        <r>  0.2681  0.0087  0.0087  0.0087  0.2221  0.2221  0.0000  0.2221  0.0000 </r>
       </set>
       <set comment="band 2">
        <r>  0.0000  0.0001  0.0000  0.0001  0.0335  0.2014  0.0682  0.1820  0.4974 </r>
       </set>
       <set comment="band 3">
        <r>  0.0000  0.0000  0.0001  0.0000  0.2445  0.0766  0.4974  0.0959  0.0682 </r>
       </set>
       <set comment="band 4">
        <r>  0.0338  0.2363  0.2363  0.2363  0.0369  0.0369  0.0000  0.0369  0.0000 </r>
       </set>
       <set comment="band 5">
        <r>  0.0000  0.0004  0.0002  0.0000  0.1964  0.0233  0.2136  0.3547  0.2029 </r>
       </set>
       <set comment="band 6">
        <r>  0.0000  0.0000  0.0002  0.0004  0.1865  0.3596  0.2029  0.0282  0.2136 </r>
       </set>
       <set comment="band 7">
        <r>  0.3818  0.0256  0.0256  0.0256  0.1774  0.1774  0.0000  0.1774  0.0000 </r>
       </set>
       <set comment="band 8">
        <r>  0.0007  0.0108  0.0108  0.0108  0.0033  0.0033  0.0000  0.0033  0.0000 </r>
       </set>
       <set comment="band 9">
        <r>  0.0000  0.1737  0.0267  0.3363  0.0049  0.0615  0.0018  0.0318  0.0227 </r>
       </set>
       <set comment="band 10">
        <r>  0.0000  0.1841  0.3311  0.0215  0.0605  0.0039  0.0227  0.0336  0.0018 </r>
       </set>
       <set comment="band 11">
        <r>  0.0000  0.0126  0.0161  0.0005  0.1903  0.0057  0.7421  0.1488  0.1544 </r>
       </set>
       <set comment="band 12">
        <r>  0.0000  0.0068  0.0033  0.0189  0.0396  0.2242  0.1544  0.0810  0.7421 </r>
       </set>
      </set>
      <set comment="kpoint 60">
       <set comment="band 1">
        <r>  0.1988  0.0117  0.0117  0.0136  0.2169  0.2968  0.0000  0.2169  0.0001 </r>
       </set>
       <set comment="band 2">
        <r>  0.0002  0.0568  0.0568  0.0225  0.0138  0.0740  0.1730  0.0138  0.5190 </r>
       </set>
       <set comment="band 3">
        <r>  0.0012  0.1033  0.1033  0.1366  0.1417  0.3085  0.0001  0.1417  0.0002 </r>
       </set>
       <set comment="band 4">
        <r>  0.0000  0.0020  0.0020  0.0000  0.1822  0.0000  0.4581  0.1822  0.1527 </r>
       </set>
       <set comment="band 5">
        <r>  0.0000  0.0003  0.0003  0.0000  0.3127  0.0000  0.2733  0.3127  0.0911 </r>
       </set>
       <set comment="band 6">
        <r>  0.0077  0.1069  0.1069  0.1049  0.0346  0.2500  0.0742  0.0346  0.2226 </r>
       </set>
       <set comment="band 7">
        <r>  0.4134  0.0001  0.0001  0.0491  0.1823  0.1644  0.0005  0.1823  0.0016 </r>
       </set>
       <set comment="band 8">
        <r>  0.0201  0.0033  0.0033  0.1467  0.0456  0.0649  0.0630  0.0456  0.1889 </r>
       </set>
       <set comment="band 9">
        <r>  0.0760  0.0876  0.0876  0.1657  0.0117  0.0337  0.0018  0.0117  0.0053 </r>
       </set>
       <set comment="band 10">
        <r>  0.0000  0.2297  0.2297  0.0000  0.0252  0.0000  0.2547  0.0252  0.0849 </r>
       </set>
       <set comment="band 11">
        <r>  0.0000  0.0555  0.0555  0.0000  0.2166  0.0000  0.3697  0.2166  0.1232 </r>
       </set>
       <set comment="band 12">
        <r>  0.0819  0.0005  0.0005  0.0009  0.0001  0.3567  0.1278  0.0001  0.3834 </r>
       </set>
      </set>
     </set>
    </set>
   </array>
  </projected>
 </calculation>
 <structure name="finalpos" >
  <crystal>
   <varray name="basis" >
    <v>       0.00000000       1.66655418       1.66655418 </v>
    <v>       1.66655418       0.00000000       1.66655418 </v>
    <v>       1.66655418       1.66655418       0.00000000 </v>
   </varray>
   <i name="volume">      9.25738459 </i>
   <varray name="rec_basis" >
    <v>      -0.30002025       0.30002025       0.30002025 </v>
    <v>       0.30002025      -0.30002025       0.30002025 </v>
    <v>       0.30002025       0.30002025      -0.30002025 </v>
   </varray>
  </crystal>
  <varray name="positions" >
   <v>       0.00000000       0.00000000       0.00000000 </v>
  </varray>
 </structure>
</modeling>
