   2   2   1   0
  0.1049160E+02  0.2467353E-09  0.2467353E-09  0.3979957E-09  0.5000000E-15
  1.000000000000000E-004
  CAR 
 Co-hcc                                  
     58.21368872     -1.06200475  301     10.71273415      1.00000000
     -1.062  0.0000E+00  0.0000E+00  0.0000E+00  0.0000E+00
     -0.864  0.0000E+00  0.0000E+00  0.0000E+00  0.0000E+00
     -0.667  0.0000E+00  0.0000E+00  0.0000E+00  0.0000E+00
     -0.469  0.0000E+00  0.0000E+00  0.0000E+00  0.0000E+00
     -0.272  0.0000E+00  0.0000E+00  0.0000E+00  0.0000E+00
     -0.074  0.0000E+00  0.0000E+00  0.0000E+00  0.0000E+00
      0.124  0.0000E+00  0.0000E+00  0.0000E+00  0.0000E+00
      0.321  0.0000E+00  0.0000E+00  0.0000E+00  0.0000E+00
      0.519  0.0000E+00  0.0000E+00  0.0000E+00  0.0000E+00
      0.716  0.0000E+00  0.0000E+00  0.0000E+00  0.0000E+00
      0.914  0.0000E+00  0.0000E+00  0.0000E+00  0.0000E+00
      1.111  0.0000E+00  0.0000E+00  0.0000E+00  0.0000E+00
      1.309  0.0000E+00  0.0000E+00  0.0000E+00  0.0000E+00
      1.507  0.8260E-08  0.7546E-08  0.1632E-08  0.1491E-08
      1.704  0.4346E-04  0.4335E-04  0.8588E-05  0.8568E-05
      1.902  0.2775E-03  0.2730E-03  0.6343E-04  0.6251E-04
      2.099  0.5752E-03  0.5754E-03  0.1771E-03  0.1762E-03
      2.297  0.1011E-03  0.9945E-04  0.1971E-03  0.1959E-03
      2.495  0.5809E-03  0.5165E-03  0.3118E-03  0.2979E-03
      2.692  0.1038E-02  0.1094E-02  0.5170E-03  0.5140E-03
      2.890  0.5090E-03  0.5195E-03  0.6176E-03  0.6167E-03
      3.087  0.6077E-03  0.6057E-03  0.7376E-03  0.7364E-03
      3.285  0.1301E-02  0.1058E-02  0.9948E-03  0.9455E-03
      3.482  0.1307E-02  0.1436E-02  0.1253E-02  0.1229E-02
      3.680  0.4535E-03  0.2697E-03  0.1343E-02  0.1282E-02
      3.878  0.2203E-02  0.1755E-02  0.1778E-02  0.1629E-02
      4.075  0.3794E-03  0.1110E-02  0.1853E-02  0.1848E-02
      4.273  0.1095E-02  0.8384E-03  0.2069E-02  0.2014E-02
      4.470  0.2119E-02  0.6966E-03  0.2488E-02  0.2152E-02
      4.668  0.1982E-02  0.2909E-02  0.2880E-02  0.2727E-02
      4.866  0.2716E-02  0.1620E-02  0.3416E-02  0.3047E-02
      5.063  0.1396E-02  0.1763E-02  0.3692E-02  0.3395E-02
      5.261  0.2961E-02  0.1064E-02  0.4277E-02  0.3605E-02
      5.458  0.6089E-02  0.2289E-02  0.5480E-02  0.4058E-02
      5.656  0.1040E-01  0.2256E-02  0.7534E-02  0.4503E-02
      5.853  0.8691E-02  0.2976E-02  0.9252E-02  0.5091E-02
      6.051  0.1619E-01  0.3282E-02  0.1245E-01  0.5740E-02
      6.249  0.1505E-01  0.4138E-02  0.1542E-01  0.6557E-02
      6.446  0.1756E-01  0.4779E-02  0.1890E-01  0.7502E-02
      6.644  0.1423E-01  0.6850E-02  0.2171E-01  0.8855E-02
      6.841  0.1746E-01  0.1023E-01  0.2515E-01  0.1088E-01
      7.039  0.1752E-01  0.8690E-02  0.2862E-01  0.1259E-01
      7.237  0.1919E-01  0.9094E-02  0.3241E-01  0.1439E-01
      7.434  0.2200E-01  0.1381E-01  0.3675E-01  0.1712E-01
      7.632  0.9237E-02  0.1297E-01  0.3858E-01  0.1968E-01
      7.829  0.1967E-01  0.1215E-01  0.4247E-01  0.2208E-01
      8.027  0.2913E-01  0.1225E-01  0.4822E-01  0.2450E-01
      8.225  0.2485E-01  0.1424E-01  0.5313E-01  0.2732E-01
      8.422  0.2938E-01  0.1779E-01  0.5894E-01  0.3083E-01
      8.620  0.3075E-01  0.2111E-01  0.6501E-01  0.3500E-01
      8.817  0.2287E-01  0.1147E-01  0.6953E-01  0.3727E-01
      9.015  0.1648E-01  0.8268E-02  0.7279E-01  0.3890E-01
      9.212  0.2115E-01  0.1224E-01  0.7696E-01  0.4132E-01
      9.410  0.1360E-01  0.2222E-01  0.7965E-01  0.4571E-01
      9.608  0.1679E-01  0.2211E-01  0.8297E-01  0.5008E-01
      9.805  0.2520E-01  0.2365E-01  0.8795E-01  0.5475E-01
     10.003  0.3240E-01  0.2773E-01  0.9435E-01  0.6023E-01
     10.200  0.4449E-01  0.2835E-01  0.1031E+00  0.6583E-01
     10.398  0.6956E-02  0.1678E-01  0.1045E+00  0.6915E-01
     10.596  0.2313E-02  0.1693E-01  0.1050E+00  0.7250E-01
     10.793  0.6714E-02  0.1192E-01  0.1063E+00  0.7485E-01
     10.991  0.3014E-02  0.1741E-01  0.1069E+00  0.7829E-01
     11.188  0.2047E-02  0.1035E-01  0.1073E+00  0.8034E-01
     11.386  0.1464E-02  0.1414E-01  0.1076E+00  0.8313E-01
     11.583  0.9975E-03  0.2211E-01  0.1078E+00  0.8750E-01
     11.781  0.3239E-02  0.2495E-01  0.1084E+00  0.9243E-01
     11.979  0.6119E-02  0.3933E-01  0.1096E+00  0.1002E+00
     12.176  0.3821E-02  0.2432E-01  0.1104E+00  0.1050E+00
     12.374  0.1615E-02  0.7749E-02  0.1107E+00  0.1065E+00
     12.571  0.1799E-02  0.3914E-02  0.1111E+00  0.1073E+00
     12.769  0.2052E-02  0.3184E-02  0.1115E+00  0.1079E+00
     12.967  0.2340E-02  0.3458E-02  0.1119E+00  0.1086E+00
     13.164  0.1772E-02  0.3158E-02  0.1123E+00  0.1092E+00
     13.362  0.3014E-02  0.4478E-02  0.1129E+00  0.1101E+00
     13.559  0.1350E-02  0.4431E-02  0.1131E+00  0.1110E+00
     13.757  0.4133E-02  0.1767E-02  0.1140E+00  0.1114E+00
     13.955  0.3912E-03  0.3636E-02  0.1140E+00  0.1121E+00
     14.152  0.2230E-02  0.1164E-02  0.1145E+00  0.1123E+00
     14.350  0.1988E-02  0.3885E-02  0.1149E+00  0.1131E+00
     14.547  0.5035E-02  0.1383E-02  0.1159E+00  0.1133E+00
     14.745  0.1162E-02  0.2899E-02  0.1161E+00  0.1139E+00
     14.942  0.2253E-02  0.1645E-02  0.1165E+00  0.1142E+00
     15.140  0.2551E-02  0.3632E-02  0.1170E+00  0.1150E+00
     15.338  0.4026E-03  0.3700E-02  0.1171E+00  0.1157E+00
     15.535  0.1804E-02  0.1616E-02  0.1175E+00  0.1160E+00
     15.733  0.7075E-03  0.1602E-02  0.1176E+00  0.1163E+00
     15.930  0.1412E-02  0.3278E-02  0.1179E+00  0.1170E+00
     16.128  0.9077E-03  0.1737E-02  0.1181E+00  0.1173E+00
     16.326  0.4986E-02  0.1091E-02  0.1191E+00  0.1175E+00
     16.523  0.1888E-02  0.1420E-02  0.1194E+00  0.1178E+00
     16.721  0.1088E-02  0.5120E-03  0.1197E+00  0.1179E+00
     16.918  0.9750E-04  0.2279E-02  0.1197E+00  0.1184E+00
     17.116  0.3347E-04  0.4811E-02  0.1197E+00  0.1193E+00
     17.313  0.3700E-03  0.1262E-02  0.1197E+00  0.1196E+00
     17.511  0.1259E-02  0.5367E-03  0.1200E+00  0.1197E+00
     17.709  0.6708E-03  0.8052E-06  0.1201E+00  0.1197E+00
     17.906  0.8546E-03  0.6985E-04  0.1203E+00  0.1197E+00
     18.104  0.3661E-03  0.1321E-02  0.1204E+00  0.1199E+00
     18.301  0.1447E-02  0.1032E-03  0.1207E+00  0.1200E+00
     18.499  0.2331E-02  0.4562E-03  0.1211E+00  0.1201E+00
     18.697  0.7522E-02  0.1330E-02  0.1226E+00  0.1203E+00
     18.894  0.4269E-02  0.1231E-02  0.1234E+00  0.1206E+00
     19.092  0.2091E-02  0.7597E-03  0.1239E+00  0.1207E+00
     19.289  0.4363E-02  0.4395E-02  0.1247E+00  0.1216E+00
     19.487  0.3156E-02  0.5050E-02  0.1253E+00  0.1226E+00
     19.684  0.3296E-02  0.4550E-02  0.1260E+00  0.1235E+00
     19.882  0.3393E-02  0.4345E-02  0.1267E+00  0.1243E+00
     20.080  0.1592E-02  0.3407E-02  0.1270E+00  0.1250E+00
     20.277  0.4244E-02  0.4321E-02  0.1278E+00  0.1259E+00
     20.475  0.1985E-02  0.3541E-02  0.1282E+00  0.1266E+00
     20.672  0.3269E-02  0.1909E-02  0.1289E+00  0.1269E+00
     20.870  0.1818E-02  0.4467E-02  0.1292E+00  0.1278E+00
     21.068  0.5253E-02  0.2276E-02  0.1303E+00  0.1283E+00
     21.265  0.3303E-02  0.2896E-02  0.1309E+00  0.1288E+00
     21.463  0.5171E-02  0.2239E-02  0.1319E+00  0.1293E+00
     21.660  0.2995E-02  0.5052E-02  0.1325E+00  0.1303E+00
     21.858  0.2879E-02  0.4983E-02  0.1331E+00  0.1313E+00
     22.056  0.6223E-02  0.5026E-02  0.1343E+00  0.1323E+00
     22.253  0.2302E-02  0.1594E-02  0.1348E+00  0.1326E+00
     22.451  0.2986E-02  0.5361E-02  0.1354E+00  0.1336E+00
     22.648  0.2292E-02  0.4737E-02  0.1358E+00  0.1346E+00
     22.846  0.4307E-02  0.3266E-02  0.1367E+00  0.1352E+00
     23.043  0.3878E-02  0.2127E-02  0.1374E+00  0.1356E+00
     23.241  0.2849E-02  0.3437E-02  0.1380E+00  0.1363E+00
     23.439  0.1643E-02  0.4667E-02  0.1383E+00  0.1372E+00
     23.636  0.2594E-02  0.2446E-02  0.1388E+00  0.1377E+00
     23.834  0.3377E-02  0.2567E-02  0.1395E+00  0.1382E+00
     24.031  0.1268E-02  0.2614E-02  0.1398E+00  0.1387E+00
     24.229  0.2603E-02  0.2819E-02  0.1403E+00  0.1393E+00
     24.427  0.6238E-02  0.2099E-02  0.1415E+00  0.1397E+00
     24.624  0.1805E-02  0.1728E-02  0.1419E+00  0.1401E+00
     24.822  0.1552E-02  0.6580E-02  0.1422E+00  0.1414E+00
     25.019  0.2786E-02  0.1868E-02  0.1427E+00  0.1417E+00
     25.217  0.6664E-02  0.2068E-02  0.1440E+00  0.1421E+00
     25.414  0.2264E-02  0.3154E-02  0.1445E+00  0.1428E+00
     25.612  0.2292E-02  0.5285E-02  0.1449E+00  0.1438E+00
     25.810  0.3186E-02  0.3326E-02  0.1456E+00  0.1445E+00
     26.007  0.3195E-02  0.1836E-02  0.1462E+00  0.1448E+00
     26.205  0.6330E-02  0.3576E-02  0.1474E+00  0.1455E+00
     26.402  0.3385E-02  0.3726E-02  0.1481E+00  0.1463E+00
     26.600  0.5125E-02  0.6964E-02  0.1491E+00  0.1476E+00
     26.798  0.5221E-02  0.3419E-02  0.1502E+00  0.1483E+00
     26.995  0.3281E-02  0.5230E-02  0.1508E+00  0.1494E+00
     27.193  0.3004E-02  0.4676E-02  0.1514E+00  0.1503E+00
     27.390  0.3380E-02  0.2922E-02  0.1521E+00  0.1509E+00
     27.588  0.5758E-02  0.3557E-02  0.1532E+00  0.1516E+00
     27.785  0.1369E-02  0.6039E-02  0.1535E+00  0.1527E+00
     27.983  0.6865E-02  0.3420E-02  0.1548E+00  0.1534E+00
     28.181  0.4391E-02  0.2192E-02  0.1557E+00  0.1539E+00
     28.378  0.3910E-02  0.7593E-02  0.1565E+00  0.1554E+00
     28.576  0.4162E-02  0.3284E-02  0.1573E+00  0.1560E+00
     28.773  0.5115E-02  0.4102E-02  0.1583E+00  0.1568E+00
     28.971  0.2314E-02  0.5365E-02  0.1588E+00  0.1579E+00
     29.169  0.4092E-02  0.3620E-02  0.1596E+00  0.1586E+00
     29.366  0.2838E-02  0.3447E-02  0.1601E+00  0.1593E+00
     29.564  0.4050E-02  0.3469E-02  0.1609E+00  0.1600E+00
     29.761  0.4623E-02  0.3752E-02  0.1618E+00  0.1607E+00
     29.959  0.4311E-02  0.5465E-02  0.1627E+00  0.1618E+00
     30.157  0.5298E-02  0.3459E-02  0.1637E+00  0.1625E+00
     30.354  0.2692E-02  0.5654E-02  0.1643E+00  0.1636E+00
     30.552  0.5986E-02  0.2485E-02  0.1655E+00  0.1641E+00
     30.749  0.3314E-02  0.4780E-02  0.1661E+00  0.1650E+00
     30.947  0.3860E-02  0.5506E-02  0.1669E+00  0.1661E+00
     31.144  0.3859E-02  0.4517E-02  0.1676E+00  0.1670E+00
     31.342  0.4193E-02  0.3918E-02  0.1685E+00  0.1678E+00
     31.540  0.5604E-02  0.4040E-02  0.1696E+00  0.1686E+00
     31.737  0.2244E-02  0.4715E-02  0.1700E+00  0.1695E+00
     31.935  0.2938E-02  0.3036E-02  0.1706E+00  0.1701E+00
     32.132  0.4973E-02  0.3474E-02  0.1716E+00  0.1708E+00
     32.330  0.2200E-02  0.3218E-02  0.1720E+00  0.1714E+00
     32.528  0.4661E-02  0.4615E-02  0.1729E+00  0.1723E+00
     32.725  0.4809E-02  0.3431E-02  0.1739E+00  0.1730E+00
     32.923  0.6931E-02  0.5442E-02  0.1753E+00  0.1741E+00
     33.120  0.2382E-02  0.5136E-02  0.1757E+00  0.1751E+00
     33.318  0.2826E-02  0.4135E-02  0.1763E+00  0.1759E+00
     33.515  0.5007E-02  0.2657E-02  0.1773E+00  0.1764E+00
     33.713  0.5633E-02  0.5630E-02  0.1784E+00  0.1776E+00
     33.911  0.4817E-02  0.3892E-02  0.1793E+00  0.1783E+00
     34.108  0.4118E-02  0.4116E-02  0.1802E+00  0.1791E+00
     34.306  0.2414E-02  0.5150E-02  0.1806E+00  0.1802E+00
     34.503  0.1315E-02  0.2098E-02  0.1809E+00  0.1806E+00
     34.701  0.4087E-02  0.2378E-02  0.1817E+00  0.1810E+00
     34.899  0.4813E-02  0.2769E-02  0.1826E+00  0.1816E+00
     35.096  0.3709E-02  0.6158E-02  0.1834E+00  0.1828E+00
     35.294  0.4323E-02  0.2709E-02  0.1842E+00  0.1833E+00
     35.491  0.1067E-01  0.4410E-02  0.1863E+00  0.1842E+00
     35.689  0.5596E-02  0.9037E-02  0.1874E+00  0.1860E+00
     35.887  0.3289E-02  0.6490E-02  0.1881E+00  0.1873E+00
     36.084  0.4873E-02  0.4802E-02  0.1891E+00  0.1882E+00
     36.282  0.4806E-02  0.3455E-02  0.1900E+00  0.1889E+00
     36.479  0.4687E-02  0.5641E-02  0.1909E+00  0.1900E+00
     36.677  0.2570E-02  0.4894E-02  0.1914E+00  0.1910E+00
     36.874  0.2444E-02  0.3041E-02  0.1919E+00  0.1916E+00
     37.072  0.3160E-02  0.1799E-02  0.1926E+00  0.1919E+00
     37.270  0.3659E-02  0.3904E-02  0.1933E+00  0.1927E+00
     37.467  0.2271E-02  0.2134E-02  0.1937E+00  0.1931E+00
     37.665  0.4835E-02  0.3167E-02  0.1947E+00  0.1938E+00
     37.862  0.3955E-02  0.4660E-02  0.1955E+00  0.1947E+00
     38.060  0.4736E-02  0.4848E-02  0.1964E+00  0.1956E+00
     38.258  0.5674E-02  0.3349E-02  0.1975E+00  0.1963E+00
     38.455  0.2169E-02  0.4634E-02  0.1979E+00  0.1972E+00
     38.653  0.5121E-02  0.4258E-02  0.1990E+00  0.1981E+00
     38.850  0.4954E-02  0.4605E-02  0.1999E+00  0.1990E+00
     39.048  0.4790E-02  0.4623E-02  0.2009E+00  0.1999E+00
     39.245  0.4286E-02  0.2624E-02  0.2017E+00  0.2004E+00
     39.443  0.1658E-02  0.6571E-02  0.2021E+00  0.2017E+00
     39.641  0.4429E-02  0.2064E-02  0.2029E+00  0.2021E+00
     39.838  0.7347E-02  0.6065E-02  0.2044E+00  0.2033E+00
     40.036  0.4885E-02  0.4649E-02  0.2053E+00  0.2042E+00
     40.233  0.3681E-02  0.4589E-02  0.2061E+00  0.2051E+00
     40.431  0.3735E-02  0.4672E-02  0.2068E+00  0.2061E+00
     40.629  0.4049E-02  0.5897E-02  0.2076E+00  0.2072E+00
     40.826  0.1432E-02  0.2309E-02  0.2079E+00  0.2077E+00
     41.024  0.5339E-02  0.1328E-02  0.2090E+00  0.2079E+00
     41.221  0.6331E-02  0.5213E-02  0.2102E+00  0.2090E+00
     41.419  0.5834E-02  0.5062E-02  0.2114E+00  0.2100E+00
     41.616  0.7044E-02  0.6885E-02  0.2127E+00  0.2113E+00
     41.814  0.3939E-02  0.6413E-02  0.2135E+00  0.2126E+00
     42.012  0.4310E-02  0.4051E-02  0.2144E+00  0.2134E+00
     42.209  0.3350E-02  0.6090E-02  0.2150E+00  0.2146E+00
     42.407  0.5310E-02  0.3649E-02  0.2161E+00  0.2153E+00
     42.604  0.4962E-02  0.3005E-02  0.2171E+00  0.2159E+00
     42.802  0.3523E-02  0.5605E-02  0.2178E+00  0.2170E+00
     43.000  0.9528E-03  0.4594E-02  0.2180E+00  0.2179E+00
     43.197  0.2490E-02  0.1330E-02  0.2184E+00  0.2182E+00
     43.395  0.4872E-02  0.1638E-02  0.2194E+00  0.2185E+00
     43.592  0.6196E-02  0.4873E-02  0.2206E+00  0.2195E+00
     43.790  0.6530E-02  0.4828E-02  0.2219E+00  0.2204E+00
     43.988  0.7614E-02  0.4366E-02  0.2234E+00  0.2213E+00
     44.185  0.7885E-02  0.9228E-02  0.2250E+00  0.2231E+00
     44.383  0.1323E-02  0.7794E-02  0.2252E+00  0.2247E+00
     44.580  0.7500E-02  0.2706E-02  0.2267E+00  0.2252E+00
     44.778  0.5602E-02  0.5235E-02  0.2278E+00  0.2262E+00
     44.975  0.4600E-02  0.6108E-02  0.2287E+00  0.2274E+00
     45.173  0.6292E-02  0.6226E-02  0.2300E+00  0.2287E+00
     45.371  0.8453E-02  0.5837E-02  0.2317E+00  0.2298E+00
     45.568  0.2250E-02  0.6149E-02  0.2321E+00  0.2310E+00
     45.766  0.3509E-02  0.4666E-02  0.2328E+00  0.2320E+00
     45.963  0.5602E-02  0.1784E-02  0.2339E+00  0.2323E+00
     46.161  0.6446E-02  0.3511E-02  0.2352E+00  0.2330E+00
     46.359  0.6664E-02  0.6402E-02  0.2365E+00  0.2343E+00
     46.556  0.6646E-02  0.5092E-02  0.2378E+00  0.2353E+00
     46.754  0.9449E-02  0.4999E-02  0.2397E+00  0.2363E+00
     46.951  0.9553E-02  0.8239E-02  0.2416E+00  0.2379E+00
     47.149  0.1370E-01  0.1447E-02  0.2443E+00  0.2382E+00
     47.346  0.2248E-01  0.2803E-02  0.2487E+00  0.2387E+00
     47.544  0.2723E-01  0.7305E-02  0.2541E+00  0.2402E+00
     47.742  0.2289E-01  0.6733E-02  0.2586E+00  0.2415E+00
     47.939  0.6895E-02  0.5044E-02  0.2600E+00  0.2425E+00
     48.137  0.6311E-02  0.5875E-02  0.2612E+00  0.2437E+00
     48.334  0.5802E-02  0.1415E-02  0.2624E+00  0.2439E+00
     48.532  0.2104E-02  0.6075E-02  0.2628E+00  0.2451E+00
     48.730  0.3410E-02  0.5440E-02  0.2635E+00  0.2462E+00
     48.927  0.5535E-02  0.5006E-02  0.2646E+00  0.2472E+00
     49.125  0.6415E-02  0.5098E-02  0.2658E+00  0.2482E+00
     49.322  0.5642E-02  0.5770E-02  0.2669E+00  0.2494E+00
     49.520  0.2069E-02  0.4769E-02  0.2673E+00  0.2503E+00
     49.718  0.3744E-02  0.7728E-02  0.2681E+00  0.2518E+00
     49.915  0.3682E-02  0.7400E-02  0.2688E+00  0.2533E+00
     50.113  0.5281E-02  0.8101E-02  0.2699E+00  0.2549E+00
     50.310  0.6545E-02  0.7036E-02  0.2711E+00  0.2563E+00
     50.508  0.2851E-02  0.7224E-02  0.2717E+00  0.2577E+00
     50.705  0.3479E-02  0.1273E-01  0.2724E+00  0.2602E+00
     50.903  0.3835E-02  0.1737E-01  0.2732E+00  0.2637E+00
     51.101  0.1456E-02  0.1605E-01  0.2734E+00  0.2668E+00
     51.298  0.4791E-02  0.1363E-01  0.2744E+00  0.2695E+00
     51.496  0.2328E-02  0.7783E-02  0.2748E+00  0.2711E+00
     51.693  0.1053E-02  0.6037E-02  0.2751E+00  0.2722E+00
     51.891  0.4695E-02  0.5990E-02  0.2760E+00  0.2734E+00
     52.089  0.3214E-02  0.4744E-02  0.2766E+00  0.2744E+00
     52.286  0.2917E-02  0.4920E-02  0.2772E+00  0.2753E+00
     52.484  0.5978E-03  0.3137E-02  0.2773E+00  0.2760E+00
     52.681  0.2851E-02  0.4788E-02  0.2779E+00  0.2769E+00
     52.879  0.1290E-02  0.3260E-02  0.2781E+00  0.2776E+00
     53.076  0.1552E-02  0.2427E-02  0.2784E+00  0.2780E+00
     53.274  0.9300E-03  0.8796E-03  0.2786E+00  0.2782E+00
     53.472  0.9455E-03  0.2228E-02  0.2788E+00  0.2786E+00
     53.669  0.1142E-02  0.6333E-03  0.2790E+00  0.2788E+00
     53.867  0.6982E-03  0.1548E-02  0.2792E+00  0.2791E+00
     54.064  0.8835E-03  0.8538E-03  0.2793E+00  0.2792E+00
     54.262  0.1877E-06  0.4772E-03  0.2793E+00  0.2793E+00
     54.460  0.9946E-03  0.5327E-04  0.2795E+00  0.2793E+00
     54.657  0.7216E-03  0.2072E-03  0.2797E+00  0.2794E+00
     54.855  0.2608E-03  0.1294E-02  0.2797E+00  0.2796E+00
     55.052  0.5521E-06  0.3436E-03  0.2797E+00  0.2797E+00
     55.250  0.1043E-02  0.1245E-03  0.2799E+00  0.2797E+00
     55.447  0.9912E-04  0.1062E-02  0.2800E+00  0.2799E+00
     55.645  0.1758E-03  0.2637E-03  0.2800E+00  0.2800E+00
     55.843  0.3298E-10  0.4956E-07  0.2800E+00  0.2800E+00
     56.040  0.0000E+00  0.0000E+00  0.2800E+00  0.2800E+00
     56.238  0.0000E+00  0.0000E+00  0.2800E+00  0.2800E+00
     56.435  0.0000E+00  0.0000E+00  0.2800E+00  0.2800E+00
     56.633  0.0000E+00  0.0000E+00  0.2800E+00  0.2800E+00
     56.831  0.0000E+00  0.0000E+00  0.2800E+00  0.2800E+00
     57.028  0.0000E+00  0.0000E+00  0.2800E+00  0.2800E+00
     57.226  0.0000E+00  0.0000E+00  0.2800E+00  0.2800E+00
     57.423  0.0000E+00  0.0000E+00  0.2800E+00  0.2800E+00
     57.621  0.0000E+00  0.0000E+00  0.2800E+00  0.2800E+00
     57.819  0.0000E+00  0.0000E+00  0.2800E+00  0.2800E+00
     58.016  0.0000E+00  0.0000E+00  0.2800E+00  0.2800E+00
     58.214  0.0000E+00  0.0000E+00  0.2800E+00  0.2800E+00
     58.21368872     -1.06200475  301     10.71273415      1.00000000
     -1.062  0.0000E+00  0.0000E+00  0.0000E+00  0.0000E+00  0.0000E+00  0.0000E+00  0.0000E+00  0.0000E+00  0.0000E+00  0.0000E+00  0.0000E+00  0.0000E+00  0.0000E+00  0.0000E+00  0.0000E+00  0.0000E+00  0.0000E+00  0.0000E+00
     -0.864  0.0000E+00  0.0000E+00  0.0000E+00  0.0000E+00  0.0000E+00  0.0000E+00  0.0000E+00  0.0000E+00  0.0000E+00  0.0000E+00  0.0000E+00  0.0000E+00  0.0000E+00  0.0000E+00  0.0000E+00  0.0000E+00  0.0000E+00  0.0000E+00
     -0.667  0.0000E+00  0.0000E+00  0.0000E+00  0.0000E+00  0.0000E+00  0.0000E+00  0.0000E+00  0.0000E+00  0.0000E+00  0.0000E+00  0.0000E+00  0.0000E+00  0.0000E+00  0.0000E+00  0.0000E+00  0.0000E+00  0.0000E+00  0.0000E+00
     -0.469  0.0000E+00  0.0000E+00  0.0000E+00  0.0000E+00  0.0000E+00  0.0000E+00  0.0000E+00  0.0000E+00  0.0000E+00  0.0000E+00  0.0000E+00  0.0000E+00  0.0000E+00  0.0000E+00  0.0000E+00  0.0000E+00  0.0000E+00  0.0000E+00
     -0.272  0.0000E+00  0.0000E+00  0.0000E+00  0.0000E+00  0.0000E+00  0.0000E+00  0.0000E+00  0.0000E+00  0.0000E+00  0.0000E+00  0.0000E+00  0.0000E+00  0.0000E+00  0.0000E+00  0.0000E+00  0.0000E+00  0.0000E+00  0.0000E+00
     -0.074  0.0000E+00  0.0000E+00  0.0000E+00  0.0000E+00  0.0000E+00  0.0000E+00  0.0000E+00  0.0000E+00  0.0000E+00  0.0000E+00  0.0000E+00  0.0000E+00  0.0000E+00  0.0000E+00  0.0000E+00  0.0000E+00  0.0000E+00  0.0000E+00
      0.124  0.0000E+00  0.0000E+00  0.0000E+00  0.0000E+00  0.0000E+00  0.0000E+00  0.0000E+00  0.0000E+00  0.0000E+00  0.0000E+00  0.0000E+00  0.0000E+00  0.0000E+00  0.0000E+00  0.0000E+00  0.0000E+00  0.0000E+00  0.0000E+00
      0.321  0.0000E+00  0.0000E+00  0.0000E+00  0.0000E+00  0.0000E+00  0.0000E+00  0.0000E+00  0.0000E+00  0.0000E+00  0.0000E+00  0.0000E+00  0.0000E+00  0.0000E+00  0.0000E+00  0.0000E+00  0.0000E+00  0.0000E+00  0.0000E+00
      0.519  0.0000E+00  0.0000E+00  0.0000E+00  0.0000E+00  0.0000E+00  0.0000E+00  0.0000E+00  0.0000E+00  0.0000E+00  0.0000E+00  0.0000E+00  0.0000E+00  0.0000E+00  0.0000E+00  0.0000E+00  0.0000E+00  0.0000E+00  0.0000E+00
      0.716  0.0000E+00  0.0000E+00  0.0000E+00  0.0000E+00  0.0000E+00  0.0000E+00  0.0000E+00  0.0000E+00  0.0000E+00  0.0000E+00  0.0000E+00  0.0000E+00  0.0000E+00  0.0000E+00  0.0000E+00  0.0000E+00  0.0000E+00  0.0000E+00
      0.914  0.0000E+00  0.0000E+00  0.0000E+00  0.0000E+00  0.0000E+00  0.0000E+00  0.0000E+00  0.0000E+00  0.0000E+00  0.0000E+00  0.0000E+00  0.0000E+00  0.0000E+00  0.0000E+00  0.0000E+00  0.0000E+00  0.0000E+00  0.0000E+00
      1.111  0.0000E+00  0.0000E+00  0.0000E+00  0.0000E+00  0.0000E+00  0.0000E+00  0.0000E+00  0.0000E+00  0.0000E+00  0.0000E+00  0.0000E+00  0.0000E+00  0.0000E+00  0.0000E+00  0.0000E+00  0.0000E+00  0.0000E+00  0.0000E+00
      1.309  0.0000E+00  0.0000E+00  0.0000E+00  0.0000E+00  0.0000E+00  0.0000E+00  0.0000E+00  0.0000E+00  0.0000E+00  0.0000E+00  0.0000E+00  0.0000E+00  0.0000E+00  0.0000E+00  0.0000E+00  0.0000E+00  0.0000E+00  0.0000E+00
      1.507  0.3111E-06  0.2845E-06  0.4939E-23  0.3445E-22  0.8382E-20  0.5621E-20  0.4939E-23  0.3445E-22  0.1788E-20  0.6594E-20  0.3122E-33  0.5345E-30  0.1775E-11  0.2177E-11  0.3122E-33  0.5345E-30  0.1788E-20  0.6594E-20
      1.704  0.1636E-02  0.1634E-02  0.3113E-10  0.2394E-10  0.2631E-06  0.2351E-06  0.3113E-10  0.2394E-10  0.5555E-12  0.3175E-12  0.1069E-21  0.7460E-21  0.1221E-07  0.1412E-07  0.1069E-21  0.7460E-21  0.5555E-12  0.3175E-12
      1.902  0.1024E-01  0.1008E-01  0.8269E-04  0.8111E-04  0.5002E-04  0.5033E-04  0.8269E-04  0.8111E-04  0.1476E-05  0.1076E-05  0.3849E-09  0.2107E-09  0.2032E-05  0.1551E-05  0.3849E-09  0.2107E-09  0.1476E-05  0.1076E-05
      2.099  0.2087E-01  0.2090E-01  0.2492E-03  0.2508E-03  0.2832E-03  0.2824E-03  0.2492E-03  0.2508E-03  0.4570E-05  0.3388E-05  0.9103E-05  0.6840E-05  0.5937E-06  0.5075E-06  0.9103E-05  0.6840E-05  0.4570E-05  0.3388E-05
      2.297  0.3594E-02  0.3546E-02  0.1959E-04  0.1903E-04  0.1645E-03  0.1599E-03  0.1959E-04  0.1903E-04  0.6539E-06  0.4051E-06  0.4787E-06  0.4247E-06  0.1065E-04  0.6940E-05  0.4787E-06  0.4247E-06  0.6539E-06  0.4051E-06
      2.495  0.2018E-01  0.1799E-01  0.5546E-03  0.5055E-03  0.5017E-03  0.4141E-03  0.5546E-03  0.5055E-03  0.2794E-04  0.1877E-04  0.2111E-04  0.1204E-04  0.3757E-04  0.2455E-04  0.2111E-04  0.1204E-04  0.2794E-04  0.1877E-04
      2.692  0.3567E-01  0.3765E-01  0.1121E-02  0.1165E-02  0.9851E-03  0.1090E-02  0.1121E-02  0.1165E-02  0.7299E-04  0.5280E-04  0.5322E-04  0.4193E-04  0.6977E-04  0.5249E-04  0.5322E-04  0.4193E-04  0.7299E-04  0.5280E-04
      2.890  0.1706E-01  0.1746E-01  0.8194E-03  0.8506E-03  0.2818E-03  0.2828E-03  0.8194E-03  0.8506E-03  0.7554E-04  0.5426E-04  0.4649E-04  0.3319E-04  0.2753E-04  0.2056E-04  0.4649E-04  0.3319E-04  0.7554E-04  0.5426E-04
      3.087  0.1982E-01  0.1982E-01  0.6280E-03  0.6397E-03  0.1479E-02  0.1489E-02  0.6280E-03  0.6397E-03  0.4129E-04  0.2921E-04  0.1340E-03  0.9635E-04  0.9356E-04  0.5926E-04  0.1340E-03  0.9635E-04  0.4129E-04  0.2921E-04
      3.285  0.4108E-01  0.3361E-01  0.1829E-02  0.1428E-02  0.3156E-02  0.2781E-02  0.1829E-02  0.1428E-02  0.2298E-03  0.1132E-03  0.2737E-03  0.1799E-03  0.4771E-03  0.2364E-03  0.2737E-03  0.1799E-03  0.2298E-03  0.1132E-03
      3.482  0.4040E-01  0.4482E-01  0.3315E-02  0.3515E-02  0.7810E-03  0.1217E-02  0.3315E-02  0.3515E-02  0.5573E-03  0.3923E-03  0.2094E-03  0.1395E-03  0.3655E-03  0.3158E-03  0.2094E-03  0.1395E-03  0.5573E-03  0.3923E-03
      3.680  0.1343E-01  0.8219E-02  0.7994E-03  0.5840E-03  0.1334E-02  0.5265E-03  0.7994E-03  0.5840E-03  0.1605E-03  0.6493E-04  0.1883E-03  0.6167E-04  0.2178E-03  0.6377E-04  0.1883E-03  0.6167E-04  0.1605E-03  0.6493E-04
      3.878  0.6346E-01  0.5162E-01  0.5223E-02  0.4252E-02  0.4402E-02  0.3655E-02  0.5223E-02  0.4252E-02  0.1273E-02  0.6397E-03  0.1362E-02  0.6400E-03  0.6005E-03  0.3615E-03  0.1362E-02  0.6400E-03  0.1273E-02  0.6397E-03
      4.075  0.1075E-01  0.3220E-01  0.4696E-03  0.2251E-02  0.1682E-02  0.3453E-02  0.4696E-03  0.2251E-02  0.8697E-04  0.3122E-03  0.2401E-03  0.5044E-03  0.4967E-03  0.3989E-03  0.2401E-03  0.5044E-03  0.8697E-04  0.3122E-03
      4.273  0.2919E-01  0.2307E-01  0.1891E-02  0.1261E-02  0.4162E-02  0.4024E-02  0.1891E-02  0.1261E-02  0.7090E-03  0.2619E-03  0.7887E-03  0.3750E-03  0.2119E-02  0.1155E-02  0.7887E-03  0.3750E-03  0.7090E-03  0.2619E-03
      4.470  0.5414E-01  0.1882E-01  0.6681E-02  0.2430E-02  0.3981E-02  0.9903E-03  0.6681E-02  0.2430E-02  0.2473E-02  0.5141E-03  0.2071E-02  0.2669E-03  0.1335E-02  0.4031E-03  0.2071E-02  0.2669E-03  0.2473E-02  0.5141E-03
      4.668  0.4870E-01  0.7581E-01  0.5647E-02  0.9133E-02  0.4802E-02  0.7377E-02  0.5647E-02  0.9133E-02  0.2899E-02  0.2262E-02  0.1790E-02  0.1815E-02  0.2964E-02  0.1853E-02  0.1790E-02  0.1815E-02  0.2899E-02  0.2262E-02
      4.866  0.6084E-01  0.4042E-01  0.7354E-02  0.4720E-02  0.6910E-02  0.5454E-02  0.7354E-02  0.4720E-02  0.5019E-02  0.1271E-02  0.5325E-02  0.1539E-02  0.3770E-02  0.1296E-02  0.5325E-02  0.1539E-02  0.5019E-02  0.1271E-02
      5.063  0.2751E-01  0.4189E-01  0.2893E-02  0.6037E-02  0.3502E-02  0.3967E-02  0.2893E-02  0.6037E-02  0.4006E-02  0.2314E-02  0.1756E-02  0.2174E-02  0.8161E-02  0.1331E-02  0.1756E-02  0.2174E-02  0.4006E-02  0.2314E-02
      5.261  0.5509E-01  0.2414E-01  0.6518E-02  0.3038E-02  0.1059E-01  0.3270E-02  0.6518E-02  0.3038E-02  0.6068E-02  0.1821E-02  0.1225E-01  0.4246E-03  0.3199E-02  0.3696E-02  0.1225E-01  0.4246E-03  0.6068E-02  0.1821E-02
      5.458  0.8603E-01  0.4904E-01  0.1252E-01  0.5956E-02  0.8948E-02  0.1060E-01  0.1252E-01  0.5956E-02  0.2881E-01  0.2598E-02  0.2249E-01  0.4945E-02  0.3279E-01  0.2444E-02  0.2249E-01  0.4945E-02  0.2881E-01  0.2598E-02
      5.656  0.1029E+00  0.4579E-01  0.1306E-01  0.6807E-02  0.9482E-02  0.8860E-02  0.1306E-01  0.6807E-02  0.5912E-01  0.3361E-02  0.6863E-01  0.4740E-02  0.5570E-01  0.3913E-02  0.6863E-01  0.4740E-02  0.5912E-01  0.3361E-02
      5.853  0.6594E-01  0.5728E-01  0.8584E-02  0.1104E-01  0.1057E-01  0.7264E-02  0.8584E-02  0.1104E-01  0.5352E-01  0.7582E-02  0.6658E-01  0.4162E-02  0.4619E-01  0.7738E-02  0.6658E-01  0.4162E-02  0.5352E-01  0.7582E-02
      6.051  0.8762E-01  0.5662E-01  0.1371E-01  0.1213E-01  0.1838E-01  0.4208E-02  0.1371E-01  0.1213E-01  0.1355E+00  0.1141E-01  0.1021E+00  0.6976E-02  0.1096E+00  0.1039E-01  0.1021E+00  0.6976E-02  0.1355E+00  0.1141E-01
      6.249  0.5685E-01  0.6234E-01  0.1489E-01  0.9593E-02  0.1643E-01  0.1400E-01  0.1489E-01  0.9593E-02  0.1128E+00  0.1467E-01  0.1211E+00  0.1611E-01  0.1022E+00  0.1143E-01  0.1211E+00  0.1611E-01  0.1128E+00  0.1467E-01
      6.446  0.4276E-01  0.6242E-01  0.1555E-01  0.8889E-02  0.1712E-01  0.1416E-01  0.1555E-01  0.8889E-02  0.1166E+00  0.1611E-01  0.1576E+00  0.2377E-01  0.1532E+00  0.2385E-01  0.1576E+00  0.2377E-01  0.1166E+00  0.1611E-01
      6.644  0.2568E-01  0.6292E-01  0.1681E-01  0.6502E-02  0.1896E-01  0.8602E-02  0.1681E-01  0.6502E-02  0.8905E-01  0.4036E-01  0.1418E+00  0.4478E-01  0.1054E+00  0.4132E-01  0.1418E+00  0.4478E-01  0.8905E-01  0.4036E-01
      6.841  0.2121E-01  0.1010E+00  0.2225E-01  0.2410E-01  0.1568E-01  0.1734E-01  0.2225E-01  0.2410E-01  0.1339E+00  0.5583E-01  0.1261E+00  0.5751E-01  0.1999E+00  0.3946E-01  0.1261E+00  0.5751E-01  0.1339E+00  0.5583E-01
      7.039  0.1064E-01  0.5978E-01  0.1942E-01  0.1226E-01  0.1521E-01  0.1340E-01  0.1942E-01  0.1226E-01  0.1653E+00  0.5089E-01  0.1069E+00  0.5823E-01  0.2007E+00  0.5948E-01  0.1069E+00  0.5823E-01  0.1653E+00  0.5089E-01
      7.237  0.1019E-01  0.3989E-01  0.2380E-01  0.1030E-01  0.1445E-01  0.1526E-01  0.2380E-01  0.1030E-01  0.2041E+00  0.8419E-01  0.1123E+00  0.5768E-01  0.1849E+00  0.3660E-01  0.1123E+00  0.5768E-01  0.2041E+00  0.8419E-01
      7.434  0.1408E-01  0.5029E-01  0.2789E-01  0.1813E-01  0.2362E-01  0.2129E-01  0.2789E-01  0.1813E-01  0.2349E+00  0.8546E-01  0.1296E+00  0.1076E+00  0.1967E+00  0.1146E+00  0.1296E+00  0.1076E+00  0.2349E+00  0.8546E-01
      7.632  0.5256E-02  0.2142E-01  0.1075E-01  0.1335E-01  0.8674E-02  0.1995E-01  0.1075E-01  0.1335E-01  0.1118E+00  0.7081E-01  0.4031E-01  0.1502E+00  0.9088E-01  0.6538E-01  0.4031E-01  0.1502E+00  0.1118E+00  0.7081E-01
      7.829  0.5410E-02  0.1550E-01  0.1392E-01  0.2075E-01  0.1923E-01  0.1622E-01  0.1392E-01  0.2075E-01  0.1308E+00  0.8003E-01  0.1946E+00  0.1084E+00  0.2261E+00  0.9170E-01  0.1946E+00  0.1084E+00  0.1308E+00  0.8003E-01
      8.027  0.1302E-01  0.8511E-02  0.2145E-01  0.2053E-01  0.2334E-01  0.1659E-01  0.2145E-01  0.2053E-01  0.1856E+00  0.1066E+00  0.3007E+00  0.7313E-01  0.3291E+00  0.1273E+00  0.3007E+00  0.7313E-01  0.1856E+00  0.1066E+00
      8.225  0.1183E-01  0.9689E-02  0.1483E-01  0.2544E-01  0.2176E-01  0.1454E-01  0.1483E-01  0.2544E-01  0.2329E+00  0.1215E+00  0.2224E+00  0.7796E-01  0.2102E+00  0.1746E+00  0.2224E+00  0.7796E-01  0.2329E+00  0.1215E+00
      8.422  0.1252E-01  0.9548E-02  0.1484E-01  0.3538E-01  0.2567E-01  0.2249E-01  0.1484E-01  0.3538E-01  0.2814E+00  0.1609E+00  0.3008E+00  0.9232E-01  0.1741E+00  0.1994E+00  0.3008E+00  0.9232E-01  0.2814E+00  0.1609E+00
      8.620  0.1286E-01  0.1132E-01  0.2008E-01  0.4172E-01  0.2766E-01  0.2548E-01  0.2008E-01  0.4172E-01  0.2710E+00  0.2199E+00  0.3007E+00  0.1040E+00  0.2479E+00  0.1951E+00  0.3007E+00  0.1040E+00  0.2710E+00  0.2199E+00
      8.817  0.6713E-02  0.4990E-02  0.1936E-01  0.1992E-01  0.1534E-01  0.1641E-01  0.1936E-01  0.1992E-01  0.2234E+00  0.1315E+00  0.2117E+00  0.4475E-01  0.1639E+00  0.1107E+00  0.2117E+00  0.4475E-01  0.2234E+00  0.1315E+00