    2    2  100    2
  0.1049160E+02  0.2467353E-09  0.2467353E-09  0.3979957E-09  0.5000000E-15
  1.000000000000000E-004
  CAR 
 Co-hcc                                  
     18     95     28
 
  0.0000000E+00  0.0000000E+00  0.0000000E+00  0.8680556E-03
      1          1.632345        1.633183   1.000000   1.000000
      2          5.445238        6.387689   1.000000   1.000000
      3          8.081984        9.708878   1.000000   1.000000
      4          8.087720        9.712149   1.000000   1.000000
      5          8.087720        9.712150   1.000000   1.000000
      6          8.420354       10.100116   1.000000   1.000000
      7          8.420354       10.100117   1.000000   1.000000
      8          8.784397       10.525756   1.000000   1.000000
      9          8.784398       10.525756   1.000000   1.000000
     10          9.951231       10.621756   1.000000   0.994963
     11          9.951231       11.811191   1.000000   0.000000
     12         10.678258       11.811192   0.835251   0.000000
     13         17.426302       18.440395   0.000000   0.000000
     14         32.968249       32.697101   0.000000   0.000000
     15         35.844445       36.043679   0.000000   0.000000
     16         35.844446       36.198851   0.000000   0.000000
     17         36.192065       36.198851   0.000000   0.000000
     18         36.622024       36.396746   0.000000   0.000000
     19         37.163643       37.463327   0.000000   0.000000
     20         37.163644       37.463331   0.000000   0.000000
     21         41.695757       41.639686   0.000000   0.000000
     22         41.695757       41.639688   0.000000   0.000000
     23         42.783173       42.820707   0.000000   0.000000
     24         43.139482       43.034220   0.000000   0.000000
     25         45.060565       45.259009   0.000000   0.000000
     26         45.060566       45.259010   0.000000   0.000000
     27         46.081392       46.635940   0.000000   0.000000
     28         46.849992       48.012429   0.000000   0.000000
 
  0.8333333E-01  0.0000000E+00  0.0000000E+00  0.5208333E-02
      1          1.881370        1.883186   1.000000   1.000000
      2          5.594382        6.556730   1.000000   1.000000
      3          7.843774        9.422684   1.000000   1.000000
      4          8.206126        9.841991   1.000000   1.000000
      5          8.284913        9.885836   1.000000   1.000000
      6          8.372810        9.937013   1.000000   1.000000
      7          8.524673       10.036332   1.000000   1.000000
      8          8.626064       10.214430   1.000000   1.000000
      9          8.709621       10.438848   1.000000   1.000000
     10          9.142085       10.470877   1.000000   1.000000
     11          9.983399       11.849216   1.000000   0.000000
     12         11.812165       12.752856   0.000000   0.000000
     13         17.466749       18.458239   0.000000   0.000000
     14         31.211397       31.291841   0.000000   0.000000
     15         33.589673       33.663364   0.000000   0.000000
     16         33.660803       33.992819   0.000000   0.000000
     17         36.635290       36.425750   0.000000   0.000000
     18         37.118330       37.070748   0.000000   0.000000
     19         38.515999       38.397698   0.000000   0.000000
     20         39.567244       39.865032   0.000000   0.000000
     21         40.337130       40.574038   0.000000   0.000000
     22         41.202198       41.220110   0.000000   0.000000
     23         42.354339       42.632857   0.000000   0.000000
     24         42.603655       42.898228   0.000000   0.000000
     25         45.021249       45.609302   0.000000   0.000000
     26         45.070165       45.632008   0.000000   0.000000
     27         45.996965       46.128887   0.000000   0.000000
     28         46.475329       46.348231   0.000000   0.000000
 
  0.1666667E+00 -0.1387779E-16  0.0000000E+00  0.5208333E-02
      1          2.600685        2.609953   1.000000   1.000000
      2          5.962034        6.989138   1.000000   1.000000
      3          7.555059        8.974897   1.000000   1.000000
      4          7.887240        9.053117   1.000000   1.000000
      5          8.194010        9.805899   1.000000   1.000000
      6          8.525430       10.211425   1.000000   1.000000
      7          8.541146       10.226208   1.000000   1.000000
      8          8.604737       10.284207   1.000000   1.000000
      9          8.750512       10.304705   1.000000   1.000000
     10          8.818356       10.537257   1.000000   1.000000
     11         10.052097       11.929497   1.000000   0.000000
     12         13.452692       14.295372   0.000000   0.000000
     13         17.608983       18.529695   0.000000   0.000000
     14         27.397885       27.730578   0.000000   0.000000
     15         31.212104       31.523034   0.000000   0.000000
     16         32.625132       32.714174   0.000000   0.000000
     17         34.550780       34.562322   0.000000   0.000000
     18         36.744844       36.528055   0.000000   0.000000
     19         37.709806       37.837439   0.000000   0.000000
     20         39.979972       40.302516   0.000000   0.000000
     21         40.404696       40.515959   0.000000   0.000000
     22         41.224482       41.492021   0.000000   0.000000
     23         41.721604       41.995157   0.000000   0.000000
     24         43.427480       43.982180   0.000000   0.000000
     25         43.677239       44.010440   0.000000   0.000000
     26         45.754695       45.906989   0.000000   0.000000
     27         46.998590       48.168613   0.000000   0.000000
     28         47.597602       50.152325   0.000000   0.000000
 
  0.2500000E+00  0.0000000E+00  0.0000000E+00  0.5208333E-02
      1          3.684312        3.731695   1.000000   1.000000
      2          6.250645        7.402524   1.000000   1.000000
      3          7.130062        8.249099   1.000000   1.000000
      4          7.382570        8.736321   1.000000   1.000000
      5          8.101101        9.652919   1.000000   1.000000
      6          8.304142        9.972530   1.000000   1.000000
      7          8.542813       10.082483   1.000000   1.000000
      8          9.026686       10.746049   1.000000   0.173026
      9          9.052412       10.752853   1.000000   0.128244
     10          9.240466       11.003264   1.000000   0.000000
     11         10.117197       12.004513   1.000000   0.000000
     12         15.296972       16.053097   0.000000   0.000000
     13         17.881526       18.677403   0.000000   0.000000
     14         23.654991       24.128917   0.000000   0.000000
     15         29.084190       29.357274   0.000000   0.000000
     16         31.172930       31.307802   0.000000   0.000000
     17         31.430062       31.649717   0.000000   0.000000
     18         35.545453       35.577783   0.000000   0.000000
     19         35.734920       36.012171   0.000000   0.000000
     20         39.747248       39.936242   0.000000   0.000000
     21         39.754289       40.134105   0.000000   0.000000
     22         40.535432       40.613787   0.000000   0.000000
     23         41.771413       41.960101   0.000000   0.000000
     24         44.672419       45.024179   0.000000   0.000000
     25         46.499616       46.888993   0.000000   0.000000
     26         47.010283       49.363698   0.000000   0.000000
     27         47.772272       50.804333   0.000000   0.000000
     28         49.740840       50.921721   0.000000   0.000000
 
  0.3333333E+00  0.2775558E-16  0.0000000E+00  0.5208333E-02
      1          4.852716        5.060784   1.000000   1.000000
      2          6.173062        7.416610   1.000000   1.000000
      3          6.576605        7.734320   1.000000   1.000000
      4          7.505444        8.636197   1.000000   1.000000
      5          8.105015        9.745407   1.000000   1.000000
      6          8.233432        9.760688   1.000000   1.000000
      7          8.360150        9.864634   1.000000   1.000000
      8          9.543814       11.339543   1.000000   0.000000
      9          9.698220       11.429370   1.000000   0.000000
     10          9.768260       11.511691   1.000000   0.000000
     11         10.161907       12.055355   1.000000   0.000000
     12         17.301191       17.961758   0.000000   0.000000
     13         17.905843       18.550482   0.000000   0.000000
     14         20.782555       21.390332   0.000000   0.000000
     15         27.392225       27.612086   0.000000   0.000000
     16         28.073798       28.343484   0.000000   0.000000
     17         29.194506       29.568302   0.000000   0.000000
     18         34.018384       34.445709   0.000000   0.000000
     19         34.590313       34.473879   0.000000   0.000000
     20         37.913472       38.268430   0.000000   0.000000
     21         39.309637       39.542124   0.000000   0.000000
     22         41.358753       41.525301   0.000000   0.000000
     23         43.577480       43.742072   0.000000   0.000000
     24         45.640965       46.072531   0.000000   0.000000
     25         47.243248       50.431679   0.000000   0.000000
     26         47.995154       50.646417   0.000000   0.000000
     27         50.069492       51.346609   0.000000   0.000000
     28         52.561490       52.815734   0.000000   0.000000
 
  0.4166667E+00  0.2775558E-16  0.0000000E+00  0.5208333E-02
      1          5.597072        6.211645   1.000000   1.000000
      2          5.980309        7.194748   1.000000   1.000000
      3          6.244255        7.429766   1.000000   1.000000
      4          7.894085        8.703447   1.000000   1.000000
      5          7.969087        9.590865   1.000000   1.000000
      6          8.231468        9.707377   1.000000   1.000000
      7          8.445887        9.995931   1.000000   1.000000
      8          9.930838       11.783194   1.000000   0.000000
      9         10.077231       11.940697   1.000000   0.000000
     10         10.185973       12.082420   1.000000   0.000000
     11         10.928694       12.418110   0.000000   0.000000
     12         15.978864       16.747536   0.000000   0.000000
     13         19.368047       19.910827   0.000000   0.000000
     14         20.695319       21.202522   0.000000   0.000000
     15         25.364368       25.780983   0.000000   0.000000
     16         26.277632       26.444333   0.000000   0.000000
     17         26.574865       27.056541   0.000000   0.000000
     18         33.496467       33.647879   0.000000   0.000000
     19         33.802384       33.949995   0.000000   0.000000
     20         36.716597       37.035213   0.000000   0.000000
     21         39.054719       39.317993   0.000000   0.000000
     22         41.877726       42.126825   0.000000   0.000000
     23         46.044776       46.210913   0.000000   0.000000
     24         46.114870       46.591611   0.000000   0.000000
     25         47.311370       50.785193   0.000000   0.000000
     26         48.169457       51.410812   0.000000   0.000000
     27         52.221402       52.519169   0.000000   0.000000
     28         53.503197       53.818802   0.000000   0.000000
 
  0.5000000E+00  0.0000000E+00  0.0000000E+00  0.2604167E-02
      1          5.817579        6.725555   1.000000   1.000000
      2          5.865601        7.005136   1.000000   1.000000
      3          6.133625        7.329186   1.000000   1.000000
      4          7.921061        8.812601   1.000000   1.000000
      5          8.153376        9.536356   1.000000   1.000000
      6          8.185162        9.650324   1.000000   1.000000
      7          8.526207       10.089202   1.000000   1.000000
      8         10.070772       11.942596   1.000000   0.000000
      9         10.193298       12.090593   1.000000   0.000000
     10         10.230619       12.118902   1.000000   0.000000
     11         12.122976       13.366358   0.000000   0.000000
     12         14.212809       15.190895   0.000000   0.000000
     13         20.716333       21.139483   0.000000   0.000000
     14         21.405137       21.791681   0.000000   0.000000
     15         23.804917       24.351875   0.000000   0.000000
     16         25.155533       25.718890   0.000000   0.000000
     17         25.884309       26.027416   0.000000   0.000000
     18         33.370561       33.367620   0.000000   0.000000
     19         33.527851       33.828492   0.000000   0.000000
     20         36.300153       36.603671   0.000000   0.000000
     21         38.972143       39.245770   0.000000   0.000000
     22         42.071336       42.353905   0.000000   0.000000
     23         46.246148       46.660696   0.000000   0.000000
     24         47.288775       48.556374   0.000000   0.000000
     25         48.144703       49.902205   0.000000   0.000000
     26         48.517534       50.731221   0.000000   0.000000
     27         49.477972       51.402479   0.000000   0.000000
     28         54.726868       55.196315   0.000000   0.000000
 
  0.8333333E-01  0.8333333E-01  0.0000000E+00  0.5208333E-02
      1          2.366482        2.372136   1.000000   1.000000
      2          5.859000        6.862259   1.000000   1.000000
      3          7.615826        9.142971   1.000000   1.000000
      4          8.143777        9.214644   1.000000   1.000000
      5          8.262627        9.890604   1.000000   1.000000
      6          8.448579       10.107671   1.000000   1.000000
      7          8.450049       10.121451   1.000000   1.000000
      8          8.497078       10.184969   1.000000   1.000000
      9          8.756799       10.458175   1.000000   1.000000
     10          8.874797       10.465418   1.000000   1.000000
     11         10.023594       11.895985   1.000000   0.000000
     12         12.993207       13.861196   0.000000   0.000000
     13         17.560164       18.505051   0.000000   0.000000
     14         29.129065       29.347383   0.000000   0.000000
     15         29.936871       30.279897   0.000000   0.000000
     16         35.174715       35.232738   0.000000   0.000000
     17         36.060194       35.957218   0.000000   0.000000
     18         36.223725       36.118314   0.000000   0.000000
     19         36.404681       36.454848   0.000000   0.000000
     20         39.666123       39.825877   0.000000   0.000000
     21         40.703658       41.141612   0.000000   0.000000
     22         41.293193       41.761838   0.000000   0.000000
     23         43.288576       43.409626   0.000000   0.000000
     24         43.761790       43.914036   0.000000   0.000000
     25         44.042020       44.337055   0.000000   0.000000
     26         44.483720       44.934312   0.000000   0.000000
     27         45.177492       45.272121   0.000000   0.000000
     28         47.220673       50.464034   0.000000   0.000000
 
  0.1666667E+00  0.8333333E-01  0.0000000E+00  0.1041667E-01
      1          3.277311        3.301611   1.000000   1.000000
      2          6.234050        7.324043   1.000000   1.000000
      3          7.330537        8.506244   1.000000   1.000000
      4          7.409320        8.766171   1.000000   1.000000
      5          8.139746        9.715063   1.000000   1.000000
      6          8.263279        9.901745   1.000000   1.000000
      7          8.713585       10.312314   1.000000   1.000000
      8          8.715707       10.411721   1.000000   1.000000
      9          8.890538       10.592264   1.000000   0.999672
     10          9.191394       10.926710   1.000000   0.000000
     11         10.073265       11.953382   1.000000   0.000000
     12         14.632205       15.423526   0.000000   0.000000
     13         17.790191       18.637922   0.000000   0.000000
     14         25.565009       25.959441   0.000000   0.000000
     15         27.822180       28.158093   0.000000   0.000000
     16         32.872058       32.904687   0.000000   0.000000
     17         33.924166       34.083128   0.000000   0.000000
     18         34.961707       34.980014   0.000000   0.000000
     19         36.646172       36.813805   0.000000   0.000000
     20         38.161988       38.620132   0.000000   0.000000
     21         39.834039       39.869930   0.000000   0.000000
     22         41.926277       42.399562   0.000000   0.000000
     23         43.355542       43.531181   0.000000   0.000000
     24         43.825753       44.038529   0.000000   0.000000
     25         45.653885       46.041475   0.000000   0.000000
     26         47.338576       47.497488   0.000000   0.000000
     27         47.424882       47.724983   0.000000   0.000000
     28         47.432830       50.663365   0.000000   0.000000
 
  0.2500000E+00  0.8333333E-01  0.0000000E+00  0.1041667E-01
      1          4.443259        4.548212   1.000000   1.000000
      2          6.349030        7.566183   1.000000   1.000000
      3          6.804071        7.947047   1.000000   1.000000
      4          7.261039        8.530248   1.000000   1.000000
      5          8.067388        9.666075   1.000000   1.000000
      6          8.156318        9.686423   1.000000   1.000000
      7          8.510695       10.078532   1.000000   1.000000
      8          9.134130       10.858567   1.000000   0.000019
      9          9.414679       11.178937   1.000000   0.000000
     10          9.782937       11.523427   1.000000   0.000000
     11         10.115198       12.001430   1.000000   0.000000
     12         16.516778       17.223983   0.000000   0.000000
     13         18.128872       18.829342   0.000000   0.000000
     14         22.082921       22.614272   0.000000   0.000000
     15         26.247907       26.571849   0.000000   0.000000
     16         29.692543       29.877624   0.000000   0.000000
     17         31.236852       31.552922   0.000000   0.000000
     18         33.681940       33.706647   0.000000   0.000000
     19         36.009561       36.338188   0.000000   0.000000
     20         36.460164       36.834122   0.000000   0.000000
     21         40.480880       40.502592   0.000000   0.000000
     22         43.245836       43.437955   0.000000   0.000000
     23         43.508649       43.711030   0.000000   0.000000
     24         44.498739       44.842507   0.000000   0.000000
     25         46.649375       47.828274   0.000000   0.000000
     26         47.701263       50.683734   0.000000   0.000000
     27         48.454490       50.994175   0.000000   0.000000
     28         50.646907       51.209310   0.000000   0.000000
 
  0.3333333E+00  0.8333333E-01  0.0000000E+00  0.1041667E-01
      1          5.448675        5.836772   1.000000   1.000000
      2          6.165125        7.408417   1.000000   1.000000
      3          6.391857        7.573123   1.000000   1.000000
      4          7.513333        8.528807   1.000000   1.000000
      5          7.940587        9.520894   1.000000   1.000000
      6          8.310625        9.833521   1.000000   1.000000
      7          8.358926        9.899236   1.000000   1.000000
      8          9.657285       11.432400   1.000000   0.000000
      9          9.862538       11.687131   1.000000   0.000000
     10         10.141294       12.030940   1.000000   0.000000
     11         10.620816       12.251440   0.995336   0.000000
     12         17.356070       18.010307   0.000000   0.000000
     13         18.559609       19.167125   0.000000   0.000000
     14         20.468194       21.044122   0.000000   0.000000
     15         25.021075       25.313349   0.000000   0.000000
     16         26.786300       27.119482   0.000000   0.000000
     17         28.255402       28.664368   0.000000   0.000000
     18         32.742493       32.746425   0.000000   0.000000
     19         35.310670       35.635727   0.000000   0.000000
     20         35.421239       35.806817   0.000000   0.000000
     21         40.555166       40.640880   0.000000   0.000000
     22         43.575063       43.794338   0.000000   0.000000
     23         45.166716       45.345789   0.000000   0.000000
     24         45.950890       46.403195   0.000000   0.000000
     25         47.219595       49.834934   0.000000   0.000000
     26         48.043087       51.153482   0.000000   0.000000
     27         50.041545       51.387741   0.000000   0.000000
     28         53.884179       53.976075   0.000000   0.000000
 
  0.4166667E+00  0.8333333E-01  0.0000000E+00  0.1041667E-01
      1          5.873370        6.699500   1.000000   1.000000
      2          6.006326        7.179128   1.000000   1.000000
      3          6.184959        7.387791   1.000000   1.000000
      4          7.889819        8.651542   1.000000   1.000000
      5          7.900771        9.481175   1.000000   1.000000
      6          8.178033        9.653234   1.000000   1.000000
      7          8.521687       10.087736   1.000000   1.000000
      8         10.030848       11.883990   1.000000   0.000000
      9         10.105036       11.965769   1.000000   0.000000
     10         10.152827       12.043810   1.000000   0.000000
     11         11.947250       13.247437   0.000000   0.000000
     12         14.994015       15.885417   0.000000   0.000000
     13         20.513193       20.991090   0.000000   0.000000
     14         21.312025       21.736296   0.000000   0.000000
     15         24.208863       24.510839   0.000000   0.000000
     16         24.406704       24.894907   0.000000   0.000000
     17         25.996953       26.452109   0.000000   0.000000
     18         32.251854       32.240515   0.000000   0.000000
     19         34.709088       35.025226   0.000000   0.000000
     20         35.115408       35.505993   0.000000   0.000000
     21         40.459045       40.580931   0.000000   0.000000
     22         43.797472       44.070916   0.000000   0.000000
     23         46.272006       46.712536   0.000000   0.000000
     24         47.300130       47.796490   0.000000   0.000000
     25         47.656761       50.751084   0.000000   0.000000
     26         48.143709       51.215569   0.000000   0.000000
     27         50.887965       51.378889   0.000000   0.000000
     28         52.832384       53.103635   0.000000   0.000000
 
  0.1666667E+00  0.1666667E+00  0.0000000E+00  0.5208333E-02
      1          4.298875        4.370665   1.000000   1.000000
      2          6.537762        7.703467   1.000000   1.000000
      3          6.923631        8.057476   1.000000   1.000000
      4          7.023436        8.384192   1.000000   1.000000
      5          7.994354        9.583981   1.000000   1.000000
      6          8.151286        9.688279   1.000000   1.000000
      7          8.607667       10.195006   1.000000   1.000000
      8          8.890303       10.611980   1.000000   0.997812
      9          9.402714       11.154368   1.000000   0.000000
     10          9.804664       11.537215   1.000000   0.000000
     11         10.075043       11.955052   1.000000   0.000000
     12         16.251484       16.978944   0.000000   0.000000
     13         18.178383       18.907342   0.000000   0.000000
     14         23.781922       24.210407   0.000000   0.000000
     15         24.302615       24.729988   0.000000   0.000000
     16         31.190963       31.197611   0.000000   0.000000
     17         32.138816       32.396290   0.000000   0.000000
     18         33.303748       33.617660   0.000000   0.000000
     19         34.102385       34.388705   0.000000   0.000000
     20         38.881344       39.149575   0.000000   0.000000
     21         40.859547       40.809792   0.000000   0.000000
     22         41.568148       42.042653   0.000000   0.000000
     23         45.003123       45.273033   0.000000   0.000000
     24         46.272027       46.433520   0.000000   0.000000
     25         46.623297       46.704952   0.000000   0.000000
     26         47.243692       48.017690   0.000000   0.000000
     27         47.409410       49.728699   0.000000   0.000000
     28         48.079056       51.139098   0.000000   0.000000
 
  0.2500000E+00  0.1666667E+00  0.0000000E+00  0.1041667E-01
      1          5.407098        5.637513   1.000000   1.000000
      2          6.515857        7.720785   1.000000   1.000000
      3          6.539109        7.760647   1.000000   1.000000
      4          7.002445        8.206462   1.000000   1.000000
      5          7.832954        9.381639   1.000000   1.000000
      6          8.303542        9.836066   1.000000   1.000000
      7          8.408289        9.958568   1.000000   1.000000
      8          9.210948       10.963257   1.000000   0.000000
      9          9.864639       11.678946   1.000000   0.000000
     10         10.072771       11.952320   1.000000   0.000000
     11         10.643840       12.294040   0.974329   0.000000
     12         18.154220       18.804336   0.000000   0.000000
     13         18.528870       19.121862   0.000000   0.000000
     14         20.946021       21.497278   0.000000   0.000000
     15         22.846844       23.262446   0.000000   0.000000
     16         28.556792       28.775043   0.000000   0.000000
     17         30.253157       30.632699   0.000000   0.000000
     18         30.687686       30.879964   0.000000   0.000000
     19         32.804920       33.144944   0.000000   0.000000
     20         39.041834       39.334445   0.000000   0.000000
     21         42.228789       42.155446   0.000000   0.000000
     22         43.843995       44.226420   0.000000   0.000000
     23         45.624460       45.866308   0.000000   0.000000
     24         46.247903       46.408605   0.000000   0.000000
     25         47.122745       48.893250   0.000000   0.000000
     26         47.686817       49.876993   0.000000   0.000000
     27         49.296912       51.112573   0.000000   0.000000
     28         49.811267       51.174930   0.000000   0.000000
 
  0.3333333E+00  0.1666667E+00  0.0000000E+00  0.1041667E-01
      1          6.083216        6.719042   1.000000   1.000000
      2          6.300167        7.519757   1.000000   1.000000
      3          6.307714        7.528844   1.000000   1.000000
      4          7.339275        8.295519   1.000000   1.000000
      5          7.789090        9.323562   1.000000   1.000000
      6          8.192160        9.694388   1.000000   1.000000
      7          8.514755       10.081179   1.000000   1.000000
      8          9.634260       11.426992   1.000000   0.000000
      9         10.069958       11.948828   1.000000   0.000000
     10         10.094695       11.950328   1.000000   0.000000
     11         11.867364       13.256690   0.000000   0.000000
     12         16.688902       17.406317   0.000000   0.000000
     13         20.214554       20.767136   0.000000   0.000000
     14         20.871447       21.359179   0.000000   0.000000
     15         22.070580       22.458035   0.000000   0.000000
     16         25.861230       26.247757   0.000000   0.000000
     17         27.342461       27.776014   0.000000   0.000000
     18         30.006504       30.163796   0.000000   0.000000
     19         32.040382       32.381154   0.000000   0.000000
     20         38.703715       39.020944   0.000000   0.000000
     21         43.045769       42.993716   0.000000   0.000000
     22         45.780288       46.060674   0.000000   0.000000
     23         46.966913       47.492697   0.000000   0.000000
     24         47.218594       47.496341   0.000000   0.000000
     25         47.344768       49.126275   0.000000   0.000000
     26         48.056846       51.024473   0.000000   0.000000
     27         49.348967       51.318966   0.000000   0.000000
     28         52.799806       52.867917   0.000000   0.000000
 
  0.4166667E+00  0.1666667E+00  0.0000000E+00  0.5208333E-02
      1          6.203986        7.149920   1.000000   1.000000
      2          6.219660        7.390941   1.000000   1.000000
      3          6.248051        7.453511   1.000000   1.000000
      4          7.571753        8.391423   1.000000   1.000000
      5          7.807050        9.360073   1.000000   1.000000
      6          8.079696        9.539865   1.000000   1.000000
      7          8.604842       10.190323   1.000000   1.000000
      8          9.920232       11.749702   1.000000   0.000000
      9         10.068545       11.933187   1.000000   0.000000
     10         10.073036       11.947050   1.000000   0.000000
     11         13.165811       14.214605   0.000000   0.000000
     12         14.805366       15.779657   0.000000   0.000000
     13         21.353481       21.756424   0.000000   0.000000
     14         21.679840       22.125529   0.000000   0.000000
     15         22.103876       22.482881   0.000000   0.000000
     16         24.179775       24.692555   0.000000   0.000000
     17         25.854271       26.334838   0.000000   0.000000
     18         29.784204       29.933682   0.000000   0.000000
     19         31.768030       32.104941   0.000000   0.000000
     20         38.568651       38.892012   0.000000   0.000000
     21         43.210820       43.180121   0.000000   0.000000
     22         46.421250       46.832765   0.000000   0.000000
     23         46.713248       47.101317   0.000000   0.000000
     24         47.441445       49.003085   0.000000   0.000000
     25         48.072849       50.782674   0.000000   0.000000
     26         48.979524       51.275801   0.000000   0.000000
     27         50.868264       51.296979   0.000000   0.000000
     28         52.000107       52.177251   0.000000   0.000000
 
  0.2500000E+00  0.2500000E+00  0.0000000E+00  0.5208333E-02
      1          6.230159        6.747062   1.000000   1.000000