PROCAR lm decomposed
# of k-points:   95         # of bands:   28         # of ions:    2

 k-point     1 :    0.00000000 0.00000000 0.00000000     weight = 0.00086806

band     1 # energy    1.63234495 # occ.  1.00000000
 
ion      s     py     pz     px    dxy    dyz    dz2    dxz  x2-y2    tot
    1  0.377  0.000  0.000  0.000  0.000  0.000  0.000  0.000  0.000  0.377
    2  0.377  0.000  0.000  0.000  0.000  0.000  0.000  0.000  0.000  0.377
tot    0.753  0.000  0.000  0.000  0.000  0.000  0.000  0.000  0.000  0.753
 
band     2 # energy    5.44523849 # occ.  1.00000000
 
ion      s     py     pz     px    dxy    dyz    dz2    dxz  x2-y2    tot
    1  0.082  0.000  0.000  0.000  0.000  0.000  0.370  0.000  0.000  0.452
    2  0.082  0.000  0.000  0.000  0.000  0.000  0.370  0.000  0.000  0.452
tot    0.165  0.000  0.000  0.000  0.000  0.000  0.740  0.000  0.000  0.905
 
band     3 # energy    8.08198378 # occ.  1.00000000
 
ion      s     py     pz     px    dxy    dyz    dz2    dxz  x2-y2    tot
    1  0.000  0.000  0.000  0.000  0.000  0.000  0.487  0.000  0.000  0.487
    2  0.000  0.000  0.000  0.000  0.000  0.000  0.487  0.000  0.000  0.487
tot    0.000  0.000  0.000  0.000  0.000  0.000  0.975  0.000  0.000  0.975
 
band     4 # energy    8.08772008 # occ.  1.00000000
 
ion      s     py     pz     px    dxy    dyz    dz2    dxz  x2-y2    tot
    1  0.000  0.000  0.000  0.001  0.483  0.000  0.000  0.000  0.000  0.484
    2  0.000  0.000  0.000  0.001  0.483  0.000  0.000  0.000  0.000  0.484
tot    0.000  0.000  0.000  0.001  0.967  0.000  0.000  0.000  0.000  0.968
 
band     5 # energy    8.08772026 # occ.  1.00000000
 
ion      s     py     pz     px    dxy    dyz    dz2    dxz  x2-y2    tot
    1  0.000  0.001  0.000  0.000  0.000  0.000  0.000  0.000  0.483  0.484
    2  0.000  0.001  0.000  0.000  0.000  0.000  0.000  0.000  0.483  0.484
tot    0.000  0.001  0.000  0.000  0.000  0.000  0.000  0.000  0.967  0.968
 
band     6 # energy    8.42035411 # occ.  1.00000000
 
ion      s     py     pz     px    dxy    dyz    dz2    dxz  x2-y2    tot
    1  0.000  0.000  0.000  0.001  0.488  0.000  0.000  0.000  0.000  0.488
    2  0.000  0.000  0.000  0.001  0.488  0.000  0.000  0.000  0.000  0.488
tot    0.000  0.000  0.000  0.002  0.975  0.000  0.000  0.000  0.000  0.977
 
band     7 # energy    8.42035424 # occ.  1.00000000
 
ion      s     py     pz     px    dxy    dyz    dz2    dxz  x2-y2    tot
    1  0.000  0.001  0.000  0.000  0.000  0.000  0.000  0.000  0.488  0.488
    2  0.000  0.001  0.000  0.000  0.000  0.000  0.000  0.000  0.488  0.488
tot    0.000  0.002  0.000  0.000  0.000  0.000  0.000  0.000  0.975  0.977
 
band     8 # energy    8.78439750 # occ.  1.00000000
 
ion      s     py     pz     px    dxy    dyz    dz2    dxz  x2-y2    tot
    1  0.000  0.000  0.000  0.000  0.000  0.000  0.000  0.490  0.000  0.490
    2  0.000  0.000  0.000  0.000  0.000  0.000  0.000  0.490  0.000  0.490
tot    0.000  0.000  0.000  0.000  0.000  0.000  0.000  0.981  0.000  0.981
 
band     9 # energy    8.78439754 # occ.  1.00000000
 
ion      s     py     pz     px    dxy    dyz    dz2    dxz  x2-y2    tot
    1  0.000  0.000  0.000  0.000  0.000  0.490  0.000  0.000  0.000  0.490
    2  0.000  0.000  0.000  0.000  0.000  0.490  0.000  0.000  0.000  0.490
tot    0.000  0.000  0.000  0.000  0.000  0.981  0.000  0.000  0.000  0.981
 
band    10 # energy    9.95123114 # occ.  1.00000000
 
ion      s     py     pz     px    dxy    dyz    dz2    dxz  x2-y2    tot
    1  0.000  0.000  0.000  0.000  0.000  0.000  0.000  0.493  0.000  0.493
    2  0.000  0.000  0.000  0.000  0.000  0.000  0.000  0.493  0.000  0.493
tot    0.000  0.000  0.000  0.000  0.000  0.000  0.000  0.985  0.000  0.985
 
band    11 # energy    9.95123122 # occ.  1.00000000
 
ion      s     py     pz     px    dxy    dyz    dz2    dxz  x2-y2    tot
    1  0.000  0.000  0.000  0.000  0.000  0.493  0.000  0.000  0.000  0.493
    2  0.000  0.000  0.000  0.000  0.000  0.493  0.000  0.000  0.000  0.493
tot    0.000  0.000  0.000  0.000  0.000  0.985  0.000  0.000  0.000  0.985
 
band    12 # energy   10.67825825 # occ.  0.83525103
 
ion      s     py     pz     px    dxy    dyz    dz2    dxz  x2-y2    tot
    1  0.000  0.000  0.360  0.000  0.000  0.000  0.000  0.000  0.000  0.360
    2  0.000  0.000  0.360  0.000  0.000  0.000  0.000  0.000  0.000  0.360
tot    0.000  0.000  0.720  0.000  0.000  0.000  0.000  0.000  0.000  0.720
 
band    13 # energy   17.42630189 # occ.  0.00000000
 
ion      s     py     pz     px    dxy    dyz    dz2    dxz  x2-y2    tot
    1  0.226  0.000  0.000  0.000  0.000  0.000  0.235  0.000  0.000  0.462
    2  0.226  0.000  0.000  0.000  0.000  0.000  0.235  0.000  0.000  0.462
tot    0.453  0.000  0.000  0.000  0.000  0.000  0.470  0.000  0.000  0.923
 
band    14 # energy   32.96824882 # occ.  0.00000000
 
ion      s     py     pz     px    dxy    dyz    dz2    dxz  x2-y2    tot
    1  0.007  0.000  0.000  0.000  0.000  0.000  0.033  0.000  0.000  0.040
    2  0.007  0.000  0.000  0.000  0.000  0.000  0.033  0.000  0.000  0.040
tot    0.014  0.000  0.000  0.000  0.000  0.000  0.066  0.000  0.000  0.080
 
band    15 # energy   35.84444539 # occ.  0.00000000
 
ion      s     py     pz     px    dxy    dyz    dz2    dxz  x2-y2    tot
    1  0.000  0.270  0.000  0.000  0.000  0.000  0.000  0.000  0.129  0.398
    2  0.000  0.270  0.000  0.000  0.000  0.000  0.000  0.000  0.129  0.398
tot    0.000  0.539  0.000  0.000  0.000  0.000  0.000  0.000  0.257  0.796
 
band    16 # energy   35.84444616 # occ.  0.00000000
 
ion      s     py     pz     px    dxy    dyz    dz2    dxz  x2-y2    tot
    1  0.000  0.000  0.000  0.270  0.129  0.000  0.000  0.000  0.000  0.398
    2  0.000  0.000  0.000  0.270  0.129  0.000  0.000  0.000  0.000  0.398
tot    0.000  0.000  0.000  0.539  0.257  0.000  0.000  0.000  0.000  0.796
 
band    17 # energy   36.19206533 # occ.  0.00000000
 
ion      s     py     pz     px    dxy    dyz    dz2    dxz  x2-y2    tot
    1  0.023  0.000  0.000  0.000  0.000  0.000  0.075  0.000  0.000  0.098
    2  0.023  0.000  0.000  0.000  0.000  0.000  0.075  0.000  0.000  0.098
tot    0.046  0.000  0.000  0.000  0.000  0.000  0.151  0.000  0.000  0.196
 
band    18 # energy   36.62202381 # occ.  0.00000000
 
ion      s     py     pz     px    dxy    dyz    dz2    dxz  x2-y2    tot
    1  0.000  0.000  0.026  0.000  0.000  0.000  0.000  0.000  0.000  0.026
    2  0.000  0.000  0.026  0.000  0.000  0.000  0.000  0.000  0.000  0.026
tot    0.000  0.000  0.052  0.000  0.000  0.000  0.000  0.000  0.000  0.052
 
band    19 # energy   37.16364325 # occ.  0.00000000
 
ion      s     py     pz     px    dxy    dyz    dz2    dxz  x2-y2    tot
    1  0.000  0.000  0.000  0.086  0.400  0.000  0.000  0.000  0.000  0.486
    2  0.000  0.000  0.000  0.086  0.400  0.000  0.000  0.000  0.000  0.486
tot    0.000  0.000  0.000  0.172  0.800  0.000  0.000  0.000  0.000  0.972
 
band    20 # energy   37.16364360 # occ.  0.00000000
 
ion      s     py     pz     px    dxy    dyz    dz2    dxz  x2-y2    tot
    1  0.000  0.086  0.000  0.000  0.000  0.000  0.000  0.000  0.400  0.486
    2  0.000  0.086  0.000  0.000  0.000  0.000  0.000  0.000  0.400  0.486
tot    0.000  0.172  0.000  0.000  0.000  0.000  0.000  0.000  0.800  0.972
 
band    21 # energy   41.69575704 # occ.  0.00000000
 
ion      s     py     pz     px    dxy    dyz    dz2    dxz  x2-y2    tot
    1  0.000  0.000  0.000  0.000  0.000  0.000  0.000  0.140  0.000  0.140
    2  0.000  0.000  0.000  0.000  0.000  0.000  0.000  0.140  0.000  0.140
tot    0.000  0.000  0.000  0.000  0.000  0.000  0.000  0.280  0.000  0.280
 
band    22 # energy   41.69575724 # occ.  0.00000000
 
ion      s     py     pz     px    dxy    dyz    dz2    dxz  x2-y2    tot
    1  0.000  0.000  0.000  0.000  0.000  0.140  0.000  0.000  0.000  0.140
    2  0.000  0.000  0.000  0.000  0.000  0.140  0.000  0.000  0.000  0.140
tot    0.000  0.000  0.000  0.000  0.000  0.280  0.000  0.000  0.000  0.280
 
band    23 # energy   42.78317274 # occ.  0.00000000
 
ion      s     py     pz     px    dxy    dyz    dz2    dxz  x2-y2    tot
    1  0.004  0.000  0.000  0.000  0.000  0.000  0.645  0.000  0.000  0.649
    2  0.004  0.000  0.000  0.000  0.000  0.000  0.645  0.000  0.000  0.649
tot    0.009  0.000  0.000  0.000  0.000  0.000  1.289  0.000  0.000  1.298
 
band    24 # energy   43.13948176 # occ.  0.00000000
 
ion      s     py     pz     px    dxy    dyz    dz2    dxz  x2-y2    tot
    1  0.000  0.000  0.049  0.000  0.000  0.000  0.000  0.000  0.000  0.049
    2  0.000  0.000  0.049  0.000  0.000  0.000  0.000  0.000  0.000  0.049
tot    0.000  0.000  0.098  0.000  0.000  0.000  0.000  0.000  0.000  0.098
 
band    25 # energy   45.06056536 # occ.  0.00000000
 
ion      s     py     pz     px    dxy    dyz    dz2    dxz  x2-y2    tot
    1  0.000  0.000  0.000  0.000  0.000  0.535  0.000  0.000  0.000  0.535
    2  0.000  0.000  0.000  0.000  0.000  0.535  0.000  0.000  0.000  0.535
tot    0.000  0.000  0.000  0.000  0.000  1.071  0.000  0.000  0.000  1.071
 
band    26 # energy   45.06056553 # occ.  0.00000000
 
ion      s     py     pz     px    dxy    dyz    dz2    dxz  x2-y2    tot
    1  0.000  0.000  0.000  0.000  0.000  0.000  0.000  0.535  0.000  0.535
    2  0.000  0.000  0.000  0.000  0.000  0.000  0.000  0.535  0.000  0.535
tot    0.000  0.000  0.000  0.000  0.000  0.000  0.000  1.071  0.000  1.071
 
band    27 # energy   46.08139229 # occ.  0.00000000
 
ion      s     py     pz     px    dxy    dyz    dz2    dxz  x2-y2    tot
    1  0.000  0.000  0.359  0.000  0.000  0.000  0.000  0.000  0.000  0.359
    2  0.000  0.000  0.359  0.000  0.000  0.000  0.000  0.000  0.000  0.359
tot    0.000  0.000  0.719  0.000  0.000  0.000  0.000  0.000  0.000  0.719
 
band    28 # energy   46.84999166 # occ.  0.00000000
 
ion      s     py     pz     px    dxy    dyz    dz2    dxz  x2-y2    tot
    1  2.798  0.000  0.000  0.000  0.000  0.000  0.029  0.000  0.000  2.827
    2  2.798  0.000  0.000  0.000  0.000  0.000  0.029  0.000  0.000  2.827
tot    5.596  0.000  0.000  0.000  0.000  0.000  0.058  0.000  0.000  5.654
 

 k-point     2 :    0.08333333 0.00000000 0.00000000     weight = 0.00520833

band     1 # energy    1.88136988 # occ.  1.00000000
 
ion      s     py     pz     px    dxy    dyz    dz2    dxz  x2-y2    tot
    1  0.368  0.002  0.000  0.007  0.000  0.000  0.000  0.000  0.000  0.377
    2  0.368  0.002  0.000  0.007  0.000  0.000  0.000  0.000  0.000  0.377
tot    0.736  0.004  0.000  0.013  0.000  0.000  0.000  0.000  0.000  0.754
 
band     2 # energy    5.59438165 # occ.  1.00000000
 
ion      s     py     pz     px    dxy    dyz    dz2    dxz  x2-y2    tot
    1  0.075  0.001  0.000  0.004  0.002  0.000  0.371  0.000  0.001  0.453
    2  0.075  0.001  0.000  0.004  0.002  0.000  0.371  0.000  0.001  0.453
tot    0.149  0.003  0.000  0.008  0.004  0.000  0.741  0.000  0.001  0.907
 
band     3 # energy    7.84377399 # occ.  1.00000000
 
ion      s     py     pz     px    dxy    dyz    dz2    dxz  x2-y2    tot
    1  0.000  0.000  0.000  0.001  0.239  0.000  0.162  0.000  0.080  0.482
    2  0.000  0.000  0.000  0.001  0.239  0.000  0.162  0.000  0.080  0.482
tot    0.000  0.001  0.000  0.002  0.479  0.000  0.323  0.000  0.160  0.964
 
band     4 # energy    8.20612578 # occ.  1.00000000
 
ion      s     py     pz     px    dxy    dyz    dz2    dxz  x2-y2    tot
    1  0.000  0.001  0.000  0.000  0.121  0.000  0.000  0.000  0.362  0.484
    2  0.000  0.001  0.000  0.000  0.121  0.000  0.000  0.000  0.362  0.484
tot    0.000  0.002  0.000  0.001  0.241  0.000  0.000  0.000  0.724  0.968
 
band     5 # energy    8.28491287 # occ.  1.00000000
 
ion      s     py     pz     px    dxy    dyz    dz2    dxz  x2-y2    tot
    1  0.000  0.000  0.000  0.000  0.151  0.000  0.285  0.000  0.050  0.487
    2  0.000  0.000  0.000  0.000  0.151  0.000  0.285  0.000  0.050  0.487
tot    0.000  0.000  0.000  0.001  0.303  0.000  0.570  0.000  0.101  0.974
 
band     6 # energy    8.37281003 # occ.  1.00000000
 
ion      s     py     pz     px    dxy    dyz    dz2    dxz  x2-y2    tot
    1  0.001  0.000  0.000  0.001  0.332  0.000  0.042  0.000  0.111  0.487
    2  0.001  0.000  0.000  0.001  0.332  0.000  0.042  0.000  0.111  0.487
tot    0.002  0.000  0.000  0.001  0.664  0.000  0.085  0.000  0.221  0.974
 
band     7 # energy    8.52467329 # occ.  1.00000000
 
ion      s     py     pz     px    dxy    dyz    dz2    dxz  x2-y2    tot
    1  0.000  0.001  0.000  0.000  0.122  0.000  0.000  0.000  0.366  0.489
    2  0.000  0.001  0.000  0.000  0.122  0.000  0.000  0.000  0.366  0.489
tot    0.000  0.002  0.000  0.001  0.244  0.000  0.000  0.000  0.731  0.977
 
band     8 # energy    8.62606430 # occ.  1.00000000
 
ion      s     py     pz     px    dxy    dyz    dz2    dxz  x2-y2    tot
    1  0.000  0.000  0.013  0.000  0.000  0.117  0.000  0.352  0.000  0.483
    2  0.000  0.000  0.013  0.000  0.000  0.117  0.000  0.352  0.000  0.483
tot    0.000  0.000  0.026  0.000  0.000  0.235  0.000  0.705  0.000  0.965
 
band     9 # energy    8.70962104 # occ.  1.00000000
 
ion      s     py     pz     px    dxy    dyz    dz2    dxz  x2-y2    tot
    1  0.000  0.000  0.000  0.000  0.000  0.367  0.000  0.122  0.000  0.490
    2  0.000  0.000  0.000  0.000  0.000  0.367  0.000  0.122  0.000  0.490
tot    0.000  0.000  0.000  0.000  0.000  0.734  0.000  0.245  0.000  0.979
 
band    10 # energy    9.14208522 # occ.  1.00000000
 
ion      s     py     pz     px    dxy    dyz    dz2    dxz  x2-y2    tot
    1  0.000  0.000  0.095  0.000  0.000  0.090  0.000  0.269  0.000  0.453
    2  0.000  0.000  0.095  0.000  0.000  0.090  0.000  0.269  0.000  0.453
tot    0.000  0.000  0.189  0.000  0.000  0.179  0.000  0.538  0.000  0.906
 
band    11 # energy    9.98339899 # occ.  1.00000000
 
ion      s     py     pz     px    dxy    dyz    dz2    dxz  x2-y2    tot
    1  0.000  0.000  0.000  0.000  0.000  0.370  0.000  0.123  0.000  0.493
    2  0.000  0.000  0.000  0.000  0.000  0.370  0.000  0.123  0.000  0.493
tot    0.000  0.000  0.000  0.000  0.000  0.740  0.000  0.247  0.000  0.986
 
band    12 # energy   11.81216489 # occ.  0.00000000
 
ion      s     py     pz     px    dxy    dyz    dz2    dxz  x2-y2    tot
    1  0.000  0.000  0.249  0.000  0.000  0.040  0.000  0.119  0.000  0.408
    2  0.000  0.000  0.249  0.000  0.000  0.040  0.000  0.119  0.000  0.408
tot    0.000  0.000  0.498  0.000  0.000  0.079  0.000  0.238  0.000  0.815
 
band    13 # energy   17.46674857 # occ.  0.00000000
 
ion      s     py     pz     px    dxy    dyz    dz2    dxz  x2-y2    tot
    1  0.222  0.002  0.000  0.006  0.000  0.000  0.229  0.000  0.000  0.459
    2  0.222  0.002  0.000  0.006  0.000  0.000  0.229  0.000  0.000  0.459
tot    0.445  0.004  0.000  0.011  0.000  0.000  0.458  0.000  0.000  0.918
 
band    14 # energy   31.21139715 # occ.  0.00000000
 
ion      s     py     pz     px    dxy    dyz    dz2    dxz  x2-y2    tot
    1  0.014  0.022  0.000  0.066  0.114  0.000  0.025  0.000  0.038  0.278
    2  0.014  0.022  0.000  0.066  0.114  0.000  0.025  0.000  0.038  0.278
tot    0.027  0.044  0.000  0.132  0.228  0.000  0.050  0.000  0.076  0.557
 
band    15 # energy   33.58967300 # occ.  0.00000000
 
ion      s     py     pz     px    dxy    dyz    dz2    dxz  x2-y2    tot
    1  0.022  0.023  0.000  0.068  0.067  0.000  0.041  0.000  0.022  0.244
    2  0.022  0.023  0.000  0.068  0.067  0.000  0.041  0.000  0.022  0.244
tot    0.045  0.046  0.000  0.137  0.134  0.000  0.082  0.000  0.045  0.488
 
band    16 # energy   33.66080341 # occ.  0.00000000
 
ion      s     py     pz     px    dxy    dyz    dz2    dxz  x2-y2    tot
    1  0.000  0.175  0.000  0.058  0.044  0.000  0.000  0.000  0.133  0.411
    2  0.000  0.175  0.000  0.058  0.044  0.000  0.000  0.000  0.133  0.411
tot    0.000  0.350  0.000  0.117  0.089  0.000  0.000  0.000  0.267  0.822
 
band    17 # energy   36.63529027 # occ.  0.00000000
 
ion      s     py     pz     px    dxy    dyz    dz2    dxz  x2-y2    tot
    1  0.000  0.000  0.010  0.000  0.000  0.012  0.000  0.037  0.000  0.060
    2  0.000  0.000  0.010  0.000  0.000  0.012  0.000  0.037  0.000  0.060
tot    0.000  0.000  0.020  0.000  0.000  0.025  0.000  0.075  0.000  0.119
 
band    18 # energy   37.11833005 # occ.  0.00000000
 
ion      s     py     pz     px    dxy    dyz    dz2    dxz  x2-y2    tot
    1  0.003  0.016  0.000  0.049  0.040  0.000  0.034  0.000  0.013  0.157
    2  0.003  0.016  0.000  0.049  0.040  0.000  0.034  0.000  0.013  0.157
tot    0.006  0.033  0.000  0.099  0.080  0.000  0.069  0.000  0.027  0.314
 
band    19 # energy   38.51599854 # occ.  0.00000000
 
ion      s     py     pz     px    dxy    dyz    dz2    dxz  x2-y2    tot
    1  0.000  0.000  0.030  0.000  0.000  0.029  0.000  0.087  0.000  0.146
    2  0.000  0.000  0.030  0.000  0.000  0.029  0.000  0.087  0.000  0.146
tot    0.000  0.000  0.059  0.000  0.000  0.058  0.000  0.175  0.000  0.292
 
band    20 # energy   39.56724380 # occ.  0.00000000
 
ion      s     py     pz     px    dxy    dyz    dz2    dxz  x2-y2    tot
    1  0.000  0.080  0.000  0.027  0.092  0.000  0.000  0.000  0.276  0.475
    2  0.000  0.080  0.000  0.027  0.092  0.000  0.000  0.000  0.276  0.475
tot    0.000  0.161  0.000  0.054  0.184  0.000  0.000  0.000  0.552  0.951
 
band    21 # energy   40.33713022 # occ.  0.00000000
 
ion      s     py     pz     px    dxy    dyz    dz2    dxz  x2-y2    tot
    1  0.007  0.036  0.000  0.109  0.144  0.000  0.005  0.000  0.048  0.350
    2  0.007  0.036  0.000  0.109  0.144  0.000  0.005  0.000  0.048  0.350
tot    0.013  0.073  0.000  0.219  0.287  0.000  0.011  0.000  0.096  0.699
 
band    22 # energy   41.20219793 # occ.  0.00000000
 
ion      s     py     pz     px    dxy    dyz    dz2    dxz  x2-y2    tot
    1  0.000  0.000  0.000  0.000  0.000  0.191  0.000  0.064  0.000  0.255
    2  0.000  0.000  0.000  0.000  0.000  0.191  0.000  0.064  0.000  0.255
tot    0.000  0.000  0.000  0.000  0.000  0.382  0.000  0.127  0.000  0.509
 
band    23 # energy   42.35433873 # occ.  0.00000000
 
ion      s     py     pz     px    dxy    dyz    dz2    dxz  x2-y2    tot
    1  0.002  0.008  0.000  0.023  0.048  0.000  0.517  0.000  0.016  0.613
    2  0.002  0.008  0.000  0.023  0.048  0.000  0.517  0.000  0.016  0.613
tot    0.003  0.015  0.000  0.046  0.096  0.000  1.034  0.000  0.032  1.227
 
band    24 # energy   42.60365539 # occ.  0.00000000
 
ion      s     py     pz     px    dxy    dyz    dz2    dxz  x2-y2    tot
    1  0.000  0.000  0.190  0.000  0.000  0.046  0.000  0.139  0.000  0.376
    2  0.000  0.000  0.190  0.000  0.000  0.046  0.000  0.139  0.000  0.376
tot    0.000  0.000  0.380  0.000  0.000  0.093  0.000  0.279  0.000  0.752
 
band    25 # energy   45.02124861 # occ.  0.00000000
 
ion      s     py     pz     px    dxy    dyz    dz2    dxz  x2-y2    tot
    1  0.296  0.028  0.000  0.084  0.218  0.000  0.105  0.000  0.073  0.803
    2  0.296  0.028  0.000  0.084  0.218  0.000  0.105  0.000  0.073  0.803
tot    0.592  0.056  0.000  0.168  0.435  0.000  0.210  0.000  0.145  1.606
 
band    26 # energy   45.07016491 # occ.  0.00000000
 
ion      s     py     pz     px    dxy    dyz    dz2    dxz  x2-y2    tot
    1  0.000  0.189  0.000  0.063  0.072  0.000  0.000  0.000  0.217  0.541
    2  0.000  0.189  0.000  0.063  0.072  0.000  0.000  0.000  0.217  0.541
tot    0.000  0.378  0.000  0.126  0.145  0.000  0.000  0.000  0.434  1.083
 
band    27 # energy   45.99696524 # occ.  0.00000000
 
ion      s     py     pz     px    dxy    dyz    dz2    dxz  x2-y2    tot
    1  0.000  0.000  0.000  0.000  0.000  0.315  0.000  0.105  0.000  0.420
    2  0.000  0.000  0.000  0.000  0.000  0.315  0.000  0.105  0.000  0.420
tot    0.000  0.000  0.000  0.000  0.000  0.629  0.000  0.210  0.000  0.839
 
band    28 # energy   46.47532872 # occ.  0.00000000
 
ion      s     py     pz     px    dxy    dyz    dz2    dxz  x2-y2    tot
    1  0.000  0.000  0.060  0.000  0.000  0.015  0.000  0.044  0.000  0.118
    2  0.000  0.000  0.060  0.000  0.000  0.015  0.000  0.044  0.000  0.118
tot    0.000  0.000  0.119  0.000  0.000  0.029  0.000  0.088  0.000  0.237
 

 k-point     3 :    0.16666667-0.00000000 0.00000000     weight = 0.00520833

band     1 # energy    2.60068453 # occ.  1.00000000
 
ion      s     py     pz     px    dxy    dyz    dz2    dxz  x2-y2    tot
    1  0.341  0.008  0.000  0.025  0.002  0.000  0.001  0.000  0.001  0.378
    2  0.341  0.008  0.000  0.025  0.002  0.000  0.001  0.000  0.001  0.378
tot    0.683  0.016  0.000  0.049  0.004  0.000  0.002  0.000  0.001  0.756
 
band     2 # energy    5.96203380 # occ.  1.00000000
 
ion      s     py     pz     px    dxy    dyz    dz2    dxz  x2-y2    tot
    1  0.053  0.004  0.000  0.013  0.020  0.000  0.360  0.000  0.007  0.456
    2  0.053  0.004  0.000  0.013  0.020  0.000  0.360  0.000  0.007  0.456
tot    0.106  0.008  0.000  0.025  0.039  0.000  0.721  0.000  0.013  0.913
 
band     3 # energy    7.55505856 # occ.  1.00000000
 
ion      s     py     pz     px    dxy    dyz    dz2    dxz  x2-y2    tot
    1  0.000  0.002  0.000  0.005  0.266  0.000  0.115  0.000  0.089  0.476
    2  0.000  0.002  0.000  0.005  0.266  0.000  0.115  0.000  0.089  0.476
tot    0.001  0.003  0.000  0.009  0.531  0.000  0.230  0.000  0.177  0.952
 
band     4 # energy    7.88723992 # occ.  1.00000000
 
ion      s     py     pz     px    dxy    dyz    dz2    dxz  x2-y2    tot
    1  0.000  0.000  0.065  0.000  0.000  0.097  0.000  0.292  0.000  0.453
    2  0.000  0.000  0.065  0.000  0.000  0.097  0.000  0.292  0.000  0.453
tot    0.000  0.000  0.129  0.000  0.000  0.194  0.000  0.583  0.000  0.907
 
band     5 # energy    8.19400988 # occ.  1.00000000
 
ion      s     py     pz     px    dxy    dyz    dz2    dxz  x2-y2    tot
    1  0.005  0.001  0.000  0.002  0.315  0.000  0.057  0.000  0.105  0.484
    2  0.005  0.001  0.000  0.002  0.315  0.000  0.057  0.000  0.105  0.484
tot    0.009  0.001  0.000  0.003  0.631  0.000  0.113  0.000  0.210  0.968
 
band     6 # energy    8.52543002 # occ.  1.00000000
 
ion      s     py     pz     px    dxy    dyz    dz2    dxz  x2-y2    tot
    1  0.000  0.000  0.000  0.000  0.000  0.366  0.000  0.122  0.000  0.488
    2  0.000  0.000  0.000  0.000  0.000  0.366  0.000  0.122  0.000  0.488
tot    0.000  0.000  0.000  0.000  0.000  0.732  0.000  0.244  0.000  0.975
 
band     7 # energy    8.54114574 # occ.  1.00000000
 
ion      s     py     pz     px    dxy    dyz    dz2    dxz  x2-y2    tot
    1  0.000  0.002  0.000  0.001  0.121  0.000  0.000  0.000  0.362  0.485
    2  0.000  0.002  0.000  0.001  0.121  0.000  0.000  0.000  0.362  0.485
tot    0.000  0.003  0.000  0.001  0.241  0.000  0.000  0.000  0.724  0.969
 
band     8 # energy    8.60473696 # occ.  1.00000000
 
ion      s     py     pz     px    dxy    dyz    dz2    dxz  x2-y2    tot
    1  0.002  0.000  0.000  0.001  0.113  0.000  0.334  0.000  0.038  0.487
    2  0.002  0.000  0.000  0.001  0.113  0.000  0.334  0.000  0.038  0.487
tot    0.003  0.001  0.000  0.002  0.225  0.000  0.668  0.000  0.075  0.974
 
band     9 # energy    8.75051203 # occ.  1.00000000
 
ion      s     py     pz     px    dxy    dyz    dz2    dxz  x2-y2    tot
    1  0.000  0.000  0.038  0.000  0.000  0.109  0.000  0.328  0.000  0.475
    2  0.000  0.000  0.038  0.000  0.000  0.109  0.000  0.328  0.000  0.475
tot    0.000  0.000  0.076  0.000  0.000  0.219  0.000  0.656  0.000  0.951
 
band    10 # energy    8.81835563 # occ.  1.00000000
 
ion      s     py     pz     px    dxy    dyz    dz2    dxz  x2-y2    tot
    1  0.000  0.002  0.000  0.001  0.122  0.000  0.000  0.000  0.365  0.489
    2  0.000  0.002  0.000  0.001  0.122  0.000  0.000  0.000  0.365  0.489
tot    0.000  0.003  0.000  0.001  0.243  0.000  0.000  0.000  0.730  0.978
 
band    11 # energy   10.05209710 # occ.  1.00000000
 
ion      s     py     pz     px    dxy    dyz    dz2    dxz  x2-y2    tot
    1  0.000  0.000  0.000  0.000  0.000  0.371  0.000  0.124  0.000  0.495
    2  0.000  0.000  0.000  0.000  0.000  0.371  0.000  0.124  0.000  0.495
tot    0.000  0.000  0.000  0.000  0.000  0.742  0.000  0.247  0.000  0.989
 
band    12 # energy   13.45269245 # occ.  0.00000000
 
ion      s     py     pz     px    dxy    dyz    dz2    dxz  x2-y2    tot
    1  0.000  0.000  0.244  0.000  0.000  0.043  0.000  0.129  0.000  0.416
    2  0.000  0.000  0.244  0.000  0.000  0.043  0.000  0.129  0.000  0.416
tot    0.000  0.000  0.488  0.000  0.000  0.086  0.000  0.258  0.000  0.831
 
band    13 # energy   17.60898277 # occ.  0.00000000
 
ion      s     py     pz     px    dxy    dyz    dz2    dxz  x2-y2    tot
    1  0.208  0.008  0.000  0.025  0.001  0.000  0.211  0.000  0.000  0.452
    2  0.208  0.008  0.000  0.025  0.001  0.000  0.211  0.000  0.000  0.452
tot    0.415  0.016  0.000  0.049  0.001  0.000  0.422  0.000  0.000  0.904
 
band    14 # energy   27.39788487 # occ.  0.00000000
 
ion      s     py     pz     px    dxy    dyz    dz2    dxz  x2-y2    tot
    1  0.043  0.037  0.000  0.111  0.125  0.000  0.023  0.000  0.042  0.380
    2  0.043  0.037  0.000  0.111  0.125  0.000  0.023  0.000  0.042  0.380
tot    0.085  0.074  0.000  0.221  0.249  0.000  0.047  0.000  0.083  0.759
 
band    15 # energy   31.21210374 # occ.  0.00000000
 
ion      s     py     pz     px    dxy    dyz    dz2    dxz  x2-y2    tot
    1  0.000  0.192  0.000  0.064  0.034  0.000  0.000  0.000  0.103  0.393
    2  0.000  0.192  0.000  0.064  0.034  0.000  0.000  0.000  0.103  0.393
tot    0.000  0.384  0.000  0.128  0.068  0.000  0.000  0.000  0.205  0.785
 
band    16 # energy   32.62513163 # occ.  0.00000000
 
ion      s     py     pz     px    dxy    dyz    dz2    dxz  x2-y2    tot
    1  0.023  0.006  0.000  0.017  0.148  0.000  0.049  0.000  0.049  0.292
    2  0.023  0.006  0.000  0.017  0.148  0.000  0.049  0.000  0.049  0.292
tot    0.045  0.012  0.000  0.035  0.296  0.000  0.099  0.000  0.099  0.585
 
band    17 # energy   34.55077974 # occ.  0.00000000
 
ion      s     py     pz     px    dxy    dyz    dz2    dxz  x2-y2    tot
    1  0.000  0.000  0.039  0.000  0.000  0.056  0.000  0.167  0.000  0.262
    2  0.000  0.000  0.039  0.000  0.000  0.056  0.000  0.167  0.000  0.262
tot    0.000  0.000  0.079  0.000  0.000  0.111  0.000  0.334  0.000  0.524
 
band    18 # energy   36.74484425 # occ.  0.00000000
 
ion      s     py     pz     px    dxy    dyz    dz2    dxz  x2-y2    tot
    1  0.000  0.000  0.009  0.000  0.000  0.014  0.000  0.041  0.000  0.064
    2  0.000  0.000  0.009  0.000  0.000  0.014  0.000  0.041  0.000  0.064
tot    0.000  0.000  0.018  0.000  0.000  0.027  0.000  0.082  0.000  0.128
 
band    19 # energy   37.70980645 # occ.  0.00000000
 
ion      s     py     pz     px    dxy    dyz    dz2    dxz  x2-y2    tot
    1  0.028  0.035  0.000  0.106  0.052  0.000  0.028  0.000  0.017  0.265
    2  0.028  0.035  0.000  0.106  0.052  0.000  0.028  0.000  0.017  0.265
tot    0.055  0.070  0.000  0.211  0.103  0.000  0.057  0.000  0.034  0.531
 
band    20 # energy   39.97997216 # occ.  0.00000000
 
ion      s     py     pz     px    dxy    dyz    dz2    dxz  x2-y2    tot
    1  0.048  0.043  0.000  0.128  0.000  0.000  0.134  0.000  0.000  0.352
    2  0.048  0.043  0.000  0.128  0.000  0.000  0.134  0.000  0.000  0.352
tot    0.096  0.085  0.000  0.256  0.000  0.000  0.267  0.000  0.000  0.704
 
band    21 # energy   40.40469642 # occ.  0.00000000
 
ion      s     py     pz     px    dxy    dyz    dz2    dxz  x2-y2    tot
    1  0.000  0.000  0.000  0.000  0.000  0.290  0.000  0.097  0.000  0.386
    2  0.000  0.000  0.000  0.000  0.000  0.290  0.000  0.097  0.000  0.386
tot    0.000  0.000  0.000  0.000  0.000  0.580  0.000  0.193  0.000  0.773
 
band    22 # energy   41.22448222 # occ.  0.00000000
 
ion      s     py     pz     px    dxy    dyz    dz2    dxz  x2-y2    tot
    1  0.000  0.000  0.234  0.000  0.000  0.010  0.000  0.029  0.000  0.272
    2  0.000  0.000  0.234  0.000  0.000  0.010  0.000  0.029  0.000  0.272
tot    0.000  0.000  0.468  0.000  0.000  0.019  0.000  0.057  0.000  0.544
 
band    23 # energy   41.72160445 # occ.  0.00000000
 
ion      s     py     pz     px    dxy    dyz    dz2    dxz  x2-y2    tot
    1  0.000  0.043  0.000  0.014  0.117  0.000  0.000  0.000  0.350  0.524
    2  0.000  0.043  0.000  0.014  0.117  0.000  0.000  0.000  0.350  0.524
tot    0.000  0.086  0.000  0.029  0.233  0.000  0.000  0.000  0.700  1.048
 
band    24 # energy   43.42748004 # occ.  0.00000000
 
ion      s     py     pz     px    dxy    dyz    dz2    dxz  x2-y2    tot
    1  0.000  0.240  0.000  0.080  0.023  0.000  0.000  0.000  0.069  0.412
    2  0.000  0.240  0.000  0.080  0.023  0.000  0.000  0.000  0.069  0.412
tot    0.000  0.480  0.000  0.160  0.046  0.000  0.000  0.000  0.137  0.823
 
band    25 # energy   43.67723867 # occ.  0.00000000
 
ion      s     py     pz     px    dxy    dyz    dz2    dxz  x2-y2    tot
    1  0.121  0.007  0.000  0.022  0.060  0.000  0.363  0.000  0.020  0.593
    2  0.121  0.007  0.000  0.022  0.060  0.000  0.363  0.000  0.020  0.593
tot    0.241  0.015  0.000  0.045  0.120  0.000  0.726  0.000  0.040  1.187
 
band    26 # energy   45.75469519 # occ.  0.00000000
 
ion      s     py     pz     px    dxy    dyz    dz2    dxz  x2-y2    tot
    1  0.163  0.002  0.000  0.007  0.204  0.000  0.054  0.000  0.068  0.499
    2  0.163  0.002  0.000  0.007  0.204  0.000  0.054  0.000  0.068  0.499
tot    0.327  0.004  0.000  0.013  0.408  0.000  0.109  0.000  0.136  0.997
 
band    27 # energy   46.99859029 # occ.  0.00000000
 
ion      s     py     pz     px    dxy    dyz    dz2    dxz  x2-y2    tot
    1  2.802  0.001  0.000  0.003  0.018  0.000  0.012  0.000  0.006  2.842