<?xml version="1.0" encoding="ISO-8859-1"?>
<modeling>
 <generator>
  <i name="program" type="string">vasp </i>
  <i name="version" type="string">6.3.2  </i>
  <i name="subversion" type="string">27Jun22 (build Aug 12 2022 00:53:59) complex                          parallel </i>
  <i name="platform" type="string">tv2STD </i>
  <i name="date" type="string">2024 12 03 </i>
  <i name="time" type="string">02:37:23 </i>
 </generator>
 <incar>
  <i type="string" name="SYSTEM">Co-hcc</i>
  <i type="int" name="ISTART">     0</i>
  <i type="string" name="PREC">Accurate      normal | accurate</i>
  <i type="string" name="ALGO">Normal     Normal, Fast, Very_Fast</i>
  <i type="logical" name="ADDGRID"> F  </i>
  <i type="int" name="ISPIN">     2</i>
  <i type="int" name="ICHARG">     2</i>
  <i type="int" name="INIWAV">     1</i>
  <i type="int" name="NELM">   100</i>
  <i type="int" name="IBRION">     2</i>
  <i name="EDIFF">      0.00000100</i>
  <i name="EDIFFG">     -0.02000000</i>
  <i type="int" name="NSW">   100</i>
  <i type="int" name="ISIF">     2</i>
  <i type="int" name="ISYM">     1</i>
  <i name="ENCUT">    425.00000000</i>
  <v name="MAGMOM">      3.00000000      3.00000000</v>
  <i type="logical" name="LREAL"> F  </i>
  <i type="int" name="ISMEAR">     0</i>
  <i name="SIGMA">      0.05000000</i>
  <i type="int" name="NWRITE">     2</i>
  <i type="logical" name="LWAVE"> F  </i>
  <i type="logical" name="LCHARG"> F  </i>
  <i type="int" name="LORBIT">    11</i>
 </incar>
 <primitive_cell>
  <structure name="primitive_cell" >
   <crystal>
    <varray name="basis" >
     <v>       1.23367643      -2.13679025       0.00000000 </v>
     <v>       1.23367643       2.13679025       0.00000000 </v>
     <v>       0.00000000       0.00000000       3.97995684 </v>
    </varray>
    <i name="volume">     20.98319026 </i>
    <varray name="rec_basis" >
     <v>       0.40529266      -0.23399583       0.00000000 </v>
     <v>       0.40529266       0.23399583       0.00000000 </v>
     <v>       0.00000000       0.00000000       0.25125901 </v>
    </varray>
   </crystal>
   <varray name="positions" >
    <v>       0.33333333       0.66666667       0.25000000 </v>
    <v>       0.66666667       0.33333333       0.75000000 </v>
   </varray>
  </structure>
  <varray name="primitive_index" >
   <v type="int" >        1 </v>
   <v type="int" >        2 </v>
  </varray>
 </primitive_cell>
 <kpoints>
  <generation param="Gamma">
   <v type="int" name="divisions">      12       12        8 </v>
   <v name="usershift">      0.00000000       0.00000000       0.00000000 </v>
   <v name="genvec1">      0.08333333       0.00000000       0.00000000 </v>
   <v name="genvec2">      0.00000000       0.08333333       0.00000000 </v>
   <v name="genvec3">      0.00000000       0.00000000       0.12500000 </v>
   <v name="shift">      0.00000000       0.00000000       0.00000000 </v>
  </generation>
  <varray name="kpointlist" >
   <v>       0.00000000       0.00000000       0.00000000 </v>
   <v>       0.08333333       0.00000000       0.00000000 </v>
   <v>       0.16666667      -0.00000000       0.00000000 </v>
   <v>       0.25000000       0.00000000       0.00000000 </v>
   <v>       0.33333333       0.00000000       0.00000000 </v>
   <v>       0.41666667       0.00000000       0.00000000 </v>
   <v>       0.50000000       0.00000000       0.00000000 </v>
   <v>       0.08333333       0.08333333       0.00000000 </v>
   <v>       0.16666667       0.08333333       0.00000000 </v>
   <v>       0.25000000       0.08333333       0.00000000 </v>
   <v>       0.33333333       0.08333333       0.00000000 </v>
   <v>       0.41666667       0.08333333       0.00000000 </v>
   <v>       0.16666667       0.16666667       0.00000000 </v>
   <v>       0.25000000       0.16666667       0.00000000 </v>
   <v>       0.33333333       0.16666667       0.00000000 </v>
   <v>       0.41666667       0.16666667       0.00000000 </v>
   <v>       0.25000000       0.25000000       0.00000000 </v>
   <v>       0.33333333       0.25000000       0.00000000 </v>
   <v>       0.33333333       0.33333333       0.00000000 </v>
   <v>       0.00000000       0.00000000       0.12500000 </v>
   <v>       0.08333333       0.00000000       0.12500000 </v>
   <v>       0.16666667      -0.00000000       0.12500000 </v>
   <v>       0.25000000       0.00000000       0.12500000 </v>
   <v>       0.33333333       0.00000000       0.12500000 </v>
   <v>       0.41666667       0.00000000       0.12500000 </v>
   <v>       0.50000000       0.00000000       0.12500000 </v>
   <v>       0.08333333       0.08333333       0.12500000 </v>
   <v>       0.16666667       0.08333333       0.12500000 </v>
   <v>       0.25000000       0.08333333       0.12500000 </v>
   <v>       0.33333333       0.08333333       0.12500000 </v>
   <v>       0.41666667       0.08333333       0.12500000 </v>
   <v>       0.16666667       0.16666667       0.12500000 </v>
   <v>       0.25000000       0.16666667       0.12500000 </v>
   <v>       0.33333333       0.16666667       0.12500000 </v>
   <v>       0.41666667       0.16666667       0.12500000 </v>
   <v>       0.25000000       0.25000000       0.12500000 </v>
   <v>       0.33333333       0.25000000       0.12500000 </v>
   <v>       0.33333333       0.33333333       0.12500000 </v>
   <v>       0.00000000       0.00000000       0.25000000 </v>
   <v>       0.08333333       0.00000000       0.25000000 </v>
   <v>       0.16666667      -0.00000000       0.25000000 </v>
   <v>       0.25000000       0.00000000       0.25000000 </v>
   <v>       0.33333333       0.00000000       0.25000000 </v>
   <v>       0.41666667       0.00000000       0.25000000 </v>
   <v>       0.50000000       0.00000000       0.25000000 </v>
   <v>       0.08333333       0.08333333       0.25000000 </v>
   <v>       0.16666667       0.08333333       0.25000000 </v>
   <v>       0.25000000       0.08333333       0.25000000 </v>
   <v>       0.33333333       0.08333333       0.25000000 </v>
   <v>       0.41666667       0.08333333       0.25000000 </v>
   <v>       0.16666667       0.16666667       0.25000000 </v>
   <v>       0.25000000       0.16666667       0.25000000 </v>
   <v>       0.33333333       0.16666667       0.25000000 </v>
   <v>       0.41666667       0.16666667       0.25000000 </v>
   <v>       0.25000000       0.25000000       0.25000000 </v>
   <v>       0.33333333       0.25000000       0.25000000 </v>
   <v>       0.33333333       0.33333333       0.25000000 </v>
   <v>       0.00000000       0.00000000       0.37500000 </v>
   <v>       0.08333333       0.00000000       0.37500000 </v>
   <v>       0.16666667      -0.00000000       0.37500000 </v>
   <v>       0.25000000       0.00000000       0.37500000 </v>
   <v>       0.33333333       0.00000000       0.37500000 </v>
   <v>       0.41666667       0.00000000       0.37500000 </v>
   <v>       0.50000000       0.00000000       0.37500000 </v>
   <v>       0.08333333       0.08333333       0.37500000 </v>
   <v>       0.16666667       0.08333333       0.37500000 </v>
   <v>       0.25000000       0.08333333       0.37500000 </v>
   <v>       0.33333333       0.08333333       0.37500000 </v>
   <v>       0.41666667       0.08333333       0.37500000 </v>
   <v>       0.16666667       0.16666667       0.37500000 </v>
   <v>       0.25000000       0.16666667       0.37500000 </v>
   <v>       0.33333333       0.16666667       0.37500000 </v>
   <v>       0.41666667       0.16666667       0.37500000 </v>
   <v>       0.25000000       0.25000000       0.37500000 </v>
   <v>       0.33333333       0.25000000       0.37500000 </v>
   <v>       0.33333333       0.33333333       0.37500000 </v>
   <v>       0.00000000       0.00000000       0.50000000 </v>
   <v>       0.08333333       0.00000000       0.50000000 </v>
   <v>       0.16666667      -0.00000000       0.50000000 </v>
   <v>       0.25000000       0.00000000       0.50000000 </v>
   <v>       0.33333333       0.00000000       0.50000000 </v>
   <v>       0.41666667       0.00000000       0.50000000 </v>
   <v>       0.50000000       0.00000000       0.50000000 </v>
   <v>       0.08333333       0.08333333       0.50000000 </v>
   <v>       0.16666667       0.08333333       0.50000000 </v>
   <v>       0.25000000       0.08333333       0.50000000 </v>
   <v>       0.33333333       0.08333333       0.50000000 </v>
   <v>       0.41666667       0.08333333       0.50000000 </v>
   <v>       0.16666667       0.16666667       0.50000000 </v>
   <v>       0.25000000       0.16666667       0.50000000 </v>
   <v>       0.33333333       0.16666667       0.50000000 </v>
   <v>       0.41666667       0.16666667       0.50000000 </v>
   <v>       0.25000000       0.25000000       0.50000000 </v>
   <v>       0.33333333       0.25000000       0.50000000 </v>
   <v>       0.33333333       0.33333333       0.50000000 </v>
  </varray>
  <varray name="weights" >
   <v>       0.00086806 </v>
   <v>       0.00520833 </v>
   <v>       0.00520833 </v>
   <v>       0.00520833 </v>
   <v>       0.00520833 </v>
   <v>       0.00520833 </v>
   <v>       0.00260417 </v>
   <v>       0.00520833 </v>
   <v>       0.01041667 </v>
   <v>       0.01041667 </v>
   <v>       0.01041667 </v>
   <v>       0.01041667 </v>
   <v>       0.00520833 </v>
   <v>       0.01041667 </v>
   <v>       0.01041667 </v>
   <v>       0.00520833 </v>
   <v>       0.00520833 </v>
   <v>       0.01041667 </v>
   <v>       0.00173611 </v>
   <v>       0.00173611 </v>
   <v>       0.01041667 </v>
   <v>       0.01041667 </v>
   <v>       0.01041667 </v>
   <v>       0.01041667 </v>
   <v>       0.01041667 </v>
   <v>       0.00520833 </v>
   <v>       0.01041667 </v>
   <v>       0.02083333 </v>
   <v>       0.02083333 </v>
   <v>       0.02083333 </v>
   <v>       0.02083333 </v>
   <v>       0.01041667 </v>
   <v>       0.02083333 </v>
   <v>       0.02083333 </v>
   <v>       0.01041667 </v>
   <v>       0.01041667 </v>
   <v>       0.02083333 </v>
   <v>       0.00347222 </v>
   <v>       0.00173611 </v>
   <v>       0.01041667 </v>
   <v>       0.01041667 </v>
   <v>       0.01041667 </v>
   <v>       0.01041667 </v>
   <v>       0.01041667 </v>
   <v>       0.00520833 </v>
   <v>       0.01041667 </v>
   <v>       0.02083333 </v>
   <v>       0.02083333 </v>
   <v>       0.02083333 </v>
   <v>       0.02083333 </v>
   <v>       0.01041667 </v>
   <v>       0.02083333 </v>
   <v>       0.02083333 </v>
   <v>       0.01041667 </v>
   <v>       0.01041667 </v>
   <v>       0.02083333 </v>
   <v>       0.00347222 </v>
   <v>       0.00173611 </v>
   <v>       0.01041667 </v>
   <v>       0.01041667 </v>
   <v>       0.01041667 </v>
   <v>       0.01041667 </v>
   <v>       0.01041667 </v>
   <v>       0.00520833 </v>
   <v>       0.01041667 </v>
   <v>       0.02083333 </v>
   <v>       0.02083333 </v>
   <v>       0.02083333 </v>
   <v>       0.02083333 </v>
   <v>       0.01041667 </v>
   <v>       0.02083333 </v>
   <v>       0.02083333 </v>
   <v>       0.01041667 </v>
   <v>       0.01041667 </v>
   <v>       0.02083333 </v>
   <v>       0.00347222 </v>
   <v>       0.00086806 </v>
   <v>       0.00520833 </v>
   <v>       0.00520833 </v>
   <v>       0.00520833 </v>
   <v>       0.00520833 </v>
   <v>       0.00520833 </v>
   <v>       0.00260417 </v>
   <v>       0.00520833 </v>
   <v>       0.01041667 </v>
   <v>       0.01041667 </v>
   <v>       0.01041667 </v>
   <v>       0.01041667 </v>
   <v>       0.00520833 </v>
   <v>       0.01041667 </v>
   <v>       0.01041667 </v>
   <v>       0.00520833 </v>
   <v>       0.00520833 </v>
   <v>       0.01041667 </v>
   <v>       0.00173611 </v>
  </varray>
 </kpoints>
 <parameters>
  <separator name="general" >
   <i type="string" name="SYSTEM">Co-hcc</i>
   <i type="logical" name="LCOMPAT"> F  </i>
  </separator>
  <separator name="electronic" >
   <i type="string" name="PREC">accura</i>
   <i name="ENMAX">    425.00000000</i>
   <i name="ENAUG">    477.81800000</i>
   <i name="EDIFF">      0.00000100</i>
   <i type="int" name="IALGO">    38</i>
   <i type="int" name="IWAVPR">    11</i>
   <i type="int" name="NBANDS">    28</i>
   <i type="int" name="NBANDSLOW">    -1</i>
   <i type="int" name="NBANDSHIGH">    -1</i>
   <i name="NELECT">     18.00000000</i>
   <i type="int" name="TURBO">     0</i>
   <i type="int" name="IRESTART">     0</i>
   <i type="int" name="NREBOOT">     0</i>
   <i type="int" name="NMIN">     0</i>
   <i name="EREF">      0.00000000</i>
   <separator name="electronic smearing" >
    <i type="int" name="ISMEAR">     0</i>
    <i name="SIGMA">      0.05000000</i>
    <i name="KSPACING">      0.50000000</i>
    <i type="logical" name="KGAMMA"> T  </i>
    <i type="logical" name="KBLOWUP"> T  </i>
   </separator>
   <separator name="electronic projectors" >
    <i type="logical" name="LREAL"> F  </i>
    <v name="ROPT">      0.00000000</v>
    <i type="int" name="LMAXPAW">  -100</i>
    <i type="int" name="LMAXMIX">     2</i>
    <i type="logical" name="NLSPLINE"> F  </i>
   </separator>
   <separator name="electronic startup" >
    <i type="int" name="ISTART">     0</i>
    <i type="int" name="ICHARG">     2</i>
    <i type="int" name="INIWAV">     1</i>
   </separator>
   <separator name="electronic spin" >
    <i type="int" name="ISPIN">     2</i>
    <i type="logical" name="LNONCOLLINEAR"> F  </i>
    <v name="MAGMOM">      3.00000000      3.00000000</v>
    <i name="NUPDOWN">     -1.00000000</i>
    <i type="logical" name="LSORBIT"> F  </i>
    <v name="SAXIS">      0.00000000      0.00000000      1.00000000</v>
    <i type="logical" name="LSPIRAL"> F  </i>
    <v name="QSPIRAL">      0.00000000      0.00000000      0.00000000</v>
    <i type="logical" name="LZEROZ"> F  </i>
   </separator>
   <separator name="electronic exchange-correlation" >
    <i type="logical" name="LASPH"> F  </i>
    <i type="logical" name="LMETAGGA"> F  </i>
   </separator>
   <separator name="electronic convergence" >
    <i type="int" name="NELM">   100</i>
    <i type="int" name="NELMDL">    -5</i>
    <i type="int" name="NELMIN">     2</i>
    <i name="ENINI">    425.00000000</i>
    <separator name="electronic convergence detail" >
     <i type="logical" name="LDIAG"> T  </i>
     <i type="logical" name="LSUBROT"> F  </i>
     <i name="WEIMIN">      0.00100000</i>
     <i name="EBREAK">      0.00000001</i>
     <i name="DEPER">      0.30000000</i>
     <i type="int" name="NRMM">     4</i>
     <i name="TIME">      0.40000000</i>
    </separator>
   </separator>
   <separator name="electronic mixer" >
    <i name="AMIX">      0.40000000</i>
    <i name="BMIX">      1.00000000</i>
    <i name="AMIN">      0.10000000</i>
    <i name="AMIX_MAG">      1.60000000</i>
    <i name="BMIX_MAG">      1.00000000</i>
    <separator name="electronic mixer details" >
     <i type="int" name="IMIX">     4</i>
     <i type="logical" name="MIXFIRST"> F  </i>
     <i type="int" name="MAXMIX">   -45</i>
     <i name="WC">    100.00000000</i>
     <i type="int" name="INIMIX">     1</i>
     <i type="int" name="MIXPRE">     1</i>
     <i type="int" name="MREMOVE">     5</i>
    </separator>
   </separator>
   <separator name="electronic dipolcorrection" >
    <i type="logical" name="LDIPOL"> F  </i>
    <i type="logical" name="LMONO"> F  </i>
    <i type="int" name="IDIPOL">     0</i>
    <i name="EPSILON">      1.00000000</i>
    <v name="DIPOL">   -100.00000000   -100.00000000   -100.00000000</v>
    <i name="EFIELD">      0.00000000</i>
   </separator>
  </separator>
  <separator name="grids" >
   <i type="int" name="NGX">    18</i>
   <i type="int" name="NGY">    18</i>
   <i type="int" name="NGZ">    28</i>
   <i type="int" name="NGXF">    36</i>
   <i type="int" name="NGYF">    36</i>
   <i type="int" name="NGZF">    56</i>
   <i type="logical" name="ADDGRID"> F  </i>
  </separator>
  <separator name="ionic" >
   <i type="int" name="NSW">   100</i>
   <i type="int" name="IBRION">     2</i>
   <i type="int" name="MDALGO">     0</i>
   <i type="int" name="ISIF">     2</i>
   <i name="PSTRESS">      0.00000000</i>
   <i name="EDIFFG">     -0.02000000</i>
   <i type="int" name="NFREE">     1</i>
   <i name="POTIM">      0.50000000</i>
   <i name="SMASS">     -3.00000000</i>
   <i name="SCALEE">      1.00000000</i>
  </separator>
  <separator name="ionic md" >
   <i name="TEBEG">      0.00010000</i>
   <i name="TEEND">      0.00010000</i>
   <i type="int" name="NBLOCK">     1</i>
   <i type="int" name="KBLOCK">   100</i>
   <i type="int" name="NPACO">   256</i>
   <i name="APACO">     10.00000000</i>
  </separator>
  <separator name="symmetry" >
   <i type="int" name="ISYM">     1</i>
   <i name="SYMPREC">      0.00001000</i>
  </separator>
  <separator name="dos" >
   <i type="int" name="LORBIT">    11</i>
   <v name="RWIGS">     -1.00000000</v>
   <i type="int" name="NEDOS">   301</i>
   <i name="EMIN">     10.00000000</i>
   <i name="EMAX">    -10.00000000</i>
   <i name="EFERMI">      0.00000000</i>
  </separator>
  <separator name="writing" >
   <i type="int" name="NWRITE">     2</i>
   <i type="logical" name="LWAVE"> F  </i>
   <i type="logical" name="LDOWNSAMPLE"> F  </i>
   <i type="logical" name="LCHARG"> F  </i>
   <i type="logical" name="LPARD"> F  </i>
   <i type="logical" name="LVTOT"> F  </i>
   <i type="logical" name="LVHAR"> F  </i>
   <i type="logical" name="LELF"> F  </i>
   <i type="logical" name="LOPTICS"> F  </i>
   <v name="STM">      0.00000000      0.00000000      0.00000000      0.00000000      0.00000000      0.00000000      0.00000000</v>
  </separator>
  <separator name="performance" >
   <i type="int" name="NPAR">    28</i>
   <i type="int" name="NSIM">     4</i>
   <i type="int" name="NBLK">    -1</i>
   <i type="logical" name="LPLANE"> T  </i>
   <i type="logical" name="LSCALAPACK"> T  </i>
   <i type="logical" name="LSCAAWARE"> T  </i>
   <i type="logical" name="LSCALU"> F  </i>
   <i type="logical" name="LASYNC"> F  </i>
   <i type="logical" name="LORBITALREAL"> F  </i>
  </separator>
  <separator name="miscellaneous" >
   <i type="int" name="IDIOT">     3</i>
   <i type="int" name="PHON_NSTRUCT">    -1</i>
   <i type="logical" name="LMUSIC"> F  </i>
   <v name="POMASS">     58.93300000</v>
   <v name="DARWINR">      0.00000000</v>
   <v name="DARWINV">      1.00000000</v>
   <i type="logical" name="LCORR"> T  </i>
  </separator>
  <i type="logical" name="GGA_COMPAT"> T  </i>
  <i type="logical" name="LBERRY"> F  </i>
  <i type="int" name="ICORELEVEL">     0</i>
  <i type="logical" name="LDAU"> F  </i>
  <i type="int" name="I_CONSTRAINED_M">     0</i>
  <separator name="electronic exchange-correlation" >
   <i type="string" name="GGA">--</i>
   <i type="int" name="VOSKOWN">     0</i>
   <i type="logical" name="LHFCALC"> F  </i>
   <i type="string" name="PRECFOCK"></i>
   <i type="logical" name="LSYMGRAD"> F  </i>
   <i type="logical" name="LHFONE"> F  </i>
   <i type="logical" name="LRHFCALC"> F  </i>
   <i type="logical" name="LTHOMAS"> F  </i>
   <i type="logical" name="LMODELHF"> F  </i>
   <i type="logical" name="LFOCKACE"> F  </i>
   <i name="ENCUT4O">     -1.00000000</i>
   <i type="int" name="EXXOEP">     0</i>
   <i type="int" name="FOURORBIT">     0</i>
   <i name="AEXX">      0.00000000</i>
   <i name="HFALPHA">      0.00000000</i>
   <i name="MCALPHA">      0.00000000</i>
   <i name="ALDAX">      1.00000000</i>
   <i name="AGGAX">      1.00000000</i>
   <i name="ALDAC">      1.00000000</i>
   <i name="AGGAC">      1.00000000</i>
   <i type="int" name="NKREDX">     1</i>
   <i type="int" name="NKREDY">     1</i>
   <i type="int" name="NKREDZ">     1</i>
   <i type="logical" name="SHIFTRED"> F  </i>
   <i type="logical" name="ODDONLY"> F  </i>
   <i type="logical" name="EVENONLY"> F  </i>
   <i type="int" name="LMAXFOCK">     0</i>
   <i type="int" name="NMAXFOCKAE">     0</i>
   <i type="logical" name="LFOCKAEDFT"> F  </i>
   <i name="HFSCREEN">      0.00000000</i>
   <i name="HFSCREENC">      0.00000000</i>
   <i type="int" name="NBANDSGWLOW">     0</i>
  </separator>
  <separator name="vdW DFT" >
   <i type="logical" name="LUSE_VDW"> F  </i>
   <i name="Zab_VDW">     -0.84910000</i>
   <i name="PARAM1">      0.12340000</i>
   <i name="PARAM2">      1.00000000</i>
   <i name="PARAM3">      0.00000000</i>
  </separator>
  <separator name="model GW" >
   <i type="int" name="MODEL_GW">     0</i>
   <i name="MODEL_EPS0">      6.29495708</i>
   <i name="MODEL_ALPHA">      1.00000000</i>
  </separator>
  <separator name="linear response parameters" >
   <i type="logical" name="LEPSILON"> F  </i>
   <i type="logical" name="LRPA"> F  </i>
   <i type="logical" name="LNABLA"> F  </i>
   <i type="logical" name="LVEL"> F  </i>
   <i name="CSHIFT">      0.10000000</i>
   <i name="OMEGAMAX">     -1.00000000</i>
   <i name="DEG_THRESHOLD">      0.00200000</i>
   <i name="RTIME">     -0.10000000</i>
   <i name="WPLASMAI">      0.00000000</i>
   <v name="DFIELD">      0.00000000      0.00000000      0.00000000</v>
   <v name="WPLASMA">      0.00000000      0.00000000      0.00000000      0.00000000      0.00000000      0.00000000      0.00000000      0.00000000      0.00000000</v>
  </separator>
  <separator name="orbital magnetization" >
   <i type="logical" name="NUCIND"> F  </i>
   <v name="MAGPOS">      0.00000000      0.00000000      0.00000000</v>
   <i type="logical" name="LNICSALL"> T  </i>
   <i type="logical" name="ORBITALMAG"> F  </i>
   <i type="logical" name="LMAGBLOCH"> F  </i>
   <i type="logical" name="LCHIMAG"> F  </i>
   <i type="logical" name="LGAUGE"> T  </i>
   <i type="int" name="MAGATOM">     0</i>
   <v name="MAGDIPOL">      0.00000000      0.00000000      0.00000000</v>
   <v name="AVECCONST">      0.00000000      0.00000000      0.00000000</v>
  </separator>
  <separator name="response functions" >
   <i type="logical" name="LFINITE_TEMPERATURE"> F  </i>
   <i type="logical" name="LADDER"> F  </i>
   <i type="logical" name="LRPAFORCE"> F  </i>
   <i type="logical" name="LFXC"> F  </i>
   <i type="logical" name="LHARTREE"> T  </i>
   <i type="int" name="IBSE">     0</i>
   <v type="int" name="KPOINT">    -1     0     0     0</v>
   <i type="logical" name="LTCTC"> F  </i>
   <i type="logical" name="LTCTE"> F  </i>
   <i type="logical" name="LTETE"> F  </i>
   <i type="logical" name="LTRIPLET"> F  </i>
   <i type="logical" name="LFXCEPS"> F  </i>
   <i type="logical" name="LFXHEG"> F  </i>
   <i type="int" name="NATURALO">     2</i>
   <i type="logical" name="LHOLEGF"> F  </i>
   <i type="logical" name="L2ORDER"> F  </i>
   <i type="logical" name="LDMP1"> F  </i>
   <i type="logical" name="LMP2LT"> F  </i>
   <i type="logical" name="LSMP2LT"> F  </i>
   <i type="logical" name="LGWLF"> F  </i>
   <i name="ENCUTGW">     -2.00000000</i>
   <i name="ENCUTGWSOFT">     -2.00000000</i>
   <i name="ENCUTLF">     -1.00000000</i>
   <i type="logical" name="LESF_SPLINES"> F  </i>
   <i type="int" name="LMAXMP2">    -1</i>
   <i name="SCISSOR">      0.00000000</i>
   <i type="int" name="NOMEGA">     0</i>
   <i type="int" name="NOMEGAR">     0</i>
   <i type="int" name="NBANDSGW">    -1</i>
   <i type="int" name="NBANDSO">    -1</i>
   <i type="int" name="NBANDSV">    -1</i>
   <i type="int" name="NELMGW">     1</i>
   <i type="int" name="NELMHF">     1</i>
   <i type="int" name="DIM">     3</i>
   <i type="int" name="IESPILON">     4</i>
   <i type="int" name="ANTIRES">     0</i>
   <i name="OMEGAMAX">    -30.00000000</i>
   <i name="OMEGAMIN">    -30.00000000</i>
   <i name="OMEGATL">   -200.00000000</i>
   <i type="int" name="OMEGAGRID">     0</i>
   <i name="CSHIFT">     -0.10000000</i>
   <i type="logical" name="LSELFENERGY"> F  </i>
   <i type="logical" name="LSPECTRAL"> F  </i>
   <i type="logical" name="LSPECTRALGW"> F  </i>
   <i type="logical" name="LSINGLES"> F  </i>
   <i type="logical" name="LFERMIGW"> F  </i>
   <i type="logical" name="ODDONLYGW"> F  </i>
   <i type="logical" name="EVENONLYGW"> F  </i>
   <i type="int" name="NKREDLFX">     1</i>
   <i type="int" name="NKREDLFY">     1</i>
   <i type="int" name="NKREDLFZ">     1</i>
   <i type="int" name="MAXMEM">  2800</i>
   <i type="int" name="TELESCOPE">     0</i>
   <i type="int" name="NTAUPAR">    -1</i>
   <i type="int" name="NOMEGAPAR">    -1</i>
   <i name="DAMP_NEWTON">      0.80000001</i>
   <i name="LAMBDA">      1.00000000</i>
  </separator>
  <separator name="External order field" >
   <i name="OFIELD_KAPPA">      0.00000000</i>
   <v name="OFIELD_K">      0.00000000      0.00000000      0.00000000</v>
   <i name="OFIELD_Q6_NEAR">      0.00000000</i>
   <i name="OFIELD_Q6_FAR">      0.00000000</i>
   <i name="OFIELD_A">      0.00000000</i>
  </separator>
  <separator name="optional k-points parameters" >
   <i type="int" name="KPOINTS_OPT_MODE">     1</i>
   <i type="logical" name="LKPOINTS_OPT"> F  </i>
  </separator>
 </parameters>
 <atominfo>
  <atoms>       2 </atoms>
  <types>       1 </types>
  <array name="atoms" >
   <dimension dim="1">ion</dimension>
   <field type="string">element</field>
   <field type="int">atomtype</field>
   <set>
    <rc><c>Co</c><c>   1</c></rc>
    <rc><c>Co</c><c>   1</c></rc>
   </set>
  </array>
  <array name="atomtypes" >
   <dimension dim="1">type</dimension>
   <field type="int">atomspertype</field>
   <field type="string">element</field>
   <field>mass</field>
   <field>valence</field>
   <field type="string">pseudopotential</field>
   <set>
    <rc><c>   2</c><c>Co</c><c>     58.93300000</c><c>      9.00000000</c><c>  PAW_PBE Co 02Aug2007                  </c></rc>
   </set>
  </array>
 </atominfo>
 <structure name="initialpos" >
  <crystal>
   <varray name="basis" >
    <v>       1.23367643      -2.13679025       0.00000000 </v>
    <v>       1.23367643       2.13679025       0.00000000 </v>
    <v>       0.00000000       0.00000000       3.97995684 </v>
   </varray>
   <i name="volume">     20.98319026 </i>
   <varray name="rec_basis" >
    <v>       0.40529266      -0.23399583       0.00000000 </v>
    <v>       0.40529266       0.23399583       0.00000000 </v>
    <v>       0.00000000       0.00000000       0.25125901 </v>
   </varray>
  </crystal>
  <varray name="positions" >
   <v>       0.33333333       0.66666667       0.25000000 </v>
   <v>       0.66666667       0.33333333       0.75000000 </v>
  </varray>
 </structure>
 <calculation>
  <scstep>
   <time name="dav">    0.90    0.91</time>
   <time name="total">    0.91    0.92</time>
   <energy>
    <i name="alphaZ">     80.74595022 </i>
    <i name="ewald">  -1538.76216670 </i>
    <i name="hartreedc">   -292.91599123 </i>
    <i name="XCdc">     35.85046305 </i>
    <i name="pawpsdc">   1439.98163886 </i>
    <i name="pawaedc">  -1545.88690193 </i>
    <i name="eentropy">     -0.00168266 </i>
    <i name="bandstr">    193.57325050 </i>
    <i name="atom">   1626.72322989 </i>
    <i name="e_fr_energy">     -0.69221001 </i>
    <i name="e_wo_entrp">     -0.69052735 </i>
    <i name="e_0_energy">     -0.69136868 </i>
   </energy>
  </scstep>
  <scstep>
   <time name="dav">    1.70    1.70</time>
   <time name="total">    1.70    1.70</time>
   <energy>
    <i name="e_fr_energy">    -15.52377521 </i>
    <i name="e_wo_entrp">    -15.52185085 </i>
    <i name="e_0_energy">    -15.52281303 </i>
   </energy>
  </scstep>
  <scstep>
   <time name="dav">    1.48    1.49</time>
   <time name="total">    1.48    1.49</time>
   <energy>
    <i name="e_fr_energy">    -15.57124305 </i>
    <i name="e_wo_entrp">    -15.56938170 </i>
    <i name="e_0_energy">    -15.57031238 </i>
   </energy>
  </scstep>
  <scstep>
   <time name="dav">    2.21    2.22</time>
   <time name="total">    2.21    2.22</time>
   <energy>
    <i name="e_fr_energy">    -15.57129976 </i>
    <i name="e_wo_entrp">    -15.56943878 </i>
    <i name="e_0_energy">    -15.57036927 </i>
   </energy>
  </scstep>
  <scstep>
   <time name="dav">    1.50    1.51</time>
   <time name="total">    1.53    1.54</time>
   <energy>
    <i name="e_fr_energy">    -15.57129976 </i>
    <i name="e_wo_entrp">    -15.56943878 </i>
    <i name="e_0_energy">    -15.57036927 </i>
   </energy>
  </scstep>
  <scstep>
   <time name="dav">    2.16    2.17</time>
   <time name="total">    2.20    2.21</time>
   <energy>
    <i name="e_fr_energy">    -14.40927817 </i>
    <i name="e_wo_entrp">    -14.40681285 </i>
    <i name="e_0_energy">    -14.40804551 </i>
   </energy>
  </scstep>
  <scstep>
   <time name="dav">    1.75    1.76</time>
   <time name="total">    1.79    1.80</time>
   <energy>
    <i name="e_fr_energy">    -14.09444098 </i>
    <i name="e_wo_entrp">    -14.09278996 </i>
    <i name="e_0_energy">    -14.09361547 </i>
   </energy>
  </scstep>
  <scstep>
   <time name="dav">    2.08    2.08</time>
   <time name="total">    2.12    2.13</time>
   <energy>
    <i name="e_fr_energy">    -14.06598269 </i>
    <i name="e_wo_entrp">    -14.06436745 </i>
    <i name="e_0_energy">    -14.06517507 </i>
   </energy>
  </scstep>
  <scstep>
   <time name="dav">    2.37    2.38</time>
   <time name="total">    2.41    2.42</time>
   <energy>
    <i name="e_fr_energy">    -14.05216416 </i>
    <i name="e_wo_entrp">    -14.05044823 </i>
    <i name="e_0_energy">    -14.05130619 </i>
   </energy>
  </scstep>
  <scstep>
   <time name="dav">    2.40    2.41</time>
   <time name="total">    2.44    2.45</time>
   <energy>
    <i name="e_fr_energy">    -14.05108070 </i>
    <i name="e_wo_entrp">    -14.04932345 </i>
    <i name="e_0_energy">    -14.05020207 </i>
   </energy>
  </scstep>
  <scstep>
   <time name="dav">    1.73    1.74</time>
   <time name="total">    1.77    1.78</time>
   <energy>
    <i name="e_fr_energy">    -14.05108583 </i>
    <i name="e_wo_entrp">    -14.04928597 </i>
    <i name="e_0_energy">    -14.05018590 </i>
   </energy>
  </scstep>
  <scstep>
   <time name="dav">    2.41    2.42</time>
   <time name="total">    2.45    2.46</time>
   <energy>
    <i name="e_fr_energy">    -14.05108253 </i>
    <i name="e_wo_entrp">    -14.04928059 </i>
    <i name="e_0_energy">    -14.05018156 </i>
   </energy>
  </scstep>
  <scstep>
   <time name="dav">    2.28    2.29</time>
   <time name="total">    2.29    2.30</time>
   <energy>
    <i name="alphaZ">     80.74595022 </i>
    <i name="ewald">  -1538.76216670 </i>
    <i name="hartreedc">   -257.63050968 </i>
    <i name="XCdc">     33.01976352 </i>
    <i name="pawpsdc">   1844.69829983 </i>
    <i name="pawaedc">  -1950.99412796 </i>
    <i name="eentropy">     -0.00180896 </i>
    <i name="bandstr">    148.15028761 </i>
    <i name="atom">   1626.72322989 </i>
    <i name="e_fr_energy">    -14.05108224 </i>
    <i name="e_wo_entrp">    -14.04927328 </i>
    <i name="e_0_energy">    -14.05017776 </i>
   </energy>
  </scstep>
  <structure>
   <crystal>
    <varray name="basis" >
     <v>       1.23367643      -2.13679025       0.00000000 </v>
     <v>       1.23367643       2.13679025       0.00000000 </v>
     <v>       0.00000000       0.00000000       3.97995684 </v>
    </varray>
    <i name="volume">     20.98319026 </i>
    <varray name="rec_basis" >
     <v>       0.40529266      -0.23399583       0.00000000 </v>
     <v>       0.40529266       0.23399583       0.00000000 </v>
     <v>       0.00000000       0.00000000       0.25125901 </v>
    </varray>
   </crystal>
   <varray name="positions" >
    <v>       0.33333333       0.66666667       0.25000000 </v>
    <v>       0.66666667       0.33333333       0.75000000 </v>
   </varray>
  </structure>
  <varray name="forces" >
   <v>       0.00000000      -0.00000000       0.00000000 </v>
   <v>       0.00000000       0.00000000      -0.00000000 </v>
  </varray>
  <varray name="stress" >
   <v>      68.37232533       0.00000000      -0.00000000 </v>
   <v>       0.00000000      68.37232533       0.00000000 </v>
   <v>       0.00000000       0.00000000      67.46445092 </v>
  </varray>
  <energy>
   <i name="e_fr_energy">    -14.05108224 </i>
   <i name="e_wo_entrp">    -14.04927328 </i>
   <i name="e_0_energy">    -14.05017776 </i>
  </energy>
  <time name="totalsc">   25.56   25.68</time>
  <eigenvalues>
   <array>
    <dimension dim="1">band</dimension>
    <dimension dim="2">kpoint</dimension>
    <dimension dim="3">spin</dimension>
    <field>eigene</field>
    <field>occ</field>
    <set>
     <set comment="spin 1">
      <set comment="kpoint 1">
       <r>    1.6323    1.0000 </r>
       <r>    5.4452    1.0000 </r>
       <r>    8.0820    1.0000 </r>
       <r>    8.0877    1.0000 </r>
       <r>    8.0877    1.0000 </r>
       <r>    8.4204    1.0000 </r>
       <r>    8.4204    1.0000 </r>
       <r>    8.7844    1.0000 </r>
       <r>    8.7844    1.0000 </r>
       <r>    9.9512    1.0000 </r>
       <r>    9.9512    1.0000 </r>
       <r>   10.6783    0.8353 </r>
       <r>   17.4263    0.0000 </r>
       <r>   32.9682    0.0000 </r>
       <r>   35.8444    0.0000 </r>
       <r>   35.8444    0.0000 </r>
       <r>   36.1921    0.0000 </r>
       <r>   36.6220    0.0000 </r>
       <r>   37.1636    0.0000 </r>
       <r>   37.1636    0.0000 </r>
       <r>   41.6958    0.0000 </r>
       <r>   41.6958    0.0000 </r>
       <r>   42.7832    0.0000 </r>
       <r>   43.1395    0.0000 </r>
       <r>   45.0606    0.0000 </r>
       <r>   45.0606    0.0000 </r>
       <r>   46.0814    0.0000 </r>
       <r>   46.8500    0.0000 </r>
      </set>
      <set comment="kpoint 2">
       <r>    1.8814    1.0000 </r>
       <r>    5.5944    1.0000 </r>
       <r>    7.8438    1.0000 </r>
       <r>    8.2061    1.0000 </r>
       <r>    8.2849    1.0000 </r>
       <r>    8.3728    1.0000 </r>
       <r>    8.5247    1.0000 </r>
       <r>    8.6261    1.0000 </r>
       <r>    8.7096    1.0000 </r>
       <r>    9.1421    1.0000 </r>
       <r>    9.9834    1.0000 </r>
       <r>   11.8122    0.0000 </r>
       <r>   17.4667    0.0000 </r>
       <r>   31.2114    0.0000 </r>
       <r>   33.5897    0.0000 </r>
       <r>   33.6608    0.0000 </r>
       <r>   36.6353    0.0000 </r>
       <r>   37.1183    0.0000 </r>
       <r>   38.5160    0.0000 </r>
       <r>   39.5672    0.0000 </r>
       <r>   40.3371    0.0000 </r>
       <r>   41.2022    0.0000 </r>
       <r>   42.3543    0.0000 </r>
       <r>   42.6037    0.0000 </r>
       <r>   45.0212    0.0000 </r>
       <r>   45.0702    0.0000 </r>
       <r>   45.9970    0.0000 </r>
       <r>   46.4753    0.0000 </r>
      </set>
      <set comment="kpoint 3">
       <r>    2.6007    1.0000 </r>
       <r>    5.9620    1.0000 </r>
       <r>    7.5551    1.0000 </r>
       <r>    7.8872    1.0000 </r>
       <r>    8.1940    1.0000 </r>
       <r>    8.5254    1.0000 </r>
       <r>    8.5411    1.0000 </r>
       <r>    8.6047    1.0000 </r>
       <r>    8.7505    1.0000 </r>
       <r>    8.8184    1.0000 </r>
       <r>   10.0521    1.0000 </r>
       <r>   13.4527    0.0000 </r>
       <r>   17.6090    0.0000 </r>
       <r>   27.3979    0.0000 </r>
       <r>   31.2121    0.0000 </r>
       <r>   32.6251    0.0000 </r>
       <r>   34.5508    0.0000 </r>
       <r>   36.7448    0.0000 </r>
       <r>   37.7098    0.0000 </r>
       <r>   39.9800    0.0000 </r>
       <r>   40.4047    0.0000 </r>
       <r>   41.2245    0.0000 </r>
       <r>   41.7216    0.0000 </r>
       <r>   43.4275    0.0000 </r>
       <r>   43.6772    0.0000 </r>
       <r>   45.7547    0.0000 </r>
       <r>   46.9986    0.0000 </r>
       <r>   47.5976    0.0000 </r>
      </set>
      <set comment="kpoint 4">
       <r>    3.6843    1.0000 </r>
       <r>    6.2506    1.0000 </r>
       <r>    7.1301    1.0000 </r>
       <r>    7.3826    1.0000 </r>
       <r>    8.1011    1.0000 </r>
       <r>    8.3041    1.0000 </r>
       <r>    8.5428    1.0000 </r>
       <r>    9.0267    1.0000 </r>
       <r>    9.0524    1.0000 </r>
       <r>    9.2405    1.0000 </r>
       <r>   10.1172    1.0000 </r>
       <r>   15.2970    0.0000 </r>
       <r>   17.8815    0.0000 </r>
       <r>   23.6550    0.0000 </r>
       <r>   29.0842    0.0000 </r>
       <r>   31.1729    0.0000 </r>
       <r>   31.4301    0.0000 </r>
       <r>   35.5455    0.0000 </r>
       <r>   35.7349    0.0000 </r>
       <r>   39.7472    0.0000 </r>
       <r>   39.7543    0.0000 </r>
       <r>   40.5354    0.0000 </r>
       <r>   41.7714    0.0000 </r>
       <r>   44.6724    0.0000 </r>
       <r>   46.4996    0.0000 </r>
       <r>   47.0103    0.0000 </r>
       <r>   47.7723    0.0000 </r>
       <r>   49.7408    0.0000 </r>
      </set>
      <set comment="kpoint 5">
       <r>    4.8527    1.0000 </r>
       <r>    6.1731    1.0000 </r>
       <r>    6.5766    1.0000 </r>
       <r>    7.5054    1.0000 </r>
       <r>    8.1050    1.0000 </r>
       <r>    8.2334    1.0000 </r>
       <r>    8.3601    1.0000 </r>
       <r>    9.5438    1.0000 </r>
       <r>    9.6982    1.0000 </r>
       <r>    9.7683    1.0000 </r>
       <r>   10.1619    1.0000 </r>
       <r>   17.3012    0.0000 </r>
       <r>   17.9058    0.0000 </r>
       <r>   20.7826    0.0000 </r>
       <r>   27.3922    0.0000 </r>
       <r>   28.0738    0.0000 </r>
       <r>   29.1945    0.0000 </r>
       <r>   34.0184    0.0000 </r>
       <r>   34.5903    0.0000 </r>
       <r>   37.9135    0.0000 </r>
       <r>   39.3096    0.0000 </r>
       <r>   41.3588    0.0000 </r>
       <r>   43.5775    0.0000 </r>
       <r>   45.6410    0.0000 </r>
       <r>   47.2432    0.0000 </r>
       <r>   47.9952    0.0000 </r>
       <r>   50.0695    0.0000 </r>
       <r>   52.5615    0.0000 </r>
      </set>
      <set comment="kpoint 6">
       <r>    5.5971    1.0000 </r>
       <r>    5.9803    1.0000 </r>
       <r>    6.2443    1.0000 </r>
       <r>    7.8941    1.0000 </r>
       <r>    7.9691    1.0000 </r>
       <r>    8.2315    1.0000 </r>
       <r>    8.4459    1.0000 </r>
       <r>    9.9308    1.0000 </r>
       <r>   10.0772    1.0000 </r>
       <r>   10.1860    1.0000 </r>
       <r>   10.9287    0.0000 </r>
       <r>   15.9789    0.0000 </r>
       <r>   19.3680    0.0000 </r>
       <r>   20.6953    0.0000 </r>
       <r>   25.3644    0.0000 </r>
       <r>   26.2776    0.0000 </r>
       <r>   26.5749    0.0000 </r>
       <r>   33.4965    0.0000 </r>
       <r>   33.8024    0.0000 </r>
       <r>   36.7166    0.0000 </r>
       <r>   39.0547    0.0000 </r>
       <r>   41.8777    0.0000 </r>
       <r>   46.0448    0.0000 </r>
       <r>   46.1149    0.0000 </r>
       <r>   47.3114    0.0000 </r>
       <r>   48.1695    0.0000 </r>
       <r>   52.2214    0.0000 </r>
       <r>   53.5032    0.0000 </r>
      </set>
      <set comment="kpoint 7">
       <r>    5.8176    1.0000 </r>
       <r>    5.8656    1.0000 </r>
       <r>    6.1336    1.0000 </r>
       <r>    7.9211    1.0000 </r>
       <r>    8.1534    1.0000 </r>
       <r>    8.1852    1.0000 </r>
       <r>    8.5262    1.0000 </r>
       <r>   10.0708    1.0000 </r>
       <r>   10.1933    1.0000 </r>
       <r>   10.2306    1.0000 </r>
       <r>   12.1230    0.0000 </r>
       <r>   14.2128    0.0000 </r>
       <r>   20.7163    0.0000 </r>
       <r>   21.4051    0.0000 </r>
       <r>   23.8049    0.0000 </r>
       <r>   25.1555    0.0000 </r>
       <r>   25.8843    0.0000 </r>
       <r>   33.3706    0.0000 </r>
       <r>   33.5279    0.0000 </r>
       <r>   36.3002    0.0000 </r>
       <r>   38.9721    0.0000 </r>
       <r>   42.0713    0.0000 </r>
       <r>   46.2461    0.0000 </r>
       <r>   47.2888    0.0000 </r>
       <r>   48.1447    0.0000 </r>
       <r>   48.5175    0.0000 </r>
       <r>   49.4780    0.0000 </r>
       <r>   54.7269    0.0000 </r>
      </set>
      <set comment="kpoint 8">
       <r>    2.3665    1.0000 </r>
       <r>    5.8590    1.0000 </r>
       <r>    7.6158    1.0000 </r>
       <r>    8.1438    1.0000 </r>
       <r>    8.2626    1.0000 </r>
       <r>    8.4486    1.0000 </r>
       <r>    8.4500    1.0000 </r>
       <r>    8.4971    1.0000 </r>
       <r>    8.7568    1.0000 </r>
       <r>    8.8748    1.0000 </r>
       <r>   10.0236    1.0000 </r>
       <r>   12.9932    0.0000 </r>
       <r>   17.5602    0.0000 </r>
       <r>   29.1291    0.0000 </r>
       <r>   29.9369    0.0000 </r>
       <r>   35.1747    0.0000 </r>
       <r>   36.0602    0.0000 </r>
       <r>   36.2237    0.0000 </r>
       <r>   36.4047    0.0000 </r>
       <r>   39.6661    0.0000 </r>
       <r>   40.7037    0.0000 </r>
       <r>   41.2932    0.0000 </r>
       <r>   43.2886    0.0000 </r>
       <r>   43.7618    0.0000 </r>
       <r>   44.0420    0.0000 </r>
       <r>   44.4837    0.0000 </r>
       <r>   45.1775    0.0000 </r>
       <r>   47.2207    0.0000 </r>
      </set>
      <set comment="kpoint 9">
       <r>    3.2773    1.0000 </r>
       <r>    6.2340    1.0000 </r>
       <r>    7.3305    1.0000 </r>
       <r>    7.4093    1.0000 </r>
       <r>    8.1397    1.0000 </r>
       <r>    8.2633    1.0000 </r>
       <r>    8.7136    1.0000 </r>
       <r>    8.7157    1.0000 </r>
       <r>    8.8905    1.0000 </r>
       <r>    9.1914    1.0000 </r>
       <r>   10.0733    1.0000 </r>
       <r>   14.6322    0.0000 </r>
       <r>   17.7902    0.0000 </r>
       <r>   25.5650    0.0000 </r>
       <r>   27.8222    0.0000 </r>
       <r>   32.8721    0.0000 </r>
       <r>   33.9242    0.0000 </r>
       <r>   34.9617    0.0000 </r>
       <r>   36.6462    0.0000 </r>
       <r>   38.1620    0.0000 </r>
       <r>   39.8340    0.0000 </r>
       <r>   41.9263    0.0000 </r>
       <r>   43.3555    0.0000 </r>
       <r>   43.8258    0.0000 </r>
       <r>   45.6539    0.0000 </r>
       <r>   47.3386    0.0000 </r>
       <r>   47.4249    0.0000 </r>
       <r>   47.4328    0.0000 </r>
      </set>
      <set comment="kpoint 10">
       <r>    4.4433    1.0000 </r>
       <r>    6.3490    1.0000 </r>
       <r>    6.8041    1.0000 </r>
       <r>    7.2610    1.0000 </r>
       <r>    8.0674    1.0000 </r>
       <r>    8.1563    1.0000 </r>
       <r>    8.5107    1.0000 </r>
       <r>    9.1341    1.0000 </r>
       <r>    9.4147    1.0000 </r>
       <r>    9.7829    1.0000 </r>
       <r>   10.1152    1.0000 </r>
       <r>   16.5168    0.0000 </r>
       <r>   18.1289    0.0000 </r>
       <r>   22.0829    0.0000 </r>
       <r>   26.2479    0.0000 </r>
       <r>   29.6925    0.0000 </r>
       <r>   31.2369    0.0000 </r>
       <r>   33.6819    0.0000 </r>
       <r>   36.0096    0.0000 </r>
       <r>   36.4602    0.0000 </r>
       <r>   40.4809    0.0000 </r>
       <r>   43.2458    0.0000 </r>
       <r>   43.5086    0.0000 </r>
       <r>   44.4987    0.0000 </r>
       <r>   46.6494    0.0000 </r>
       <r>   47.7013    0.0000 </r>
       <r>   48.4545    0.0000 </r>
       <r>   50.6469    0.0000 </r>
      </set>
      <set comment="kpoint 11">
       <r>    5.4487    1.0000 </r>
       <r>    6.1651    1.0000 </r>
       <r>    6.3919    1.0000 </r>
       <r>    7.5133    1.0000 </r>
       <r>    7.9406    1.0000 </r>
       <r>    8.3106    1.0000 </r>
       <r>    8.3589    1.0000 </r>
       <r>    9.6573    1.0000 </r>
       <r>    9.8625    1.0000 </r>
       <r>   10.1413    1.0000 </r>
       <r>   10.6208    0.9953 </r>
       <r>   17.3561    0.0000 </r>
       <r>   18.5596    0.0000 </r>
       <r>   20.4682    0.0000 </r>
       <r>   25.0211    0.0000 </r>
       <r>   26.7863    0.0000 </r>
       <r>   28.2554    0.0000 </r>
       <r>   32.7425    0.0000 </r>
       <r>   35.3107    0.0000 </r>
       <r>   35.4212    0.0000 </r>
       <r>   40.5552    0.0000 </r>
       <r>   43.5751    0.0000 </r>
       <r>   45.1667    0.0000 </r>
       <r>   45.9509    0.0000 </r>
       <r>   47.2196    0.0000 </r>
       <r>   48.0431    0.0000 </r>
       <r>   50.0415    0.0000 </r>
       <r>   53.8842    0.0000 </r>
      </set>
      <set comment="kpoint 12">
       <r>    5.8734    1.0000 </r>
       <r>    6.0063    1.0000 </r>
       <r>    6.1850    1.0000 </r>
       <r>    7.8898    1.0000 </r>
       <r>    7.9008    1.0000 </r>
       <r>    8.1780    1.0000 </r>
       <r>    8.5217    1.0000 </r>
       <r>   10.0308    1.0000 </r>
       <r>   10.1050    1.0000 </r>
       <r>   10.1528    1.0000 </r>
       <r>   11.9473    0.0000 </r>
       <r>   14.9940    0.0000 </r>
       <r>   20.5132    0.0000 </r>
       <r>   21.3120    0.0000 </r>
       <r>   24.2089    0.0000 </r>
       <r>   24.4067    0.0000 </r>
       <r>   25.9970    0.0000 </r>
       <r>   32.2519    0.0000 </r>
       <r>   34.7091    0.0000 </r>
       <r>   35.1154    0.0000 </r>
       <r>   40.4590    0.0000 </r>
       <r>   43.7975    0.0000 </r>
       <r>   46.2720    0.0000 </r>
       <r>   47.3001    0.0000 </r>
       <r>   47.6568    0.0000 </r>
       <r>   48.1437    0.0000 </r>
       <r>   50.8880    0.0000 </r>
       <r>   52.8324    0.0000 </r>
      </set>
      <set comment="kpoint 13">
       <r>    4.2989    1.0000 </r>
       <r>    6.5378    1.0000 </r>
       <r>    6.9236    1.0000 </r>
       <r>    7.0234    1.0000 </r>
       <r>    7.9944    1.0000 </r>
       <r>    8.1513    1.0000 </r>
       <r>    8.6077    1.0000 </r>
       <r>    8.8903    1.0000 </r>
       <r>    9.4027    1.0000 </r>
       <r>    9.8047    1.0000 </r>
       <r>   10.0750    1.0000 </r>
       <r>   16.2515    0.0000 </r>
       <r>   18.1784    0.0000 </r>
       <r>   23.7819    0.0000 </r>
       <r>   24.3026    0.0000 </r>
       <r>   31.1910    0.0000 </r>
       <r>   32.1388    0.0000 </r>
       <r>   33.3037    0.0000 </r>
       <r>   34.1024    0.0000 </r>
       <r>   38.8813    0.0000 </r>
       <r>   40.8595    0.0000 </r>
       <r>   41.5681    0.0000 </r>
       <r>   45.0031    0.0000 </r>
       <r>   46.2720    0.0000 </r>
       <r>   46.6233    0.0000 </r>
       <r>   47.2437    0.0000 </r>
       <r>   47.4094    0.0000 </r>
       <r>   48.0791    0.0000 </r>
      </set>
      <set comment="kpoint 14">
       <r>    5.4071    1.0000 </r>
       <r>    6.5159    1.0000 </r>
       <r>    6.5391    1.0000 </r>
       <r>    7.0024    1.0000 </r>
       <r>    7.8330    1.0000 </r>
       <r>    8.3035    1.0000 </r>
       <r>    8.4083    1.0000 </r>
       <r>    9.2109    1.0000 </r>
       <r>    9.8646    1.0000 </r>
       <r>   10.0728    1.0000 </r>
       <r>   10.6438    0.9743 </r>
       <r>   18.1542    0.0000 </r>
       <r>   18.5289    0.0000 </r>
       <r>   20.9460    0.0000 </r>
       <r>   22.8468    0.0000 </r>
       <r>   28.5568    0.0000 </r>
       <r>   30.2532    0.0000 </r>
       <r>   30.6877    0.0000 </r>
       <r>   32.8049    0.0000 </r>
       <r>   39.0418    0.0000 </r>
       <r>   42.2288    0.0000 </r>
       <r>   43.8440    0.0000 </r>
       <r>   45.6245    0.0000 </r>
       <r>   46.2479    0.0000 </r>
       <r>   47.1227    0.0000 </r>
       <r>   47.6868    0.0000 </r>
       <r>   49.2969    0.0000 </r>
       <r>   49.8113    0.0000 </r>
      </set>
      <set comment="kpoint 15">
       <r>    6.0832    1.0000 </r>
       <r>    6.3002    1.0000 </r>
       <r>    6.3077    1.0000 </r>
       <r>    7.3393    1.0000 </r>
       <r>    7.7891    1.0000 </r>
       <r>    8.1922    1.0000 </r>
       <r>    8.5148    1.0000 </r>
       <r>    9.6343    1.0000 </r>
       <r>   10.0700    1.0000 </r>
       <r>   10.0947    1.0000 </r>
       <r>   11.8674    0.0000 </r>
       <r>   16.6889    0.0000 </r>
       <r>   20.2146    0.0000 </r>
       <r>   20.8714    0.0000 </r>
       <r>   22.0706    0.0000 </r>
       <r>   25.8612    0.0000 </r>
       <r>   27.3425    0.0000 </r>
       <r>   30.0065    0.0000 </r>
       <r>   32.0404    0.0000 </r>
       <r>   38.7037    0.0000 </r>
       <r>   43.0458    0.0000 </r>
       <r>   45.7803    0.0000 </r>
       <r>   46.9669    0.0000 </r>
       <r>   47.2186    0.0000 </r>
       <r>   47.3448    0.0000 </r>
       <r>   48.0568    0.0000 </r>
       <r>   49.3490    0.0000 </r>
       <r>   52.7998    0.0000 </r>
      </set>
      <set comment="kpoint 16">
       <r>    6.2040    1.0000 </r>
       <r>    6.2197    1.0000 </r>
       <r>    6.2481    1.0000 </r>
       <r>    7.5718    1.0000 </r>
       <r>    7.8070    1.0000 </r>
       <r>    8.0797    1.0000 </r>
       <r>    8.6048    1.0000 </r>
       <r>    9.9202    1.0000 </r>
       <r>   10.0685    1.0000 </r>
       <r>   10.0730    1.0000 </r>
       <r>   13.1658    0.0000 </r>
       <r>   14.8054    0.0000 </r>
       <r>   21.3535    0.0000 </r>
       <r>   21.6798    0.0000 </r>
       <r>   22.1039    0.0000 </r>
       <r>   24.1798    0.0000 </r>
       <r>   25.8543    0.0000 </r>
       <r>   29.7842    0.0000 </r>
       <r>   31.7680    0.0000 </r>
       <r>   38.5687    0.0000 </r>
       <r>   43.2108    0.0000 </r>
       <r>   46.4213    0.0000 </r>
       <r>   46.7132    0.0000 </r>
       <r>   47.4414    0.0000 </r>
       <r>   48.0728    0.0000 </r>
       <r>   48.9795    0.0000 </r>
       <r>   50.8683    0.0000 </r>
       <r>   52.0001    0.0000 </r>
      </set>
      <set comment="kpoint 17">
       <r>    6.2302    1.0000 </r>
       <r>    6.3661    1.0000 </r>
       <r>    6.7259    1.0000 </r>
       <r>    6.7769    1.0000 </r>
       <r>    7.7222    1.0000 </r>
       <r>    8.2082    1.0000 </r>
       <r>    8.5194    1.0000 </r>
       <r>    9.3985    1.0000 </r>
       <r>   10.0273    1.0000 </r>
       <r>   10.1014    1.0000 </r>
       <r>   11.8750    0.0000 </r>
       <r>   18.5017    0.0000 </r>
       <r>   19.2436    0.0000 </r>
       <r>   20.0966    0.0000 </r>
       <r>   21.5284    0.0000 </r>
       <r>   27.7820    0.0000 </r>
       <r>   27.8032    0.0000 </r>
       <r>   28.9982    0.0000 </r>
       <r>   29.9164    0.0000 </r>
       <r>   42.0508    0.0000 </r>
       <r>   43.9170    0.0000 </r>
       <r>   44.2587    0.0000 </r>
       <r>   46.5739    0.0000 </r>
       <r>   47.6862    0.0000 </r>
       <r>   47.7732    0.0000 </r>
       <r>   48.7670    0.0000 </r>
       <r>   49.8314    0.0000 </r>
       <r>   50.5329    0.0000 </r>
      </set>
      <set comment="kpoint 18">
       <r>    6.2835    1.0000 </r>
       <r>    6.5006    1.0000 </r>
       <r>    6.5869    1.0000 </r>
       <r>    7.1128    1.0000 </r>
       <r>    7.7431    1.0000 </r>
       <r>    8.0010    1.0000 </r>
       <r>    8.6938    1.0000 </r>
       <r>    9.6843    1.0000 </r>
       <r>   10.0005    1.0000 </r>
       <r>   10.0450    1.0000 </r>
       <r>   13.5811    0.0000 </r>
       <r>   16.2230    0.0000 </r>
       <r>   18.5922    0.0000 </r>
       <r>   22.1710    0.0000 </r>
       <r>   22.5721    0.0000 </r>
       <r>   25.2403    0.0000 </r>
       <r>   26.8096    0.0000 </r>
       <r>   27.4158    0.0000 </r>
       <r>   29.1060    0.0000 </r>
       <r>   42.4881    0.0000 </r>
       <r>   45.8822    0.0000 </r>
       <r>   46.1088    0.0000 </r>
       <r>   47.1114    0.0000 </r>
       <r>   47.8491    0.0000 </r>
       <r>   48.9384    0.0000 </r>
       <r>   49.2442    0.0000 </r>
       <r>   49.4273    0.0000 </r>
       <r>   51.7714    0.0000 </r>
      </set>
      <set comment="kpoint 19">
       <r>    6.2883    1.0000 </r>
       <r>    6.6974    1.0000 </r>
       <r>    6.6974    1.0000 </r>
       <r>    6.9823    1.0000 </r>
       <r>    7.8239    1.0000 </r>
       <r>    7.8239    1.0000 </r>
       <r>    8.7948    1.0000 </r>
       <r>    9.8364    1.0000 </r>
       <r>    9.8364    1.0000 </r>
       <r>    9.9730    1.0000 </r>
       <r>   15.3430    0.0000 </r>
       <r>   16.2278    0.0000 </r>
       <r>   16.2278    0.0000 </r>
       <r>   23.4317    0.0000 </r>
       <r>   24.2044    0.0000 </r>
       <r>   24.2044    0.0000 </r>
       <r>   26.0004    0.0000 </r>
       <r>   27.1475    0.0000 </r>
       <r>   27.1475    0.0000 </r>
       <r>   44.9556    0.0000 </r>
       <r>   46.6966    0.0000 </r>
       <r>   46.6966    0.0000 </r>
       <r>   48.1520    0.0000 </r>
       <r>   48.1520    0.0000 </r>
       <r>   48.6435    0.0000 </r>
       <r>   48.6435    0.0000 </r>
       <r>   49.6813    0.0000 </r>
       <r>   50.8161    0.0000 </r>
      </set>
      <set comment="kpoint 20">
       <r>    1.7947    1.0000 </r>
       <r>    5.4174    1.0000 </r>
       <r>    8.0388    1.0000 </r>
       <r>    8.0432    1.0000 </r>
       <r>    8.0432    1.0000 </r>
       <r>    8.3746    1.0000 </r>
       <r>    8.3746    1.0000 </r>
       <r>    8.8883    1.0000 </r>
       <r>    8.8883    1.0000 </r>
       <r>    9.9429    1.0000 </r>
       <r>    9.9429    1.0000 </r>
       <r>   10.0567    1.0000 </r>
       <r>   18.3609    0.0000 </r>
       <r>   32.9019    0.0000 </r>
       <r>   35.4068    0.0000 </r>
       <r>   35.8587    0.0000 </r>
       <r>   35.9876    0.0000 </r>
       <r>   35.9876    0.0000 </r>
       <r>   37.2129    0.0000 </r>
       <r>   37.2129    0.0000 </r>
       <r>   41.3276    0.0000 </r>
       <r>   41.3276    0.0000 </r>
       <r>   43.1117    0.0000 </r>
       <r>   43.5137    0.0000 </r>
       <r>   44.0062    0.0000 </r>
       <r>   44.0062    0.0000 </r>
       <r>   46.9177    0.0000 </r>
       <r>   46.9560    0.0000 </r>
      </set>
      <set comment="kpoint 21">
       <r>    2.0412    1.0000 </r>
       <r>    5.5751    1.0000 </r>
       <r>    7.8409    1.0000 </r>
       <r>    8.1489    1.0000 </r>
       <r>    8.1692    1.0000 </r>
       <r>    8.2607    1.0000 </r>
       <r>    8.4739    1.0000 </r>
       <r>    8.7621    1.0000 </r>
       <r>    8.8340    1.0000 </r>
       <r>    9.0547    1.0000 </r>
       <r>    9.9705    1.0000 </r>
       <r>   11.2769    0.0000 </r>
       <r>   18.4510    0.0000 </r>
       <r>   31.2859    0.0000 </r>
       <r>   33.5592    0.0000 </r>
       <r>   33.8150    0.0000 </r>
       <r>   35.4246    0.0000 </r>
       <r>   36.4356    0.0000 </r>
       <r>   38.5038    0.0000 </r>
       <r>   39.4930    0.0000 </r>
       <r>   40.6056    0.0000 </r>
       <r>   40.9017    0.0000 </r>
       <r>   41.4921    0.0000 </r>
       <r>   43.4514    0.0000 </r>
       <r>   44.9312    0.0000 </r>
       <r>   46.0144    0.0000 </r>
       <r>   46.3987    0.0000 </r>
       <r>   46.5082    0.0000 </r>
      </set>
      <set comment="kpoint 22">
       <r>    2.7507    1.0000 </r>
       <r>    5.9685    1.0000 </r>
       <r>    7.5724    1.0000 </r>
       <r>    7.7170    1.0000 </r>
       <r>    8.1365    1.0000 </r>
       <r>    8.3756    1.0000 </r>
       <r>    8.5146    1.0000 </r>
       <r>    8.7011    1.0000 </r>
       <r>    8.8292    1.0000 </r>
       <r>    8.9177    1.0000 </r>
       <r>   10.0288    1.0000 </r>
       <r>   12.6846    0.0000 </r>
       <r>   18.7537    0.0000 </r>
       <r>   27.5283    0.0000 </r>
       <r>   31.3966    0.0000 </r>
       <r>   32.3332    0.0000 </r>
       <r>   34.1608    0.0000 </r>
       <r>   35.6163    0.0000 </r>
       <r>   38.0972    0.0000 </r>
       <r>   39.0669    0.0000 </r>
       <r>   39.9525    0.0000 </r>
       <r>   40.9407    0.0000 </r>
       <r>   42.2327    0.0000 </r>
       <r>   44.5362    0.0000 </r>
       <r>   44.7562    0.0000 </r>
       <r>   46.5024    0.0000 </r>
       <r>   47.1019    0.0000 </r>
       <r>   47.5944    0.0000 </r>
      </set>
      <set comment="kpoint 23">
       <r>    3.8081    1.0000 </r>
       <r>    6.2863    1.0000 </r>
       <r>    7.0418    1.0000 </r>
       <r>    7.4152    1.0000 </r>
       <r>    8.0005    1.0000 </r>
       <r>    8.3254    1.0000 </r>
       <r>    8.5539    1.0000 </r>
       <r>    9.0630    1.0000 </r>
       <r>    9.1227    1.0000 </r>
       <r>    9.2052    1.0000 </r>
       <r>   10.0838    1.0000 </r>
       <r>   14.1471    0.0000 </r>
       <r>   19.3261    0.0000 </r>
       <r>   23.8013    0.0000 </r>
       <r>   29.2954    0.0000 </r>
       <r>   29.8546    0.0000 </r>
       <r>   32.3365    0.0000 </r>
       <r>   35.1671    0.0000 </r>
       <r>   36.0758    0.0000 </r>
       <r>   37.6506    0.0000 </r>
       <r>   39.4842    0.0000 </r>
       <r>   41.5768    0.0000 </r>
       <r>   41.8348    0.0000 </r>
       <r>   46.3625    0.0000 </r>
       <r>   46.8122    0.0000 </r>
       <r>   47.1852    0.0000 </r>
       <r>   47.9395    0.0000 </r>
       <r>   49.8589    0.0000 </r>
      </set>
      <set comment="kpoint 24">
       <r>    4.9057    1.0000 </r>
       <r>    6.2025    1.0000 </r>
       <r>    6.6036    1.0000 </r>
       <r>    7.4003    1.0000 </r>
       <r>    8.1599    1.0000 </r>
       <r>    8.1621    1.0000 </r>
       <r>    8.6015    1.0000 </r>
       <r>    9.5620    1.0000 </r>
       <r>    9.6404    1.0000 </r>
       <r>    9.7264    1.0000 </r>
       <r>   10.1256    1.0000 </r>
       <r>   15.5197    0.0000 </r>
       <r>   19.5960    0.0000 </r>
       <r>   21.2055    0.0000 </r>
       <r>   26.8534    0.0000 </r>
       <r>   27.6260    0.0000 </r>
       <r>   30.4356    0.0000 </r>
       <r>   34.1713    0.0000 </r>
       <r>   34.3819    0.0000 </r>
       <r>   36.3300    0.0000 </r>
       <r>   40.3925    0.0000 </r>
       <r>   40.9682    0.0000 </r>
       <r>   42.7139    0.0000 </r>
       <r>   47.1350    0.0000 </r>
       <r>   47.3840    0.0000 </r>
       <r>   48.7514    0.0000 </r>
       <r>   50.2451    0.0000 </r>
       <r>   51.0906    0.0000 </r>
      </set>
      <set comment="kpoint 25">
       <r>    5.5139    1.0000 </r>
       <r>    5.9687    1.0000 </r>
       <r>    6.4720    1.0000 </r>
       <r>    7.4180    1.0000 </r>
       <r>    8.0364    1.0000 </r>
       <r>    8.4384    1.0000 </r>
       <r>    8.8293    1.0000 </r>
       <r>    9.9244    1.0000 </r>
       <r>    9.9994    1.0000 </r>
       <r>   10.1725    1.0000 </r>
       <r>   10.8355    0.0003 </r>
       <r>   15.5260    0.0000 </r>
       <r>   18.7822    0.0000 </r>
       <r>   21.5586    0.0000 </r>
       <r>   24.6727    0.0000 </r>
       <r>   26.5274    0.0000 </r>
       <r>   27.9145    0.0000 </r>
       <r>   33.5667    0.0000 </r>
       <r>   33.6570    0.0000 </r>
       <r>   35.3864    0.0000 </r>
       <r>   40.4826    0.0000 </r>
       <r>   41.6265    0.0000 </r>
       <r>   43.4476    0.0000 </r>
       <r>   46.9942    0.0000 </r>
       <r>   47.5996    0.0000 </r>
       <r>   48.7887    0.0000 </r>
       <r>   51.4285    0.0000 </r>
       <r>   53.3621    0.0000 </r>
      </set>
      <set comment="kpoint 26">
       <r>    5.6398    1.0000 </r>
       <r>    5.8521    1.0000 </r>
       <r>    6.4676    1.0000 </r>
       <r>    7.4427    1.0000 </r>
       <r>    7.9919    1.0000 </r>
       <r>    8.5254    1.0000 </r>
       <r>    9.0061    1.0000 </r>
       <r>   10.0230    1.0000 </r>
       <r>   10.1408    1.0000 </r>
       <r>   10.2259    1.0000 </r>
       <r>   12.0013    0.0000 </r>
       <r>   14.1130    0.0000 </r>
       <r>   20.1395    0.0000 </r>
       <r>   20.5163    0.0000 </r>
       <r>   24.9926    0.0000 </r>
       <r>   26.0567    0.0000 </r>
       <r>   26.1402    0.0000 </r>
       <r>   33.4026    0.0000 </r>
       <r>   33.4258    0.0000 </r>
       <r>   35.0444    0.0000 </r>
       <r>   40.3302    0.0000 </r>
       <r>   42.3028    0.0000 </r>
       <r>   43.6641    0.0000 </r>
       <r>   46.6018    0.0000 </r>
       <r>   47.6692    0.0000 </r>
       <r>   48.7400    0.0000 </r>
       <r>   51.8073    0.0000 </r>
       <r>   54.4962    0.0000 </r>
      </set>
      <set comment="kpoint 27">
       <r>    2.5202    1.0000 </r>
       <r>    5.8572    1.0000 </r>
       <r>    7.6301    1.0000 </r>
       <r>    7.9083    1.0000 </r>
       <r>    8.2131    1.0000 </r>
       <r>    8.3178    1.0000 </r>
       <r>    8.4534    1.0000 </r>
       <r>    8.6272    1.0000 </r>
       <r>    8.8353    1.0000 </r>
       <r>    8.9353    1.0000 </r>
       <r>   10.0054    1.0000 </r>
       <r>   12.3016    0.0000 </r>
       <r>   18.6494    0.0000 </r>
       <r>   29.2379    0.0000 </r>
       <r>   30.0804    0.0000 </r>
       <r>   34.6276    0.0000 </r>
       <r>   34.7575    0.0000 </r>
       <r>   35.9295    0.0000 </r>
       <r>   37.4349    0.0000 </r>
       <r>   38.1134    0.0000 </r>
       <r>   41.1630    0.0000 </r>
       <r>   41.7502    0.0000 </r>
       <r>   43.0990    0.0000 </r>
       <r>   43.3263    0.0000 </r>
       <r>   43.9751    0.0000 </r>
       <r>   45.8633    0.0000 </r>
       <r>   46.3743    0.0000 </r>
       <r>   47.3557    0.0000 </r>
      </set>
      <set comment="kpoint 28">
       <r>    3.4143    1.0000 </r>
       <r>    6.2653    1.0000 </r>
       <r>    7.2730    1.0000 </r>
       <r>    7.3655    1.0000 </r>
       <r>    8.0708    1.0000 </r>
       <r>    8.2794    1.0000 </r>
       <r>    8.5627    1.0000 </r>
       <r>    8.8015    1.0000 </r>
       <r>    9.0365    1.0000 </r>
       <r>    9.1743    1.0000 </r>
       <r>   10.0508    1.0000 </r>
       <r>   13.6417    0.0000 </r>
       <r>   19.1086    0.0000 </r>
       <r>   25.7065    0.0000 </r>
       <r>   27.9753    0.0000 </r>
       <r>   31.7573    0.0000 </r>
       <r>   33.9121    0.0000 </r>
       <r>   34.8607    0.0000 </r>
       <r>   37.3045    0.0000 </r>
       <r>   37.9318    0.0000 </r>
       <r>   39.0284    0.0000 </r>
       <r>   41.1203    0.0000 </r>
       <r>   43.7888    0.0000 </r>
       <r>   44.7119    0.0000 </r>
       <r>   46.5344    0.0000 </r>
       <r>   47.1219    0.0000 </r>
       <r>   47.3969    0.0000 </r>
       <r>   47.8519    0.0000 </r>
      </set>
      <set comment="kpoint 29">
       <r>    4.5368    1.0000 </r>
       <r>    6.3970    1.0000 </r>
       <r>    6.7476    1.0000 </r>
       <r>    7.2894    1.0000 </r>
       <r>    7.9718    1.0000 </r>
       <r>    8.2580    1.0000 </r>
       <r>    8.4980    1.0000 </r>
       <r>    9.1445    1.0000 </r>
       <r>    9.4719    1.0000 </r>
       <r>    9.6998    1.0000 </r>
       <r>   10.1185    1.0000 </r>
       <r>   15.0621    0.0000 </r>
       <r>   19.8092    0.0000 </r>
       <r>   22.2547    0.0000 </r>
       <r>   26.4107    0.0000 </r>
       <r>   28.5687    0.0000 </r>
       <r>   32.3744    0.0000 </r>
       <r>   32.8883    0.0000 </r>
       <r>   36.2294    0.0000 </r>
       <r>   37.1924    0.0000 </r>
       <r>   38.9243    0.0000 </r>
       <r>   41.7754    0.0000 </r>
       <r>   44.5142    0.0000 </r>
       <r>   45.7709    0.0000 </r>
       <r>   47.2340    0.0000 </r>
       <r>   47.7334    0.0000 </r>
       <r>   49.1130    0.0000 </r>
       <r>   49.8144    0.0000 </r>
      </set>
      <set comment="kpoint 30">
       <r>    5.4327    1.0000 </r>
       <r>    6.1847    1.0000 </r>
       <r>    6.5027    1.0000 </r>
       <r>    7.3278    1.0000 </r>
       <r>    8.0069    1.0000 </r>
       <r>    8.3499    1.0000 </r>
       <r>    8.5465    1.0000 </r>
       <r>    9.6279    1.0000 </r>
       <r>    9.8998    1.0000 </r>
       <r>   10.0235    1.0000 </r>
       <r>   10.6244    0.9938 </r>
       <r>   16.1236    0.0000 </r>
       <r>   19.0060    0.0000 </r>
       <r>   21.4689    0.0000 </r>
       <r>   25.0750    0.0000 </r>
       <r>   25.8927    0.0000 </r>
       <r>   29.5893    0.0000 </r>
       <r>   31.9513    0.0000 </r>
       <r>   35.4922    0.0000 </r>
       <r>   35.9991    0.0000 </r>
       <r>   39.6833    0.0000 </r>
       <r>   42.4635    0.0000 </r>
       <r>   44.8782    0.0000 </r>
       <r>   47.1161    0.0000 </r>
       <r>   47.5205    0.0000 </r>
       <r>   48.9046    0.0000 </r>
       <r>   49.3011    0.0000 </r>
       <r>   52.2499    0.0000 </r>
      </set>
      <set comment="kpoint 31">
       <r>    5.7148    1.0000 </r>
       <r>    5.9905    1.0000 </r>
       <r>    6.5072    1.0000 </r>
       <r>    7.3884    1.0000 </r>
       <r>    7.9283    1.0000 </r>
       <r>    8.5448    1.0000 </r>
       <r>    8.7312    1.0000 </r>
       <r>    9.9773    1.0000 </r>
       <r>   10.0866    1.0000 </r>
       <r>   10.1249    1.0000 </r>
       <r>   11.9061    0.0000 </r>
       <r>   14.8497    0.0000 </r>
       <r>   19.5592    0.0000 </r>
       <r>   21.3846    0.0000 </r>
       <r>   24.3315    0.0000 </r>
       <r>   24.9860    0.0000 </r>
       <r>   27.0734    0.0000 </r>
       <r>   31.4705    0.0000 </r>
       <r>   35.1845    0.0000 </r>
       <r>   35.3375    0.0000 </r>
       <r>   40.0083    0.0000 </r>
       <r>   43.4580    0.0000 </r>
       <r>   44.7199    0.0000 </r>
       <r>   46.8522    0.0000 </r>
       <r>   47.6642    0.0000 </r>
       <r>   48.9422    0.0000 </r>
       <r>   51.2986    0.0000 </r>
       <r>   53.2483    0.0000 </r>
      </set>
      <set comment="kpoint 32">
       <r>    4.4061    1.0000 </r>
       <r>    6.5945    1.0000 </r>
       <r>    6.8468    1.0000 </r>
       <r>    7.0546    1.0000 </r>
       <r>    7.9833    1.0000 </r>
       <r>    8.1587    1.0000 </r>
       <r>    8.5232    1.0000 </r>
       <r>    8.9353    1.0000 </r>
       <r>    9.4813    1.0000 </r>
       <r>    9.6989    1.0000 </r>
       <r>   10.1135    1.0000 </r>
       <r>   14.9009    0.0000 </r>
       <r>   19.7959    0.0000 </r>
       <r>   23.9288    0.0000 </r>
       <r>   24.4743    0.0000 </r>
       <r>   30.1600    0.0000 </r>
       <r>   31.0293    0.0000 </r>
       <r>   34.5522    0.0000 </r>
       <r>   35.2065    0.0000 </r>
       <r>   38.5226    0.0000 </r>
       <r>   39.4603    0.0000 </r>
       <r>   41.5403    0.0000 </r>
       <r>   45.2454    0.0000 </r>
       <r>   45.4160    0.0000 </r>
       <r>   47.4420    0.0000 </r>
       <r>   47.5873    0.0000 </r>
       <r>   47.6216    0.0000 </r>
       <r>   49.2131    0.0000 </r>
      </set>
      <set comment="kpoint 33">
       <r>    5.4478    1.0000 </r>
       <r>    6.4927    1.0000 </r>
       <r>    6.5876    1.0000 </r>
       <r>    7.0489    1.0000 </r>
       <r>    7.8769    1.0000 </r>
       <r>    8.3143    1.0000 </r>
       <r>    8.3511    1.0000 </r>
       <r>    9.2268    1.0000 </r>
       <r>    9.9217    1.0000 </r>
       <r>    9.9303    1.0000 </r>
       <r>   10.7056    0.5801 </r>
       <r>   16.2763    0.0000 </r>
       <r>   20.2489    0.0000 </r>
       <r>   21.4357    0.0000 </r>
       <r>   23.0288    0.0000 </r>
       <r>   27.4209    0.0000 </r>
       <r>   29.6079    0.0000 </r>
       <r>   31.6195    0.0000 </r>
       <r>   34.0511    0.0000 </r>
       <r>   39.0088    0.0000 </r>
       <r>   40.4383    0.0000 </r>
       <r>   43.4730    0.0000 </r>
       <r>   45.2529    0.0000 </r>
       <r>   47.2219    0.0000 </r>
       <r>   47.4239    0.0000 </r>
       <r>   47.7327    0.0000 </r>
       <r>   49.0866    0.0000 </r>
       <r>   50.0711    0.0000 </r>
      </set>
      <set comment="kpoint 34">
       <r>    5.9483    1.0000 </r>
       <r>    6.3451    1.0000 </r>
       <r>    6.5142    1.0000 </r>
       <r>    7.1899    1.0000 </r>
       <r>    7.8472    1.0000 </r>
       <r>    8.2750    1.0000 </r>
       <r>    8.5511    1.0000 </r>
       <r>    9.6271    1.0000 </r>
       <r>    9.9432    1.0000 </r>
       <r>   10.1357    1.0000 </r>
       <r>   11.9173    0.0000 </r>
       <r>   16.3928    0.0000 </r>
       <r>   19.2033    0.0000 </r>
       <r>   21.9402    0.0000 </r>
       <r>   22.3515    0.0000 </r>
       <r>   25.1873    0.0000 </r>
       <r>   28.6703    0.0000 </r>
       <r>   28.9702    0.0000 </r>
       <r>   33.3406    0.0000 </r>
       <r>   38.7503    0.0000 </r>
       <r>   41.5750    0.0000 </r>
       <r>   44.0898    0.0000 </r>
       <r>   46.9464    0.0000 </r>
       <r>   47.5360    0.0000 </r>
       <r>   47.9780    0.0000 </r>
       <r>   48.3447    0.0000 </r>
       <r>   49.1277    0.0000 </r>
       <r>   51.7530    0.0000 </r>
      </set>
      <set comment="kpoint 35">
       <r>    5.9734    1.0000 </r>
       <r>    6.2514    1.0000 </r>
       <r>    6.6114    1.0000 </r>
       <r>    7.2738    1.0000 </r>
       <r>    7.7824    1.0000 </r>
       <r>    8.3436    1.0000 </r>
       <r>    8.6454    1.0000 </r>
       <r>    9.9179    1.0000 </r>
       <r>    9.9261    1.0000 </r>
       <r>   10.1126    1.0000 </r>
       <r>   13.2253    0.0000 </r>
       <r>   14.7777    0.0000 </r>
       <r>   20.6851    0.0000 </r>
       <r>   21.0836    0.0000 </r>
       <r>   21.8904    0.0000 </r>
       <r>   25.4542    0.0000 </r>
       <r>   26.8247    0.0000 </r>
       <r>   28.7005    0.0000 </r>
       <r>   33.0874    0.0000 </r>
       <r>   38.6247    0.0000 </r>
       <r>   42.1279    0.0000 </r>
       <r>   44.0847    0.0000 </r>
       <r>   47.0008    0.0000 </r>
       <r>   47.4832    0.0000 </r>
       <r>   47.6071    0.0000 </r>
       <r>   49.9890    0.0000 </r>
       <r>   50.0146    0.0000 </r>
       <r>   52.9325    0.0000 </r>
      </set>
      <set comment="kpoint 36">
       <r>    6.2323    1.0000 </r>
       <r>    6.3331    1.0000 </r>
       <r>    6.7738    1.0000 </r>
       <r>    6.8401    1.0000 </r>
       <r>    7.8261    1.0000 </r>
       <r>    8.1178    1.0000 </r>
       <r>    8.5139    1.0000 </r>
       <r>    9.4185    1.0000 </r>
       <r>    9.8943    1.0000 </r>
       <r>   10.1439    1.0000 </r>
       <r>   11.9520    0.0000 </r>
       <r>   17.4875    0.0000 </r>
       <r>   19.4091    0.0000 </r>
       <r>   20.2101    0.0000 </r>
       <r>   22.6319    0.0000 </r>
       <r>   26.6447    0.0000 </r>
       <r>   26.6771    0.0000 </r>
       <r>   30.5568    0.0000 </r>
       <r>   31.2395    0.0000 </r>
       <r>   41.4032    0.0000 </r>
       <r>   42.8811    0.0000 </r>
       <r>   43.9227    0.0000 </r>
       <r>   46.4394    0.0000 </r>
       <r>   47.3615    0.0000 </r>
       <r>   47.5785    0.0000 </r>
       <r>   47.6495    0.0000 </r>
       <r>   50.2191    0.0000 </r>
       <r>   51.4976    0.0000 </r>
      </set>
      <set comment="kpoint 37">
       <r>    6.2450    1.0000 </r>
       <r>    6.5782    1.0000 </r>
       <r>    6.6702    1.0000 </r>
       <r>    7.0380    1.0000 </r>
       <r>    7.7747    1.0000 </r>
       <r>    7.9945    1.0000 </r>
       <r>    8.6958    1.0000 </r>
       <r>    9.6982    1.0000 </r>
       <r>    9.8608    1.0000 </r>
       <r>   10.0751    1.0000 </r>
       <r>   13.6952    0.0000 </r>
       <r>   16.2433    0.0000 </r>
       <r>   18.6282    0.0000 </r>
       <r>   20.9765    0.0000 </r>
       <r>   22.8271    0.0000 </r>
       <r>   25.1733    0.0000 </r>
       <r>   26.5581    0.0000 </r>
       <r>   28.2070    0.0000 </r>
       <r>   30.5330    0.0000 </r>
       <r>   42.2945    0.0000 </r>
       <r>   43.9614    0.0000 </r>
       <r>   45.3220    0.0000 </r>
       <r>   46.8518    0.0000 </r>
       <r>   47.4842    0.0000 </r>
       <r>   47.5552    0.0000 </r>
       <r>   48.9125    0.0000 </r>
       <r>   50.7168    0.0000 </r>
       <r>   52.1478    0.0000 </r>
      </set>
      <set comment="kpoint 38">
       <r>    6.3459    1.0000 </r>
       <r>    6.7107    1.0000 </r>
       <r>    6.7107    1.0000 </r>
       <r>    6.9949    1.0000 </r>
       <r>    7.8073    1.0000 </r>
       <r>    7.8073    1.0000 </r>
       <r>    8.7771    1.0000 </r>
       <r>    9.8258    1.0000 </r>
       <r>    9.8619    1.0000 </r>
       <r>    9.8619    1.0000 </r>
       <r>   15.5819    0.0000 </r>
       <r>   16.2718    0.0000 </r>
       <r>   16.2718    0.0000 </r>
       <r>   22.4526    0.0000 </r>
       <r>   23.2873    0.0000 </r>
       <r>   23.2873    0.0000 </r>
       <r>   27.2120    0.0000 </r>
       <r>   28.3694    0.0000 </r>
       <r>   28.3694    0.0000 </r>
       <r>   43.9823    0.0000 </r>
       <r>   45.9679    0.0000 </r>
       <r>   45.9679    0.0000 </r>
       <r>   46.8734    0.0000 </r>
       <r>   46.8734    0.0000 </r>
       <r>   47.6561    0.0000 </r>
       <r>   49.0481    0.0000 </r>
       <r>   49.0481    0.0000 </r>
       <r>   52.6626    0.0000 </r>
      </set>
      <set comment="kpoint 39">
       <r>    2.2701    1.0000 </r>
       <r>    5.2608    1.0000 </r>
       <r>    7.9251    1.0000 </r>
       <r>    7.9780    1.0000 </r>
       <r>    7.9780    1.0000 </r>
       <r>    8.2599    1.0000 </r>
       <r>    8.2599    1.0000 </r>
       <r>    8.8977    1.0000 </r>
       <r>    9.1216    1.0000 </r>
       <r>    9.1216    1.0000 </r>
       <r>    9.9021    1.0000 </r>
       <r>    9.9021    1.0000 </r>
       <r>   20.5224    0.0000 </r>
       <r>   32.1075    0.0000 </r>
       <r>   33.5149    0.0000 </r>
       <r>   35.1132    0.0000 </r>
       <r>   36.4002    0.0000 </r>
       <r>   36.4002    0.0000 </r>
       <r>   37.3497    0.0000 </r>
       <r>   37.3497    0.0000 </r>
       <r>   40.5930    0.0000 </r>
       <r>   40.5930    0.0000 </r>
       <r>   42.3106    0.0000 </r>
       <r>   42.3106    0.0000 </r>
       <r>   43.7584    0.0000 </r>
       <r>   44.2389    0.0000 </r>
       <r>   47.3064    0.0000 </r>
       <r>   47.3126    0.0000 </r>
      </set>
      <set comment="kpoint 40">
       <r>    2.5089    1.0000 </r>
       <r>    5.4405    1.0000 </r>
       <r>    7.8509    1.0000 </r>
       <r>    7.9503    1.0000 </r>
       <r>    7.9941    1.0000 </r>
       <r>    8.0735    1.0000 </r>
       <r>    8.3576    1.0000 </r>
       <r>    8.6122    1.0000 </r>
       <r>    9.0862    1.0000 </r>
       <r>    9.1307    1.0000 </r>
       <r>    9.9181    1.0000 </r>
       <r>   10.4978    1.0000 </r>
       <r>   20.6619    0.0000 </r>
       <r>   31.4527    0.0000 </r>
       <r>   32.5988    0.0000 </r>
       <r>   33.7472    0.0000 </r>
       <r>   34.2739    0.0000 </r>
       <r>   35.5227    0.0000 </r>
       <r>   37.7001    0.0000 </r>
       <r>   38.6149    0.0000 </r>
       <r>   40.3728    0.0000 </r>
       <r>   41.4405    0.0000 </r>
       <r>   41.5875    0.0000 </r>
       <r>   43.7936    0.0000 </r>
       <r>   44.5746    0.0000 </r>
       <r>   46.3437    0.0000 </r>
       <r>   46.9395    0.0000 </r>
       <r>   47.1482    0.0000 </r>
      </set>
      <set comment="kpoint 41">
       <r>    3.1886    1.0000 </r>
       <r>    5.9017    1.0000 </r>
       <r>    7.3787    1.0000 </r>
       <r>    7.6353    1.0000 </r>
       <r>    7.9152    1.0000 </r>
       <r>    8.2937    1.0000 </r>
       <r>    8.4158    1.0000 </r>
       <r>    8.6281    1.0000 </r>
       <r>    9.0562    1.0000 </r>
       <r>    9.1931    1.0000 </r>
       <r>    9.9509    1.0000 </r>
       <r>   11.4906    0.0000 </r>
       <r>   21.0933    0.0000 </r>
       <r>   27.9159    0.0000 </r>
       <r>   31.3714    0.0000 </r>
       <r>   31.9435    0.0000 </r>
       <r>   33.2592    0.0000 </r>
       <r>   33.9347    0.0000 </r>
       <r>   36.7637    0.0000 </r>
       <r>   37.2228    0.0000 </r>
       <r>   41.1202    0.0000 </r>
       <r>   42.6039    0.0000 </r>
       <r>   42.6920    0.0000 </r>
       <r>   44.9714    0.0000 </r>
       <r>   46.0726    0.0000 </r>
       <r>   47.0301    0.0000 </r>
       <r>   47.2431    0.0000 </r>
       <r>   47.2894    0.0000 </r>
      </set>
      <set comment="kpoint 42">
       <r>    4.1644    1.0000 </r>
       <r>    6.2973    1.0000 </r>
       <r>    6.8605    1.0000 </r>
       <r>    7.4885    1.0000 </r>
       <r>    7.8351    1.0000 </r>
       <r>    8.3930    1.0000 </r>
       <r>    8.4846    1.0000 </r>
       <r>    9.0276    1.0000 </r>
       <r>    9.2451    1.0000 </r>
       <r>    9.3483    1.0000 </r>
       <r>    9.9851    1.0000 </r>
       <r>   12.5642    0.0000 </r>
       <r>   21.7840    0.0000 </r>
       <r>   24.2423    0.0000 </r>
       <r>   28.3816    0.0000 </r>
       <r>   29.9160    0.0000 </r>
       <r>   32.8068    0.0000 </r>
       <r>   33.6827    0.0000 </r>
       <r>   35.6548    0.0000 </r>
       <r>   35.9034    0.0000 </r>
       <r>   38.9399    0.0000 </r>
       <r>   43.1148    0.0000 </r>
       <r>   43.6829    0.0000 </r>
       <r>   46.8642    0.0000 </r>
       <r>   47.3935    0.0000 </r>
       <r>   47.8531    0.0000 </r>
       <r>   48.6042    0.0000 </r>
       <r>   49.0380    0.0000 </r>
      </set>
      <set comment="kpoint 43">
       <r>    5.0607    1.0000 </r>
       <r>    6.1917    1.0000 </r>
       <r>    6.6528    1.0000 </r>
       <r>    7.3096    1.0000 </r>
       <r>    8.1531    1.0000 </r>
       <r>    8.3189    1.0000 </r>
       <r>    8.9609    1.0000 </r>
       <r>    9.4571    1.0000 </r>
       <r>    9.6242    1.0000 </r>
       <r>    9.6723    1.0000 </r>
       <r>   10.0369    1.0000 </r>
       <r>   13.6715    0.0000 </r>
       <r>   20.6701    0.0000 </r>
       <r>   22.7997    0.0000 </r>
       <r>   25.5994    0.0000 </r>
       <r>   28.3067    0.0000 </r>
       <r>   31.6710    0.0000 </r>
       <r>   33.5862    0.0000 </r>
       <r>   34.3287    0.0000 </r>
       <r>   34.7224    0.0000 </r>
       <r>   38.1318    0.0000 </r>
       <r>   43.1853    0.0000 </r>
       <r>   43.9181    0.0000 </r>
       <r>   46.7662    0.0000 </r>
       <r>   47.5689    0.0000 </r>
       <r>   48.2523    0.0000 </r>
       <r>   50.6025    0.0000 </r>
       <r>   51.0646    0.0000 </r>
      </set>
      <set comment="kpoint 44">
       <r>    5.4265    1.0000 </r>
       <r>    5.9847    1.0000 </r>
       <r>    6.7256    1.0000 </r>
       <r>    7.0807    1.0000 </r>
       <r>    8.2323    1.0000 </r>
       <r>    8.5058    1.0000 </r>
       <r>    9.6405    1.0000 </r>
       <r>    9.7051    1.0000 </r>
       <r>    9.9792    1.0000 </r>
       <r>   10.1441    1.0000 </r>
       <r>   10.5690    1.0000 </r>
       <r>   14.3501    0.0000 </r>
       <r>   18.5958    0.0000 </r>
       <r>   21.4339    0.0000 </r>
       <r>   25.6021    0.0000 </r>
       <r>   27.2502    0.0000 </r>
       <r>   29.7524    0.0000 </r>
       <r>   33.2494    0.0000 </r>
       <r>   33.4295    0.0000 </r>
       <r>   33.8207    0.0000 </r>
       <r>   39.1943    0.0000 </r>
       <r>   42.7345    0.0000 </r>
       <r>   43.3031    0.0000 </r>
       <r>   45.6758    0.0000 </r>
       <r>   47.5977    0.0000 </r>
       <r>   48.3601    0.0000 </r>
       <r>   52.1758    0.0000 </r>
       <r>   53.7655    0.0000 </r>
      </set>
      <set comment="kpoint 45">
       <r>    5.4698    1.0000 </r>
       <r>    5.9049    1.0000 </r>
       <r>    6.8655    1.0000 </r>
       <r>    6.9172    1.0000 </r>
       <r>    8.1985    1.0000 </r>
       <r>    8.6195    1.0000 </r>
       <r>    9.7612    1.0000 </r>
       <r>    9.8414    1.0000 </r>
       <r>   10.1289    1.0000 </r>
       <r>   10.2126    1.0000 </r>
       <r>   11.6974    0.0000 </r>
       <r>   13.7861    0.0000 </r>
       <r>   19.1925    0.0000 </r>
       <r>   19.3359    0.0000 </r>
       <r>   26.8787    0.0000 </r>
       <r>   27.0849    0.0000 </r>
       <r>   27.9088    0.0000 </r>
       <r>   33.0888    0.0000 </r>
       <r>   33.1096    0.0000 </r>
       <r>   33.5915    0.0000 </r>
       <r>   40.3894    0.0000 </r>
       <r>   41.9924    0.0000 </r>
       <r>   42.5771    0.0000 </r>
       <r>   45.5298    0.0000 </r>
       <r>   47.6003    0.0000 </r>
       <r>   48.5520    0.0000 </r>
       <r>   52.4829    0.0000 </r>
       <r>   55.4627    0.0000 </r>
      </set>
      <set comment="kpoint 46">
       <r>    2.9696    1.0000 </r>
       <r>    5.7683    1.0000 </r>
       <r>    7.5438    1.0000 </r>
[...]
       </set>
       <set comment="band 28">
        <r>  0.0340  0.0416  0.0016  0.1224  0.0948  0.0012  0.0005  0.0018  0.2813 </r>
        <r>  0.0018  0.0022  0.0296  0.0065  0.0050  0.0222  0.0000  0.0349  0.0149 </r>
       </set>
      </set>
      <set comment="kpoint 93">
       <set comment="band 1">
        <r>  0.0176  0.0018  0.0202  0.0101  0.0073  0.0003  0.0081  0.4014  0.0097 </r>
        <r>  0.0977  0.0100  0.0036  0.0561  0.0406  0.0001  0.0451  0.0723  0.0540 </r>
       </set>
       <set comment="band 2">
        <r>  0.0977  0.0100  0.0036  0.0561  0.0406  0.0001  0.0451  0.0723  0.0540 </r>
        <r>  0.0176  0.0018  0.0202  0.0101  0.0073  0.0003  0.0081  0.4014  0.0097 </r>
       </set>
       <set comment="band 3">
        <r>  0.0107  0.0259  0.0203  0.0055  0.2725  0.0448  0.0037  0.0002  0.0162 </r>
        <r>  0.0149  0.0363  0.0145  0.0077  0.3823  0.0319  0.0052  0.0002  0.0227 </r>
       </set>
       <set comment="band 4">
        <r>  0.0149  0.0363  0.0145  0.0077  0.3823  0.0319  0.0052  0.0002  0.0227 </r>
        <r>  0.0107  0.0259  0.0203  0.0055  0.2725  0.0448  0.0037  0.0002  0.0162 </r>
       </set>
       <set comment="band 5">
        <r>  0.0009  0.0000  0.0057  0.0501  0.0015  0.1311  0.1647  0.0133  0.0826 </r>
        <r>  0.0009  0.0000  0.0052  0.0549  0.0017  0.1195  0.1808  0.0121  0.0907 </r>
       </set>
       <set comment="band 6">
        <r>  0.0009  0.0000  0.0052  0.0549  0.0017  0.1195  0.1808  0.0121  0.0907 </r>
        <r>  0.0009  0.0000  0.0057  0.0501  0.0015  0.1311  0.1647  0.0133  0.0826 </r>
       </set>
       <set comment="band 7">
        <r>  0.0075  0.0000  0.0000  0.0011  0.0956  0.1156  0.0315  0.0209  0.1557 </r>
        <r>  0.0023  0.0000  0.0000  0.0003  0.0291  0.3796  0.0096  0.0688  0.0474 </r>
       </set>
       <set comment="band 8">
        <r>  0.0023  0.0000  0.0000  0.0003  0.0291  0.3796  0.0096  0.0688  0.0474 </r>
        <r>  0.0075  0.0000  0.0000  0.0011  0.0956  0.1156  0.0315  0.0209  0.1557 </r>
       </set>
       <set comment="band 9">
        <r>  0.0000  0.0000  0.0034  0.0001  0.0002  0.0890  0.0100  0.2067  0.0032 </r>
        <r>  0.0000  0.0001  0.0001  0.0033  0.0090  0.0018  0.4982  0.0041  0.1606 </r>
       </set>
       <set comment="band 10">
        <r>  0.0000  0.0001  0.0001  0.0033  0.0090  0.0018  0.4982  0.0041  0.1606 </r>
        <r>  0.0000  0.0000  0.0034  0.0001  0.0002  0.0890  0.0100  0.2067  0.0032 </r>
       </set>
       <set comment="band 11">
        <r>  0.0135  0.0006  0.0652  0.0324  0.0033  0.0061  0.0002  0.1214  0.0627 </r>
        <r>  0.0668  0.0030  0.0131  0.1609  0.0163  0.0012  0.0010  0.0245  0.3110 </r>
       </set>
       <set comment="band 12">
        <r>  0.0668  0.0030  0.0131  0.1609  0.0163  0.0012  0.0010  0.0245  0.3110 </r>
        <r>  0.0135  0.0006  0.0652  0.0324  0.0033  0.0061  0.0002  0.1214  0.0627 </r>
       </set>
       <set comment="band 13">
        <r>  0.0001  0.1061  0.0446  0.0027  0.1117  0.0294  0.0008  0.0467  0.0005 </r>
        <r>  0.0002  0.2101  0.0225  0.0053  0.2211  0.0149  0.0015  0.0236  0.0009 </r>
       </set>
       <set comment="band 14">
        <r>  0.0002  0.2101  0.0225  0.0053  0.2211  0.0149  0.0015  0.0236  0.0009 </r>
        <r>  0.0001  0.1061  0.0446  0.0027  0.1117  0.0294  0.0008  0.0467  0.0005 </r>
       </set>
       <set comment="band 15">
        <r>  0.0598  0.0002  0.0038  0.0268  0.0002  0.1084  0.0103  0.0787  0.0000 </r>
        <r>  0.3158  0.0013  0.0007  0.1414  0.0011  0.0205  0.0543  0.0149  0.0001 </r>
       </set>
       <set comment="band 16">
        <r>  0.3158  0.0013  0.0007  0.1414  0.0011  0.0205  0.0543  0.0149  0.0001 </r>
        <r>  0.0598  0.0002  0.0038  0.0268  0.0002  0.1084  0.0103  0.0787  0.0000 </r>
       </set>
       <set comment="band 17">
        <r>  0.0011  0.0000  0.2555  0.0018  0.0001  0.0304  0.0023  0.0969  0.0007 </r>
        <r>  0.0433  0.0000  0.0063  0.0710  0.0023  0.0008  0.0941  0.0024  0.0264 </r>
       </set>
       <set comment="band 18">
        <r>  0.0433  0.0000  0.0063  0.0710  0.0023  0.0008  0.0941  0.0024  0.0264 </r>
        <r>  0.0011  0.0000  0.2555  0.0018  0.0001  0.0304  0.0023  0.0969  0.0007 </r>
       </set>
       <set comment="band 19">
        <r>  0.0038  0.0251  0.0500  0.0066  0.0496  0.0735  0.0274  0.0580  0.0063 </r>
        <r>  0.0054  0.0356  0.0353  0.0094  0.0702  0.0519  0.0388  0.0409  0.0090 </r>
       </set>
       <set comment="band 20">
        <r>  0.0054  0.0356  0.0353  0.0094  0.0702  0.0519  0.0388  0.0409  0.0090 </r>
        <r>  0.0038  0.0251  0.0500  0.0066  0.0496  0.0735  0.0274  0.0580  0.0063 </r>
       </set>
       <set comment="band 21">
        <r>  0.0002  0.0001  0.0804  0.0003  0.0003  0.0045  0.0019  0.2110  0.0003 </r>
        <r>  0.0314  0.0084  0.0006  0.0489  0.0444  0.0000  0.2680  0.0015  0.0385 </r>
       </set>
       <set comment="band 22">
        <r>  0.0314  0.0084  0.0006  0.0489  0.0444  0.0000  0.2680  0.0015  0.0385 </r>
        <r>  0.0002  0.0001  0.0804  0.0003  0.0003  0.0045  0.0019  0.2110  0.0003 </r>
       </set>
       <set comment="band 23">
        <r>  0.0007  0.1357  0.0311  0.0007  0.1007  0.0153  0.0000  0.0067  0.0000 </r>
        <r>  0.0007  0.1353  0.0312  0.0007  0.1004  0.0154  0.0000  0.0067  0.0000 </r>
       </set>
       <set comment="band 24">
        <r>  0.0007  0.1353  0.0312  0.0007  0.1004  0.0154  0.0000  0.0067  0.0000 </r>
        <r>  0.0007  0.1357  0.0311  0.0007  0.1007  0.0153  0.0000  0.0067  0.0000 </r>
       </set>
       <set comment="band 25">
        <r>  0.0542  0.0000  0.0074  0.0001  0.0001  0.2784  0.0000  0.0532  0.0058 </r>
        <r>  1.7594  0.0001  0.0002  0.0020  0.0017  0.0086  0.0011  0.0016  0.1866 </r>
       </set>
       <set comment="band 26">
        <r>  1.7594  0.0001  0.0002  0.0020  0.0017  0.0086  0.0011  0.0016  0.1866 </r>
        <r>  0.0542  0.0000  0.0074  0.0001  0.0001  0.2784  0.0000  0.0532  0.0058 </r>
       </set>
       <set comment="band 27">
        <r>  0.0257  0.0000  0.0078  0.0000  0.0000  0.1270  0.0000  0.0188  0.0004 </r>
        <r>  4.5078  0.0000  0.0000  0.0015  0.0004  0.0007  0.0007  0.0001  0.0756 </r>
       </set>
       <set comment="band 28">
        <r>  4.5078  0.0000  0.0000  0.0015  0.0004  0.0007  0.0007  0.0001  0.0756 </r>
        <r>  0.0257  0.0000  0.0078  0.0000  0.0000  0.1270  0.0000  0.0188  0.0004 </r>
       </set>
      </set>
      <set comment="kpoint 94">
       <set comment="band 1">
        <r>  0.0422  0.0174  0.0013  0.0246  0.0742  0.0148  0.0475  0.1601  0.0402 </r>
        <r>  0.0233  0.0096  0.0024  0.0136  0.0409  0.0268  0.0262  0.2902  0.0222 </r>
       </set>
       <set comment="band 2">
        <r>  0.0233  0.0096  0.0024  0.0136  0.0409  0.0268  0.0262  0.2902  0.0222 </r>
        <r>  0.0422  0.0174  0.0013  0.0246  0.0742  0.0148  0.0475  0.1601  0.0402 </r>
       </set>
       <set comment="band 3">
        <r>  0.0020  0.0062  0.0068  0.0003  0.0392  0.2207  0.0218  0.0654  0.0023 </r>
        <r>  0.0146  0.0445  0.0009  0.0024  0.2804  0.0309  0.1562  0.0092  0.0163 </r>
       </set>
       <set comment="band 4">
        <r>  0.0146  0.0445  0.0009  0.0024  0.2804  0.0309  0.1562  0.0092  0.0163 </r>
        <r>  0.0020  0.0062  0.0068  0.0003  0.0392  0.2207  0.0218  0.0654  0.0023 </r>
       </set>
       <set comment="band 5">
        <r>  0.0001  0.0003  0.0421  0.0016  0.0025  0.1677  0.0007  0.0067  0.0036 </r>
        <r>  0.0076  0.0244  0.0006  0.1195  0.1902  0.0022  0.0542  0.0001  0.2753 </r>
       </set>
       <set comment="band 6">
        <r>  0.0076  0.0244  0.0006  0.1195  0.1902  0.0022  0.0542  0.0001  0.2753 </r>
        <r>  0.0001  0.0003  0.0421  0.0016  0.0025  0.1677  0.0007  0.0067  0.0036 </r>
       </set>
       <set comment="band 7">
        <r>  0.0018  0.0014  0.0007  0.0063  0.0874  0.1522  0.0113  0.0618  0.1610 </r>
        <r>  0.0016  0.0013  0.0008  0.0056  0.0781  0.1704  0.0101  0.0692  0.1438 </r>
       </set>
       <set comment="band 8">
        <r>  0.0016  0.0013  0.0008  0.0056  0.0781  0.1704  0.0101  0.0692  0.1438 </r>
        <r>  0.0018  0.0014  0.0007  0.0063  0.0874  0.1522  0.0113  0.0618  0.1610 </r>
       </set>
       <set comment="band 9">
        <r>  0.0001  0.0000  0.0011  0.0001  0.0006  0.0997  0.0359  0.1726  0.0028 </r>
        <r>  0.0013  0.0002  0.0001  0.0017  0.0095  0.0060  0.5988  0.0103  0.0465 </r>
       </set>
       <set comment="band 10">
        <r>  0.0013  0.0002  0.0001  0.0017  0.0095  0.0060  0.5988  0.0103  0.0465 </r>
        <r>  0.0001  0.0000  0.0011  0.0001  0.0006  0.0997  0.0359  0.1726  0.0028 </r>
       </set>
       <set comment="band 11">
        <r>  0.0036  0.0031  0.0994  0.0284  0.0043  0.0095  0.0002  0.0584  0.0330 </r>
        <r>  0.0308  0.0262  0.0117  0.2424  0.0368  0.0011  0.0015  0.0069  0.2809 </r>
       </set>
       <set comment="band 12">
        <r>  0.0308  0.0262  0.0117  0.2424  0.0368  0.0011  0.0015  0.0069  0.2809 </r>
        <r>  0.0036  0.0031  0.0994  0.0284  0.0043  0.0095  0.0002  0.0584  0.0330 </r>
       </set>
       <set comment="band 13">
        <r>  0.0720  0.1259  0.0187  0.0094  0.1399  0.0257  0.0039  0.0501  0.0092 </r>
        <r>  0.0584  0.1022  0.0231  0.0077  0.1135  0.0316  0.0032  0.0617  0.0075 </r>
       </set>
       <set comment="band 14">
        <r>  0.0584  0.1022  0.0231  0.0077  0.1135  0.0316  0.0032  0.0617  0.0075 </r>
        <r>  0.0720  0.1259  0.0187  0.0094  0.1399  0.0257  0.0039  0.0501  0.0092 </r>
       </set>
       <set comment="band 15">
        <r>  0.1314  0.0317  0.0080  0.0258  0.0155  0.0878  0.0166  0.0500  0.0022 </r>
        <r>  0.2266  0.0547  0.0046  0.0445  0.0268  0.0509  0.0285  0.0290  0.0038 </r>
       </set>
       <set comment="band 16">
        <r>  0.2266  0.0547  0.0046  0.0445  0.0268  0.0509  0.0285  0.0290  0.0038 </r>
        <r>  0.1314  0.0317  0.0080  0.0258  0.0155  0.0878  0.0166  0.0500  0.0022 </r>
       </set>
       <set comment="band 17">
        <r>  0.0002  0.0002  0.2515  0.0021  0.0001  0.0467  0.0006  0.0981  0.0008 </r>
        <r>  0.0109  0.0079  0.0054  0.0977  0.0040  0.0010  0.0262  0.0021  0.0372 </r>
       </set>
       <set comment="band 18">
        <r>  0.0109  0.0079  0.0054  0.0977  0.0040  0.0010  0.0262  0.0021  0.0372 </r>
        <r>  0.0002  0.0002  0.2515  0.0021  0.0001  0.0467  0.0006  0.0981  0.0008 </r>
       </set>
       <set comment="band 19">
        <r>  0.0016  0.0055  0.1334  0.0001  0.0084  0.1031  0.0055  0.1541  0.0008 </r>
        <r>  0.0188  0.0631  0.0116  0.0015  0.0971  0.0090  0.0636  0.0134  0.0095 </r>
       </set>
       <set comment="band 20">
        <r>  0.0188  0.0631  0.0116  0.0015  0.0971  0.0090  0.0636  0.0134  0.0095 </r>
        <r>  0.0016  0.0055  0.1334  0.0001  0.0084  0.1031  0.0055  0.1541  0.0008 </r>
       </set>
       <set comment="band 21">
        <r>  0.0019  0.0013  0.0448  0.0011  0.0001  0.0602  0.0124  0.0889  0.0003 </r>
        <r>  0.0508  0.0344  0.0017  0.0281  0.0026  0.0023  0.3295  0.0033  0.0068 </r>
       </set>
       <set comment="band 22">
        <r>  0.0508  0.0344  0.0017  0.0281  0.0026  0.0023  0.3295  0.0033  0.0068 </r>
        <r>  0.0019  0.0013  0.0448  0.0011  0.0001  0.0602  0.0124  0.0889  0.0003 </r>
       </set>
       <set comment="band 23">
        <r>  0.0202  0.0185  0.0311  0.0011  0.0303  0.1058  0.0006  0.0442  0.0048 </r>
        <r>  0.1442  0.1320  0.0044  0.0078  0.2161  0.0148  0.0042  0.0062  0.0345 </r>
       </set>
       <set comment="band 24">
        <r>  0.1442  0.1320  0.0044  0.0078  0.2161  0.0148  0.0042  0.0062  0.0345 </r>
        <r>  0.0202  0.0185  0.0311  0.0011  0.0303  0.1058  0.0006  0.0442  0.0048 </r>
       </set>
       <set comment="band 25">
        <r>  0.2120  0.0026  0.0093  0.0008  0.0024  0.0870  0.0005  0.0187  0.0059 </r>
        <r>  2.9732  0.0364  0.0007  0.0115  0.0338  0.0062  0.0065  0.0013  0.0822 </r>
       </set>
       <set comment="band 26">
        <r>  2.9732  0.0364  0.0007  0.0115  0.0338  0.0062  0.0065  0.0013  0.0822 </r>
        <r>  0.2120  0.0026  0.0093  0.0008  0.0024  0.0870  0.0005  0.0187  0.0059 </r>
       </set>
       <set comment="band 27">
        <r>  0.1072  0.0008  0.0203  0.0026  0.0009  0.0978  0.0000  0.0021  0.0089 </r>
        <r>  2.4186  0.0172  0.0009  0.0594  0.0202  0.0043  0.0008  0.0001  0.2009 </r>
       </set>
       <set comment="band 28">
        <r>  2.4186  0.0172  0.0009  0.0594  0.0202  0.0043  0.0008  0.0001  0.2009 </r>
        <r>  0.1072  0.0008  0.0203  0.0026  0.0009  0.0978  0.0000  0.0021  0.0089 </r>
       </set>
      </set>
      <set comment="kpoint 95">
       <set comment="band 1">
        <r>  0.0000  0.0359  0.0000  0.0359  0.0796  0.0984  0.0000  0.0984  0.0796 </r>
        <r>  0.0000  0.0312  0.0000  0.0312  0.0693  0.1130  0.0000  0.1130  0.0693 </r>
       </set>
       <set comment="band 2">
        <r>  0.0000  0.0312  0.0000  0.0312  0.0693  0.1130  0.0000  0.1130  0.0693 </r>
        <r>  0.0000  0.0359  0.0000  0.0359  0.0796  0.0984  0.0000  0.0984  0.0796 </r>
       </set>
       <set comment="band 3">
        <r>  0.0671  0.0000  0.0000  0.0000  0.0000  0.0167  0.2533  0.0167  0.0000 </r>
        <r>  0.0040  0.0000  0.0000  0.0000  0.0000  0.2795  0.0151  0.2795  0.0000 </r>
       </set>
       <set comment="band 4">
        <r>  0.0040  0.0000  0.0000  0.0000  0.0000  0.2795  0.0151  0.2795  0.0000 </r>
        <r>  0.0671  0.0000  0.0000  0.0000  0.0000  0.0167  0.2533  0.0167  0.0000 </r>
       </set>
       <set comment="band 5">
        <r>  0.0000  0.0028  0.0478  0.0028  0.0141  0.0000  0.0000  0.0000  0.0141 </r>
        <r>  0.0000  0.0695  0.0020  0.0695  0.3441  0.0000  0.0000  0.0000  0.3441 </r>
       </set>
       <set comment="band 6">
        <r>  0.0000  0.0695  0.0020  0.0695  0.3441  0.0000  0.0000  0.0000  0.3441 </r>
        <r>  0.0000  0.0028  0.0478  0.0028  0.0141  0.0000  0.0000  0.0000  0.0141 </r>
       </set>
       <set comment="band 7">
        <r>  0.0000  0.0041  0.0000  0.0041  0.2591  0.0001  0.0000  0.0001  0.2591 </r>
        <r>  0.0000  0.0000  0.0000  0.0000  0.0001  0.2197  0.0000  0.2197  0.0001 </r>
       </set>
       <set comment="band 8">
        <r>  0.0000  0.0000  0.0000  0.0000  0.0001  0.2197  0.0000  0.2197  0.0001 </r>
        <r>  0.0000  0.0041  0.0000  0.0041  0.2591  0.0001  0.0000  0.0001  0.2591 </r>
       </set>
       <set comment="band 9">
        <r>  0.0013  0.0000  0.0000  0.0000  0.0000  0.0959  0.2284  0.0959  0.0000 </r>
        <r>  0.0026  0.0000  0.0000  0.0000  0.0000  0.0468  0.4683  0.0468  0.0000 </r>
       </set>
       <set comment="band 10">
        <r>  0.0026  0.0000  0.0000  0.0000  0.0000  0.0468  0.4683  0.0468  0.0000 </r>
        <r>  0.0013  0.0000  0.0000  0.0000  0.0000  0.0959  0.2284  0.0959  0.0000 </r>
       </set>
       <set comment="band 11">
        <r>  0.0000  0.0282  0.1447  0.0282  0.0307  0.0000  0.0000  0.0000  0.0307 </r>
        <r>  0.0000  0.1411  0.0289  0.1411  0.1536  0.0000  0.0000  0.0000  0.1536 </r>
       </set>
       <set comment="band 12">
        <r>  0.0000  0.1411  0.0289  0.1411  0.1536  0.0000  0.0000  0.0000  0.1536 </r>
        <r>  0.0000  0.0282  0.1447  0.0282  0.0307  0.0000  0.0000  0.0000  0.0307 </r>
       </set>
       <set comment="band 13">
        <r>  0.0000  0.1024  0.0000  0.1024  0.0789  0.0412  0.0000  0.0412  0.0789 </r>
        <r>  0.0000  0.0804  0.0000  0.0804  0.0619  0.0525  0.0000  0.0525  0.0619 </r>
       </set>
       <set comment="band 14">
        <r>  0.0000  0.0804  0.0000  0.0804  0.0619  0.0525  0.0000  0.0525  0.0619 </r>
        <r>  0.0000  0.1024  0.0000  0.1024  0.0789  0.0412  0.0000  0.0412  0.0789 </r>
       </set>
       <set comment="band 15">
        <r>  0.2921  0.0000  0.0000  0.0000  0.0000  0.0631  0.0255  0.0631  0.0000 </r>
        <r>  0.2559  0.0000  0.0000  0.0000  0.0000  0.0720  0.0223  0.0720  0.0000 </r>
       </set>
       <set comment="band 16">
        <r>  0.2559  0.0000  0.0000  0.0000  0.0000  0.0720  0.0223  0.0720  0.0000 </r>
        <r>  0.2921  0.0000  0.0000  0.0000  0.0000  0.0631  0.0255  0.0631  0.0000 </r>
       </set>
       <set comment="band 17">
        <r>  0.0000  0.0043  0.4104  0.0043  0.0036  0.0000  0.0000  0.0000  0.0036 </r>
        <r>  0.0000  0.0500  0.0354  0.0500  0.0418  0.0000  0.0000  0.0000  0.0418 </r>
       </set>
       <set comment="band 18">
        <r>  0.0000  0.0500  0.0354  0.0500  0.0418  0.0000  0.0000  0.0000  0.0418 </r>
        <r>  0.0000  0.0043  0.4104  0.0043  0.0036  0.0000  0.0000  0.0000  0.0036 </r>
       </set>
       <set comment="band 19">
        <r>  0.0000  0.0023  0.0000  0.0023  0.0010  0.1974  0.0000  0.1974  0.0010 </r>
        <r>  0.0000  0.0558  0.0000  0.0558  0.0244  0.0080  0.0000  0.0080  0.0244 </r>
       </set>
       <set comment="band 20">
        <r>  0.0000  0.0558  0.0000  0.0558  0.0244  0.0080  0.0000  0.0080  0.0244 </r>
        <r>  0.0000  0.0023  0.0000  0.0023  0.0010  0.1974  0.0000  0.1974  0.0010 </r>
       </set>
       <set comment="band 21">
        <r>  0.0014  0.0000  0.0000  0.0000  0.0000  0.1026  0.0062  0.1026  0.0000 </r>
        <r>  0.1025  0.0000  0.0000  0.0000  0.0000  0.0014  0.4468  0.0014  0.0000 </r>
       </set>
       <set comment="band 22">
        <r>  0.1025  0.0000  0.0000  0.0000  0.0000  0.0014  0.4468  0.0014  0.0000 </r>
        <r>  0.0014  0.0000  0.0000  0.0000  0.0000  0.1026  0.0062  0.1026  0.0000 </r>
       </set>
       <set comment="band 23">
        <r>  0.0000  0.0017  0.0000  0.0017  0.0042  0.0727  0.0000  0.0727  0.0042 </r>
        <r>  0.0000  0.0805  0.0000  0.0805  0.2014  0.0015  0.0000  0.0015  0.2014 </r>
       </set>
       <set comment="band 24">
        <r>  0.0000  0.0805  0.0000  0.0805  0.2014  0.0015  0.0000  0.0015  0.2014 </r>
        <r>  0.0000  0.0017  0.0000  0.0017  0.0042  0.0727  0.0000  0.0727  0.0042 </r>
       </set>
       <set comment="band 25">
        <r>  0.0000  0.0024  0.0744  0.0024  0.0035  0.0000  0.0000  0.0000  0.0035 </r>
        <r>  0.0000  0.1111  0.0016  0.1111  0.1653  0.0000  0.0000  0.0000  0.1653 </r>
       </set>
       <set comment="band 26">
        <r>  0.0000  0.1111  0.0016  0.1111  0.1653  0.0000  0.0000  0.0000  0.1653 </r>
        <r>  0.0000  0.0024  0.0744  0.0024  0.0035  0.0000  0.0000  0.0000  0.0035 </r>
       </set>
       <set comment="band 27">
        <r>  4.2240  0.0000  0.0000  0.0000  0.0000  0.0055  0.0092  0.0055  0.0000 </r>
        <r>  0.5470  0.0000  0.0000  0.0000  0.0000  0.0427  0.0012  0.0427  0.0000 </r>
       </set>
       <set comment="band 28">
        <r>  0.5470  0.0000  0.0000  0.0000  0.0000  0.0427  0.0012  0.0427  0.0000 </r>
        <r>  4.2240  0.0000  0.0000  0.0000  0.0000  0.0055  0.0092  0.0055  0.0000 </r>
       </set>
      </set>
     </set>
    </set>
   </array>
  </projected>
 </calculation>
 <structure name="finalpos" >
  <crystal>
   <varray name="basis" >
    <v>       1.23367643      -2.13679025       0.00000000 </v>
    <v>       1.23367643       2.13679025       0.00000000 </v>
    <v>       0.00000000       0.00000000       3.97995684 </v>
   </varray>
   <i name="volume">     20.98319026 </i>
   <varray name="rec_basis" >
    <v>       0.40529266      -0.23399583       0.00000000 </v>
    <v>       0.40529266       0.23399583       0.00000000 </v>
    <v>       0.00000000       0.00000000       0.25125901 </v>
   </varray>
  </crystal>
  <varray name="positions" >
   <v>       0.33333333       0.66666667       0.25000000 </v>
   <v>       0.66666667       0.33333333       0.75000000 </v>
  </varray>
 </structure>
</modeling>
