Co-hcc                                  
   1.00000000000000     
     2.533332    0.000000    0.000000
    -1.266666    2.193930    0.000000
     0.000000    0.000000    4.098828
   Co
     2
Direct
  0.000000  0.000000  0.000000
  0.333333  0.666667  0.500000
 
   36   36   56
  216.18      212.22      200.82      183.20      161.15      136.67      111.66      87.738      66.172      47.831    
  33.214      22.445      15.269      11.079      8.9955      8.0074      7.3714      6.9957      6.8724      6.9957    
  7.3714      8.0074      8.9955      11.079      15.269      22.445      33.214      47.831      66.172      87.738    
  111.66      136.67      161.15      183.20      200.82      212.22      212.22      212.22      204.55      190.05    
  170.26      147.06      122.43      98.105      75.526      55.747      39.452      26.951      18.178      12.694    
  9.7443      8.3659      7.6022      7.1012      6.8554      6.8554      7.1012      7.6022      8.3659      9.7443    
  12.694      18.178      26.951      39.452      55.747      75.526      98.105      122.43      147.06      170.26    
  190.05      204.55      200.82      204.54      200.82      190.05      173.41      152.55      129.37      105.65    
  82.958      62.498      45.123      31.322      21.209      14.527      10.669      8.7668      7.8379      7.2233    
  6.8617      6.7432      6.8617      7.2233      7.8379      8.7668      10.669      14.527      21.209      31.322    
  45.123      62.498      82.958      105.65      129.37      152.55      173.41      190.05      183.20      190.04    
  190.04      183.20      170.26      152.55      131.77      109.63      87.744      67.425      49.664      35.107    
  24.043      16.386      11.696      9.2292      8.0629      7.3518      6.8868      6.6598      6.6598      6.8868    
  7.3518      8.0629      9.2292      11.696      16.386      24.043      35.107      49.664      67.425      87.744    
  109.63      131.77      152.55      170.26      161.15      170.24      173.38      170.24      161.15      147.06    
  129.37      109.63      89.397      70.024      52.599      37.897      26.354      18.050      12.707      9.7237    
  8.2750      7.4757      6.9235      6.6023      6.4975      6.6023      6.9235      7.4757      8.2750      9.7236    
  12.707      18.050      26.354      37.897      52.599      70.024      89.397      109.63      129.37      147.06    
  136.67      147.05      152.52      152.52      147.05      136.67      122.43      105.65      87.744      70.024    
  53.614      39.376      27.865      19.302      13.561      10.189      8.4761      7.5850      6.9642      6.5654    
  6.3728      6.3728      6.5654      6.9642      7.5850      8.4761      10.189      13.561      19.302      27.865    
  39.376      53.614      70.024      87.744      105.65      122.43      111.66      122.41      129.33      131.72    
  129.33      122.41      111.66      98.105      82.958      67.425      52.599      39.376      28.390      19.974    
  14.133      10.552      8.6486      7.6719      7.0022      6.5436      6.2810      6.1960      6.2810      6.5436    
  7.0022      7.6719      8.6486      10.552      14.133      19.974      28.390      39.376      52.599      67.425    
  82.958      98.105      87.738      98.090      105.62      109.59      109.59      105.62      98.090      87.738    
  75.526      62.498      49.664      37.897      27.865      19.974      14.334      10.752      8.7666      7.7318    
  7.0324      6.5317      6.2168      6.0665      6.0665      6.2168      6.5317      7.0324      7.7318      8.7666    
  10.752      14.334      19.974      27.865      37.897      49.664      62.498      75.526      66.172      75.521    
  82.942      87.717      89.366      87.717      82.942      75.521      66.172      55.747      45.123      35.107    
  26.354      19.302      14.133      10.752      8.8087      7.7625      7.0515      6.5257      6.1749      5.9773    
  5.9139      5.9773      6.1749      6.5257      7.0515      7.7625      8.8087      10.752      14.133      19.302    
  26.354      35.107      45.123      55.747      47.831      55.756      62.505      67.425      70.020      70.020    
  67.425      62.505      55.756      47.831      39.452      31.322      24.043      18.050      13.561      10.552    
  8.7666      7.7625      7.0580      6.5233      6.1514      5.9220      5.8137      5.8137      5.9220      6.1514    
  6.5233      7.0580      7.7625      8.7666      10.552      13.561      18.050      24.043      31.322      39.452    
  33.214      39.475      45.158      49.702      52.636      53.651      52.636      49.702      45.158      39.475    
  33.214      26.951      21.209      16.386      12.707      10.189      8.6486      7.7318      7.0515      6.5233    
  6.1439      5.8957      5.7575      5.7134      5.7575      5.8957      6.1439      6.5233      7.0515      7.7318    
  8.6486      10.189      12.707      16.386      21.209      26.951      22.445      26.988      31.384      35.185    
  37.982      39.464      39.464      37.982      35.185      31.384      26.988      22.445      18.178      14.527    
  11.696      9.7236      8.4761      7.6719      7.0324      6.5257      6.1514      5.8957      5.7395      5.6662    
  5.6662      5.7395      5.8957      6.1514      6.5257      7.0324      7.6719      8.4761      9.7236      11.696    
  14.527      18.178      15.269      18.225      21.294      24.155      26.485      28.006      28.535      28.006    
  26.485      24.155      21.294      18.225      15.269      12.694      10.669      9.2292      8.2750      7.5850    
  7.0022      6.5317      6.1749      5.9220      5.7575      5.6662      5.6370      5.6662      5.7575      5.9220    
  6.1749      6.5317      7.0022      7.5850      8.2750      9.2292      10.669      12.694      11.079      12.748    
  14.627      16.526      18.218      19.490      20.171      20.171      19.490      18.218      16.526      14.627    
  12.748      11.079      9.7443      8.7668      8.0629      7.4757      6.9642      6.5436      6.2168      5.9773    
  5.8137      5.7134      5.6662      5.6662      5.7134      5.8137      5.9773      6.2168      6.5436      6.9642    
  7.4757      8.0629      8.7668      9.7443      8.9955      9.8005      10.777      11.851      12.900      13.783    
  14.372      14.579      14.372      13.783      12.900      11.851      10.777      9.8005      8.9955      8.3659    
  7.8379      7.3518      6.9235      6.5654      6.2810      6.0665      5.9139      5.8137      5.7575      5.7395    
  5.7575      5.8137      5.9139      6.0665      6.2810      6.5654      6.9235      7.3518      7.8379      8.3659    
  8.0074      8.4233      8.8794      9.3926      9.9312      10.432      10.820      11.032      11.032      10.820    
  10.432      9.9312      9.3926      8.8794      8.4233      8.0074      7.6022      7.2233      6.8868      6.6023    
  6.3728      6.1960      6.0665      5.9773      5.9220      5.8957      5.8957      5.9220      5.9773      6.0665    
  6.1960      6.3728      6.6023      6.8868      7.2233      7.6022      7.3714      7.6602      7.9520      8.2297    
  8.4892      8.7302      8.9329      9.0697      9.1182      9.0697      8.9329      8.7302      8.4892      8.2297    
  7.9520      7.6602      7.3714      7.1012      6.8617      6.6598      6.4975      6.3728      6.2810      6.2168    
  6.1749      6.1514      6.1439      6.1514      6.1749      6.2168      6.2810      6.3728      6.4975      6.6598    
  6.8617      7.1012      6.9957      7.1597      7.3386      7.5209      7.6939      7.8456      7.9665      8.0501    
  8.0929      8.0929      8.0501      7.9665      7.8456      7.6939      7.5209      7.3386      7.1597      6.9957    
  6.8554      6.7432      6.6598      6.6023      6.5654      6.5436      6.5317      6.5257      6.5233      6.5233    
  6.5257      6.5317      6.5436      6.5654      6.6023      6.6598      6.7432      6.8554      6.8724      6.9141    
  6.9779      7.0577      7.1449      7.2301      7.3049      7.3625      7.3986      7.4109      7.3986      7.3625    
  7.3049      7.2301      7.1449      7.0577      6.9779      6.9141      6.8724      6.8554      6.8617      6.8868    
  6.9235      6.9642      7.0022      7.0324      7.0515      7.0580      7.0515      7.0324      7.0022      6.9642    
  6.9235      6.8868      6.8617      6.8554      6.9957      6.9141      6.8597      6.8317      6.8258      6.8351    
  6.8525      6.8714      6.8865      6.8949      6.8949      6.8865      6.8714      6.8525      6.8351      6.8258    
  6.8317      6.8597      6.9141      6.9957      7.1012      7.2233      7.3518      7.4757      7.5850      7.6719    
  7.7318      7.7625      7.7625      7.7318      7.6719      7.5850      7.4757      7.3518      7.2233      7.1012    
  7.3714      7.1597      6.9779      6.8317      6.7218      6.6446      6.5940      6.5633      6.5462      6.5379    
  6.5354      6.5379      6.5462      6.5633      6.5940      6.6446      6.7218      6.8317      6.9779      7.1597    
  7.3714      7.6022      7.8379      8.0629      8.2750      8.4761      8.6486      8.7666      8.8087      8.7666    
  8.6486      8.4761      8.2750      8.0629      7.8379      7.6022      8.0074      7.6602      7.3386      7.0577    
  6.8258      6.6446      6.5105      6.4167      6.3552      6.3188      6.3020      6.3020      6.3188      6.3552    
  6.4167      6.5105      6.6446      6.8258      7.0577      7.3386      7.6602      8.0074      8.3659      8.7668    
  9.2292      9.7236      10.189      10.552      10.752      10.752      10.552      10.189      9.7237      9.2292    
  8.7668      8.3659      8.9955      8.4233      7.9520      7.5209      7.1449      6.8351      6.5940      6.4167    
  6.2941      6.2159      6.1731      6.1596      6.1731      6.2159      6.2941      6.4167      6.5940      6.8351    
  7.1449      7.5209      7.9520      8.4233      8.9955      9.7443      10.669      11.696      12.707      13.561    
  14.133      14.334      14.133      13.561      12.707      11.696      10.669      9.7443      11.079      9.8005    
  8.8794      8.2297      7.6939      7.2301      6.8525      6.5633      6.3552      6.2159      6.1322      6.0933    
  6.0933      6.1322      6.2159      6.3552      6.5633      6.8525      7.2301      7.6939      8.2297      8.8794    
  9.8005      11.079      12.694      14.527      16.386      18.050      19.302      19.974      19.974      19.302    
  18.050      16.386      14.527      12.694      15.269      12.748      10.777      9.3926      8.4892      7.8456    
  7.3049      6.8714      6.5462      6.3188      6.1731      6.0933      6.0680      6.0933      6.1731      6.3188    
  6.5462      6.8714      7.3049      7.8456      8.4892      9.3926      10.777      12.748      15.269      18.178    
  21.209      24.043      26.354      27.865      28.390      27.865      26.354      24.043      21.209      18.178    
  22.445      18.225      14.627      11.851      9.9312      8.7302      7.9665      7.3625      6.8865      6.5378    
  6.3020      6.1596      6.0933      6.0933      6.1596      6.3020      6.5379      6.8865      7.3625      7.9665    
  8.7302      9.9312      11.851      14.627      18.225      22.445      26.951      31.322      35.107      37.897    
  39.376      39.376      37.897      35.107      31.322      26.951      33.214      26.988      21.294      16.526    
  12.900      10.432      8.9329      8.0501      7.3986      6.8949      6.5354      6.3020      6.1731      6.1322    
  6.1731      6.3020      6.5354      6.8949      7.3986      8.0501      8.9329      10.432      12.900      16.526    
  21.294      26.988      33.214      39.452      45.123      49.664      52.599      53.614      52.599      49.664    
  45.123      39.452      47.831      39.475      31.384      24.155      18.218      13.783      10.820      9.0697    
  8.0929      7.4109      6.8949      6.5378      6.3188      6.2159      6.2159      6.3188      6.5379      6.8949    
  7.4109      8.0929      9.0697      10.820      13.783      18.218      24.155      31.384      39.475      47.831    
  55.747      62.498      67.425      70.024      70.024      67.425      62.498      55.747      66.172      55.756    
  45.158      35.185      26.485      19.490      14.372      11.032      9.1182      8.0929      7.3986      6.8865    
  6.5462      6.3552      6.2941      6.3552      6.5462      6.8865      7.3986      8.0929      9.1182      11.032    
  14.372      19.490      26.485      35.185      45.158      55.756      66.172      75.526      82.958      87.744    
  89.397      87.744      82.958      75.526      87.738      75.521      62.505      49.702      37.982      28.006    
  20.171      14.579      11.032      9.0697      8.0501      7.3625      6.8714      6.5633      6.4167      6.4167    
  6.5633      6.8714      7.3625      8.0501      9.0697      11.032      14.579      20.171      28.006      37.982    
  49.702      62.505      75.521      87.738      98.105      105.65      109.63      109.63      105.65      98.105    
  111.66      98.090      82.942      67.425      52.636      39.464      28.535      20.171      14.372      10.820    
  8.9329      7.9665      7.3049      6.8525      6.5940      6.5105      6.5940      6.8525      7.3049      7.9665    
  8.9329      10.820      14.372      20.171      28.535      39.464      52.636      67.425      82.942      98.090    
  111.66      122.43      129.37      131.77      129.37      122.43      136.67      122.41      105.62      87.717    
  70.020      53.651      39.464      28.006      19.490      13.783      10.432      8.7302      7.8456      7.2301    
  6.8351      6.6446      6.6446      6.8351      7.2301      7.8456      8.7302      10.432      13.783      19.490    
  28.006      39.464      53.651      70.020      87.717      105.62      122.41      136.67      147.06      152.55    
  152.55      147.06      161.15      147.05      129.33      109.59      89.366      70.020      52.636      37.982    
  26.485      18.218      12.900      9.9312      8.4892      7.6939      7.1449      6.8258      6.7218      6.8258    
  7.1449      7.6939      8.4892      9.9312      12.900      18.218      26.485      37.982      52.636      70.020    
  89.366      109.59      129.33      147.05      161.15      170.26      173.41      170.26      183.20      170.24    
  152.52      131.72      109.59      87.717      67.425      49.702      35.185      24.155      16.526      11.851    
  9.3926      8.2297      7.5209      7.0577      6.8317      6.8317      7.0577      7.5209      8.2297      9.3926    
  11.851      16.526      24.155      35.185      49.702      67.425      87.717      109.59      131.72      152.52    
  170.24      183.20      190.05      190.05      200.82      190.04      173.38      152.52      129.33      105.62    
  82.942      62.505      45.158      31.384      21.294      14.627      10.777      8.8794      7.9520      7.3386    
  6.9779      6.8597      6.9779      7.3386      7.9520      8.8794      10.777      14.627      21.294      31.384    
  45.158      62.505      82.942      105.62      129.33      152.52      173.38      190.04      200.82      204.55    
  212.22      204.54      190.04      170.24      147.05      122.41      98.090      75.521      55.756      39.475    
  26.988      18.225      12.748      9.8005      8.4233      7.6602      7.1597      6.9141      6.9141      7.1597    
  7.6602      8.4233      9.8005      12.748      18.225      26.988      39.475      55.756      75.521      98.090    
  122.41      147.05      170.24      190.04      204.54      212.22      211.90      208.03      196.86      179.60    
  157.99      133.98      109.45      85.983      64.826      46.842      32.527      22.002      15.010      10.943    
  8.9278      7.9625      7.3345      6.9642      6.8426      6.9642      7.3345      7.9625      8.9278      10.943    
  15.010      22.002      32.527      46.842      64.826      85.983      109.45      133.98      157.99      179.60    
  196.86      208.03      208.03      208.03      200.51      186.31      166.91      144.18      120.02      96.152    
  73.998      54.599      38.631      26.401      17.839      12.506      9.6495      8.3138      7.5607      7.0665    
  6.8242      6.8242      7.0665      7.5607      8.3138      9.6495      12.506      17.839      26.401      38.631    
  54.599      73.998      96.152      120.02      144.18      166.91      186.31      200.51      196.86      200.51    
  196.86      186.31      170.00      149.56      126.82      103.56      81.288      61.216      44.183      30.671    
  20.791      14.283      10.540      8.7012      7.7918      7.1852      6.8289      6.7122      6.8289      7.1852    
  7.7918      8.7012      10.540      14.283      20.791      30.671      44.183      61.216      81.288      103.56    
  126.82      149.56      170.00      186.31      179.60      186.30      186.30      179.60      166.91      149.56    
  129.17      107.46      85.982      66.046      48.630      34.373      23.555      16.089      11.533      9.1458    
  8.0125      7.3104      6.8519      6.6285      6.6285      6.8519      7.3104      8.0125      9.1458      11.533    
  16.089      23.555      34.373      48.630      66.046      85.982      107.46      129.17      149.56      166.91    
  157.99      166.90      169.98      166.90      157.99      144.18      126.82      107.46      87.603      68.595    
  51.506      37.101      25.810      17.707      12.510      9.6211      8.2183      7.4313      6.8866      6.5702    
  6.4671      6.5702      6.8866      7.4313      8.2183      9.6211      12.510      17.707      25.810      37.101    
  51.506      68.595      87.603      107.46      126.82      144.18      133.98      144.16      149.54      149.54    
  144.16      133.98      120.02      103.56      85.982      68.595      52.501      38.549      27.285      18.925    
  13.338      10.068      8.4116      7.5380      6.9254      6.5325      6.3428      6.3428      6.5325      6.9254    
  7.5380      8.4116      10.068      13.338      18.925      27.285      38.549      52.501      68.595      85.982    
  103.56      120.02      109.45      120.00      126.79      129.14      126.79      120.00      109.45      96.152    
  81.288      66.046      51.506      38.549      27.799      19.580      13.892      10.418      8.5768      7.6230    
  6.9618      6.5097      6.2511      6.1675      6.2511      6.5097      6.9618      7.6230      8.5768      10.418    
  13.892      19.580      27.799      38.549      51.506      66.046      81.288      96.152      85.983      96.143    
  103.53      107.43      107.43      103.53      96.143      85.983      73.998      61.216      48.630      37.101    
  27.285      19.580      14.087      10.611      8.6897      7.6815      6.9906      6.4969      6.1867      6.0388    
  6.0388      6.1867      6.4969      6.9906      7.6815      8.6897      10.611      14.087      19.580      27.285    
  37.101      48.630      61.216      73.998      64.826      73.999      81.283      85.970      87.587      85.970    
  81.283      73.999      64.826      54.599      44.183      34.373      25.810      18.925      13.892      10.611    
  8.7299      7.7113      7.0089      6.4902      6.1446      5.9500      5.8876      5.9500      6.1446      6.4902    
  7.0089      7.7113      8.7299      10.611      13.892      18.925      25.810      34.373      44.183      54.599    
  46.842      54.613      61.235      66.062      68.609      68.609      66.062      61.235      54.613      46.842    
  38.631      30.671      23.555      17.707      13.338      10.418      8.6897      7.7113      7.0151      6.4874    
  6.1209      5.8949      5.7882      5.7882      5.8949      6.1209      6.4874      7.0151      7.7113      8.6897    
  10.418      13.338      17.707      23.555      30.671      38.631      32.527      38.660      44.229      48.683    
  51.562      52.557      51.562      48.683      44.229      38.660      32.527      26.401      20.791      16.089    
  12.510      10.068      8.5768      7.6815      7.0089      6.4874      6.1132      5.8685      5.7324      5.6890    
  5.7324      5.8685      6.1132      6.4874      7.0089      7.6815      8.5768      10.068      12.510      16.089    
  20.791      26.401      22.002      26.442      30.743      34.464      37.204      38.656      38.656      37.204    
  34.464      30.743      26.442      22.002      17.839      14.283      11.533      9.6211      8.4116      7.6230    
  6.9906      6.4902      6.1209      5.8685      5.7145      5.6422      5.6422      5.7145      5.8685      6.1209    
  6.4902      6.9906      7.6230      8.4116      9.6211      11.533      14.283      17.839      15.010      17.889    
  20.884      23.680      25.957      27.445      27.962      27.445      25.957      23.680      20.884      17.889    
  15.010      12.506      10.540      9.1458      8.2183      7.5380      6.9618      6.4969      6.1446      5.8949    
  5.7324      5.6422      5.6134      5.6422      5.7324      5.8949      6.1446      6.4969      6.9618      7.5380    
  8.2183      9.1458      10.540      12.506      10.943      12.563      14.390      16.239      17.889      19.130    
  19.795      19.795      19.130      17.889      16.239      14.390      12.563      10.943      9.6495      8.7012    
  8.0125      7.4313      6.9254      6.5097      6.1867      5.9500      5.7882      5.6890      5.6422      5.6422    
  5.6890      5.7882      5.9500      6.1867      6.5097      6.9254      7.4313      8.0125      8.7012      9.6495    
  8.9278      9.7087      10.656      11.698      12.716      13.575      14.148      14.349      14.148      13.575    
  12.716      11.698      10.656      9.7087      8.9278      8.3138      7.7918      7.3104      6.8866      6.5325    
  6.2511      6.0388      5.8876      5.7882      5.7324      5.7145      5.7324      5.7882      5.8876      6.0388    
  6.2511      6.5325      6.8866      7.3104      7.7918      8.3138      7.9625      8.3739      8.8194      9.3176    
  9.8397      10.325      10.701      10.907      10.907      10.701      10.325      9.8397      9.3176      8.8194    
  8.3739      7.9625      7.5607      7.1852      6.8519      6.5702      6.3428      6.1675      6.0388      5.9500    
  5.8949      5.8685      5.8685      5.8949      5.9500      6.0388      6.1675      6.3428      6.5702      6.8519    
  7.1852      7.5607      7.3345      7.6212      7.9111      8.1871      8.4427      8.6779      8.8750      9.0077    
  9.0547      9.0077      8.8750      8.6779      8.4427      8.1871      7.9111      7.6212      7.3345      7.0665    
  6.8289      6.6285      6.4671      6.3428      6.2511      6.1867      6.1446      6.1209      6.1132      6.1209    
  6.1446      6.1867      6.2511      6.3428      6.4671      6.6285      6.8289      7.0665      6.9642      7.1274    
  7.3054      7.4869      7.6590      7.8101      7.9306      8.0140      8.0566      8.0566      8.0140      7.9306    
  7.8101      7.6590      7.4869      7.3054      7.1274      6.9642      6.8242      6.7122      6.6285      6.5702    
  6.5325      6.5097      6.4969      6.4902      6.4874      6.4874      6.4902      6.4969      6.5097      6.5325    
  6.5702      6.6285      6.7122      6.8242      6.8426      6.8854      6.9498      7.0299      7.1171      7.2023    
  7.2769      7.3345      7.3705      7.3827      7.3705      7.3345      7.2769      7.2023      7.1171      7.0299    
  6.9498      6.8854      6.8427      6.8242      6.8289      6.8519      6.8866      6.9254      6.9618      6.9906    
  7.0089      7.0151      7.0089      6.9906      6.9618      6.9254      6.8866      6.8519      6.8289      6.8242    
  6.9642      6.8854      6.8334      6.8072      6.8026      6.8129      6.8308      6.8499      6.8652      6.8736    
  6.8736      6.8652      6.8499      6.8308      6.8129      6.8026      6.8072      6.8334      6.8854      6.9642    
  7.0665      7.1852      7.3104      7.4313      7.5380      7.6230      7.6815      7.7113      7.7113      7.6815    
  7.6230      7.5380      7.4313      7.3104      7.1852      7.0665      7.3345      7.1274      6.9498      6.8072    
  6.7002      6.6251      6.5761      6.5463      6.5298      6.5218      6.5194      6.5218      6.5298      6.5463    
  6.5761      6.6251      6.7002      6.8072      6.9498      7.1274      7.3345      7.5607      7.7918      8.0125    
  8.2183      8.4116      8.5768      8.6897      8.7299      8.6897      8.5768      8.4116      8.2183      8.0125    
  7.7918      7.5607      7.9625      7.6212      7.3054      7.0299      6.8026      6.6251      6.4938      6.4019    
  6.3417      6.3060      6.2896      6.2896      6.3060      6.3417      6.4019      6.4938      6.6251      6.8026    
  7.0299      7.3054      7.6212      7.9625      8.3138      8.7012      9.1458      9.6211      10.068      10.418    
  10.611      10.611      10.418      10.068      9.6211      9.1458      8.7012      8.3138      8.9278      8.3739    
  7.9111      7.4869      7.1171      6.8129      6.5761      6.4019      6.2815      6.2047      6.1627      6.1493    
  6.1627      6.2047      6.2815      6.4019      6.5761      6.8129      7.1171      7.4869      7.9111      8.3739    
  8.9278      9.6495      10.540      11.533      12.510      13.338      13.892      14.087      13.892      13.338    
  12.510      11.533      10.540      9.6495      10.943      9.7087      8.8194      8.1871      7.6590      7.2023    
  6.8308      6.5463      6.3417      6.2047      6.1224      6.0841      6.0841      6.1224      6.2047      6.3417    
  6.5463      6.8308      7.2023      7.6590      8.1871      8.8194      9.7087      10.943      12.506      14.283    
  16.089      17.707      18.925      19.580      19.580      18.925      17.707      16.089      14.283      12.506    
  15.010      12.563      10.656      9.3176      8.4427      7.8101      7.2769      6.8499      6.5298      6.3060    
  6.1627      6.0841      6.0593      6.0841      6.1627      6.3060      6.5298      6.8499      7.2769      7.8101    
  8.4427      9.3176      10.656      12.563      15.010      17.839      20.791      23.555      25.810      27.285    
  27.799      27.285      25.810      23.555      20.791      17.839      22.002      17.889      14.390      11.698    
  9.8397      8.6779      7.9306      7.3345      6.8652      6.5218      6.2896      6.1493      6.0841      6.0841    
  6.1493      6.2896      6.5218      6.8652      7.3345      7.9306      8.6779      9.8397      11.698      14.390    
  17.889      22.002      26.401      30.671      34.373      37.101      38.549      38.549      37.101      34.373    
  30.671      26.401      32.527      26.442      20.884      16.239      12.716      10.325      8.8750      8.0140    
  7.3705      6.8736      6.5194      6.2896      6.1627      6.1224      6.1627      6.2896      6.5194      6.8736    
  7.3705      8.0140      8.8750      10.325      12.716      16.239      20.884      26.442      32.527      38.631    
  44.183      48.630      51.506      52.501      51.506      48.630      44.183      38.631      46.842      38.660    
  30.743      23.680      17.889      13.575      10.701      9.0077      8.0566      7.3827      6.8736      6.5218    
  6.3060      6.2047      6.2047      6.3060      6.5218      6.8736      7.3827      8.0566      9.0077      10.701    
  13.575      17.889      23.680      30.743      38.660      46.842      54.599      61.216      66.046      68.595    
  68.595      66.046      61.216      54.599      64.826      54.613      44.229      34.464      25.957      19.130    
  14.148      10.907      9.0547      8.0566      7.3705      6.8652      6.5298      6.3417      6.2815      6.3417    
  6.5298      6.8652      7.3705      8.0566      9.0547      10.907      14.148      19.130      25.957      34.464    
  44.229      54.613      64.826      73.998      81.288      85.982      87.603      85.982      81.288      73.998    
  85.983      73.999      61.235      48.683      37.204      27.445      19.795      14.349      10.907      9.0077    
  8.0140      7.3345      6.8499      6.5463      6.4019      6.4019      6.5463      6.8499      7.3345      8.0140    
  9.0077      10.907      14.349      19.795      27.445      37.204      48.683      61.235      73.999      85.983    
  96.152      103.56      107.46      107.46      103.56      96.152      109.45      96.143      81.283      66.063    
  51.562      38.656      27.962      19.795      14.148      10.701      8.8750      7.9306      7.2769      6.8308    
  6.5761      6.4938      6.5761      6.8308      7.2769      7.9306      8.8750      10.701      14.148      19.795    
  27.962      38.656      51.562      66.062      81.283      96.143      109.45      120.02      126.82      129.17    
  126.82      120.02      133.98      120.00      103.53      85.970      68.609      52.557      38.656      27.445    
  19.130      13.575      10.325      8.6779      7.8101      7.2023      6.8129      6.6251      6.6251      6.8129    
  7.2023      7.8101      8.6779      10.325      13.575      19.130      27.445      38.656      52.557      68.609    
  85.970      103.53      120.00      133.98      144.18      149.56      149.56      144.18      157.99      144.16    