    2    2  100    2
  0.1139055E+02  0.2533332E-09  0.2533332E-09  0.4098828E-09  0.5000000E-15
  1.000000000000000E-004
  CAR 
 Co-hcc                                  
     18     70     16
 
  0.0000000E+00  0.0000000E+00  0.0000000E+00  0.1250000E-02
      1          0.953428        0.950303   1.000000   1.000000
      2          4.650017        5.645419   1.000000   1.000000
      3          6.997287        8.709267   1.000000   1.000000
      4          7.018029        8.742212   1.000000   1.000000
      5          7.018029        8.742212   1.000000   1.000000
      6          7.303358        9.081805   1.000000   1.000000
      7          7.303358        9.081805   1.000000   1.000000
      8          7.626097        9.459058   1.000000   0.994808
      9          7.626097        9.474522   1.000000   0.983221
     10          8.641072        9.474523   1.000000   0.983220
     11          8.641072       10.607702   1.000000   0.000000
     12          9.531260       10.607702   0.698662   0.000000
     13         15.482559       16.534679   0.000000   0.000000
     14         31.153164       30.856795   0.000000   0.000000
     15         33.235704       33.601236   0.000000   0.000000
     16         33.235706       33.601453   0.000000   0.000000
 
  0.1000000E+00  0.6938894E-17  0.0000000E+00  0.7500000E-02
      1          1.289756        1.288026   1.000000   1.000000
      2          4.844291        5.871105   1.000000   1.000000
      3          6.754140        8.416291   1.000000   1.000000
      4          7.167879        8.653918   1.000000   1.000000
      5          7.192906        8.908772   1.000000   1.000000
      6          7.268432        8.937422   1.000000   1.000000
      7          7.405548        9.024693   1.000000   1.000000
      8          7.435225        9.228168   1.000000   1.000000
      9          7.535039        9.366732   1.000000   1.000000
     10          7.849942        9.393992   1.000000   0.999995
     11          8.678710       10.653032   1.000000   0.000000
     12         10.780824       11.709280   0.000000   0.000000
     13         15.550689       16.567216   0.000000   0.000000
     14         28.368055       28.555803   0.000000   0.000000
     15         30.732516       31.067121   0.000000   0.000000
     16         31.225884       31.250663   0.000000   0.000000
 
  0.2000000E+00  0.1387779E-16  0.0000000E+00  0.7500000E-02
      1          2.245953        2.258975   1.000000   1.000000
      2          5.266266        6.399879   1.000000   1.000000
      3          6.471614        7.744160   1.000000   1.000000
      4          6.567756        8.019800   1.000000   1.000000
      5          7.053950        8.738297   1.000000   1.000000
      6          7.325064        9.120315   1.000000   1.000000
      7          7.525229        9.187930   1.000000   1.000000
      8          7.578116        9.368665   1.000000   1.000000
      9          7.597350        9.373488   1.000000   1.000000
     10          7.794462        9.628716   1.000000   0.012678
     11          8.749880       10.737430   1.000000   0.000000
     12         12.674443       13.493615   0.000000   0.000000
     13         15.797109       16.700863   0.000000   0.000000
     14         23.798880       24.193297   0.000000   0.000000
     15         28.062463       28.363256   0.000000   0.000000
     16         30.107655       30.230881   0.000000   0.000000
 
  0.3000000E+00  0.5551115E-16  0.0000000E+00  0.7500000E-02
      1          3.592005        3.702841   1.000000   1.000000
      2          5.390260        6.695416   1.000000   1.000000
      3          5.866375        7.097635   1.000000   1.000000
      4          6.452767        7.775518   1.000000   1.000000
      5          7.066101        8.686952   1.000000   1.000000
      6          7.099404        8.857560   1.000000   1.000000
      7          7.313269        8.937821   1.000000   1.000000
      8          8.123279        9.976004   1.000000   0.000000
      9          8.203081        9.991135   1.000000   0.000000
     10          8.271162       10.163504   1.000000   0.000000
     11          8.806042       10.802839   1.000000   0.000000
     12         14.848218       15.553581   0.000000   0.000000
     13         16.199853       16.907667   0.000000   0.000000
     14         19.741825       20.309562   0.000000   0.000000
     15         25.903050       26.146377   0.000000   0.000000
     16         27.188895       27.405005   0.000000   0.000000
 
  0.4000000E+00  0.2775558E-16  0.0000000E+00  0.7500000E-02
      1          4.669503        5.193852   1.000000   1.000000
      2          5.191750        6.513476   1.000000   1.000000
      3          5.444256        6.721211   1.000000   1.000000
      4          6.804788        7.755903   1.000000   1.000000
      5          6.933786        8.665658   1.000000   1.000000
      6          7.154202        8.738043   1.000000   1.000000
      7          7.295991        8.929032   1.000000   1.000000
      8          8.584434       10.527909   1.000000   0.000000
      9          8.707469       10.660867   1.000000   0.000000
     10          8.836167       10.837368   1.000000   0.000000
     11          9.313147       10.930258   1.000000   0.000000
     12         14.833912       15.561744   0.000000   0.000000
     13         17.201705       17.769094   0.000000   0.000000
     14         18.547698       19.102236   0.000000   0.000000
     15         23.860802       24.246956   0.000000   0.000000
     16         24.453386       24.629886   0.000000   0.000000
 
  0.5000000E+00  0.5551115E-16  0.0000000E+00  0.3750000E-02
      1          5.019166        5.928512   1.000000   1.000000
      2          5.024667        6.297726   1.000000   1.000000
      3          5.304245        6.598515   1.000000   1.000000
      4          6.873538        7.842174   1.000000   1.000000
      5          7.094636        8.596022   1.000000   1.000000
      6          7.127989        8.662007   1.000000   1.000000
      7          7.397020        9.047894   1.000000   1.000000
      8          8.758642       10.729661   1.000000   0.000000
      9          8.845050       10.847434   1.000000   0.000000
     10          8.896227       10.883350   1.000000   0.000000
     11         10.730070       12.001452   0.000000   0.000000
     12         12.629964       13.653469   0.000000   0.000000
     13         18.880921       19.297313   0.000000   0.000000
     14         19.465716       19.850911   0.000000   0.000000
     15         21.861261       22.410481   0.000000   0.000000
     16         22.890413       23.468553   0.000000   0.000000
 
  0.1000000E+00  0.1000000E+00  0.0000000E+00  0.7500000E-02
      1          1.938609        1.943795   1.000000   1.000000
      2          5.169493        6.260855   1.000000   1.000000
      3          6.504278        7.978487   1.000000   1.000000
      4          6.828208        8.100013   1.000000   1.000000
      5          7.122642        8.830279   1.000000   1.000000
      6          7.287817        9.064498   1.000000   1.000000
      7          7.392871        9.161901   1.000000   1.000000
      8          7.473367        9.246069   1.000000   1.000000
      9          7.665030        9.374566   1.000000   1.000000
     10          7.735689        9.552827   1.000000   0.464361
     11          8.716924       10.698080   1.000000   0.000000
     12         12.140373       12.991110   0.000000   0.000000
     13         15.713553       16.656167   0.000000   0.000000
     14         25.969515       26.245738   0.000000   0.000000
     15         26.490688       26.858571   0.000000   0.000000
     16         32.854637       32.753126   0.000000   0.000000
 
  0.2000000E+00  0.1000000E+00  0.0000000E+00  0.1500000E-01
      1          3.117614        3.164879   1.000000   1.000000
      2          5.520081        6.748285   1.000000   1.000000
      3          6.124327        7.330426   1.000000   1.000000
      4          6.252279        7.714542   1.000000   1.000000
      5          7.042398        8.684666   1.000000   1.000000
      6          7.045358        8.762508   1.000000   1.000000
      7          7.488630        9.185820   1.000000   1.000000
      8          7.705809        9.507186   1.000000   0.885214
      9          7.996529        9.830017   1.000000   0.000000
     10          8.285497       10.124935   1.000000   0.000000
     11          8.756585       10.744537   1.000000   0.000000
     12         14.067621       14.822540   0.000000   0.000000
     13         16.121238       16.911191   0.000000   0.000000
     14         21.784062       22.242080   0.000000   0.000000
     15         24.333556       24.684939   0.000000   0.000000
     16         29.186982       29.289537   0.000000   0.000000
 
  0.3000000E+00  0.1000000E+00  0.0000000E+00  0.1500000E-01
      1          4.419861        4.689077   1.000000   1.000000
      2          5.419076        6.757588   1.000000   1.000000
      3          5.622191        6.889440   1.000000   1.000000
      4          6.387369        7.593109   1.000000   1.000000
      5          6.886189        8.564431   1.000000   1.000000
      6          7.195851        8.819632   1.000000   1.000000
      7          7.264194        8.912392   1.000000   1.000000
      8          8.204457       10.050470   1.000000   0.000000
      9          8.508418       10.417711   1.000000   0.000000
     10          8.783887       10.776092   1.000000   0.000000
     11          9.090933       10.858110   1.000000   0.000000
     12         16.237467       16.853968   0.000000   0.000000
     13         16.311280       16.951605   0.000000   0.000000
     14         18.605322       19.214959   0.000000   0.000000
     15         22.825493       23.148107   0.000000   0.000000
     16         25.631120       25.917823   0.000000   0.000000
 
  0.4000000E+00  0.1000000E+00  0.0000000E+00  0.1500000E-01
      1          5.067242        5.882884   1.000000   1.000000
      2          5.223782        6.509854   1.000000   1.000000
      3          5.369263        6.673822   1.000000   1.000000
      4          6.805607        7.657958   1.000000   1.000000
      5          6.831592        8.515746   1.000000   1.000000
      6          7.090254        8.676969   1.000000   1.000000
      7          7.392091        9.048540   1.000000   1.000000
      8          8.668213       10.601428   1.000000   0.000000
      9          8.777096       10.734693   1.000000   0.000000
     10          8.795550       10.789269   1.000000   0.000000
     11         10.506110       11.879281   0.000000   0.000000
     12         13.674439       14.556004   0.000000   0.000000
     13         18.615330       19.105226   0.000000   0.000000
     14         19.311613       19.753785   0.000000   0.000000
     15         21.867385       22.177387   0.000000   0.000000
     16         22.675841       23.145121   0.000000   0.000000
 
  0.2000000E+00  0.2000000E+00  0.0000000E+00  0.7500000E-02
      1          4.339798        4.507411   1.000000   1.000000
      2          5.736803        7.000412   1.000000   1.000000
      3          5.774819        7.064851   1.000000   1.000000
      4          5.940423        7.318363   1.000000   1.000000
      5          6.801173        8.460894   1.000000   1.000000
      6          7.161289        8.784250   1.000000   1.000000
      7          7.345844        9.013572   1.000000   1.000000
      8          7.889458        9.724022   1.000000   0.000000
      9          8.513423       10.413303   1.000000   0.000000
     10          8.733461       10.717328   1.000000   0.000000
     11          9.119370       10.890015   1.000000   0.000000
     12         16.013628       16.686182   0.000000   0.000000
     13         16.785601       17.410219   0.000000   0.000000
     14         20.000281       20.488255   0.000000   0.000000
     15         20.477131       20.944082   0.000000   0.000000
     16         27.710428       27.767063   0.000000   0.000000
 
  0.3000000E+00  0.2000000E+00  0.0000000E+00  0.1500000E-01
      1          5.287658        5.869090   1.000000   1.000000
      2          5.491228        6.815596   1.000000   1.000000
      3          5.598715        6.905766   1.000000   1.000000
      4          6.163651        7.294266   1.000000   1.000000
      5          6.718964        8.342274   1.000000   1.000000
      6          7.113837        8.727422   1.000000   1.000000
      7          7.390412        9.048497   1.000000   1.000000
      8          8.242025       10.116892   1.000000   0.000000
      9          8.712804       10.693174   1.000000   0.000000
     10          8.780897       10.730969   1.000000   0.000000
     11         10.438668       11.917177   0.000000   0.000000
     12         15.810311       16.458468   0.000000   0.000000
     13         18.310803       18.878614   0.000000   0.000000
     14         18.443479       18.952437   0.000000   0.000000
     15         19.658318       20.105589   0.000000   0.000000
     16         24.558474       24.906771   0.000000   0.000000
 
  0.4000000E+00  0.2000000E+00  0.0000000E+00  0.7500000E-02
      1          5.408693        6.467618   1.000000   1.000000
      2          5.487069        6.759093   1.000000   1.000000
      3          5.493180        6.761892   1.000000   1.000000
      4          6.443121        7.366086   1.000000   1.000000
      5          6.747485        8.384223   1.000000   1.000000
      6          6.965073        8.526958   1.000000   1.000000
      7          7.504195        9.189515   1.000000   1.000000
      8          8.554212       10.469571   1.000000   0.000000
      9          8.704947       10.681772   1.000000   0.000000
     10          8.732794       10.683881   1.000000   0.000000
     11         12.107936       13.121828   0.000000   0.000000
     12         13.389291       14.376177   0.000000   0.000000
     13         18.438146       18.893418   0.000000   0.000000
     14         20.159383       20.603906   0.000000   0.000000
     15         20.431447       20.809311   0.000000   0.000000
     16         22.368514       22.865383   0.000000   0.000000
 
  0.3000000E+00  0.3000000E+00  0.0000000E+00  0.7500000E-02
      1          5.452620        6.708428   1.000000   1.000000
      2          5.679496        6.831993   1.000000   1.000000
      3          5.831420        7.037486   1.000000   1.000000
      4          6.060982        7.089816   1.000000   1.000000
      5          6.713611        8.295999   1.000000   1.000000
      6          6.893640        8.467964   1.000000   1.000000
      7          7.588939        9.282445   1.000000   1.000000
      8          8.406449       10.310536   1.000000   0.000000
      9          8.659804       10.631896   1.000000   0.000000
     10          8.694143       10.635887   1.000000   0.000000
     11         12.477660       13.515882   0.000000   0.000000
     12         15.374682       16.043224   0.000000   0.000000
     13         15.381926       16.080860   0.000000   0.000000
     14         20.682095       21.166697   0.000000   0.000000
     15         20.890891       21.284116   0.000000   0.000000
     16         23.433626       23.860050   0.000000   0.000000
 
  0.0000000E+00  0.0000000E+00  0.1250000E+00  0.2500000E-02
      1          1.105244        1.102612   1.000000   1.000000
      2          4.617246        5.518965   1.000000   1.000000
      3          6.960476        8.660709   1.000000   1.000000
      4          6.979495        8.701703   1.000000   1.000000
      5          6.979495        8.701703   1.000000   1.000000
      6          7.264277        9.036401   1.000000   1.000000
      7          7.264277        9.036402   1.000000   1.000000
      8          7.715850        9.079640   1.000000   1.000000
      9          7.715850        9.573534   1.000000   0.249791
     10          8.632967        9.573535   1.000000   0.249787
     11          8.632967       10.600467   1.000000   0.000000
     12          8.910310       10.600467   1.000000   0.000000
     13         16.410736       17.315373   0.000000   0.000000
     14         31.108445       30.784330   0.000000   0.000000
     15         33.105525       33.104195   0.000000   0.000000
     16         33.376812       33.617526   0.000000   0.000000
 
  0.1000000E+00  0.6938894E-17  0.1250000E+00  0.1500000E-01
      1          1.438358        1.437600   1.000000   1.000000
      2          4.823415        5.756742   1.000000   1.000000
      3          6.756623        8.405598   1.000000   1.000000
      4          7.092808        8.420523   1.000000   1.000000
      5          7.111672        8.824030   1.000000   1.000000
      6          7.116579        8.850491   1.000000   1.000000
      7          7.389037        9.043084   1.000000   1.000000
      8          7.539090        9.173361   1.000000   1.000000
      9          7.652779        9.496660   1.000000   0.933088
     10          7.814860        9.522441   1.000000   0.779346
     11          8.665200       10.639141   1.000000   0.000000
     12         10.194542       11.418512   0.000000   0.000000
     13         16.550836       17.414527   0.000000   0.000000
     14         28.472940       28.644800   0.000000   0.000000
     15         30.886741       31.197363   0.000000   0.000000
     16         31.199540       31.219355   0.000000   0.000000
 
  0.2000000E+00  0.1387779E-16  0.1250000E+00  0.1500000E-01
      1          2.380853        2.398150   1.000000   1.000000
      2          5.279372        6.326269   1.000000   1.000000
      3          6.439295        7.614387   1.000000   1.000000
      4          6.504136        8.045879   1.000000   1.000000
      5          6.992427        8.690410   1.000000   1.000000
      6          7.289831        9.041267   1.000000   1.000000
      7          7.408428        9.070617   1.000000   1.000000
      8          7.649869        9.451795   1.000000   0.997181
      9          7.769904        9.565693   1.000000   0.325142
     10          7.777479        9.616534   1.000000   0.029288
     11          8.725533       10.710188   1.000000   0.000000
     12         11.773022       12.827141   0.000000   0.000000
     13         17.032848       17.777844   0.000000   0.000000
     14         23.932392       24.322763   0.000000   0.000000
     15         28.246158       28.549936   0.000000   0.000000
     16         29.428228       29.565949   0.000000   0.000000
 
  0.3000000E+00  0.5551115E-16  0.1250000E+00  0.1500000E-01
      1          3.681088        3.814031   1.000000   1.000000
      2          5.421236        6.663652   1.000000   1.000000
      3          5.838530        7.060301   1.000000   1.000000
      4          6.432895        7.804705   1.000000   1.000000
      5          6.982712        8.582844   1.000000   1.000000
      6          7.139526        8.900761   1.000000   1.000000
      7          7.440396        8.997769   1.000000   1.000000
      8          8.141650       10.001748   1.000000   0.000000
      9          8.196479       10.008590   1.000000   0.000000
     10          8.229702       10.120455   1.000000   0.000000
     11          8.774728       10.766152   1.000000   0.000000
     12         13.404191       14.277518   0.000000   0.000000
     13         17.848457       18.439199   0.000000   0.000000
     14         19.912913       20.468727   0.000000   0.000000
     15         25.912331       26.240010   0.000000   0.000000
     16         26.111612       26.363030   0.000000   0.000000
 
  0.4000000E+00  0.2775558E-16  0.1250000E+00  0.1500000E-01
      1          4.629532        5.228060   1.000000   1.000000
      2          5.192103        6.471340   1.000000   1.000000
      3          5.599335        6.821514   1.000000   1.000000
      4          6.433411        7.644007   1.000000   1.000000
      5          6.991410        8.729181   1.000000   1.000000
      6          7.290005        8.866370   1.000000   1.000000
      7          7.636812        9.004660   1.000000   1.000000
      8          8.585320       10.532635   1.000000   0.000000
      9          8.638763       10.582624   1.000000   0.000000
     10          8.822670       10.814681   1.000000   0.000000
     11          9.238202       10.859498   1.000000   0.000000
     12         14.197190       14.876606   0.000000   0.000000
     13         16.858890       17.617073   0.000000   0.000000
     14         19.563779       19.985144   0.000000   0.000000
     15         22.874318       23.376832   0.000000   0.000000
     16         24.680394       24.869995   0.000000   0.000000
 
  0.5000000E+00  0.5551115E-16  0.1250000E+00  0.7500000E-02
      1          4.834001        5.834296   1.000000   1.000000
      2          5.053887        6.307346   1.000000   1.000000
      3          5.586281        6.815933   1.000000   1.000000
      4          6.458928        7.550577   1.000000   1.000000
      5          6.935569        8.664551   1.000000   1.000000
      6          7.400252        9.019960   1.000000   1.000000
      7          7.858706        9.101425   1.000000   1.000000
      8          8.707689       10.680360   1.000000   0.000000
      9          8.809990       10.793581   1.000000   0.000000
     10          8.892210       10.878811   1.000000   0.000000
     11         10.637580       11.838084   0.000000   0.000000
     12         12.551345       13.536680   0.000000   0.000000
     13         18.276702       18.804654   0.000000   0.000000
     14         18.606841       19.150157   0.000000   0.000000
     15         22.998625       23.413949   0.000000   0.000000
     16         23.809817       24.327759   0.000000   0.000000
 
  0.1000000E+00  0.1000000E+00  0.1250000E+00  0.1500000E-01
      1          2.079045        2.086912   1.000000   1.000000
      2          5.172940        6.173426   1.000000   1.000000
      3          6.521499        7.817022   1.000000   1.000000
      4          6.660676        8.121462   1.000000   1.000000
      5          7.110453        8.838684   1.000000   1.000000
      6          7.187046        8.873653   1.000000   1.000000
      7          7.382795        9.110160   1.000000   1.000000
      8          7.528034        9.318914   1.000000   1.000000
      9          7.753517        9.535981   1.000000   0.650634
     10          7.763641        9.583606   1.000000   0.168527
     11          8.698950       10.677392   1.000000   0.000000
     12         11.344931       12.441565   0.000000   0.000000
     13         16.867353       17.651335   0.000000   0.000000
     14         26.089615       26.359197   0.000000   0.000000
     15         26.636640       27.002638   0.000000   0.000000
     16         31.696531       31.701689   0.000000   0.000000
 
  0.2000000E+00  0.1000000E+00  0.1250000E+00  0.3000000E-01
      1          3.232072        3.290418   1.000000   1.000000
      2          5.560585        6.717196   1.000000   1.000000
      3          6.034286        7.238021   1.000000   1.000000
      4          6.287442        7.749897   1.000000   1.000000
      5          6.930292        8.600194   1.000000   1.000000
      6          7.145546        8.813566   1.000000   1.000000
      7          7.412819        9.114987   1.000000   1.000000
      8          7.750449        9.559589   1.000000   0.389464
      9          8.068436        9.904951   1.000000   0.000000
     10          8.240042       10.088980   1.000000   0.000000
     11          8.747336       10.724661   1.000000   0.000000
     12         12.862812       13.816389   0.000000   0.000000
     13         17.605469       18.250823   0.000000   0.000000
     14         21.926881       22.382332   0.000000   0.000000
     15         24.486927       24.840586   0.000000   0.000000
     16         28.037456       28.252686   0.000000   0.000000
 
  0.3000000E+00  0.1000000E+00  0.1250000E+00  0.3000000E-01
      1          4.451755        4.768887   1.000000   1.000000
      2          5.451147        6.722374   1.000000   1.000000
      3          5.649909        6.910706   1.000000   1.000000
      4          6.322278        7.621249   1.000000   1.000000
      5          6.922454        8.538081   1.000000   1.000000
      6          7.211517        8.875451   1.000000   1.000000
      7          7.353864        8.912119   1.000000   1.000000
      8          8.190471       10.043800   1.000000   0.000000
      9          8.548828       10.460568   1.000000   0.000000
     10          8.663983       10.598120   1.000000   0.000000
     11          9.124034       10.937407   1.000000   0.000000
     12         14.397322       15.128880   0.000000   0.000000
     13         17.720146       18.370885   0.000000   0.000000
     14         19.336432       19.838928   0.000000   0.000000
     15         22.968585       23.307736   0.000000   0.000000
     16         24.486309       24.870472   0.000000   0.000000
 
  0.4000000E+00  0.1000000E+00  0.1250000E+00  0.3000000E-01
      1          4.931480        5.844929   1.000000   1.000000
      2          5.227551        6.495779   1.000000   1.000000
      3          5.632296        6.845432   1.000000   1.000000
      4          6.389653        7.509243   1.000000   1.000000
      5          6.863167        8.543323   1.000000   1.000000
      6          7.417977        8.877830   1.000000   1.000000
      7          7.522557        9.072049   1.000000   1.000000
      8          8.630217       10.568743   1.000000   0.000000
      9          8.721591       10.683559   1.000000   0.000000
     10          8.803179       10.766125   1.000000   0.000000
     11         10.498773       11.834718   0.000000   0.000000
     12         13.543161       14.373139   0.000000   0.000000
     13         17.588599       18.235379   0.000000   0.000000
     14         19.675720       20.103611   0.000000   0.000000
     15         21.994526       22.348774   0.000000   0.000000
     16         22.840363       23.273334   0.000000   0.000000
 
  0.2000000E+00  0.2000000E+00  0.1250000E+00  0.1500000E-01
      1          4.404672        4.602931   1.000000   1.000000
      2          5.655803        6.915361   1.000000   1.000000
      3          5.884441        7.128534   1.000000   1.000000
      4          5.965752        7.355650   1.000000   1.000000
      5          6.841237        8.458028   1.000000   1.000000
      6          7.147111        8.779007   1.000000   1.000000
      7          7.282292        8.947090   1.000000   1.000000
      8          7.916735        9.752333   1.000000   0.000000
      9          8.566455       10.474198   1.000000   0.000000
     10          8.602885       10.541075   1.000000   0.000000
     11          9.184701       10.986699   1.000000   0.000000
     12         14.351460       15.139700   0.000000   0.000000
     13         18.629968       19.174540   0.000000   0.000000
     14         20.148297       20.636846   0.000000   0.000000
     15         20.669363       21.132148   0.000000   0.000000
     16         26.519970       26.728940   0.000000   0.000000
 
  0.3000000E+00  0.2000000E+00  0.1250000E+00  0.3000000E-01
      1          5.218256        5.903176   1.000000   1.000000
      2          5.577044        6.792097   1.000000   1.000000
      3          5.653032        6.958181   1.000000   1.000000
      4          6.129519        7.355696   1.000000   1.000000
      5          6.792970        8.364201   1.000000   1.000000
      6          7.091641        8.659642   1.000000   1.000000
      7          7.405546        9.063155   1.000000   1.000000
      8          8.248933       10.125871   1.000000   0.000000
      9          8.601147       10.557879   1.000000   0.000000
     10          8.816919       10.774988   1.000000   0.000000
     11         10.501888       11.966564   0.000000   0.000000
     12         15.371665       15.989448   0.000000   0.000000
     13         17.377048       18.054479   0.000000   0.000000
     14         19.183472       19.674389   0.000000   0.000000
     15         20.548029       20.953296   0.000000   0.000000
     16         23.535372       23.973191   0.000000   0.000000
 
  0.4000000E+00  0.2000000E+00  0.1250000E+00  0.1500000E-01
      1          5.250408        6.381706   1.000000   1.000000
      2          5.538405        6.798275   1.000000   1.000000
      3          5.742769        6.958206   1.000000   1.000000
      4          6.250930        7.295051   1.000000   1.000000
      5          6.724371        8.345233   1.000000   1.000000
      6          7.111926        8.571643   1.000000   1.000000
      7          7.532756        9.215653   1.000000   1.000000
      8          8.557479       10.474352   1.000000   0.000000
      9          8.582139       10.536355   1.000000   0.000000
     10          8.763229       10.717993   1.000000   0.000000
     11         12.203366       13.187751   0.000000   0.000000
     12         13.395107       14.355919   0.000000   0.000000
     13         18.384021       18.873947   0.000000   0.000000
     14         19.417882       19.923240   0.000000   0.000000
     15         19.648969       20.141830   0.000000   0.000000
     16         23.520642       23.930330   0.000000   0.000000
 
  0.3000000E+00  0.3000000E+00  0.1250000E+00  0.1500000E-01
      1          5.476572        6.743817   1.000000   1.000000
      2          5.697527        6.827417   1.000000   1.000000
      3          5.881043        7.107017   1.000000   1.000000
      4          6.033603        7.124837   1.000000   1.000000
      5          6.760671        8.293376   1.000000   1.000000
      6          6.846022        8.391624   1.000000   1.000000