 vasp.6.3.2 27Jun22 (build Aug 12 2022 00:53:59) complex                        
  
 executed on               tv2STD date 2024.11.30  17:13:50
 running   24 mpi-ranks, with    1 threads/rank
 distrk:  each k-point on   24 cores,    1 groups
 distr:  one band on NCORE=   6 cores,    4 groups


--------------------------------------------------------------------------------------------------------


 INCAR:
   SYSTEM = Co-hcc
   NWRITE = 2    write-flag
   ISTART = 0    job   : 0-new, 1-cont, 2-samecut
   ICHARG = 2    charge: 0-wave, 1-file, 2-atom, >10-const
   INIWAV = 1    electr: 0-lowe 1-rand  2-diag
   ENCUT = 400     energy cutoff in eV
   PREC = Accurate      normal | accurate
   ADDGRID = .FALSE.  (use fine grid)
   NELM = 100     number of ELM steps
   EDIFF = 1E-06    energy stopping-criterion for ELM
   LREAL = .FALSE.      real-space projection (.FALSE., .TRUE., On, Auto)
   ALGO = Normal     Normal, Fast, Very_Fast
   LWAVE = .TRUE.
   LCHARG = .TRUE.
   NSW = 100       max number of geometry steps
   IBRION = 2     ionic relax: 0-MD, 1-quasi-Newton, 2-CG, 3-Damped MD
   EDIFFG = -0.02  force (eV/A) stopping-criterion for geometry steps
   ISIF = 2     (1:force\=y stress\=trace only ions\=y shape\=n volume\=n)
   ISYM = 1     (1-use symmetry, 0-no symmetry)
   ISMEAR = 0     (-1-Fermi, 1-Methfessel/Paxton)
   SIGMA = 0.05   broadening in eV
   LORBIT = 11 magnetic props in OUTCAR should be on
   NPAR = 4
   ISPIN = 2
   MAGMOM = 2*3

 POTCAR:    PAW_PBE Co 02Aug2007                  
 POTCAR:    PAW_PBE Co 02Aug2007                  
   SHA256 =  0e690c60710354995174544f52f9f2c30879afabeffe3b3fbd4001cb294e56d4 Co/POTCAR             
   COPYR  = (c) Copyright 02Aug2007 Georg Kresse                                                    
   COPYR  = This file is part of the software VASP. Any use, copying, and all other rights are regul
   COPYR  = If you do not have a valid VASP license, you may not use, copy or distribute this file. 
   VRHFIN =Co: d8 s1                                                                                
   LEXCH  = PE                                                                                      
   EATOM  =   813.3670 eV,   59.7808 Ry                                                             
                                                                                                    
   TITEL  = PAW_PBE Co 02Aug2007                                                                    
   LULTRA =        F    use ultrasoft PP ?                                                          
   IUNSCR =        1    unscreen: 0-lin 1-nonlin 2-no                                               
   RPACOR =    2.000    partial core radius                                                         
   POMASS =   58.933; ZVAL   =    9.000    mass and valenz                                          
   RCORE  =    2.300    outmost cutoff radius                                                       
   RWIGS  =    2.460; RWIGS  =    1.302    wigner-seitz radius (au A)                               
   ENMAX  =  267.968; ENMIN  =  200.976 eV                                                          
   RCLOC  =    1.203    cutoff for local pot                                                        
   LCOR   =        T    correct aug charges                                                         
   LPAW   =        T    paw PP                                                                      
   EAUG   =  477.818                                                                                
   DEXC   =    0.000                                                                                
   RMAX   =    2.360    core radius for proj-oper                                                   
   RAUG   =    1.300    factor for augmentation sphere                                              
   RDEP   =    2.393    radius for radial grids                                                     
   RDEPT  =    1.864    core radius for aug-charge                                                  
                                                                                                    
   Atomic configuration                                                                             
    9 entries                                                                                       
     n  l   j            E        occ.                                                              
     1  0  0.50     -7587.6674   2.0000                                                             
     2  0  0.50      -893.6084   2.0000                                                             
     2  1  1.50      -764.5805   6.0000                                                             
     3  0  0.50       -97.5973   2.0000                                                             
     3  1  1.50       -60.9648   6.0000                                                             
     3  2  2.50        -4.2382   8.0000                                                             
     4  0  0.50        -4.3746   1.0000                                                             
     4  1  1.50        -4.0817   0.0000                                                             
     4  3  2.50        -1.3606   0.0000                                                             
   Description                                                                                      
     l       E           TYP  RCUT    TYP  RCUT                                                     
     2     -4.2382362     23  2.300                                                                 
     2     -5.5988188     23  2.300                                                                 
     0     -4.3745797     23  2.300                                                                 
     0      5.7660125     23  2.300                                                                 
     1     -2.7211652     23  2.300                                                                 
     1     16.9860234     23  2.300                                                                 
  local pseudopotential read in
  partial core-charges read in
  partial kinetic energy density read in
  atomic valenz-charges read in
  non local Contribution for L=           2  read in
    real space projection operators read in
  non local Contribution for L=           2  read in
    real space projection operators read in
  non local Contribution for L=           0  read in
    real space projection operators read in
  non local Contribution for L=           0  read in
    real space projection operators read in
  non local Contribution for L=           1  read in
    real space projection operators read in
  non local Contribution for L=           1  read in
    real space projection operators read in
    PAW grid and wavefunctions read in
 
   number of l-projection  operators is LMAX  =           6
   number of lm-projection operators is LMMAX =          18
 
  PAW_PBE Co 02Aug2007                  :
 energy of atom  1       EATOM= -813.3670
 kinetic energy error for atom=    0.0093 (will be added to EATOM!!)
 
 
 POSCAR: Co
  positions in cartesian coordinates
  No initial velocities read in
 exchange correlation table for  LEXCH =        8
   RHO(1)=    0.500       N(1)  =     2000
   RHO(2)=  100.500       N(2)  =     4000
 


--------------------------------------------------------------------------------------------------------


 ion  position               nearest neighbor table
   1  0.000  0.000  0.000-   2 2.52   2 2.52   2 2.52   2 2.52   2 2.52   2 2.52
   2  0.333  0.667  0.500-   1 2.52   1 2.52   1 2.52   1 2.52   1 2.52   1 2.52
 
  LATTYP: Found a hexagonal cell.
 ALAT       =     2.5333320888
 C/A-ratio  =     1.6179593006
  
  Lattice vectors:
  
 A1 = (   2.5333320888,   0.0000000000,   0.0000000000)
 A2 = (  -1.2666660444,   2.1939299452,   0.0000000000)
 A3 = (   0.0000000000,   0.0000000000,   4.0988282146)


Analysis of symmetry for initial positions (statically):
=====================================================================
 Subroutine PRICEL returns:
 Original cell was already a primitive cell.
 

 Routine SETGRP: Setting up the symmetry group for a 
 hexagonal supercell.


 Subroutine GETGRP returns: Found 24 space group operations
 (whereof 12 operations were pure point group operations)
 out of a pool of 24 trial point group operations.


The static configuration has the point symmetry D_3h.
 The point group associated with its full space group is D_6h.


Analysis of symmetry for dynamics (positions and initial velocities):
=====================================================================
 Subroutine PRICEL returns:
 Original cell was already a primitive cell.
 

 Routine SETGRP: Setting up the symmetry group for a 
 hexagonal supercell.


 Subroutine GETGRP returns: Found 24 space group operations
 (whereof 12 operations were pure point group operations)
 out of a pool of 24 trial point group operations.


The dynamic configuration has the point symmetry D_3h.
 The point group associated with its full space group is D_6h.


Analysis of structural, dynamic, and magnetic symmetry:
=====================================================================
 Subroutine PRICEL returns:
 Original cell was already a primitive cell.
 

 Routine SETGRP: Setting up the symmetry group for a 
 hexagonal supercell.


 Subroutine GETGRP returns: Found 24 space group operations
 (whereof 12 operations were pure point group operations)
 out of a pool of 24 trial point group operations.


The overall configuration has the point symmetry D_3h.
 The point group associated with its full space group is D_6h.


 Subroutine INISYM returns: Found 24 space group operations
 (whereof 12 operations are pure point group operations),
 and found     1 'primitive' translations


----------------------------------------------------------------------------------------

                                     Primitive cell                                     

  volume of cell :      22.7811

  direct lattice vectors                    reciprocal lattice vectors
     2.533332089  0.000000000  0.000000000     0.394737036  0.227901534  0.000000000
    -1.266666044  2.193929945  0.000000000     0.000000000  0.455803068  0.000000000
     0.000000000  0.000000000  4.098828215     0.000000000  0.000000000  0.243972167

  length of vectors
     2.533332089  2.533332089  4.098828215     0.455803068  0.455803068  0.243972167

  position of ions in fractional coordinates (direct lattice)
     0.000000000  0.000000000  0.000000000
     0.333333333  0.666666667  0.500000000

  ion indices of the primitive-cell ions
   primitive index   ion index
                 1           1
                 2           2

----------------------------------------------------------------------------------------

 
 
 KPOINTS: Automatic mesh                          

Automatic generation of k-mesh.
 Grid dimensions read from file:
 generate k-points for:   10   10    8

 Generating k-lattice:

  Cartesian coordinates                     Fractional coordinates (reciprocal lattice)
     0.039473704  0.022790153  0.000000000     0.100000000  0.000000000  0.000000000
     0.000000000  0.045580307  0.000000000     0.000000000  0.100000000  0.000000000
     0.000000000  0.000000000  0.030496521     0.000000000  0.000000000  0.125000000

  Length of vectors
     0.045580307  0.045580307  0.030496521

  Shift w.r.t. Gamma in fractional coordinates (k-lattice)
     0.000000000  0.000000000  0.000000000

 
 Subroutine IBZKPT returns following result:
 ===========================================
 
 Found     70 irreducible k-points:
 
 Following reciprocal coordinates:
            Coordinates               Weight
  0.000000  0.000000  0.000000      1.000000
  0.100000  0.000000  0.000000      6.000000
  0.200000  0.000000  0.000000      6.000000
  0.300000  0.000000  0.000000      6.000000
  0.400000  0.000000  0.000000      6.000000
  0.500000  0.000000  0.000000      3.000000
  0.100000  0.100000  0.000000      6.000000
  0.200000  0.100000  0.000000     12.000000
  0.300000  0.100000  0.000000     12.000000
  0.400000  0.100000  0.000000     12.000000
  0.200000  0.200000  0.000000      6.000000
  0.300000  0.200000  0.000000     12.000000
  0.400000  0.200000  0.000000      6.000000
  0.300000  0.300000  0.000000      6.000000
  0.000000  0.000000  0.125000      2.000000
  0.100000  0.000000  0.125000     12.000000
  0.200000  0.000000  0.125000     12.000000
  0.300000  0.000000  0.125000     12.000000
  0.400000  0.000000  0.125000     12.000000
  0.500000  0.000000  0.125000      6.000000
  0.100000  0.100000  0.125000     12.000000
  0.200000  0.100000  0.125000     24.000000
  0.300000  0.100000  0.125000     24.000000
  0.400000  0.100000  0.125000     24.000000
  0.200000  0.200000  0.125000     12.000000
  0.300000  0.200000  0.125000     24.000000
  0.400000  0.200000  0.125000     12.000000
  0.300000  0.300000  0.125000     12.000000
  0.000000  0.000000  0.250000      2.000000
  0.100000  0.000000  0.250000     12.000000
  0.200000  0.000000  0.250000     12.000000
  0.300000  0.000000  0.250000     12.000000
  0.400000  0.000000  0.250000     12.000000
  0.500000  0.000000  0.250000      6.000000
  0.100000  0.100000  0.250000     12.000000
  0.200000  0.100000  0.250000     24.000000
  0.300000  0.100000  0.250000     24.000000
  0.400000  0.100000  0.250000     24.000000
  0.200000  0.200000  0.250000     12.000000
  0.300000  0.200000  0.250000     24.000000
  0.400000  0.200000  0.250000     12.000000
  0.300000  0.300000  0.250000     12.000000
  0.000000  0.000000  0.375000      2.000000
  0.100000  0.000000  0.375000     12.000000
  0.200000  0.000000  0.375000     12.000000
  0.300000  0.000000  0.375000     12.000000
  0.400000  0.000000  0.375000     12.000000
  0.500000  0.000000  0.375000      6.000000
  0.100000  0.100000  0.375000     12.000000
  0.200000  0.100000  0.375000     24.000000
  0.300000  0.100000  0.375000     24.000000
  0.400000  0.100000  0.375000     24.000000
  0.200000  0.200000  0.375000     12.000000
  0.300000  0.200000  0.375000     24.000000
  0.400000  0.200000  0.375000     12.000000
  0.300000  0.300000  0.375000     12.000000
  0.000000  0.000000  0.500000      1.000000
  0.100000  0.000000  0.500000      6.000000
  0.200000  0.000000  0.500000      6.000000
  0.300000  0.000000  0.500000      6.000000
  0.400000  0.000000  0.500000      6.000000
  0.500000  0.000000  0.500000      3.000000
  0.100000  0.100000  0.500000      6.000000
  0.200000  0.100000  0.500000     12.000000
  0.300000  0.100000  0.500000     12.000000
  0.400000  0.100000  0.500000     12.000000
  0.200000  0.200000  0.500000      6.000000
  0.300000  0.200000  0.500000     12.000000
  0.400000  0.200000  0.500000      6.000000
  0.300000  0.300000  0.500000      6.000000
 
 Following cartesian coordinates:
            Coordinates               Weight
  0.000000  0.000000  0.000000      1.000000
  0.039474  0.022790  0.000000      6.000000
  0.078947  0.045580  0.000000      6.000000
  0.118421  0.068370  0.000000      6.000000
  0.157895  0.091161  0.000000      6.000000
  0.197369  0.113951  0.000000      3.000000
  0.039474  0.068370  0.000000      6.000000
  0.078947  0.091161  0.000000     12.000000
  0.118421  0.113951  0.000000     12.000000
  0.157895  0.136741  0.000000     12.000000
  0.078947  0.136741  0.000000      6.000000
  0.118421  0.159531  0.000000     12.000000
  0.157895  0.182321  0.000000      6.000000
  0.118421  0.205111  0.000000      6.000000
  0.000000  0.000000  0.030497      2.000000
  0.039474  0.022790  0.030497     12.000000
  0.078947  0.045580  0.030497     12.000000
  0.118421  0.068370  0.030497     12.000000
  0.157895  0.091161  0.030497     12.000000
  0.197369  0.113951  0.030497      6.000000
  0.039474  0.068370  0.030497     12.000000
  0.078947  0.091161  0.030497     24.000000
  0.118421  0.113951  0.030497     24.000000
  0.157895  0.136741  0.030497     24.000000
  0.078947  0.136741  0.030497     12.000000
  0.118421  0.159531  0.030497     24.000000
  0.157895  0.182321  0.030497     12.000000
  0.118421  0.205111  0.030497     12.000000
  0.000000  0.000000  0.060993      2.000000
  0.039474  0.022790  0.060993     12.000000
  0.078947  0.045580  0.060993     12.000000
  0.118421  0.068370  0.060993     12.000000
  0.157895  0.091161  0.060993     12.000000
  0.197369  0.113951  0.060993      6.000000
  0.039474  0.068370  0.060993     12.000000
  0.078947  0.091161  0.060993     24.000000
  0.118421  0.113951  0.060993     24.000000
  0.157895  0.136741  0.060993     24.000000
  0.078947  0.136741  0.060993     12.000000
  0.118421  0.159531  0.060993     24.000000
  0.157895  0.182321  0.060993     12.000000
  0.118421  0.205111  0.060993     12.000000
  0.000000  0.000000  0.091490      2.000000
  0.039474  0.022790  0.091490     12.000000
  0.078947  0.045580  0.091490     12.000000
  0.118421  0.068370  0.091490     12.000000
  0.157895  0.091161  0.091490     12.000000
  0.197369  0.113951  0.091490      6.000000
  0.039474  0.068370  0.091490     12.000000
  0.078947  0.091161  0.091490     24.000000
  0.118421  0.113951  0.091490     24.000000
  0.157895  0.136741  0.091490     24.000000
  0.078947  0.136741  0.091490     12.000000
  0.118421  0.159531  0.091490     24.000000
  0.157895  0.182321  0.091490     12.000000
  0.118421  0.205111  0.091490     12.000000
  0.000000  0.000000  0.121986      1.000000
  0.039474  0.022790  0.121986      6.000000
  0.078947  0.045580  0.121986      6.000000
  0.118421  0.068370  0.121986      6.000000
  0.157895  0.091161  0.121986      6.000000
  0.197369  0.113951  0.121986      3.000000
  0.039474  0.068370  0.121986      6.000000
  0.078947  0.091161  0.121986     12.000000
  0.118421  0.113951  0.121986     12.000000
  0.157895  0.136741  0.121986     12.000000
  0.078947  0.136741  0.121986      6.000000
  0.118421  0.159531  0.121986     12.000000
  0.157895  0.182321  0.121986      6.000000
  0.118421  0.205111  0.121986      6.000000
 


--------------------------------------------------------------------------------------------------------




 Dimension of arrays:
   k-points           NKPTS =     70   k-points in BZ     NKDIM =     70   number of bands    NBANDS=     16
   number of dos      NEDOS =    301   number of ions     NIONS =      2
   non local maximal  LDIM  =      6   non local SUM 2l+1 LMDIM =     18
   total plane-waves  NPLWV =   9072
   max r-space proj   IRMAX =      1   max aug-charges    IRDMAX=  15903
   dimension x,y,z NGX =    18 NGY =   18 NGZ =   28
   dimension x,y,z NGXF=    36 NGYF=   36 NGZF=   56
   support grid    NGXF=    36 NGYF=   36 NGZF=   56
   ions per type =               2
   NGX,Y,Z   is equivalent  to a cutoff of  11.81, 11.81, 11.36 a.u.
   NGXF,Y,Z  is equivalent  to a cutoff of  23.62, 23.62, 22.71 a.u.

 SYSTEM =  Co-hcc                                  
 POSCAR =  Co                                      

 Startparameter for this run:
   NWRITE =      2    write-flag & timer
   PREC   = accura    normal or accurate (medium, high low for compatibility)
   ISTART =      0    job   : 0-new  1-cont  2-samecut
   ICHARG =      2    charge: 1-file 2-atom 10-const
   ISPIN  =      2    spin polarized calculation?
   LNONCOLLINEAR =      F non collinear calculations
   LSORBIT =      F    spin-orbit coupling
   INIWAV =      1    electr: 0-lowe 1-rand  2-diag
   LASPH  =      F    aspherical Exc in radial PAW
 Electronic Relaxation 1
   ENCUT  =  400.0 eV  29.40 Ry    5.42 a.u.   4.13  4.13  6.68*2*pi/ulx,y,z
   ENINI  =  400.0     initial cutoff
   ENAUG  =  477.8 eV  augmentation charge cutoff
   NELM   =    100;   NELMIN=  2; NELMDL= -5     # of ELM steps 
   EDIFF  = 0.1E-05   stopping-criterion for ELM
   LREAL  =      F    real-space projection
   NLSPLINE    = F    spline interpolate recip. space projectors
   LCOMPAT=      F    compatible to vasp.4.4
   GGA_COMPAT  = T    GGA compatible to vasp.4.4-vasp.4.6
   LMAXPAW     = -100 max onsite density
   LMAXMIX     =    2 max onsite mixed and CHGCAR
   VOSKOWN=      0    Vosko Wilk Nusair interpolation
   ROPT   =    0.00000
 Ionic relaxation
   EDIFFG = -.2E-01   stopping-criterion for IOM
   NSW    =    100    number of steps for IOM
   NBLOCK =      1;   KBLOCK =    100    inner block; outer block 
   IBRION =      2    ionic relax: 0-MD 1-quasi-New 2-CG
   NFREE  =      1    steps in history (QN), initial steepest desc. (CG)
   ISIF   =      2    stress and relaxation
   IWAVPR =     11    prediction:  0-non 1-charg 2-wave 3-comb
   ISYM   =      1    0-nonsym 1-usesym 2-fastsym
   LCORR  =      T    Harris-Foulkes like correction to forces

   POTIM  = 0.5000    time-step for ionic-motion
   TEIN   =    0.0    initial temperature
   TEBEG  =    0.0;   TEEND  =   0.0 temperature during run
   SMASS  =  -3.00    Nose mass-parameter (am)
   estimated Nose-frequenzy (Omega)   =  0.10E-29 period in steps = 0.13E+47 mass=  -0.147E-27a.u.
   SCALEE = 1.0000    scale energy and forces
   NPACO  =    256;   APACO  = 10.0  distance and # of slots for P.C.
   PSTRESS=    0.0 pullay stress

  Mass of Ions in am
   POMASS =  58.93
  Ionic Valenz
   ZVAL   =   9.00
  Atomic Wigner-Seitz radii
   RWIGS  =  -1.00
  virtual crystal weights 
   VCA    =   1.00
   NELECT =      18.0000    total number of electrons
   NUPDOWN=      -1.0000    fix difference up-down

 DOS related values:
   EMIN   =  10.00;   EMAX   =-10.00  energy-range for DOS
   EFERMI =   0.00
   ISMEAR =     0;   SIGMA  =   0.05  broadening in eV -4-tet -1-fermi 0-gaus

 Electronic relaxation 2 (details)
   IALGO  =     38    algorithm
   LDIAG  =      T    sub-space diagonalisation (order eigenvalues)
   LSUBROT=      F    optimize rotation matrix (better conditioning)
   TURBO    =      0    0=normal 1=particle mesh
   IRESTART =      0    0=no restart 2=restart with 2 vectors
   NREBOOT  =      0    no. of reboots
   NMIN     =      0    reboot dimension
   EREF     =   0.00    reference energy to select bands
   IMIX   =      4    mixing-type and parameters
     AMIX     =   0.40;   BMIX     =  1.00
     AMIX_MAG =   1.60;   BMIX_MAG =  1.00
     AMIN     =   0.10
     WC   =   100.;   INIMIX=   1;  MIXPRE=   1;  MAXMIX= -45

 Intra band minimization:
   WEIMIN = 0.0010     energy-eigenvalue tresh-hold
   EBREAK =  0.16E-07  absolut break condition
   DEPER  =   0.30     relativ break condition  

   TIME   =   0.40     timestep for ELM

  volume/ion in A,a.u.               =      11.39        76.87
  Fermi-wavevector in a.u.,A,eV,Ry     =   1.513471  2.860046 31.165434  2.290595
  Thomas-Fermi vector in A             =   2.623258
 
 Write flags
   LWAVE        =      T    write WAVECAR
   LDOWNSAMPLE  =      F    k-point downsampling of WAVECAR
   LCHARG       =      T    write CHGCAR
   LVTOT        =      F    write LOCPOT, total local potential
   LVHAR        =      F    write LOCPOT, Hartree potential only
   LELF         =      F    write electronic localiz. function (ELF)
   LORBIT       =     11    0 simple, 1 ext, 2 COOP (PROOUT), +10 PAW based schemes


 Dipole corrections
   LMONO  =      F    monopole corrections only (constant potential shift)
   LDIPOL =      F    correct potential (dipole corrections)
   IDIPOL =      0    1-x, 2-y, 3-z, 4-all directions 
   EPSILON=  1.0000000 bulk dielectric constant

 Exchange correlation treatment:
   GGA     =    --    GGA type
   LEXCH   =     8    internal setting for exchange type
   LIBXC   =     F    Libxc                    
   VOSKOWN =     0    Vosko Wilk Nusair interpolation
   LHFCALC =     F    Hartree Fock is set to
   LHFONE  =     F    Hartree Fock one center treatment
   AEXX    =    0.0000 exact exchange contribution

 Linear response parameters
   LEPSILON=     F    determine dielectric tensor
   LRPA    =     F    only Hartree local field effects (RPA)
   LNABLA  =     F    use nabla operator in PAW spheres
   LVEL    =     F    velocity operator in full k-point grid
   CSHIFT  =0.1000    complex shift for real part using Kramers Kronig
   OMEGAMAX=  -1.0    maximum frequency
   DEG_THRESHOLD= 0.2000000E-02 threshold for treating states as degnerate
   RTIME   =   -0.100 relaxation time in fs
  (WPLASMAI=    0.000 imaginary part of plasma frequency in eV, 0.658/RTIME)
   DFIELD  = 0.0000000 0.0000000 0.0000000 field for delta impulse in time
 
  Optional k-point grid parameters
   LKPOINTS_OPT  =     F    use optional k-point grid
   KPOINTS_OPT_MODE=     1    mode for optional k-point grid
 
 Orbital magnetization related:
   ORBITALMAG=     F  switch on orbital magnetization
   LCHIMAG   =     F  perturbation theory with respect to B field
   DQ        =  0.001000  dq finite difference perturbation B field
   LLRAUG    =     F  two centre corrections for induced B field



--------------------------------------------------------------------------------------------------------


 conjugate gradient relaxation of ions
 charge density and potential will be updated during run
 spin polarized calculation
 Variant of blocked Davidson
 Davidson routine will perform the subspace rotation
 perform sub-space diagonalisation
    after iterative eigenvector-optimisation
 modified Broyden-mixing scheme, WC =      100.0
 initial mixing is a Kerker type mixing with AMIX =  0.4000 and BMIX =      1.0000
 Hartree-type preconditioning will be used
 using additional bands            7
 reciprocal scheme for non local part
 use partial core corrections
 calculate Harris-corrections to forces 
   (improved forces if not selfconsistent)
 use gradient corrections 
 use of overlap-Matrix (Vanderbilt PP)
 Gauss-broadening in eV      SIGMA  =   0.05


--------------------------------------------------------------------------------------------------------


  energy-cutoff  :      400.00
  volume of cell :       22.78
      direct lattice vectors                 reciprocal lattice vectors
     2.533332089  0.000000000  0.000000000     0.394737036  0.227901534  0.000000000
    -1.266666044  2.193929945  0.000000000     0.000000000  0.455803068  0.000000000
     0.000000000  0.000000000  4.098828215     0.000000000  0.000000000  0.243972167

  length of vectors
     2.533332089  2.533332089  4.098828215     0.455803068  0.455803068  0.243972167


 
 k-points in units of 2pi/SCALE and weight: Automatic mesh                          
   0.00000000  0.00000000  0.00000000       0.001
   0.03947370  0.02279015  0.00000000       0.007
   0.07894741  0.04558031  0.00000000       0.007
   0.11842111  0.06837046  0.00000000       0.007
   0.15789481  0.09116061  0.00000000       0.007
   0.19736852  0.11395077  0.00000000       0.004
   0.03947370  0.06837046  0.00000000       0.007
   0.07894741  0.09116061  0.00000000       0.015
   0.11842111  0.11395077  0.00000000       0.015
   0.15789481  0.13674092  0.00000000       0.015
   0.07894741  0.13674092  0.00000000       0.007
   0.11842111  0.15953107  0.00000000       0.015
   0.15789481  0.18232123  0.00000000       0.007
   0.11842111  0.20511138  0.00000000       0.007
   0.00000000  0.00000000  0.03049652       0.003
   0.03947370  0.02279015  0.03049652       0.015
   0.07894741  0.04558031  0.03049652       0.015
   0.11842111  0.06837046  0.03049652       0.015
   0.15789481  0.09116061  0.03049652       0.015
   0.19736852  0.11395077  0.03049652       0.007
   0.03947370  0.06837046  0.03049652       0.015
   0.07894741  0.09116061  0.03049652       0.030
   0.11842111  0.11395077  0.03049652       0.030
   0.15789481  0.13674092  0.03049652       0.030
   0.07894741  0.13674092  0.03049652       0.015
   0.11842111  0.15953107  0.03049652       0.030
   0.15789481  0.18232123  0.03049652       0.015
   0.11842111  0.20511138  0.03049652       0.015
   0.00000000  0.00000000  0.06099304       0.003
   0.03947370  0.02279015  0.06099304       0.015
   0.07894741  0.04558031  0.06099304       0.015
   0.11842111  0.06837046  0.06099304       0.015
   0.15789481  0.09116061  0.06099304       0.015
   0.19736852  0.11395077  0.06099304       0.007
   0.03947370  0.06837046  0.06099304       0.015
   0.07894741  0.09116061  0.06099304       0.030
   0.11842111  0.11395077  0.06099304       0.030
   0.15789481  0.13674092  0.06099304       0.030
   0.07894741  0.13674092  0.06099304       0.015
   0.11842111  0.15953107  0.06099304       0.030
   0.15789481  0.18232123  0.06099304       0.015
   0.11842111  0.20511138  0.06099304       0.015
   0.00000000  0.00000000  0.09148956       0.003
   0.03947370  0.02279015  0.09148956       0.015
   0.07894741  0.04558031  0.09148956       0.015
   0.11842111  0.06837046  0.09148956       0.015
   0.15789481  0.09116061  0.09148956       0.015
   0.19736852  0.11395077  0.09148956       0.007
   0.03947370  0.06837046  0.09148956       0.015
   0.07894741  0.09116061  0.09148956       0.030
   0.11842111  0.11395077  0.09148956       0.030
   0.15789481  0.13674092  0.09148956       0.030
   0.07894741  0.13674092  0.09148956       0.015
   0.11842111  0.15953107  0.09148956       0.030
   0.15789481  0.18232123  0.09148956       0.015
   0.11842111  0.20511138  0.09148956       0.015
   0.00000000  0.00000000  0.12198608       0.001
   0.03947370  0.02279015  0.12198608       0.007
   0.07894741  0.04558031  0.12198608       0.007
   0.11842111  0.06837046  0.12198608       0.007
   0.15789481  0.09116061  0.12198608       0.007
   0.19736852  0.11395077  0.12198608       0.004
   0.03947370  0.06837046  0.12198608       0.007
   0.07894741  0.09116061  0.12198608       0.015
   0.11842111  0.11395077  0.12198608       0.015
   0.15789481  0.13674092  0.12198608       0.015
   0.07894741  0.13674092  0.12198608       0.007
   0.11842111  0.15953107  0.12198608       0.015
   0.15789481  0.18232123  0.12198608       0.007
   0.11842111  0.20511138  0.12198608       0.007
 
 k-points in reciprocal lattice and weights: Automatic mesh                          
   0.00000000  0.00000000  0.00000000       0.001
   0.10000000  0.00000000  0.00000000       0.007
   0.20000000  0.00000000  0.00000000       0.007
   0.30000000  0.00000000  0.00000000       0.007
   0.40000000  0.00000000  0.00000000       0.007
   0.50000000  0.00000000  0.00000000       0.004
   0.10000000  0.10000000  0.00000000       0.007
   0.20000000  0.10000000  0.00000000       0.015
   0.30000000  0.10000000  0.00000000       0.015
   0.40000000  0.10000000  0.00000000       0.015
   0.20000000  0.20000000  0.00000000       0.007
   0.30000000  0.20000000  0.00000000       0.015
   0.40000000  0.20000000  0.00000000       0.007
   0.30000000  0.30000000  0.00000000       0.007
   0.00000000  0.00000000  0.12500000       0.003
   0.10000000  0.00000000  0.12500000       0.015
   0.20000000  0.00000000  0.12500000       0.015
   0.30000000  0.00000000  0.12500000       0.015
   0.40000000  0.00000000  0.12500000       0.015
   0.50000000  0.00000000  0.12500000       0.007
   0.10000000  0.10000000  0.12500000       0.015
   0.20000000  0.10000000  0.12500000       0.030
   0.30000000  0.10000000  0.12500000       0.030
   0.40000000  0.10000000  0.12500000       0.030
   0.20000000  0.20000000  0.12500000       0.015
   0.30000000  0.20000000  0.12500000       0.030
   0.40000000  0.20000000  0.12500000       0.015
   0.30000000  0.30000000  0.12500000       0.015
   0.00000000  0.00000000  0.25000000       0.003
   0.10000000  0.00000000  0.25000000       0.015
   0.20000000  0.00000000  0.25000000       0.015
   0.30000000  0.00000000  0.25000000       0.015
   0.40000000  0.00000000  0.25000000       0.015
   0.50000000  0.00000000  0.25000000       0.007
   0.10000000  0.10000000  0.25000000       0.015
   0.20000000  0.10000000  0.25000000       0.030
   0.30000000  0.10000000  0.25000000       0.030
   0.40000000  0.10000000  0.25000000       0.030
   0.20000000  0.20000000  0.25000000       0.015
   0.30000000  0.20000000  0.25000000       0.030
   0.40000000  0.20000000  0.25000000       0.015
   0.30000000  0.30000000  0.25000000       0.015
   0.00000000  0.00000000  0.37500000       0.003
   0.10000000  0.00000000  0.37500000       0.015
   0.20000000  0.00000000  0.37500000       0.015
   0.30000000  0.00000000  0.37500000       0.015
   0.40000000  0.00000000  0.37500000       0.015
   0.50000000  0.00000000  0.37500000       0.007
   0.10000000  0.10000000  0.37500000       0.015
   0.20000000  0.10000000  0.37500000       0.030
   0.30000000  0.10000000  0.37500000       0.030
   0.40000000  0.10000000  0.37500000       0.030
   0.20000000  0.20000000  0.37500000       0.015
   0.30000000  0.20000000  0.37500000       0.030
   0.40000000  0.20000000  0.37500000       0.015
   0.30000000  0.30000000  0.37500000       0.015
   0.00000000  0.00000000  0.50000000       0.001
   0.10000000  0.00000000  0.50000000       0.007
   0.20000000  0.00000000  0.50000000       0.007
   0.30000000  0.00000000  0.50000000       0.007
   0.40000000  0.00000000  0.50000000       0.007
   0.50000000  0.00000000  0.50000000       0.004
   0.10000000  0.10000000  0.50000000       0.007
   0.20000000  0.10000000  0.50000000       0.015
   0.30000000  0.10000000  0.50000000       0.015
   0.40000000  0.10000000  0.50000000       0.015
   0.20000000  0.20000000  0.50000000       0.007
   0.30000000  0.20000000  0.50000000       0.015
   0.40000000  0.20000000  0.50000000       0.007
   0.30000000  0.30000000  0.50000000       0.007
 
 position of ions in fractional coordinates (direct lattice) 
   0.00000000  0.00000000  0.00000000
   0.33333333  0.66666667  0.50000000
 
 position of ions in cartesian coordinates  (Angst):
   0.00000000  0.00000000  0.00000000
   0.00000000  1.46261996  2.04941411
 


--------------------------------------------------------------------------------------------------------


 k-point   1 :   0.0000 0.0000 0.0000  plane waves:     391
 k-point   2 :   0.1000 0.0000 0.0000  plane waves:     403
 k-point   3 :   0.2000 0.0000 0.0000  plane waves:     411
 k-point   4 :   0.3000 0.0000 0.0000  plane waves:     419
 k-point   5 :   0.4000 0.0000 0.0000  plane waves:     421
 k-point   6 :   0.5000 0.0000 0.0000  plane waves:     428
 k-point   7 :   0.1000 0.1000 0.0000  plane waves:     410
 k-point   8 :   0.2000 0.1000 0.0000  plane waves:     410
 k-point   9 :   0.3000 0.1000 0.0000  plane waves:     414
 k-point  10 :   0.4000 0.1000 0.0000  plane waves:     420
 k-point  11 :   0.2000 0.2000 0.0000  plane waves:     410
 k-point  12 :   0.3000 0.2000 0.0000  plane waves:     416
 k-point  13 :   0.4000 0.2000 0.0000  plane waves:     418
 k-point  14 :   0.3000 0.3000 0.0000  plane waves:     424
 k-point  15 :   0.0000 0.0000 0.1250  plane waves:     391
 k-point  16 :   0.1000 0.0000 0.1250  plane waves:     404
 k-point  17 :   0.2000 0.0000 0.1250  plane waves:     408
 k-point  18 :   0.3000 0.0000 0.1250  plane waves:     415
 k-point  19 :   0.4000 0.0000 0.1250  plane waves:     422
 k-point  20 :   0.5000 0.0000 0.1250  plane waves:     426
 k-point  21 :   0.1000 0.1000 0.1250  plane waves:     407
 k-point  22 :   0.2000 0.1000 0.1250  plane waves:     415
 k-point  23 :   0.3000 0.1000 0.1250  plane waves:     412
 k-point  24 :   0.4000 0.1000 0.1250  plane waves:     417
 k-point  25 :   0.2000 0.2000 0.1250  plane waves:     414
 k-point  26 :   0.3000 0.2000 0.1250  plane waves:     418
 k-point  27 :   0.4000 0.2000 0.1250  plane waves:     419
 k-point  28 :   0.3000 0.3000 0.1250  plane waves:     414
 k-point  29 :   0.0000 0.0000 0.2500  plane waves:     397
 k-point  30 :   0.1000 0.0000 0.2500  plane waves:     410
 k-point  31 :   0.2000 0.0000 0.2500  plane waves:     412
 k-point  32 :   0.3000 0.0000 0.2500  plane waves:     416
 k-point  33 :   0.4000 0.0000 0.2500  plane waves:     417
 k-point  34 :   0.5000 0.0000 0.2500  plane waves:     420
 k-point  35 :   0.1000 0.1000 0.2500  plane waves:     407
 k-point  36 :   0.2000 0.1000 0.2500  plane waves:     412
 k-point  37 :   0.3000 0.1000 0.2500  plane waves:     415
 k-point  38 :   0.4000 0.1000 0.2500  plane waves:     416
 k-point  39 :   0.2000 0.2000 0.2500  plane waves:     411
 k-point  40 :   0.3000 0.2000 0.2500  plane waves:     413
 k-point  41 :   0.4000 0.2000 0.2500  plane waves:     418
 k-point  42 :   0.3000 0.3000 0.2500  plane waves:     416
 k-point  43 :   0.0000 0.0000 0.3750  plane waves:     410
 k-point  44 :   0.1000 0.0000 0.3750  plane waves:     410
 k-point  45 :   0.2000 0.0000 0.3750  plane waves:     417
 k-point  46 :   0.3000 0.0000 0.3750  plane waves:     413
 k-point  47 :   0.4000 0.0000 0.3750  plane waves:     414
 k-point  48 :   0.5000 0.0000 0.3750  plane waves:     416
 k-point  49 :   0.1000 0.1000 0.3750  plane waves:     411
 k-point  50 :   0.2000 0.1000 0.3750  plane waves:     413
 k-point  51 :   0.3000 0.1000 0.3750  plane waves:     415
 k-point  52 :   0.4000 0.1000 0.3750  plane waves:     414
 k-point  53 :   0.2000 0.2000 0.3750  plane waves:     415
 k-point  54 :   0.3000 0.2000 0.3750  plane waves:     412
 k-point  55 :   0.4000 0.2000 0.3750  plane waves:     412
 k-point  56 :   0.3000 0.3000 0.3750  plane waves:     417
 k-point  57 :   0.0000 0.0000 0.5000  plane waves:     398
 k-point  58 :   0.1000 0.0000 0.5000  plane waves:     402
 k-point  59 :   0.2000 0.0000 0.5000  plane waves:     416
 k-point  60 :   0.3000 0.0000 0.5000  plane waves:     420
 k-point  61 :   0.4000 0.0000 0.5000  plane waves:     412
 k-point  62 :   0.5000 0.0000 0.5000  plane waves:     416
 k-point  63 :   0.1000 0.1000 0.5000  plane waves:     412
 k-point  64 :   0.2000 0.1000 0.5000  plane waves:     414
 k-point  65 :   0.3000 0.1000 0.5000  plane waves:     414
 k-point  66 :   0.4000 0.1000 0.5000  plane waves:     410
 k-point  67 :   0.2000 0.2000 0.5000  plane waves:     422
 k-point  68 :   0.3000 0.2000 0.5000  plane waves:     416
 k-point  69 :   0.4000 0.2000 0.5000  plane waves:     412
 k-point  70 :   0.3000 0.3000 0.5000  plane waves:     420

 maximum and minimum number of plane-waves per node :        79       61

 maximum number of plane-waves:       428
 maximum index in each direction: 
   IXMAX=    4   IYMAX=    4   IZMAX=    6
   IXMIN=   -4   IYMIN=   -4   IZMIN=   -7


 parallel 3D FFT for wavefunctions:
    minimum data exchange during FFTs selected (reduces bandwidth)
 parallel 3D FFT for charge:
    minimum data exchange during FFTs selected (reduces bandwidth)


 total amount of memory used by VASP MPI-rank0    32334. kBytes
=======================================================================

   base      :      30000. kBytes
   nonl-proj :        808. kBytes
   fftplans  :        178. kBytes
   grid      :        421. kBytes
   one-center:         31. kBytes
   wavefun   :        896. kBytes
 
     INWAV:  cpu time      0.0000: real time      0.0004
 Broyden mixing: mesh for mixing (old mesh)
   NGX =  9   NGY =  9   NGZ = 13
  (NGX  = 36   NGY  = 36   NGZ  = 56)
  gives a total of   1053 points

 initial charge density was supplied:
 charge density of overlapping atoms calculated
 number of electron      18.0000000 magnetization       6.0000000
 keeping initial charge density in first step


--------------------------------------------------------------------------------------------------------


 Maximum index for augmentation-charges         1006 (set IRDMAX)


--------------------------------------------------------------------------------------------------------


 First call to EWALD:  gamma=   0.625
 Maximum number of real-space cells 3x 3x 2
 Maximum number of reciprocal cells 3x 3x 4

    FEWALD:  cpu time      0.0015: real time      0.0015


--------------------------------------- Iteration      1(   1)  ---------------------------------------


    POTLOK:  cpu time      0.0067: real time      0.0069
    SETDIJ:  cpu time      0.0054: real time      0.0055
     EDDAV:  cpu time      0.4248: real time      0.4272
       DOS:  cpu time      0.0013: real time      0.0013
    --------------------------------------------
      LOOP:  cpu time      0.4383: real time      0.4409

 eigenvalue-minimisations  :  4608
 total energy-change (2. order) : 0.6980347E+02  (-0.7100280E+03)
 number of electron      18.0000000 magnetization       6.0000000
 augmentation part       18.0000000 magnetization       6.0000000

 Free energy of the ion-electron system (eV)
  ---------------------------------------------------
  alpha Z        PSCENC =        74.37340602
  Ewald energy   TEWEN  =     -1497.18334785
  -Hartree energ DENC   =      -310.41363380
  -exchange      EXHF   =         0.00000000
  -V(xc)+E(xc)   XCENC  =        35.32057684
  PAW double counting   =      1439.98163886    -1545.88690193
  entropy T*S    EENTRO =        -0.00268708
  eigenvalues    EBANDS =       246.89895448
  atomic energy  EATOM  =      1626.71546820
  Solvation  Ediel_sol  =         0.00000000
  ---------------------------------------------------
  free energy    TOTEN  =        69.80347374 eV

  energy without entropy =       69.80616082  energy(sigma->0) =       69.80481728


--------------------------------------------------------------------------------------------------------




--------------------------------------- Iteration      1(   2)  ---------------------------------------


     EDDAV:  cpu time      0.4010: real time      0.4040
       DOS:  cpu time      0.0014: real time      0.0014
    --------------------------------------------
      LOOP:  cpu time      0.4024: real time      0.4054

 eigenvalue-minimisations  :  4504
 total energy-change (2. order) :-0.8347329E+02  (-0.7688620E+02)
 number of electron      18.0000000 magnetization       6.0000000
 augmentation part       18.0000000 magnetization       6.0000000

 Free energy of the ion-electron system (eV)
  ---------------------------------------------------
  alpha Z        PSCENC =        74.37340602
  Ewald energy   TEWEN  =     -1497.18334785
  -Hartree energ DENC   =      -310.41363380
  -exchange      EXHF   =         0.00000000
  -V(xc)+E(xc)   XCENC  =        35.32057684
  PAW double counting   =      1439.98163886    -1545.88690193
  entropy T*S    EENTRO =        -0.00191042
  eigenvalues    EBANDS =       163.42489272
  atomic energy  EATOM  =      1626.71546820
  Solvation  Ediel_sol  =         0.00000000
  ---------------------------------------------------
  free energy    TOTEN  =       -13.66981136 eV

  energy without entropy =      -13.66790094  energy(sigma->0) =      -13.66885615


--------------------------------------------------------------------------------------------------------




--------------------------------------- Iteration      1(   3)  ---------------------------------------


     EDDAV:  cpu time      0.4805: real time      0.4831
       DOS:  cpu time      0.0014: real time      0.0014
    --------------------------------------------
      LOOP:  cpu time      0.4820: real time      0.4846

 eigenvalue-minimisations  :  5600
 total energy-change (2. order) :-0.1988685E+01  (-0.1958186E+01)
 number of electron      18.0000000 magnetization       6.0000000
 augmentation part       18.0000000 magnetization       6.0000000

 Free energy of the ion-electron system (eV)
  ---------------------------------------------------
  alpha Z        PSCENC =        74.37340602
  Ewald energy   TEWEN  =     -1497.18334785
  -Hartree energ DENC   =      -310.41363380
  -exchange      EXHF   =         0.00000000
  -V(xc)+E(xc)   XCENC  =        35.32057684
  PAW double counting   =      1439.98163886    -1545.88690193
  entropy T*S    EENTRO =        -0.00203375
  eigenvalues    EBANDS =       161.43633091
  atomic energy  EATOM  =      1626.71546820
  Solvation  Ediel_sol  =         0.00000000
  ---------------------------------------------------
  free energy    TOTEN  =       -15.65849649 eV

  energy without entropy =      -15.65646274  energy(sigma->0) =      -15.65747962


--------------------------------------------------------------------------------------------------------




--------------------------------------- Iteration      1(   4)  ---------------------------------------


     EDDAV:  cpu time      0.5538: real time      0.5567
       DOS:  cpu time      0.0014: real time      0.0014
    --------------------------------------------
      LOOP:  cpu time      0.5552: real time      0.5582

 eigenvalue-minimisations  :  6496
 total energy-change (2. order) :-0.3589250E-01  (-0.3588426E-01)
 number of electron      18.0000000 magnetization       6.0000000
 augmentation part       18.0000000 magnetization       6.0000000

 Free energy of the ion-electron system (eV)
  ---------------------------------------------------
  alpha Z        PSCENC =        74.37340602
  Ewald energy   TEWEN  =     -1497.18334785
  -Hartree energ DENC   =      -310.41363380
  -exchange      EXHF   =         0.00000000
  -V(xc)+E(xc)   XCENC  =        35.32057684
  PAW double counting   =      1439.98163886    -1545.88690193
  entropy T*S    EENTRO =        -0.00203017
  eigenvalues    EBANDS =       161.40043484
  atomic energy  EATOM  =      1626.71546820
  Solvation  Ediel_sol  =         0.00000000
  ---------------------------------------------------
  free energy    TOTEN  =       -15.69438899 eV

  energy without entropy =      -15.69235882  energy(sigma->0) =      -15.69337390


--------------------------------------------------------------------------------------------------------




--------------------------------------- Iteration      1(   5)  ---------------------------------------


     EDDAV:  cpu time      0.4848: real time      0.4874
       DOS:  cpu time      0.0014: real time      0.0014
    CHARGE:  cpu time      0.0232: real time      0.0233
    MIXING:  cpu time      0.0004: real time      0.0004
    --------------------------------------------
      LOOP:  cpu time      0.5098: real time      0.5125

 eigenvalue-minimisations  :  5672
 total energy-change (2. order) :-0.1563518E-03  (-0.1563502E-03)
 number of electron      18.0000033 magnetization       3.5803509
 augmentation part        9.1392210 magnetization       2.7894117

 Broyden mixing:
  rms(total) = 0.15333E+01    rms(broyden)= 0.15333E+01
  rms(prec ) = 0.26618E+01
  weight for this iteration     100.00

 Free energy of the ion-electron system (eV)
  ---------------------------------------------------
  alpha Z        PSCENC =        74.37340602
  Ewald energy   TEWEN  =     -1497.18334785
  -Hartree energ DENC   =      -310.41363380
  -exchange      EXHF   =         0.00000000
  -V(xc)+E(xc)   XCENC  =        35.32057684
  PAW double counting   =      1439.98163886    -1545.88690193
  entropy T*S    EENTRO =        -0.00203026
  eigenvalues    EBANDS =       161.40027857
  atomic energy  EATOM  =      1626.71546820
  Solvation  Ediel_sol  =         0.00000000
  ---------------------------------------------------
  free energy    TOTEN  =       -15.69454534 eV

  energy without entropy =      -15.69251508  energy(sigma->0) =      -15.69353021


--------------------------------------------------------------------------------------------------------




--------------------------------------- Iteration      1(   6)  ---------------------------------------


    POTLOK:  cpu time      0.0052: real time      0.0054
    SETDIJ:  cpu time      0.0053: real time      0.0053
     EDDAV:  cpu time      0.4131: real time      0.4152
       DOS:  cpu time      0.0015: real time      0.0015
    CHARGE:  cpu time      0.0226: real time      0.0227
    MIXING:  cpu time      0.0003: real time      0.0003
    --------------------------------------------
      LOOP:  cpu time      0.4480: real time      0.4504

 eigenvalue-minimisations  :  4704
 total energy-change (2. order) : 0.1189078E+01  (-0.1212831E+01)
 number of electron      18.0000039 magnetization       3.3812638
 augmentation part       10.7725046 magnetization       2.9630048

 Broyden mixing:
  rms(total) = 0.71995E+00    rms(broyden)= 0.71991E+00
  rms(prec ) = 0.10007E+01
  weight for this iteration     100.00

 eigenvalues of (default mixing * dielectric matrix)
  average eigenvalue GAMMA=   0.8143
  0.8143

 Free energy of the ion-electron system (eV)
  ---------------------------------------------------
  alpha Z        PSCENC =        74.37340602
  Ewald energy   TEWEN  =     -1497.18334785
  -Hartree energ DENC   =      -271.87497220
  -exchange      EXHF   =         0.00000000
  -V(xc)+E(xc)   XCENC  =        32.31282170
  PAW double counting   =      1558.92643968    -1654.07437927
  entropy T*S    EENTRO =        -0.00286569
  eigenvalues    EBANDS =       116.30196164
  atomic energy  EATOM  =      1626.71546820
  Solvation  Ediel_sol  =         0.00000000
  ---------------------------------------------------
  free energy    TOTEN  =       -14.50546776 eV

  energy without entropy =      -14.50260207  energy(sigma->0) =      -14.50403491


--------------------------------------------------------------------------------------------------------




--------------------------------------- Iteration      1(   7)  ---------------------------------------


    POTLOK:  cpu time      0.0050: real time      0.0052
    SETDIJ:  cpu time      0.0051: real time      0.0051
     EDDAV:  cpu time      0.4333: real time      0.4355
       DOS:  cpu time      0.0014: real time      0.0015
    CHARGE:  cpu time      0.0217: real time      0.0217
    MIXING:  cpu time      0.0003: real time      0.0003
    --------------------------------------------
      LOOP:  cpu time      0.4668: real time      0.4693

 eigenvalue-minimisations  :  5016
 total energy-change (2. order) : 0.4290978E+00  (-0.1788567E+00)
 number of electron      18.0000036 magnetization       3.3687660
 augmentation part       10.1909947 magnetization       2.9878290

 Broyden mixing:
  rms(total) = 0.37509E+00    rms(broyden)= 0.37508E+00
  rms(prec ) = 0.44243E+00
  weight for this iteration     100.00

 eigenvalues of (default mixing * dielectric matrix)
  average eigenvalue GAMMA=   0.7313
  0.9746  0.4881

 Free energy of the ion-electron system (eV)
  ---------------------------------------------------
  alpha Z        PSCENC =        74.37340602
  Ewald energy   TEWEN  =     -1497.18334785
  -Hartree energ DENC   =      -281.12018987
  -exchange      EXHF   =         0.00000000
  -V(xc)+E(xc)   XCENC  =        32.85264051
  PAW double counting   =      1630.82202929    -1733.11562555
  entropy T*S    EENTRO =        -0.00273270
  eigenvalues    EBANDS =       132.58198200
  atomic energy  EATOM  =      1626.71546820
  Solvation  Ediel_sol  =         0.00000000
  ---------------------------------------------------
  free energy    TOTEN  =       -14.07636995 eV

  energy without entropy =      -14.07363724  energy(sigma->0) =      -14.07500359


--------------------------------------------------------------------------------------------------------




--------------------------------------- Iteration      1(   8)  ---------------------------------------


    POTLOK:  cpu time      0.0049: real time      0.0051
    SETDIJ:  cpu time      0.0049: real time      0.0049
     EDDAV:  cpu time      0.5258: real time      0.5284
       DOS:  cpu time      0.0013: real time      0.0013
    CHARGE:  cpu time      0.0222: real time      0.0223
    MIXING:  cpu time      0.0003: real time      0.0003
    --------------------------------------------
      LOOP:  cpu time      0.5594: real time      0.5623

 eigenvalue-minimisations  :  6168
 total energy-change (2. order) : 0.1677468E-01  (-0.2053765E-02)
 number of electron      18.0000037 magnetization       3.3785926
 augmentation part       10.2230468 magnetization       3.0272442

 Broyden mixing:
  rms(total) = 0.15763E+00    rms(broyden)= 0.15763E+00
  rms(prec ) = 0.21183E+00
  weight for this iteration     100.00

 eigenvalues of (default mixing * dielectric matrix)
  average eigenvalue GAMMA=   0.9989
  1.6691  0.7547  0.5728

 Free energy of the ion-electron system (eV)
  ---------------------------------------------------
  alpha Z        PSCENC =        74.37340602
  Ewald energy   TEWEN  =     -1497.18334785
  -Hartree energ DENC   =      -278.70459560
  -exchange      EXHF   =         0.00000000
  -V(xc)+E(xc)   XCENC  =        32.80439260
  PAW double counting   =      1677.82855213    -1781.30334671
  entropy T*S    EENTRO =        -0.00264501
  eigenvalues    EBANDS =       131.41252097
  atomic energy  EATOM  =      1626.71546820
  Solvation  Ediel_sol  =         0.00000000
  ---------------------------------------------------
  free energy    TOTEN  =       -14.05959527 eV

  energy without entropy =      -14.05695025  energy(sigma->0) =      -14.05827276


--------------------------------------------------------------------------------------------------------




--------------------------------------- Iteration      1(   9)  ---------------------------------------


    POTLOK:  cpu time      0.0050: real time      0.0052
    SETDIJ:  cpu time      0.0051: real time      0.0051
     EDDAV:  cpu time      0.5540: real time      0.5568
       DOS:  cpu time      0.0015: real time      0.0015
    CHARGE:  cpu time      0.0219: real time      0.0220
    MIXING:  cpu time      0.0003: real time      0.0003
    --------------------------------------------
      LOOP:  cpu time      0.5877: real time      0.5908

 eigenvalue-minimisations  :  6672
 total energy-change (2. order) : 0.1389339E-01  (-0.5904817E-03)
 number of electron      18.0000037 magnetization       3.3888187
 augmentation part       10.2609069 magnetization       3.0526311

 Broyden mixing:
  rms(total) = 0.47782E-01    rms(broyden)= 0.47781E-01
  rms(prec ) = 0.59038E-01
  weight for this iteration     100.00

 eigenvalues of (default mixing * dielectric matrix)
  average eigenvalue GAMMA=   1.0786
  2.1427  0.8024  0.7526  0.6166

 Free energy of the ion-electron system (eV)
  ---------------------------------------------------
  alpha Z        PSCENC =        74.37340602
  Ewald energy   TEWEN  =     -1497.18334785
  -Hartree energ DENC   =      -276.01073567
  -exchange      EXHF   =         0.00000000
  -V(xc)+E(xc)   XCENC  =        32.72242341
  PAW double counting   =      1729.88550347    -1834.76427716
  entropy T*S    EENTRO =        -0.00264796
  eigenvalues    EBANDS =       130.21850566
  atomic energy  EATOM  =      1626.71546820
  Solvation  Ediel_sol  =         0.00000000
  ---------------------------------------------------
  free energy    TOTEN  =       -14.04570187 eV

  energy without entropy =      -14.04305392  energy(sigma->0) =      -14.04437789


--------------------------------------------------------------------------------------------------------




--------------------------------------- Iteration      1(  10)  ---------------------------------------


    POTLOK:  cpu time      0.0050: real time      0.0052
    SETDIJ:  cpu time      0.0050: real time      0.0050
     EDDAV:  cpu time      0.5139: real time      0.5165
       DOS:  cpu time      0.0014: real time      0.0014
    CHARGE:  cpu time      0.0216: real time      0.0216
    MIXING:  cpu time      0.0003: real time      0.0003
    --------------------------------------------
      LOOP:  cpu time      0.5472: real time      0.5501

 eigenvalue-minimisations  :  6128
 total energy-change (2. order) : 0.9343923E-03  (-0.7286814E-04)
 number of electron      18.0000037 magnetization       3.3877835
 augmentation part       10.2660982 magnetization       3.0420468

 Broyden mixing:
  rms(total) = 0.76369E-02    rms(broyden)= 0.76367E-02
  rms(prec ) = 0.11168E-01
  weight for this iteration     100.00

 eigenvalues of (default mixing * dielectric matrix)
  average eigenvalue GAMMA=   1.1456
  2.3143  1.0565  1.0565  0.6503  0.6503

 Free energy of the ion-electron system (eV)
  ---------------------------------------------------
  alpha Z        PSCENC =        74.37340602
  Ewald energy   TEWEN  =     -1497.18334785
  -Hartree energ DENC   =      -275.14374908
  -exchange      EXHF   =         0.00000000
  -V(xc)+E(xc)   XCENC  =        32.66629135
  PAW double counting   =      1750.79178977    -1856.33870012
  entropy T*S    EENTRO =        -0.00269683
  eigenvalues    EBANDS =       130.07677106
  atomic energy  EATOM  =      1626.71546820
  Solvation  Ediel_sol  =         0.00000000
  ---------------------------------------------------
  free energy    TOTEN  =       -14.04476748 eV

  energy without entropy =      -14.04207065  energy(sigma->0) =      -14.04341906


--------------------------------------------------------------------------------------------------------




--------------------------------------- Iteration      1(  11)  ---------------------------------------


    POTLOK:  cpu time      0.0049: real time      0.0051
    SETDIJ:  cpu time      0.0050: real time      0.0050
     EDDAV:  cpu time      0.5566: real time      0.5594
       DOS:  cpu time      0.0014: real time      0.0014
    CHARGE:  cpu time      0.0220: real time      0.0221
    MIXING:  cpu time      0.0003: real time      0.0003
    --------------------------------------------
      LOOP:  cpu time      0.5902: real time      0.5933

 eigenvalue-minimisations  :  6672
 total energy-change (2. order) : 0.2550629E-04  (-0.8599357E-05)
 number of electron      18.0000037 magnetization       3.3884453
 augmentation part       10.2672754 magnetization       3.0389395

 Broyden mixing:
  rms(total) = 0.26984E-02    rms(broyden)= 0.26983E-02
  rms(prec ) = 0.40412E-02
  weight for this iteration     100.00

 eigenvalues of (default mixing * dielectric matrix)
  average eigenvalue GAMMA=   1.0709
  2.3181  1.0519  1.0519  0.6120  0.6956  0.6956

 Free energy of the ion-electron system (eV)
  ---------------------------------------------------
  alpha Z        PSCENC =        74.37340602
  Ewald energy   TEWEN  =     -1497.18334785
  -Hartree energ DENC   =      -274.98916078
  -exchange      EXHF   =         0.00000000
  -V(xc)+E(xc)   XCENC  =        32.64983290
  PAW double counting   =      1754.52908259    -1860.19044611
  entropy T*S    EENTRO =        -0.00271925
  eigenvalues    EBANDS =       130.05314230
  atomic energy  EATOM  =      1626.71546820
  Solvation  Ediel_sol  =         0.00000000
  ---------------------------------------------------
  free energy    TOTEN  =       -14.04474197 eV

  energy without entropy =      -14.04202272  energy(sigma->0) =      -14.04338235


--------------------------------------------------------------------------------------------------------




--------------------------------------- Iteration      1(  12)  ---------------------------------------


    POTLOK:  cpu time      0.0050: real time      0.0052
    SETDIJ:  cpu time      0.0049: real time      0.0049
     EDDAV:  cpu time      0.4294: real time      0.4316
       DOS:  cpu time      0.0015: real time      0.0015
    CHARGE:  cpu time      0.0221: real time      0.0221
    MIXING:  cpu time      0.0003: real time      0.0003
    --------------------------------------------
      LOOP:  cpu time      0.4632: real time      0.4657

 eigenvalue-minimisations  :  4920
 total energy-change (2. order) : 0.3266940E-05  (-0.5650054E-06)
 number of electron      18.0000037 magnetization       3.3887699
 augmentation part       10.2676210 magnetization       3.0393488

 Broyden mixing:
  rms(total) = 0.16133E-02    rms(broyden)= 0.16133E-02
  rms(prec ) = 0.24326E-02
  weight for this iteration     100.00

 eigenvalues of (default mixing * dielectric matrix)
  average eigenvalue GAMMA=   1.2153
  2.2206  2.2206  1.0479  1.0479  0.6911  0.6394  0.6394

 Free energy of the ion-electron system (eV)
  ---------------------------------------------------
  alpha Z        PSCENC =        74.37340602
  Ewald energy   TEWEN  =     -1497.18334785
  -Hartree energ DENC   =      -274.95752255
  -exchange      EXHF   =         0.00000000
  -V(xc)+E(xc)   XCENC  =        32.64906864
  PAW double counting   =      1755.28411033    -1860.96385201
  entropy T*S    EENTRO =        -0.00271978
  eigenvalues    EBANDS =       130.04065029
  atomic energy  EATOM  =      1626.71546820
  Solvation  Ediel_sol  =         0.00000000
  ---------------------------------------------------
  free energy    TOTEN  =       -14.04473871 eV

  energy without entropy =      -14.04201893  energy(sigma->0) =      -14.04337882


--------------------------------------------------------------------------------------------------------




--------------------------------------- Iteration      1(  13)  ---------------------------------------


    POTLOK:  cpu time      0.0050: real time      0.0052
    SETDIJ:  cpu time      0.0049: real time      0.0049
     EDDAV:  cpu time      0.3408: real time      0.3426
       DOS:  cpu time      0.0015: real time      0.0015
    --------------------------------------------
      LOOP:  cpu time      0.3521: real time      0.3541

 eigenvalue-minimisations  :  3376
 total energy-change (2. order) : 0.8395032E-06  (-0.1052807E-06)
 number of electron      18.0000037 magnetization       3.3887699
 augmentation part       10.2676210 magnetization       3.0393488

 Free energy of the ion-electron system (eV)
  ---------------------------------------------------
  alpha Z        PSCENC =        74.37340602
  Ewald energy   TEWEN  =     -1497.18334785
  -Hartree energ DENC   =      -274.91178494
  -exchange      EXHF   =         0.00000000
  -V(xc)+E(xc)   XCENC  =        32.64733863
  PAW double counting   =      1756.45991459    -1862.16468712
  entropy T*S    EENTRO =        -0.00272237
  eigenvalues    EBANDS =       130.02167696
  atomic energy  EATOM  =      1626.71546820
  Solvation  Ediel_sol  =         0.00000000
  ---------------------------------------------------
  free energy    TOTEN  =       -14.04473787 eV

  energy without entropy =      -14.04201550  energy(sigma->0) =      -14.04337668


--------------------------------------------------------------------------------------------------------




 average (electrostatic) potential at core
  the test charge radii are     1.0452
  (the norm of the test charge is              1.0000)
       1 -78.9489       2 -78.9489
 
 
 
 E-fermi :   9.5497     XC(G=0): -13.1226     alpha+bet :-16.8863

 Fermi energy:         9.5496644166

 spin component 1

 k-point     1 :       0.0000    0.0000    0.0000
  band No.  band energies     occupation 
      1       0.9534      1.00000
      2       4.6500      1.00000
      3       6.9973      1.00000
      4       7.0180      1.00000
      5       7.0180      1.00000
      6       7.3034      1.00000
      7       7.3034      1.00000
      8       7.6261      1.00000
      9       7.6261      1.00000
     10       8.6411      1.00000
     11       8.6411      1.00000
     12       9.5313      0.69866
     13      15.4826      0.00000
     14      31.1532      0.00000
     15      33.2357      0.00000
     16      33.2357      0.00000

 k-point     2 :       0.1000    0.0000    0.0000
  band No.  band energies     occupation 
      1       1.2898      1.00000
      2       4.8443      1.00000
      3       6.7541      1.00000
      4       7.1679      1.00000
      5       7.1929      1.00000
      6       7.2684      1.00000
      7       7.4055      1.00000
      8       7.4352      1.00000
      9       7.5350      1.00000
     10       7.8499      1.00000
     11       8.6787      1.00000
     12      10.7808      0.00000
     13      15.5507      0.00000
     14      28.3681      0.00000
     15      30.7325      0.00000
     16      31.2259      0.00000

 k-point     3 :       0.2000    0.0000    0.0000
  band No.  band energies     occupation 
      1       2.2460      1.00000
      2       5.2663      1.00000
      3       6.4716      1.00000
      4       6.5678      1.00000
      5       7.0539      1.00000
      6       7.3251      1.00000
      7       7.5252      1.00000
      8       7.5781      1.00000
      9       7.5973      1.00000
     10       7.7945      1.00000
     11       8.7499      1.00000
     12      12.6744      0.00000
     13      15.7971      0.00000
     14      23.7989      0.00000
     15      28.0625      0.00000
     16      30.1077      0.00000

 k-point     4 :       0.3000    0.0000    0.0000
  band No.  band energies     occupation 
      1       3.5920      1.00000
      2       5.3903      1.00000
      3       5.8664      1.00000
      4       6.4528      1.00000
      5       7.0661      1.00000
      6       7.0994      1.00000
      7       7.3133      1.00000
      8       8.1233      1.00000
      9       8.2031      1.00000
     10       8.2712      1.00000
     11       8.8060      1.00000
     12      14.8482      0.00000
     13      16.1999      0.00000
     14      19.7418      0.00000
     15      25.9031      0.00000
     16      27.1889      0.00000

 k-point     5 :       0.4000    0.0000    0.0000
  band No.  band energies     occupation 
      1       4.6695      1.00000
      2       5.1918      1.00000
      3       5.4443      1.00000
      4       6.8048      1.00000
      5       6.9338      1.00000
      6       7.1542      1.00000
      7       7.2960      1.00000
      8       8.5844      1.00000
      9       8.7075      1.00000
     10       8.8362      1.00000
     11       9.3131      1.00000
     12      14.8339      0.00000
     13      17.2017      0.00000
     14      18.5477      0.00000
     15      23.8608      0.00000
     16      24.4534      0.00000

 k-point     6 :       0.5000    0.0000    0.0000
  band No.  band energies     occupation 
      1       5.0192      1.00000
      2       5.0247      1.00000
      3       5.3042      1.00000
      4       6.8735      1.00000
      5       7.0946      1.00000
      6       7.1280      1.00000
      7       7.3970      1.00000
      8       8.7586      1.00000
      9       8.8450      1.00000
     10       8.8962      1.00000
     11      10.7301      0.00000
     12      12.6300      0.00000
     13      18.8809      0.00000
     14      19.4657      0.00000
     15      21.8613      0.00000
     16      22.8904      0.00000

 k-point     7 :       0.1000    0.1000    0.0000
  band No.  band energies     occupation 
      1       1.9386      1.00000
      2       5.1695      1.00000
      3       6.5043      1.00000
      4       6.8282      1.00000
      5       7.1226      1.00000
      6       7.2878      1.00000
      7       7.3929      1.00000
      8       7.4734      1.00000
      9       7.6650      1.00000
     10       7.7357      1.00000
     11       8.7169      1.00000
     12      12.1404      0.00000
     13      15.7136      0.00000
     14      25.9695      0.00000
     15      26.4907      0.00000
     16      32.8546      0.00000

 k-point     8 :       0.2000    0.1000    0.0000
  band No.  band energies     occupation 
      1       3.1176      1.00000
      2       5.5201      1.00000
      3       6.1243      1.00000
      4       6.2523      1.00000
      5       7.0424      1.00000
      6       7.0454      1.00000
      7       7.4886      1.00000
      8       7.7058      1.00000
      9       7.9965      1.00000
     10       8.2855      1.00000
     11       8.7566      1.00000
     12      14.0676      0.00000
     13      16.1212      0.00000
     14      21.7841      0.00000
     15      24.3336      0.00000
     16      29.1870      0.00000

 k-point     9 :       0.3000    0.1000    0.0000
  band No.  band energies     occupation 
      1       4.4199      1.00000
      2       5.4191      1.00000
      3       5.6222      1.00000
      4       6.3874      1.00000
      5       6.8862      1.00000
      6       7.1959      1.00000
      7       7.2642      1.00000
      8       8.2045      1.00000
      9       8.5084      1.00000
     10       8.7839      1.00000
     11       9.0909      1.00000
     12      16.2375      0.00000
     13      16.3113      0.00000
     14      18.6053      0.00000
     15      22.8255      0.00000
     16      25.6311      0.00000

 k-point    10 :       0.4000    0.1000    0.0000
  band No.  band energies     occupation 
      1       5.0672      1.00000
      2       5.2238      1.00000
      3       5.3693      1.00000
      4       6.8056      1.00000
      5       6.8316      1.00000
      6       7.0903      1.00000
      7       7.3921      1.00000
      8       8.6682      1.00000
      9       8.7771      1.00000
     10       8.7955      1.00000
     11      10.5061      0.00000
     12      13.6744      0.00000
     13      18.6153      0.00000
     14      19.3116      0.00000
     15      21.8674      0.00000
     16      22.6758      0.00000

 k-point    11 :       0.2000    0.2000    0.0000
  band No.  band energies     occupation 
      1       4.3398      1.00000
      2       5.7368      1.00000
      3       5.7748      1.00000
      4       5.9404      1.00000
      5       6.8012      1.00000
      6       7.1613      1.00000
      7       7.3458      1.00000
      8       7.8895      1.00000
      9       8.5134      1.00000
     10       8.7335      1.00000
     11       9.1194      1.00000
     12      16.0136      0.00000
     13      16.7856      0.00000
     14      20.0003      0.00000
     15      20.4771      0.00000
     16      27.7104      0.00000

 k-point    12 :       0.3000    0.2000    0.0000
  band No.  band energies     occupation 
      1       5.2877      1.00000
      2       5.4912      1.00000
      3       5.5987      1.00000
      4       6.1637      1.00000
      5       6.7190      1.00000
      6       7.1138      1.00000
      7       7.3904      1.00000
      8       8.2420      1.00000
      9       8.7128      1.00000
     10       8.7809      1.00000
     11      10.4387      0.00000
     12      15.8103      0.00000
     13      18.3108      0.00000
     14      18.4435      0.00000
     15      19.6583      0.00000
     16      24.5585      0.00000

 k-point    13 :       0.4000    0.2000    0.0000
  band No.  band energies     occupation 
      1       5.4087      1.00000
      2       5.4871      1.00000
      3       5.4932      1.00000
      4       6.4431      1.00000
      5       6.7475      1.00000
      6       6.9651      1.00000
      7       7.5042      1.00000
      8       8.5542      1.00000
      9       8.7049      1.00000
     10       8.7328      1.00000
     11      12.1079      0.00000
     12      13.3893      0.00000
     13      18.4381      0.00000
     14      20.1594      0.00000
     15      20.4314      0.00000
     16      22.3685      0.00000

 k-point    14 :       0.3000    0.3000    0.0000
  band No.  band energies     occupation 
      1       5.4526      1.00000
      2       5.6795      1.00000
      3       5.8314      1.00000
      4       6.0610      1.00000
      5       6.7136      1.00000
      6       6.8936      1.00000
      7       7.5889      1.00000
      8       8.4064      1.00000
      9       8.6598      1.00000
     10       8.6941      1.00000
     11      12.4777      0.00000
     12      15.3747      0.00000
     13      15.3819      0.00000
     14      20.6821      0.00000
     15      20.8909      0.00000
     16      23.4336      0.00000

 k-point    15 :       0.0000    0.0000    0.1250
  band No.  band energies     occupation 
      1       1.1052      1.00000
      2       4.6172      1.00000
      3       6.9605      1.00000
      4       6.9795      1.00000
      5       6.9795      1.00000
      6       7.2643      1.00000
      7       7.2643      1.00000
      8       7.7158      1.00000
      9       7.7158      1.00000
     10       8.6330      1.00000
     11       8.6330      1.00000
     12       8.9103      1.00000
     13      16.4107      0.00000
     14      31.1084      0.00000
     15      33.1055      0.00000
     16      33.3768      0.00000

 k-point    16 :       0.1000    0.0000    0.1250
  band No.  band energies     occupation 
      1       1.4384      1.00000
      2       4.8234      1.00000
      3       6.7566      1.00000
      4       7.0928      1.00000
      5       7.1117      1.00000
      6       7.1166      1.00000
      7       7.3890      1.00000
      8       7.5391      1.00000
      9       7.6528      1.00000
     10       7.8149      1.00000
     11       8.6652      1.00000
     12      10.1945      0.00000
     13      16.5508      0.00000
     14      28.4729      0.00000
     15      30.8867      0.00000
     16      31.1995      0.00000

 k-point    17 :       0.2000    0.0000    0.1250
  band No.  band energies     occupation 
      1       2.3809      1.00000
      2       5.2794      1.00000
      3       6.4393      1.00000
      4       6.5041      1.00000
      5       6.9924      1.00000
      6       7.2898      1.00000
      7       7.4084      1.00000
      8       7.6499      1.00000
      9       7.7699      1.00000
     10       7.7775      1.00000
     11       8.7255      1.00000
     12      11.7730      0.00000
     13      17.0328      0.00000
     14      23.9324      0.00000
     15      28.2462      0.00000
     16      29.4282      0.00000

 k-point    18 :       0.3000    0.0000    0.1250
  band No.  band energies     occupation 
      1       3.6811      1.00000
      2       5.4212      1.00000
      3       5.8385      1.00000
      4       6.4329      1.00000
      5       6.9827      1.00000
      6       7.1395      1.00000
      7       7.4404      1.00000
      8       8.1416      1.00000
      9       8.1965      1.00000
     10       8.2297      1.00000
     11       8.7747      1.00000
     12      13.4042      0.00000
     13      17.8485      0.00000
     14      19.9129      0.00000
     15      25.9123      0.00000
     16      26.1116      0.00000

 k-point    19 :       0.4000    0.0000    0.1250
  band No.  band energies     occupation 
      1       4.6295      1.00000
      2       5.1921      1.00000
      3       5.5993      1.00000
      4       6.4334      1.00000
      5       6.9914      1.00000
      6       7.2900      1.00000
      7       7.6368      1.00000
      8       8.5853      1.00000
      9       8.6388      1.00000
     10       8.8227      1.00000
     11       9.2382      1.00000
     12      14.1972      0.00000
     13      16.8589      0.00000
     14      19.5638      0.00000
     15      22.8743      0.00000
     16      24.6804      0.00000

 k-point    20 :       0.5000    0.0000    0.1250
  band No.  band energies     occupation 
      1       4.8340      1.00000
      2       5.0539      1.00000
      3       5.5863      1.00000
      4       6.4589      1.00000
      5       6.9356      1.00000
      6       7.4003      1.00000
      7       7.8587      1.00000
      8       8.7077      1.00000
      9       8.8100      1.00000
     10       8.8922      1.00000
     11      10.6376      0.00000
     12      12.5513      0.00000
     13      18.2767      0.00000
     14      18.6068      0.00000
     15      22.9986      0.00000
     16      23.8098      0.00000

 k-point    21 :       0.1000    0.1000    0.1250
  band No.  band energies     occupation 
      1       2.0790      1.00000
      2       5.1729      1.00000
      3       6.5215      1.00000
      4       6.6607      1.00000
      5       7.1105      1.00000
      6       7.1870      1.00000
      7       7.3828      1.00000
      8       7.5280      1.00000
      9       7.7535      1.00000
     10       7.7636      1.00000
     11       8.6990      1.00000
     12      11.3449      0.00000
     13      16.8674      0.00000
     14      26.0896      0.00000
     15      26.6366      0.00000
     16      31.6965      0.00000

 k-point    22 :       0.2000    0.1000    0.1250
  band No.  band energies     occupation 
      1       3.2321      1.00000
      2       5.5606      1.00000
      3       6.0343      1.00000
      4       6.2874      1.00000
      5       6.9303      1.00000
      6       7.1455      1.00000
      7       7.4128      1.00000
      8       7.7504      1.00000
      9       8.0684      1.00000
     10       8.2400      1.00000
     11       8.7473      1.00000
     12      12.8628      0.00000
     13      17.6055      0.00000
     14      21.9269      0.00000
     15      24.4869      0.00000
     16      28.0375      0.00000

 k-point    23 :       0.3000    0.1000    0.1250
  band No.  band energies     occupation 
      1       4.4518      1.00000
      2       5.4511      1.00000
      3       5.6499      1.00000
      4       6.3223      1.00000
      5       6.9225      1.00000
      6       7.2115      1.00000
      7       7.3539      1.00000
      8       8.1905      1.00000
      9       8.5488      1.00000
     10       8.6640      1.00000
     11       9.1240      1.00000
     12      14.3973      0.00000
     13      17.7201      0.00000
     14      19.3364      0.00000
     15      22.9686      0.00000
     16      24.4863      0.00000

 k-point    24 :       0.4000    0.1000    0.1250
  band No.  band energies     occupation 
      1       4.9315      1.00000
      2       5.2276      1.00000
      3       5.6323      1.00000
      4       6.3897      1.00000
      5       6.8632      1.00000
      6       7.4180      1.00000
      7       7.5226      1.00000
      8       8.6302      1.00000
      9       8.7216      1.00000
     10       8.8032      1.00000
     11      10.4988      0.00000
     12      13.5432      0.00000
     13      17.5886      0.00000
     14      19.6757      0.00000
     15      21.9945      0.00000
     16      22.8404      0.00000

 k-point    25 :       0.2000    0.2000    0.1250
  band No.  band energies     occupation 
      1       4.4047      1.00000
      2       5.6558      1.00000
      3       5.8844      1.00000
      4       5.9658      1.00000
      5       6.8412      1.00000
      6       7.1471      1.00000
      7       7.2823      1.00000
      8       7.9167      1.00000
      9       8.5665      1.00000
     10       8.6029      1.00000
     11       9.1847      1.00000
     12      14.3515      0.00000
     13      18.6300      0.00000
     14      20.1483      0.00000
     15      20.6694      0.00000
     16      26.5200      0.00000

 k-point    26 :       0.3000    0.2000    0.1250
  band No.  band energies     occupation 
      1       5.2183      1.00000
      2       5.5770      1.00000
      3       5.6530      1.00000
      4       6.1295      1.00000
      5       6.7930      1.00000
      6       7.0916      1.00000
      7       7.4055      1.00000
      8       8.2489      1.00000
      9       8.6011      1.00000
     10       8.8169      1.00000
     11      10.5019      0.00000
     12      15.3717      0.00000
     13      17.3770      0.00000
     14      19.1835      0.00000
     15      20.5480      0.00000
     16      23.5354      0.00000

 k-point    27 :       0.4000    0.2000    0.1250
  band No.  band energies     occupation 
      1       5.2504      1.00000
      2       5.5384      1.00000
      3       5.7428      1.00000
      4       6.2509      1.00000
      5       6.7244      1.00000
      6       7.1119      1.00000
      7       7.5328      1.00000
      8       8.5575      1.00000
      9       8.5821      1.00000
     10       8.7632      1.00000
     11      12.2034      0.00000
     12      13.3951      0.00000
     13      18.3840      0.00000
     14      19.4179      0.00000
     15      19.6490      0.00000
     16      23.5206      0.00000

 k-point    28 :       0.3000    0.3000    0.1250
[...]
      4       7.4113      1.00000
      5       9.5769      0.22028
      6       9.5769      0.22028
      7       9.8497      0.00000
      8       9.8497      0.00000
      9      10.8230      0.00000
     10      10.8230      0.00000
     11      11.7020      0.00000
     12      11.7020      0.00000
     13      17.3264      0.00000
     14      17.3264      0.00000
     15      27.5631      0.00000
     16      27.5631      0.00000

 k-point    63 :       0.1000    0.1000    0.5000
  band No.  band energies     occupation 
      1       4.0413      1.00000
      2       4.0413      1.00000
      3       7.8972      1.00000
      4       7.8972      1.00000
      5       8.5134      1.00000
      6       8.5134      1.00000
      7       9.0590      1.00000
      8       9.0590      1.00000
      9      10.2622      0.00000
     10      10.2622      0.00000
     11      10.5406      0.00000
     12      10.5406      0.00000
     13      25.1070      0.00000
     14      25.1070      0.00000
     15      27.8860      0.00000
     16      27.8860      0.00000

 k-point    64 :       0.2000    0.1000    0.5000
  band No.  band energies     occupation 
      1       4.9572      1.00000
      2       4.9572      1.00000
      3       7.7212      1.00000
      4       7.7212      1.00000
      5       8.3755      1.00000
      6       8.3755      1.00000
      7       9.3672      1.00000
      8       9.3672      1.00000
      9      10.3916      0.00000
     10      10.3916      0.00000
     11      10.8156      0.00000
     12      10.8156      0.00000
     13      24.1434      0.00000
     14      24.1434      0.00000
     15      26.0445      0.00000
     16      26.0445      0.00000

 k-point    65 :       0.3000    0.1000    0.5000
  band No.  band energies     occupation 
      1       5.7445      1.00000
      2       5.7445      1.00000
      3       7.5864      1.00000
      4       7.5864      1.00000
      5       8.6093      1.00000
      6       8.6093      1.00000
      7       9.5111      0.86229
      8       9.5111      0.86229
      9      10.6785      0.00000
     10      10.6785      0.00000
     11      11.3356      0.00000
     12      11.3356      0.00000
     13      20.5206      0.00000
     14      20.5206      0.00000
     15      25.6979      0.00000
     16      25.6979      0.00000

 k-point    66 :       0.4000    0.1000    0.5000
  band No.  band energies     occupation 
      1       6.0273      1.00000
      2       6.0273      1.00000
      3       7.5041      1.00000
      4       7.5041      1.00000
      5       8.9757      1.00000
      6       8.9757      1.00000
      7       9.7752      0.00000
      8       9.7752      0.00000
      9      10.7270      0.00000
     10      10.7270      0.00000
     11      12.2405      0.00000
     12      12.2405      0.00000
     13      17.8424      0.00000
     14      17.8424      0.00000
     15      25.0522      0.00000
     16      25.0522      0.00000

 k-point    67 :       0.2000    0.2000    0.5000
  band No.  band energies     occupation 
      1       5.7864      1.00000
      2       5.7864      1.00000
      3       7.6791      1.00000
      4       7.6791      1.00000
      5       8.2159      1.00000
      6       8.2159      1.00000
      7       9.3952      0.99999
      8       9.3952      0.99999
      9      10.7387      0.00000
     10      10.7387      0.00000
     11      11.4100      0.00000
     12      11.4100      0.00000
     13      22.4850      0.00000
     14      22.4850      0.00000
     15      23.2440      0.00000
     16      23.2440      0.00000

 k-point    68 :       0.3000    0.2000    0.5000
  band No.  band energies     occupation 
      1       6.3423      1.00000
      2       6.3423      1.00000
      3       7.6626      1.00000
      4       7.6626      1.00000
      5       8.2387      1.00000
      6       8.2387      1.00000
      7       9.4544      0.99648
      8       9.4544      0.99648
      9      10.7616      0.00000
     10      10.7616      0.00000
     11      12.7683      0.00000
     12      12.7683      0.00000
     13      19.3640      0.00000
     14      19.3640      0.00000
     15      22.0347      0.00000
     16      22.0347      0.00000

 k-point    69 :       0.4000    0.2000    0.5000
  band No.  band energies     occupation 
      1       6.4903      1.00000
      2       6.4903      1.00000
      3       7.6663      1.00000
      4       7.6663      1.00000
      5       8.2510      1.00000
      6       8.2510      1.00000
      7       9.6189      0.02510
      8       9.6189      0.02510
      9      10.6782      0.00000
     10      10.6782      0.00000
     11      13.8847      0.00000
     12      13.8847      0.00000
     13      17.5498      0.00000
     14      17.5498      0.00000
     15      21.6987      0.00000
     16      21.6987      0.00000

 k-point    70 :       0.3000    0.3000    0.5000
  band No.  band energies     occupation 
      1       6.9009      1.00000
      2       6.9009      1.00000
      3       7.5386      1.00000
      4       7.5386      1.00000
      5       7.9949      1.00000
      6       7.9949      1.00000
      7       9.4593      0.99472
      8       9.4593      0.99472
      9      10.6601      0.00000
     10      10.6601      0.00000
     11      14.7847      0.00000
     12      14.7847      0.00000
     13      18.0323      0.00000
     14      18.0323      0.00000
     15      19.6698      0.00000
     16      19.6698      0.00000


--------------------------------------------------------------------------------------------------------


 soft charge-density along one line, spin component           1
         0         1         2         3         4         5         6         7         8         9
 total charge-density along one line
 
 soft charge-density along one line, spin component           2
         0         1         2         3         4         5         6         7         8         9
 total charge-density along one line
 
 pseudopotential strength for first ion, spin component:           1
 -1.104  -0.000   0.000  -0.000   0.000  -1.720  -0.000   0.000
 -0.000  -1.108  -0.000  -0.000   0.000  -0.000  -1.724  -0.000
  0.000  -0.000  -1.101  -0.000  -0.000   0.000  -0.000  -1.717
 -0.000  -0.000  -0.000  -1.108  -0.000  -0.000  -0.000  -0.000
  0.000   0.000  -0.000  -0.000  -1.104   0.000   0.000  -0.000
 -1.720  -0.000   0.000  -0.000   0.000  -2.277  -0.000   0.000
 -0.000  -1.724  -0.000  -0.000   0.000  -0.000  -2.281  -0.000
  0.000  -0.000  -1.717  -0.000  -0.000   0.000  -0.000  -2.275
 -0.000  -0.000  -0.000  -1.724  -0.000  -0.000  -0.000  -0.000
  0.000   0.000  -0.000  -0.000  -1.720   0.000   0.000  -0.000
  0.000   0.000   0.000   0.000  -0.000   0.000   0.000   0.000
  0.000   0.000   0.000   0.000  -0.000   0.000   0.000   0.000
 -0.000   0.000  -0.000   0.000  -0.001  -0.000   0.000  -0.000
  0.000   0.000   0.000  -0.000   0.000   0.000   0.000   0.000
 -0.001   0.000   0.000   0.000  -0.000  -0.001   0.000   0.000
 -0.000   0.000  -0.000   0.000  -0.001  -0.000   0.000  -0.000
  0.000   0.000   0.000  -0.000   0.000   0.000   0.000   0.000
 -0.001   0.000   0.000   0.000  -0.000  -0.001   0.000   0.000
 pseudopotential strength for first ion, spin component:           2
  0.294  -0.000   0.000  -0.000   0.000  -0.381  -0.000   0.000
 -0.000   0.302  -0.000  -0.000   0.000  -0.000  -0.373  -0.000
  0.000  -0.000   0.282  -0.000  -0.000   0.000  -0.000  -0.392
 -0.000  -0.000  -0.000   0.302  -0.000  -0.000  -0.000  -0.000
  0.000   0.000  -0.000  -0.000   0.294   0.000   0.000  -0.000
 -0.381  -0.000   0.000  -0.000   0.000  -0.995  -0.000   0.000
 -0.000  -0.373  -0.000  -0.000   0.000  -0.000  -0.987  -0.000
  0.000  -0.000  -0.392  -0.000  -0.000   0.000  -0.000  -1.006
 -0.000  -0.000  -0.000  -0.373  -0.000  -0.000  -0.000  -0.000
  0.000   0.000  -0.000  -0.000  -0.381   0.000   0.000  -0.000
  0.000   0.000   0.000   0.000  -0.000   0.000   0.000   0.000
  0.000   0.000   0.000   0.000  -0.000   0.000   0.000   0.000
 -0.000   0.000  -0.000   0.000  -0.000  -0.000   0.000  -0.000
  0.000   0.000   0.000  -0.000   0.000   0.000   0.000   0.000
 -0.000   0.000   0.000   0.000  -0.000  -0.000   0.000   0.000
 -0.000   0.000  -0.000   0.000  -0.000  -0.000   0.000  -0.000
  0.000   0.000   0.000  -0.000   0.000   0.000   0.000   0.000
 -0.000   0.000   0.000   0.000  -0.000  -0.000   0.000   0.000
 total augmentation occupancy for first ion, spin component:           1
  2.886   0.000   0.000   0.000  -0.000  -1.466   0.000  -0.000   0.000  -0.000   0.000   0.000   0.000  -0.000   0.040  -0.000
 -0.000   2.996  -0.000  -0.000   0.000  -0.000  -1.517   0.000   0.000   0.000  -0.000  -0.000   0.000   0.000   0.000  -0.000
  0.000  -0.000   2.741   0.000   0.000  -0.000  -0.000  -1.405  -0.000  -0.000  -0.019   0.001   0.000   0.000   0.000  -0.000
 -0.000  -0.000   0.000   2.996   0.000   0.000   0.000  -0.000  -1.517   0.000   0.000   0.000   0.000   0.000   0.000   0.000
 -0.000   0.000   0.000   0.000   2.886   0.000   0.000  -0.000   0.000  -1.466  -0.000   0.000   0.040  -0.000  -0.000  -0.003
 -1.466  -0.000  -0.000   0.000   0.000   1.591  -0.000   0.000  -0.000  -0.000   0.000   0.000   0.000   0.000  -0.055   0.000
  0.000  -1.517  -0.000   0.000   0.000   0.000   1.583  -0.000   0.000   0.000   0.000   0.000   0.000  -0.000   0.000   0.000
 -0.000   0.000  -1.405   0.000  -0.000   0.000   0.000   1.614  -0.000   0.000   0.020  -0.001  -0.000   0.000   0.000   0.000
 -0.000   0.000   0.000  -1.517  -0.000   0.000   0.000  -0.000   1.583   0.000  -0.000   0.000   0.000   0.000   0.000   0.000
  0.000   0.000  -0.000  -0.000  -1.466   0.000   0.000   0.000   0.000   1.591   0.000  -0.000  -0.055  -0.000   0.000   0.004
  0.000   0.000  -0.019   0.000  -0.000   0.000   0.000   0.020   0.000   0.000   2.170  -0.245   0.000   0.000  -0.000   0.000
  0.000  -0.000   0.001   0.000   0.000   0.000  -0.000  -0.001   0.000  -0.000  -0.245   0.036   0.000   0.000   0.000   0.000
  0.000   0.000   0.000   0.000   0.040  -0.000   0.000  -0.000   0.000  -0.055   0.000   0.000   0.288   0.000   0.000  -0.027
  0.000   0.000   0.000   0.000  -0.000   0.000  -0.000   0.000   0.000   0.000   0.000   0.000   0.000   0.294   0.000   0.000
  0.040   0.000   0.000   0.000  -0.000  -0.055  -0.000  -0.000   0.000  -0.000  -0.000   0.000   0.000   0.000   0.288  -0.000
 -0.000  -0.000  -0.000   0.000  -0.003   0.000   0.000   0.000   0.000   0.004   0.000   0.000  -0.027  -0.000  -0.000   0.003
  0.000   0.000   0.000   0.000   0.000  -0.000  -0.000   0.000   0.000   0.000   0.000   0.000  -0.000  -0.028   0.000   0.000
 -0.003   0.000   0.000   0.000  -0.000   0.004   0.000   0.000   0.000   0.000   0.000   0.000  -0.000  -0.000  -0.027  -0.000
 total augmentation occupancy for first ion, spin component:           2
  2.128   0.000   0.000  -0.000   0.000  -1.013   0.000  -0.000   0.000   0.000   0.000   0.000  -0.000   0.000  -0.003   0.000
 -0.000   2.160   0.000  -0.000   0.000  -0.000  -1.034  -0.000   0.000  -0.000   0.000  -0.000   0.000   0.000   0.000  -0.000
  0.000  -0.000   2.114   0.000   0.000  -0.000  -0.000  -1.003  -0.000  -0.000   0.001  -0.000  -0.000   0.000   0.000   0.000
  0.000  -0.000  -0.000   2.160   0.000  -0.000   0.000   0.000  -1.034   0.000   0.000   0.000  -0.000   0.000   0.000   0.000
 -0.000  -0.000   0.000  -0.000   2.128   0.000  -0.000  -0.000   0.000  -1.013   0.000   0.000  -0.003   0.000  -0.000   0.000
 -1.013   0.000  -0.000   0.000  -0.000   0.291  -0.000   0.000  -0.000  -0.000   0.000   0.000   0.000   0.000   0.007  -0.000
  0.000  -1.034   0.000   0.000   0.000   0.000   0.311  -0.000  -0.000   0.000   0.000   0.000   0.000   0.000   0.000   0.000
 -0.000  -0.000  -1.003   0.000  -0.000  -0.000   0.000   0.272   0.000   0.000  -0.003   0.000   0.000   0.000   0.000  -0.000
 -0.000   0.000   0.000  -1.034   0.000   0.000  -0.000   0.000   0.311   0.000  -0.000   0.000  -0.000   0.000   0.000   0.000
  0.000  -0.000  -0.000   0.000  -1.013  -0.000  -0.000   0.000  -0.000   0.291  -0.000   0.000   0.007  -0.000   0.000  -0.001
  0.000   0.000   0.001   0.000   0.000   0.000   0.000  -0.003  -0.000  -0.000  -0.294   0.090   0.000   0.000   0.000   0.000
  0.000  -0.000  -0.000   0.000  -0.000   0.000   0.000   0.000   0.000   0.000   0.090  -0.015   0.000   0.000  -0.000  -0.000
 -0.000   0.000   0.000   0.000  -0.003   0.000  -0.000   0.000   0.000   0.007   0.000  -0.000  -0.033   0.000  -0.000   0.005
  0.000   0.000   0.000   0.000   0.000   0.000   0.000   0.000   0.000  -0.000   0.000   0.000  -0.000  -0.037   0.000   0.000
 -0.003   0.000   0.000   0.000   0.000   0.007   0.000   0.000   0.000   0.000   0.000   0.000   0.000   0.000  -0.033   0.000
  0.000  -0.000   0.000  -0.000   0.000  -0.000   0.000  -0.000   0.000  -0.001  -0.000   0.000   0.005   0.000   0.000  -0.001
 -0.000   0.000   0.000   0.000   0.000   0.000  -0.000   0.000  -0.000  -0.000   0.000   0.000   0.000   0.005   0.000   0.000
  0.000   0.000   0.000  -0.000   0.000  -0.001   0.000  -0.000   0.000  -0.000  -0.000   0.000   0.000   0.000   0.005   0.000


------------------------ aborting loop because EDIFF is reached ----------------------------------------





 total charge

# of ion       s       p       d       tot
------------------------------------------
    1        0.471   0.483   7.223   8.178
    2        0.471   0.483   7.223   8.178
--------------------------------------------------
tot          0.942   0.967  14.447  16.356



 magnetization (x)

# of ion       s       p       d       tot
------------------------------------------
    1       -0.013  -0.051   1.786   1.722
    2       -0.013  -0.051   1.786   1.722
--------------------------------------------------
tot         -0.025  -0.103   3.572   3.444
 
    CHARGE:  cpu time      0.0216: real time      0.0217
    FORLOC:  cpu time      0.0001: real time      0.0001
    FORNL :  cpu time      0.0181: real time      0.0181
    STRESS:  cpu time      0.0530: real time      0.0531
    FORCOR:  cpu time      0.0046: real time      0.0046
    FORHAR:  cpu time      0.0005: real time      0.0005
    MIXING:  cpu time      0.0002: real time      0.0002
    OFIELD:  cpu time      0.0000: real time      0.0000

  FORCE on cell =-STRESS in cart. coord.  units (eV):
  Direction    XX          YY          ZZ          XY          YZ          ZX
  --------------------------------------------------------------------------------------
  Alpha Z    74.37341    74.37341    74.37341
  Ewald    -501.31310  -501.31310  -494.55820     0.00000    -0.00000     0.00000
  Hartree    90.57952    90.57952    93.75459    -0.00000    -0.00000    -0.00000
  E(xc)     -92.22723   -92.22723   -92.23015    -0.00000    -0.00000    -0.00000
  Local     -24.06062   -24.06068   -33.71058    -0.00005    -0.00000    -0.00000
  n-local   -11.22831   -10.84028   -11.02384    -5.99986     1.71137     1.67021
  augment   311.59260   311.59266   311.45174     0.00005     0.00000     0.00000
  Kinetic   152.12083   149.42285   150.61262     4.23892     0.21562     0.84225
  Fock        0.00000     0.00000     0.00000     0.00000     0.00000     0.00000
  -------------------------------------------------------------------------------------
  Total      -1.31788    -1.31788    -1.33040     0.00000    -0.00000     0.00000
  in kB     -92.68538   -92.68538   -93.56627     0.00000    -0.00000     0.00000
  external pressure =      -92.98 kB  Pullay stress =        0.00 kB


 VOLUME and BASIS-vectors are now :
 -----------------------------------------------------------------------------
  energy-cutoff  :      400.00
  volume of cell :       22.78
      direct lattice vectors                 reciprocal lattice vectors
     2.533332089  0.000000000  0.000000000     0.394737036  0.227901534  0.000000000
    -1.266666044  2.193929945  0.000000000     0.000000000  0.455803068  0.000000000
     0.000000000  0.000000000  4.098828215     0.000000000  0.000000000  0.243972167

  length of vectors
     2.533332089  2.533332089  4.098828215     0.455803068  0.455803068  0.243972167


 FORCES acting on ions
    electron-ion (+dipol)            ewald-force                    non-local-force                 convergence-correction
 -----------------------------------------------------------------------------------------------
   0.677E-07 -.391E-07 0.124E-13   0.107E-11 -.526E-12 -.218E-13   -.694E-17 0.694E-17 0.000E+00   0.186E-08 -.108E-08 -.284E-13
   -.677E-07 0.391E-07 -.115E-11   -.108E-11 0.524E-12 0.218E-13   0.121E-16 -.694E-17 0.000E+00   -.186E-08 0.108E-08 -.847E-13
 -----------------------------------------------------------------------------------------------
   -.218E-10 0.126E-10 -.114E-11   -.197E-14 -.209E-14 0.000E+00   0.520E-17 0.000E+00 0.000E+00   0.392E-13 -.247E-13 -.113E-12
 
 
 POSITION                                       TOTAL-FORCE (eV/Angst)
 -----------------------------------------------------------------------------------
      0.00000      0.00000      0.00000         0.000000      0.000000      0.000000
      0.00000      1.46262      2.04941         0.000000      0.000000      0.000000
 -----------------------------------------------------------------------------------
    total drift:                               -0.000000      0.000000     -0.000000


--------------------------------------------------------------------------------------------------------



  FREE ENERGIE OF THE ION-ELECTRON SYSTEM (eV)
  ---------------------------------------------------
  free  energy   TOTEN  =       -14.04473787 eV

  energy  without entropy=      -14.04201550  energy(sigma->0) =      -14.04337668
 


--------------------------------------------------------------------------------------------------------


    POTLOK:  cpu time      0.0099: real time      0.0100


--------------------------------------------------------------------------------------------------------




--------------------------------------------------------------------------------------------------------


  
 reached required accuracy - stopping structural energy minimisation
 writing wavefunctions
     LOOP+:  cpu time      6.6720: real time      6.8387
    4ORBIT:  cpu time      0.0000: real time      0.0000



 total charge

# of ion       s       p       d       tot
------------------------------------------
    1        0.471   0.483   7.223   8.178
    2        0.471   0.483   7.223   8.178
--------------------------------------------------
tot          0.942   0.967  14.447  16.356



 magnetization (x)

# of ion       s       p       d       tot
------------------------------------------
    1       -0.013  -0.051   1.786   1.722
    2       -0.013  -0.051   1.786   1.722
--------------------------------------------------
tot         -0.025  -0.103   3.572   3.444
 

 total amount of memory used by VASP MPI-rank0    32334. kBytes
=======================================================================

   base      :      30000. kBytes
   nonl-proj :        808. kBytes
   fftplans  :        178. kBytes
   grid      :        421. kBytes
   one-center:         31. kBytes
   wavefun   :        896. kBytes
 
  
  
 General timing and accounting informations for this job:
 ========================================================
  
                  Total CPU time used (sec):        7.636
                            User time (sec):        7.146
                          System time (sec):        0.491
                         Elapsed time (sec):        9.215
  
                   Maximum memory used (kb):      223008.
                   Average memory used (kb):          N/A
  
                          Minor page faults:        23314
                          Major page faults:           96
                 Voluntary context switches:         2123
