Co-hcc                                  
   1.00000000000000     
     2.519857    0.000000    0.000000
    -1.259928    2.182260    0.000000
     0.000000    0.000000    4.077026
   Co
     2
Direct
  0.000000  0.000000  0.000000
  0.333333  0.666667  0.500000
 
   32   32   56
  212.65      207.79      193.91      172.87      147.25      119.77      92.873      68.470      47.884      31.859    
  20.557      13.560      9.9295      8.3579      7.5605      7.0780      6.9255      7.0781      7.5596      8.3607    
  9.9265      13.561      20.556      31.859      47.884      68.470      92.872      119.77      147.25      172.87    
  193.91      207.79      207.79      207.79      198.43      181.00      157.73      131.31      104.30      78.866    
  56.610      38.560      25.161      16.289      11.242      8.8890      7.8508      7.2164      6.9072      6.9050    
  7.2192      7.8475      8.8907      11.243      16.289      25.161      38.560      56.610      78.866      104.30    
  131.31      157.73      181.00      198.43      193.91      198.43      193.91      181.00      161.39      137.48    
  111.79      86.609      63.761      44.524      29.613      19.184      12.805      9.5504      8.1374      7.3748    
  6.9159      6.7698      6.9156      7.3749      8.1391      9.5479      12.807      19.183      29.615      44.523    
  63.762      86.608      111.79      137.48      161.39      181.00      172.87      180.98      180.98      172.87    
  157.73      137.48      114.40      90.745      68.457      49.001      33.333      21.855      14.413      10.306    
  8.4337      7.5312      6.9491      6.6688      6.6681      6.9504      7.5286      8.4363      10.305      14.414    
  21.854      33.333      49.001      68.457      90.744      114.40      137.48      157.73      147.25      157.71    
  161.37      157.71      147.25      131.31      111.79      90.744      70.094      51.403      35.801      23.908    
  15.814      11.055      8.7357      7.6705      6.9939      6.6020      6.4730      6.6014      6.9954      7.6695    
  8.7358      11.055      15.813      23.909      35.801      51.403      70.094      90.744      111.79      131.31    
  119.77      131.29      137.44      137.44      131.29      119.77      104.30      86.608      68.457      51.403    
  36.666      25.024      16.767      11.659      9.0084      7.7837      7.0403      6.5605      6.3294      6.3308    
  6.5590      7.0412      7.7837      9.0080      11.660      16.766      25.025      36.666      51.403      68.457    
  86.608      104.30      92.872      104.28      111.75      114.35      111.75      104.28      92.872      78.865    
  63.761      49.001      35.801      25.024      17.105      11.996      9.2022      7.8654      7.0794      6.5360    
  6.2315      6.1312      6.2316      6.5363      7.0785      7.8666      9.2011      11.998      17.104      25.025    
  35.801      49.001      63.762      78.866      68.470      78.858      86.586      90.712      90.712      86.586    
  78.858      68.470      56.611      44.523      33.332      23.909      16.766      11.997      9.2716      7.9103    
  7.1034      6.5247      6.1673      5.9978      5.9977      6.1670      6.5254      7.1024      7.9111      9.2707    
  11.998      16.766      23.909      33.333      44.523      56.610      47.884      56.619      63.766      68.455    
  70.088      68.454      63.766      56.619      47.884      38.559      29.614      21.856      15.813      11.660    
  9.2013      7.9104      7.1119      6.5196      6.1327      5.9157      5.8483      5.9160      6.1320      6.5205    
  7.1113      7.9111      9.2011      11.660      15.813      21.854      29.615      38.560      31.859      38.587    
  44.562      49.043      51.445      51.445      49.044      44.563      38.586      31.859      25.162      19.183    
  14.413      11.056      9.0073      7.8667      7.1029      6.5200      6.1212      5.8778      5.7653      5.7649    
  5.8785      6.1204      6.5205      7.1024      7.8666      9.0080      11.055      14.414      19.183      25.161    
  20.556      25.204      29.687      33.423      35.899      36.765      35.898      33.421      29.687      25.204    
  20.557      16.288      12.807      10.307      8.7344      7.7848      7.0779      6.5253      6.1320      5.8781    
  5.7389      5.6952      5.7385      5.8785      6.1320      6.5254      7.0785      7.7837      8.7358      10.305    
  12.807      16.289      13.561      16.344      19.282      21.986      24.061      25.186      25.187      24.062    
  21.988      19.283      16.343      13.560      11.244      9.5479      8.4342      7.6713      7.0394      6.5375    
  6.1667      5.9165      5.7650      5.6952      5.6952      5.7649      5.9160      6.1670      6.5363      7.0412    
  7.6695      8.4363      9.5479      11.243      9.9265      11.304      12.923      14.576      16.007      16.980    
  17.325      16.980      16.006      14.573      12.922      11.306      9.9280      8.8871      8.1410      7.5294    
  6.9945      6.5604      6.2305      5.9979      5.8477      5.7650      5.7389      5.7653      5.8483      5.9977    
  6.2316      6.5590      6.9954      7.5286      8.1391      8.8907      8.3607      8.9543      9.6722      10.483    
  11.276      11.910      12.263      12.264      11.911      11.278      10.485      9.6723      8.9507      8.3616    
  7.8504      7.3723      6.9505      6.6013      6.3300      6.1320      5.9979      5.9165      5.8781      5.8778    
  5.9157      5.9978      6.1312      6.3308      6.6014      6.9504      7.3749      7.8475      7.5596      7.9122    
  8.2670      8.6211      8.9684      9.2783      9.4949      9.5728      9.4947      9.2770      8.9670      8.6187    
  8.2689      7.9151      7.5573      7.2177      6.9175      6.6682      6.4735      6.3300      6.2305      6.1667    
  6.1320      6.1212      6.1327      6.1673      6.2315      6.3294      6.4730      6.6681      6.9156      7.2192    
  7.0781      7.2848      7.5041      7.7162      7.9082      8.0659      8.1796      8.2402      8.2398      8.1804    
  8.0671      7.9102      7.7171      7.5016      7.2832      7.0803      6.9060      6.7684      6.6682      6.6013    
  6.5604      6.5375      6.5253      6.5200      6.5196      6.5247      6.5360      6.5605      6.6020      6.6688    
  6.7698      6.9050      6.9255      6.9710      7.0458      7.1408      7.2399      7.3319      7.4038      7.4487    
  7.4646      7.4485      7.4030      7.3299      7.2390      7.1408      7.0477      6.9720      6.9236      6.9060    
  6.9175      6.9505      6.9945      7.0394      7.0779      7.1029      7.1119      7.1034      7.0794      7.0403    
  6.9939      6.9491      6.9159      6.9072      7.0780      6.9732      6.9004      6.8599      6.8490      6.8547    
  6.8697      6.8851      6.8935      6.8942      6.8851      6.8713      6.8562      6.8490      6.8600      6.8990    
  6.9720      7.0803      7.2177      7.3723      7.5294      7.6713      7.7848      7.8667      7.9104      7.9103    
  7.8654      7.7837      7.6705      7.5312      7.3748      7.2164      7.5605      7.2820      7.0461      6.8607    
  6.7218      6.6298      6.5720      6.5385      6.5231      6.5176      6.5228      6.5378      6.5708      6.6288    
  6.7224      6.8600      7.0477      7.2832      7.5573      7.8504      8.1410      8.4342      8.7344      9.0073    
  9.2013      9.2716      9.2022      9.0084      8.7357      8.4337      8.1374      7.8508      8.3579      7.9155    
  7.5041      7.1394      6.8497      6.6282      6.4736      6.3743      6.3155      6.2901      6.2895      6.3167    
  6.3746      6.4746      6.6288      6.8490      7.1408      7.5016      7.9151      8.3616      8.8871      9.5479    
  10.307      11.056      11.660      11.997      11.996      11.659      11.055      10.306      9.5504      8.8890    
  9.9295      8.9526      8.2653      7.7189      7.2384      6.8564      6.5718      6.3746      6.2523      6.1854    
  6.1653      6.1852      6.2513      6.3746      6.5708      6.8562      7.2390      7.7171      8.2689      8.9507    
  9.9280      11.244      12.807      14.413      15.813      16.766      17.105      16.767      15.814      14.413    
  12.805      11.242      13.560      11.304      9.6749      8.6184      7.9093      7.3309      6.8694      6.5387    
  6.3151      6.1859      6.1246      6.1260      6.1852      6.3167      6.5378      6.8713      7.3299      7.9102    
  8.6187      9.6723      11.306      13.560      16.288      19.183      21.856      23.909      25.024      25.024    
  23.908      21.855      19.184      16.289      20.557      16.344      12.921      10.484      8.9682      8.0660    
  7.4046      6.8845      6.5238      6.2892      6.1661      6.1246      6.1653      6.2895      6.5228      6.8851    
  7.4030      8.0671      8.9670      10.485      12.922      16.343      20.557      25.162      29.614      33.332    
  35.801      36.666      35.801      33.333      29.613      25.161      31.859      25.203      19.284      14.574    
  11.276      9.2783      8.1788      7.4493      6.8930      6.5183      6.2892      6.1859      6.1854      6.2901    
  6.5176      6.8942      7.4485      8.1804      9.2770      11.278      14.573      19.283      25.204      31.859    
  38.559      44.523      49.001      51.403      51.403      49.001      44.524      38.560      47.884      38.587    
  29.686      21.987      16.007      11.910      9.4960      8.2393      7.4655      6.8930      6.5238      6.3151    
  6.2523      6.3155      6.5231      6.8935      7.4646      8.2398      9.4947      11.911      16.006      21.988    
  29.687      38.586      47.884      56.611      63.761      68.457      70.094      68.457      63.761      56.610    
  68.470      56.619      44.563      33.423      24.061      16.981      12.263      9.5734      8.2393      7.4493    
  6.8845      6.5387      6.3746      6.3743      6.5385      6.8851      7.4487      8.2402      9.5728      12.264    
  16.980      24.062      33.421      44.563      56.619      68.470      78.865      86.608      90.744      90.745    
  86.609      78.866      92.873      78.858      63.766      49.043      35.900      25.186      17.326      12.263    
  9.4960      8.1788      7.4046      6.8694      6.5718      6.4736      6.5720      6.8697      7.4038      8.1796    
  9.4949      12.263      17.325      25.187      35.898      49.044      63.766      78.858      92.872      104.30    
  111.79      114.40      111.79      104.30      119.77      104.28      86.586      68.455      51.444      36.766    
  25.186      16.981      11.910      9.2783      8.0660      7.3309      6.8564      6.6282      6.6298      6.8547    
  7.3319      8.0659      9.2783      11.910      16.980      25.186      36.765      51.445      68.454      86.586    
  104.28      119.77      131.31      137.48      137.48      131.31      147.25      131.29      111.75      90.712    
  70.089      51.444      35.900      24.061      16.007      11.276      8.9682      7.9093      7.2384      6.8497    
  6.7218      6.8490      7.2399      7.9082      8.9684      11.276      16.007      24.061      35.899      51.445    
  70.088      90.712      111.75      131.29      147.25      157.73      161.39      157.73      172.87      157.71    
  137.44      114.35      90.712      68.455      49.043      33.423      21.987      14.574      10.484      8.6184    
  7.7189      7.1394      6.8607      6.8599      7.1408      7.7162      8.6211      10.483      14.576      21.986    
  33.423      49.043      68.455      90.712      114.35      137.44      157.71      172.87      181.00      181.00    
  193.91      180.98      161.37      137.44      111.75      86.586      63.766      44.563      29.686      19.284    
  12.921      9.6749      8.2653      7.5041      7.0461      6.9004      7.0458      7.5041      8.2670      9.6722    
  12.923      19.282      29.687      44.562      63.766      86.586      111.75      137.44      161.37      180.98    
  193.91      198.43      207.79      198.43      180.98      157.71      131.29      104.28      78.858      56.619    
  38.587      25.203      16.344      11.304      8.9526      7.9155      7.2820      6.9732      6.9710      7.2848    
  7.9122      8.9543      11.304      16.344      25.204      38.587      56.619      78.858      104.28      131.29    
  157.71      180.98      198.43      207.79      208.49      203.73      190.13      169.51      144.39      117.44    
  91.043      67.096      46.907      31.210      20.165      13.350      9.8320      8.3082      7.5216      7.0459    
  6.8955      7.0459      7.5210      8.3108      9.8288      13.352      20.164      31.210      46.907      67.097    
  91.043      117.44      144.39      169.51      190.13      203.73      203.73      203.73      194.56      177.48    
  154.67      128.76      102.25      77.295      55.460      37.767      24.657      16.002      11.099      8.8222    
  7.8069      7.1804      6.8755      6.8736      7.1829      7.8036      8.8242      11.099      16.002      24.657    
  37.767      55.459      77.295      102.25      128.75      154.67      177.48      194.56      190.13      194.56    
  190.13      177.48      158.26      134.81      109.60      84.890      62.470      43.607      29.007      18.820    
  12.612      9.4593      8.0877      7.3346      6.8826      6.7384      6.8822      7.3350      8.0890      9.4567    
  12.614      18.819      29.008      43.606      62.471      84.890      109.60      134.81      158.26      177.48    
  169.51      177.47      177.47      169.51      154.67      134.81      112.16      88.947      67.076      47.993    
  32.644      21.423      14.171      10.187      8.3745      7.4875      6.9136      6.6370      6.6368      6.9142    
  7.4855      8.3769      10.185      14.172      21.423      32.644      47.993      67.076      88.947      112.16    
  134.81      154.67      144.39      154.66      158.24      154.66      144.39      128.75      109.60      88.947    
  68.681      50.346      35.059      23.426      15.532      10.909      8.6647      7.6241      6.9558      6.5698    
  6.4427      6.5692      6.9573      7.6228      8.6652      10.909      15.531      23.427      35.058      50.347    
  68.681      88.947      109.60      128.75      117.44      128.74      134.78      134.78      128.74      117.44    
  102.25      84.890      67.076      50.347      35.905      24.515      16.458      11.493      8.9261      7.7348    
  7.0000      6.5277      6.2996      6.3014      6.5258      7.0014      7.7342      8.9260      11.493      16.457    
  24.515      35.904      50.347      67.076      84.889      102.25      91.043      102.24      109.57      112.13    
  109.57      102.24      91.043      77.294      62.471      47.993      35.058      24.515      16.787      11.818    
  9.1120      7.8136      7.0377      6.5021      6.2020      6.1034      6.2021      6.5022      7.0369      7.8147    
  9.1110      11.820      16.786      24.515      35.058      47.993      62.471      77.295      67.097      77.294    
  84.879      88.930      88.930      84.880      77.293      67.097      55.460      43.607      32.643      23.427    
  16.457      11.819      9.1783      7.8570      7.0606      6.4902      6.1376      5.9711      5.9707      6.1378    
  6.4905      7.0600      7.8573      9.1777      11.819      16.457      23.427      32.645      43.606      55.460    
  46.907      55.474      62.488      67.091      68.693      67.090      62.488      55.475      46.907      37.766    
  29.008      21.424      15.530      11.493      9.1111      7.8569      7.0689      6.4846      6.1029      5.8895    
  5.8228      5.8896      6.1023      6.4854      7.0683      7.8578      9.1108      11.493      15.531      21.422    
  29.008      37.767      31.210      37.800      43.656      48.051      50.407      50.408      48.052      43.658    
  37.799      31.210      24.658      18.819      14.171      10.910      8.9251      7.8150      7.0602      6.4850    
  6.0914      5.8516      5.7406      5.7405      5.8522      6.0907      6.4852      7.0598      7.8147      8.9259    
  10.909      14.173      18.818      24.657      20.164      24.705      29.091      32.749      35.174      36.024    
  35.174      32.747      29.091      24.705      20.165      16.001      12.613      10.187      8.6635      7.7357    
  7.0361      6.4907      6.1022      5.8520      5.7144      5.6714      5.7142      5.8524      6.1023      6.4909    
  7.0367      7.7346      8.6647      10.185      12.614      16.002      13.352      16.061      18.927      21.567    
  23.596      24.696      24.696      23.596      21.569      18.928      16.060      13.351      11.101      9.4564    
  8.3751      7.6246      6.9995      6.5035      6.1372      5.8900      5.7405      5.6715      5.6714      5.7402    
  5.8896      6.1373      6.5025      7.0010      7.6233      8.3770      9.4568      11.099      9.8288      11.165    
  12.737      14.345      15.739      16.688      17.024      16.688      15.738      14.343      12.737      11.166    
  9.8301      8.8205      8.0913      7.4857      6.9566      6.5272      6.2012      5.9710      5.8225      5.7402    
  5.7146      5.7407      5.8230      5.9709      6.2021      6.5260      6.9571      7.4851      8.0891      8.8243    
  8.3108      8.8911      9.5875      10.373      11.143      11.759      12.102      12.102      11.759      11.144    
  10.375      9.5876      8.8873      8.3121      7.8062      7.3325      6.9147      6.5691      6.3003      6.1042    
  5.9710      5.8902      5.8518      5.8516      5.8893      5.9708      6.1034      6.3011      6.5695      6.9146    
  7.3348      7.8036      7.5209      7.8713      8.2230      8.5710      8.9090      9.2098      9.4196      9.4951    
  9.4194      9.2085      8.9078      8.5686      8.2252      7.8740      7.5185      7.1816      6.8840      6.6366    
  6.4433      6.3004      6.2011      6.1371      6.1023      6.0915      6.1030      6.1379      6.2019      6.2999    
  6.4424      6.6365      6.8822      7.1830      7.0460      7.2514      7.4697      7.6812      7.8726      8.0291    
  8.1418      8.2016      8.2012      8.1427      8.0304      7.8744      7.6818      7.4672      7.2501      7.0481    
  6.8745      6.7371      6.6366      6.5690      6.5273      6.5037      6.4906      6.4849      6.4845      6.4898    
  6.5022      6.5274      6.5701      6.6373      6.7383      6.8735      6.8954      6.9423      7.0179      7.1130    
  7.2118      7.3039      7.3758      7.4207      7.4367      7.4204      7.3750      7.3019      7.2113      7.1131    
  7.0196      6.9432      6.8936      6.8745      6.8840      6.9148      6.9565      6.9993      7.0362      7.0603    
  7.0689      7.0609      7.0376      7.0003      6.9555      6.9133      6.8826      6.8757      7.0460      6.9444    
  6.8743      6.8360      6.8271      6.8335      6.8490      6.8646      6.8731      6.8738      6.8646      6.8506    
  6.8348      6.8267      6.8362      6.8730      6.9432      7.0481      7.1817      7.3324      7.4858      7.6248    
  7.7356      7.8148      7.8568      7.8567      7.8136      7.7344      7.6244      7.4878      7.3346      7.1803    
  7.5215      7.2487      7.0182      6.8370      6.7011      6.6116      6.5554      6.5229      6.5080      6.5025    
  6.5076      6.5222      6.5543      6.6108      6.7019      6.8362      7.0196      7.2501      7.5186      7.8063    
  8.0912      8.3749      8.6636      8.9252      9.1112      9.1786      9.1119      8.9264      8.6645      8.3742    
  8.0878      7.8070      8.3082      7.8747      7.4694      7.1115      6.8277      6.6103      6.4587      6.3613    
  6.3036      6.2788      6.2781      6.3048      6.3615      6.4596      6.6108      6.8267      7.1130      7.4673    
  7.8739      8.3121      8.8205      9.4566      10.187      10.910      11.493      11.819      11.818      11.492    
  10.909      10.187      9.4591      8.8222      9.8318      8.8891      8.2215      7.6841      7.2102      6.8351    
  6.5551      6.3615      6.2412      6.1755      6.1558      6.1754      6.2403      6.3616      6.5542      6.8349    
  7.2112      7.6819      8.2251      8.8875      9.8299      11.101      12.613      14.171      15.530      16.457    
  16.787      16.458      15.531      14.171      12.612      11.099      13.351      11.164      9.5902      8.5679    
  7.8740      7.3029      6.8489      6.5232      6.3034      6.1761      6.1159      6.1172      6.1755      6.3046    
  6.5224      6.8504      7.3021      7.8742      8.5688      9.5873      11.167      13.351      16.001      18.819    
  21.424      23.427      24.515      24.515      23.426      21.423      18.820      16.002      20.165      16.061    
  12.735      10.375      8.9086      8.0293      7.3765      6.8638      6.5087      6.2776      6.1566      6.1158    
  6.1559      6.2782      6.5076      6.8646      7.3750      8.0304      8.9078      10.375      12.736      16.060    
  20.165      24.658      29.008      32.644      35.058      35.905      35.059      32.644      29.007      24.657    
  31.210      24.705      18.929      14.343      11.143      9.2098      8.1411      7.4214      6.8726      6.5034    
  6.2778      6.1760      6.1757      6.2785      6.5028      6.8736      7.4207      8.1425      9.2087      11.144    
  14.343      18.927      24.706      31.210      37.766      43.606      47.993      50.347      50.347      47.993    
  43.607      37.766      46.907      37.800      29.090      21.568      15.740      11.758      9.4208      8.2004    
  7.4377      6.8723      6.5087      6.3031      6.2414      6.3035      6.5080      6.8730      7.4368      8.2011    
  9.4195      11.759      15.738      21.569      29.091      37.799      46.907      55.460      62.471      67.076    
  68.681      67.076      62.470      55.460      67.097      55.474      43.658      32.748      23.595      16.689    
  12.101      9.4958      8.2007      7.4214      6.8641      6.5231      6.3617      6.3610      6.5232      6.8644    
  7.4210      8.2014      9.4953      12.102      16.688      23.596      32.748      43.657      55.475      67.097    
  77.294      84.889      88.947      88.947      84.890      77.294      91.043      77.293      62.488      48.051    
  35.175      24.695      17.026      12.101      9.4209      8.1407      7.3766      6.8485      6.5553      6.4586    
  6.5556      6.8488      7.3760      8.1416      9.4198      12.102      17.024      24.696      35.174      48.052    
  62.488      77.293      91.043      102.25      109.60      112.16      109.60      102.25      117.44      102.24    
  84.880      67.090      50.407      36.024      24.695      16.689      11.758      9.2099      8.0295      7.3029    
  6.8352      6.6101      6.6118      6.8333      7.3041      8.0290      9.2100      11.759      16.689      24.696    
  36.024      50.407      67.090      84.880      102.24      117.44      128.75      134.81      134.81      128.75    
  144.39      128.74      109.57      88.930      68.694      50.406      35.175      23.595      15.740      11.143    
  8.9090      7.8735      7.2106      6.8274      6.7014      6.8267      7.2121      7.8723      8.9094      11.143    
  15.739      23.595      35.175      50.407      68.694      88.930      109.57      128.74      144.39      154.67    
  158.26      154.67      169.51      154.66      134.78      112.13      88.930      67.091      48.051      32.749    
  21.568      14.344      10.375      8.5685      7.6835      7.1119      6.8366      6.8364      7.1126      7.6816    
  8.5706      10.373      14.345      21.568      32.749      48.051      67.090      88.930      112.13      134.78    
  154.66      169.51      177.48      177.48      190.13      177.47      158.24      134.78      109.57      84.880    
  62.488      43.657      29.090      18.928      12.735      9.5900      8.2216      7.4694      7.0182      6.8743    
  7.0178      7.4697      8.2229      9.5876      12.737      18.927      29.091      43.657      62.488      84.880    
  109.57      134.78      158.24      177.47      190.13      194.56      203.73      194.56      177.47      154.66    
  128.74      102.24      77.293      55.474      37.800      24.705      16.061      11.165      8.8890      7.8747    
  7.2488      6.9444      6.9423      7.2514      7.8713      8.8910      11.165      16.061      24.705      37.799    
  55.474      77.293      102.24      128.74      154.66      177.47      194.56      203.73      196.51      192.04    
  179.25      159.84      136.15      110.70      85.756      63.130      44.090      29.346      19.046      12.757    
  9.5569      8.1652      7.4082      6.9530      6.8083      6.9527      7.4086      8.1670      9.5536      12.759    
  19.045      29.347      44.090      63.131      85.756      110.70      136.15      159.83      179.25      192.04    
  192.04      192.04      183.41      167.33      145.84      121.38      96.342      72.755      52.139      35.486    
  23.214      15.186      10.695      8.6327      7.6790      7.0758      6.7836      6.7825      7.0773      7.6760    
  8.6351      10.695      15.185      23.215      35.485      52.139      72.754      96.343      121.38      145.84    
  167.33      183.41      179.25      183.41      179.25      167.33      149.22      127.09      103.28      79.924    
  58.745      40.966      27.267      17.781      12.064      9.2017      7.9439      7.2175      6.7856      6.6469    
  6.7850      7.2186      7.9441      9.1997      12.066      17.780      27.269      40.966      58.746      79.924    
  103.28      127.09      149.22      167.33      159.84      167.33      167.33      159.83      145.84      127.09    
  105.70      83.755      63.088      45.088      30.665      20.189      13.485      9.8501      8.2048      7.3600    
  6.8100      6.5446      6.5455      6.8093      7.3594      8.2065      9.8490      13.486      20.188      30.665    
  45.088      63.087      83.755      105.70      127.09      145.84      136.15      145.84      149.22      145.84    
  136.15      121.38      103.28      83.754      64.602      47.301      32.924      22.046      14.729      10.497    
  8.4630      7.4890      6.8448      6.4763      6.3543      6.4759      6.8461      7.4871      8.4640      10.496    
  14.729      22.046      32.924      47.301      64.602      83.754      103.28      121.38      110.70      121.38    
  127.09      127.09      121.38      110.70      96.343      79.924      63.087      47.302      33.716      23.058    
  15.579      11.021      8.6935      7.5920      6.8829      6.4316      6.2133      6.2151      6.4294      6.8851    
  7.5907      8.6941      11.021      15.579      23.058      33.716      47.301      63.089      79.923      96.343    
  85.756      96.347      103.28      105.70      103.28      96.347      85.756      72.753      58.746      45.088    
  32.924      23.057      15.881      11.315      8.8572      7.6638      6.9160      6.4035      6.1160      6.0227    
  6.1163      6.4031      6.9156      7.6646      8.8565      11.316      15.881      23.058      32.924      45.087    
  58.746      72.754      63.131      72.772      79.947      83.780      83.780      79.948      72.771      63.131    
  52.140      40.966      30.664      22.047      15.578      11.316      8.9153      7.7029      6.9361      6.3894    
  6.0513      5.8930      5.8921      6.0524      6.3890      6.9361      7.7028      8.9152      11.315      15.579    
  22.046      30.666      40.965      52.139      44.089      52.172      58.798      63.149      64.664      63.148    
  58.798      52.172      44.089      35.484      27.268      20.189      14.728      11.022      8.8564      7.7027    
  6.9435      6.3825      6.0163      5.8127      5.7487      5.8125      6.0158      6.3831      6.9430      7.7034    
  8.8561      11.021      14.728      20.188      27.269      35.486      29.347      35.535      41.049      45.191    
  47.415      47.415      45.193      41.050      35.534      29.347      23.215      17.780      13.484      10.498    
  8.6927      7.6652      6.9358      6.3829      6.0045      5.7753      5.6686      5.6691      5.7754      6.0043    
  6.3829      6.9357      7.6647      8.6938      10.497      13.486      17.780      23.214      19.045      23.277    
  27.381      30.813      33.091      33.890      33.091      30.811      27.381      23.277      19.045      15.184    
  12.066      9.8501      8.4625      7.5926      6.9146      6.3897      6.0157      5.7756      5.6432      5.6018    
  5.6430      5.7758      6.0158      6.3898      6.9153      7.5913      8.4633      9.8484      12.066      15.186    
  12.759      15.257      17.914      20.370      22.263      23.291      23.292      22.263      20.373      17.914    
  15.256      12.758      10.698      9.1986      8.2059      7.4886      6.8830      6.4044      6.0513      5.8129    
  5.6686      5.6022      5.6019      5.6686      5.8127      6.0514      6.4037      6.8843      7.4880      8.2069    
  9.1998      10.695      9.5535      10.771      12.212      13.692      14.979      15.858      16.169      15.857    
  14.978      13.689      12.212      10.773      9.5542      8.6316      7.9471      7.3582      6.8463      6.4306    