Co-hcc                                  
   1.00000000000000     
     2.519857    0.000000    0.000000
    -1.259928    2.182260    0.000000
     0.000000    0.000000    4.077026
   Co
     2
Direct
  0.000000  0.000000  0.000000
  0.333333  0.666667  0.500000
 
   32   32   56
 0.21265001896E+03 0.20779449545E+03 0.19391223084E+03 0.17287039599E+03 0.14724683596E+03
 0.11976793159E+03 0.92872595510E+02 0.68469716375E+02 0.47884478770E+02 0.31858737243E+02
 0.20556988301E+02 0.13559752769E+02 0.99295107359E+01 0.83578937168E+01 0.75604824277E+01
 0.70780329878E+01 0.69255440508E+01 0.70781121925E+01 0.75596106357E+01 0.83607286987E+01
 0.99265046407E+01 0.13561060493E+02 0.20556398948E+02 0.31859255964E+02 0.47883999760E+02
 0.68470291137E+02 0.92872093504E+02 0.11976845148E+03 0.14724650613E+03 0.17287045526E+03
 0.19391219264E+03 0.20779450577E+03 0.20779450577E+03 0.20779461276E+03 0.19843096566E+03
 0.18099653611E+03 0.15773295605E+03 0.13130822530E+03 0.10429830032E+03 0.78866283434E+02
 0.56610380791E+02 0.38559546919E+02 0.25160842814E+02 0.16288714375E+02 0.11242397431E+02
 0.88890428814E+01 0.78507708461E+01 0.72164449526E+01 0.69072076551E+01 0.69049897156E+01
 0.72192099024E+01 0.78474739906E+01 0.88907411560E+01 0.11242557332E+02 0.16288545162E+02
 0.25160816785E+02 0.38559553804E+02 0.56610252653E+02 0.78866191386E+02 0.10429842587E+03
 0.13130777474E+03 0.15773359291E+03 0.18099629859E+03 0.19843108642E+03 0.19391219264E+03
 0.19842639219E+03 0.19391225355E+03 0.18099642732E+03 0.16139320825E+03 0.13747865805E+03
 0.11178735464E+03 0.86608645547E+02 0.63760861237E+02 0.44523767085E+02 0.29613349056E+02
 0.19184220269E+02 0.12805085224E+02 0.95504387921E+01 0.81373786033E+01 0.73748077055E+01
 0.69159403160E+01 0.67698477600E+01 0.69156319949E+01 0.73748568046E+01 0.81390542707E+01
 0.95479006871E+01 0.12807005360E+02 0.19182604149E+02 0.29614649692E+02 0.44522963450E+02
 0.63761612793E+02 0.86608183773E+02 0.11178795332E+03 0.13747811813E+03 0.16139338727E+03
 0.18099629859E+03 0.17287045526E+03 0.18098456638E+03 0.18098412825E+03 0.17287041302E+03
 0.15773334451E+03 0.13747865444E+03 0.11439706533E+03 0.90744616924E+02 0.68457163519E+02
 0.49001078693E+02 0.33333212960E+02 0.21854858986E+02 0.14413342170E+02 0.10306259959E+02
 0.84337381737E+01 0.75311871024E+01 0.69491075163E+01 0.66688460573E+01 0.66680761507E+01
 0.69504364992E+01 0.75286042607E+01 0.84363486714E+01 0.10304562583E+02 0.14414446633E+02
 0.21854404925E+02 0.33333248778E+02 0.49000900502E+02 0.68457270049E+02 0.90744110810E+02
 0.11439771222E+03 0.13747811813E+03 0.15773359291E+03 0.14724650613E+03 0.15771391431E+03
 0.16136691066E+03 0.15771427373E+03 0.14724690512E+03 0.13130729794E+03 0.11178784643E+03
 0.90744292763E+02 0.70093713254E+02 0.51403041880E+02 0.35801380244E+02 0.23908328317E+02
 0.15813611440E+02 0.11054929115E+02 0.87356685410E+01 0.76705310418E+01 0.69939162382E+01
 0.66020327286E+01 0.64729682990E+01 0.66013562857E+01 0.69953616378E+01 0.76694803508E+01
 0.87358151542E+01 0.11055331390E+02 0.15812921309E+02 0.23908958527E+02 0.35800989968E+02
 0.51403409858E+02 0.70093750874E+02 0.90744110810E+02 0.11178795332E+03 0.13130777474E+03
 0.11976845148E+03 0.13128571778E+03 0.13744178577E+03 0.13744157771E+03 0.13128541171E+03
 0.11976827757E+03 0.10429891984E+03 0.86608496666E+02 0.68456937628E+02 0.51403446075E+02
 0.36666035924E+02 0.25023942448E+02 0.16766651775E+02 0.11659222592E+02 0.90084181087E+01
 0.77836875093E+01 0.70403142012E+01 0.65605185443E+01 0.63293989745E+01 0.63308314451E+01
 0.65589844353E+01 0.70411711024E+01 0.77836717269E+01 0.90079812414E+01 0.11659729337E+02
 0.16766082468E+02 0.25024516364E+02 0.36665631403E+02 0.51403409858E+02 0.68457270049E+02
 0.86608183773E+02 0.10429842587E+03 0.92872093504E+02 0.10427962392E+03 0.11175137086E+03
 0.11435370131E+03 0.11175131797E+03 0.10427976666E+03 0.92872326155E+02 0.78865462428E+02
 0.63761287788E+02 0.49001379214E+02 0.35800941531E+02 0.25024208265E+02 0.17105191352E+02
 0.11996384276E+02 0.92021588525E+01 0.78653810464E+01 0.70793903471E+01 0.65359902019E+01
 0.62314582520E+01 0.61311504913E+01 0.62315734673E+01 0.65363396454E+01 0.70784744134E+01
 0.78665554892E+01 0.92010963801E+01 0.11997534896E+02 0.17104308878E+02 0.25024516364E+02
 0.35800989968E+02 0.49000900502E+02 0.63761612793E+02 0.78866191386E+02 0.68470291137E+02
 0.78858229863E+02 0.86586096474E+02 0.90712007848E+02 0.90712361632E+02 0.86586490145E+02
 0.78857969376E+02 0.68470238286E+02 0.56610956444E+02 0.44523468463E+02 0.33332421282E+02
 0.23909095969E+02 0.16766012209E+02 0.11997117019E+02 0.92715746858E+01 0.79103255916E+01
 0.71033864893E+01 0.65246533217E+01 0.61672962262E+01 0.59977773982E+01 0.59977332762E+01
 0.61669607641E+01 0.65254482419E+01 0.71024054751E+01 0.79111018486E+01 0.92707149080E+01
 0.11997534896E+02 0.16766082468E+02 0.23908958527E+02 0.33333248778E+02 0.44522963450E+02
 0.56610252653E+02 0.47883999760E+02 0.56618723666E+02 0.63766484802E+02 0.68454962733E+02
 0.70088006291E+02 0.68454252505E+02 0.63765949326E+02 0.56618974738E+02 0.47884110329E+02
 0.38558801986E+02 0.29613989056E+02 0.21855840541E+02 0.15812520171E+02 0.11659918528E+02
 0.92013233760E+01 0.79103715595E+01 0.71118675080E+01 0.65196085658E+01 0.61326612368E+01
 0.59157162954E+01 0.58482592409E+01 0.59160047176E+01 0.61319692525E+01 0.65204594680E+01
 0.71112680128E+01 0.79111018486E+01 0.92010963801E+01 0.11659729337E+02 0.15812921309E+02
 0.21854404925E+02 0.29614649692E+02 0.38559553804E+02 0.31859255964E+02 0.38586523619E+02
 0.44561712054E+02 0.49042667417E+02 0.51444568934E+02 0.51444938517E+02 0.49043542671E+02
 0.44562584900E+02 0.38585998904E+02 0.31859131863E+02 0.25161630844E+02 0.19183169585E+02
 0.14412501014E+02 0.11056344114E+02 0.90073193874E+01 0.78666894817E+01 0.71029326959E+01
 0.65200251177E+01 0.61212126988E+01 0.58777997247E+01 0.57653481916E+01 0.57649024140E+01
 0.58785395196E+01 0.61204041468E+01 0.65204594680E+01 0.71024054751E+01 0.78665554892E+01
 0.90079812414E+01 0.11055331390E+02 0.14414446633E+02 0.19182604149E+02 0.25160816785E+02
 0.20556398948E+02 0.25203590663E+02 0.29687331310E+02 0.33422856914E+02 0.35898961287E+02
 0.36765415944E+02 0.35898491429E+02 0.33421482396E+02 0.29686548813E+02 0.25204183488E+02
 0.20556872982E+02 0.16287548584E+02 0.12806597457E+02 0.10306663575E+02 0.87344047773E+01
 0.77848361703E+01 0.70778561653E+01 0.65253262801E+01 0.61319531461E+01 0.58781285646E+01
 0.57388608804E+01 0.56951800945E+01 0.57385389756E+01 0.58785395196E+01 0.61319692525E+01
 0.65254482419E+01 0.70784744134E+01 0.77836717269E+01 0.87358151542E+01 0.10304562583E+02
 0.12807005360E+02 0.16288545162E+02 0.13561060493E+02 0.16343782266E+02 0.19282109634E+02
 0.21986257311E+02 0.24060996519E+02 0.25186332323E+02 0.25186693014E+02 0.24061666501E+02
 0.21987943997E+02 0.19282865094E+02 0.16342870219E+02 0.13559865670E+02 0.11244422023E+02
 0.95478962594E+01 0.84341536856E+01 0.76712732832E+01 0.70394218973E+01 0.65375362931E+01
 0.61666512399E+01 0.59164655839E+01 0.57650223615E+01 0.56951720820E+01 0.56951800945E+01
 0.57649024140E+01 0.59160047176E+01 0.61669607641E+01 0.65363396454E+01 0.70411711024E+01
 0.76694803508E+01 0.84363486714E+01 0.95479006871E+01 0.11242557332E+02 0.99265046407E+01
 0.11304066333E+02 0.12922670459E+02 0.14575503269E+02 0.16006779258E+02 0.16980375012E+02
 0.17324897446E+02 0.16979734378E+02 0.16006005934E+02 0.14573339363E+02 0.12922171252E+02
 0.11305889951E+02 0.99279656625E+01 0.88871237573E+01 0.81409888636E+01 0.75294207217E+01
 0.69944822744E+01 0.65603776408E+01 0.62304892746E+01 0.59979068650E+01 0.58477441756E+01
 0.57650223615E+01 0.57388608804E+01 0.57653481916E+01 0.58482592409E+01 0.59977332762E+01
 0.62315734673E+01 0.65589844353E+01 0.69953616378E+01 0.75286042607E+01 0.81390542707E+01
 0.88907411560E+01 0.83607286987E+01 0.89543305103E+01 0.96722151302E+01 0.10482599091E+02
 0.11276098627E+02 0.11910452870E+02 0.12263351916E+02 0.12263764454E+02 0.11910983811E+02
 0.11277523289E+02 0.10484701715E+02 0.96723377879E+01 0.89506984303E+01 0.83615939855E+01
 0.78504253243E+01 0.73723427076E+01 0.69505079235E+01 0.66012614077E+01 0.63299636956E+01
 0.61320252322E+01 0.59979068650E+01 0.59164655839E+01 0.58781285646E+01 0.58777997247E+01
 0.59157162954E+01 0.59977773982E+01 0.61311504913E+01 0.63308314451E+01 0.66013562857E+01
 0.69504364992E+01 0.73748568046E+01 0.78474739906E+01 0.75596106357E+01 0.79121552951E+01
 0.82670193657E+01 0.86210736463E+01 0.89684459579E+01 0.92782529922E+01 0.94948875772E+01
 0.95728146648E+01 0.94946849244E+01 0.92770426299E+01 0.89670155503E+01 0.86187475922E+01
 0.82689246198E+01 0.79151097622E+01 0.75573197295E+01 0.72176642390E+01 0.69175318386E+01
 0.66681659737E+01 0.64735215673E+01 0.63299636956E+01 0.62304892746E+01 0.61666512399E+01
 0.61319531461E+01 0.61212126988E+01 0.61326612368E+01 0.61672962262E+01 0.62314582520E+01
 0.63293989745E+01 0.64729682990E+01 0.66680761507E+01 0.69156319949E+01 0.72192099024E+01
 0.70781121925E+01 0.72847896296E+01 0.75040560247E+01 0.77162312987E+01 0.79081996123E+01
 0.80658570610E+01 0.81795555491E+01 0.82402031906E+01 0.82398325382E+01 0.81804285754E+01
 0.80670820166E+01 0.79101626433E+01 0.77170832064E+01 0.75015782091E+01 0.72832235017E+01
 0.70803189034E+01 0.69060267594E+01 0.67684049804E+01 0.66681659737E+01 0.66012614077E+01
 0.65603776408E+01 0.65375362931E+01 0.65253262801E+01 0.65200251177E+01 0.65196085658E+01
 0.65246533217E+01 0.65359902019E+01 0.65605185443E+01 0.66020327286E+01 0.66688460573E+01
 0.67698477600E+01 0.69049897156E+01 0.69255440508E+01 0.69709969617E+01 0.70458225999E+01
 0.71407894886E+01 0.72399158710E+01 0.73319048007E+01 0.74037767800E+01 0.74486908324E+01
 0.74646007383E+01 0.74484766220E+01 0.74029853442E+01 0.73299181680E+01 0.72389894011E+01
 0.71408003087E+01 0.70477379759E+01 0.69720313879E+01 0.69235970603E+01 0.69060267594E+01
 0.69175318386E+01 0.69505079235E+01 0.69944822744E+01 0.70394218973E+01 0.70778561653E+01
 0.71029326959E+01 0.71118675080E+01 0.71033864893E+01 0.70793903471E+01 0.70403142012E+01
 0.69939162382E+01 0.69491075163E+01 0.69159403160E+01 0.69072076551E+01 0.70780329878E+01
 0.69732383516E+01 0.69004077690E+01 0.68599053852E+01 0.68490276135E+01 0.68547386627E+01
 0.68696526618E+01 0.68851373819E+01 0.68935385758E+01 0.68941883488E+01 0.68850894205E+01
 0.68712610159E+01 0.68561915914E+01 0.68490256247E+01 0.68599773605E+01 0.68989944933E+01
 0.69720313879E+01 0.70803189034E+01 0.72176642390E+01 0.73723427076E+01 0.75294207217E+01
 0.76712732832E+01 0.77848361703E+01 0.78666894817E+01 0.79103715595E+01 0.79103255916E+01
 0.78653810464E+01 0.77836875093E+01 0.76705310418E+01 0.75311871024E+01 0.73748077055E+01
 0.72164449526E+01 0.75604824277E+01 0.72819931866E+01 0.70461252239E+01 0.68606959904E+01
 0.67218321187E+01 0.66297747092E+01 0.65720314903E+01 0.65385345902E+01 0.65230991869E+01
 0.65176183527E+01 0.65227785334E+01 0.65378360456E+01 0.65707544474E+01 0.66288081825E+01
 0.67223806992E+01 0.68599773605E+01 0.70477379759E+01 0.72832235017E+01 0.75573197295E+01
 0.78504253243E+01 0.81409888636E+01 0.84341536856E+01 0.87344047773E+01 0.90073193874E+01
 0.92013233760E+01 0.92715746858E+01 0.92021588525E+01 0.90084181087E+01 0.87356685410E+01
 0.84337381737E+01 0.81373786033E+01 0.78507708461E+01 0.83578937168E+01 0.79154711807E+01
 0.75040501362E+01 0.71394193402E+01 0.68497328954E+01 0.66282290594E+01 0.64735519927E+01
 0.63742516036E+01 0.63154954147E+01 0.62900615558E+01 0.62895297141E+01 0.63166530501E+01
 0.63745878493E+01 0.64746127279E+01 0.66288081825E+01 0.68490256247E+01 0.71408003087E+01
 0.75015782091E+01 0.79151097622E+01 0.83615939855E+01 0.88871237573E+01 0.95478962594E+01
 0.10306663575E+02 0.11056344114E+02 0.11659918528E+02 0.11997117019E+02 0.11996384276E+02
 0.11659222592E+02 0.11054929115E+02 0.10306259959E+02 0.95504387921E+01 0.88890428814E+01
 0.99295107359E+01 0.89526348032E+01 0.82652697225E+01 0.77188659128E+01 0.72383978579E+01
 0.68564444456E+01 0.65717802921E+01 0.63746007090E+01 0.62522585577E+01 0.61854023441E+01
 0.61653462678E+01 0.61852144578E+01 0.62512664331E+01 0.63745878493E+01 0.65707544474E+01
 0.68561915914E+01 0.72389894011E+01 0.77170832064E+01 0.82689246198E+01 0.89506984303E+01
 0.99279656625E+01 0.11244422023E+02 0.12806597457E+02 0.14412501014E+02 0.15812520171E+02
 0.16766012209E+02 0.17105191352E+02 0.16766651775E+02 0.15813611440E+02 0.14413342170E+02
 0.12805085224E+02 0.11242397431E+02 0.13559752769E+02 0.11303853850E+02 0.96748553397E+01
 0.86184251545E+01 0.79093269012E+01 0.73309017046E+01 0.68693958449E+01 0.65387259008E+01
 0.63151437863E+01 0.61858835030E+01 0.61246109123E+01 0.61260190152E+01 0.61852144578E+01
 0.63166530501E+01 0.65378360456E+01 0.68712610159E+01 0.73299181680E+01 0.79101626433E+01
 0.86187475922E+01 0.96723377879E+01 0.11305889951E+02 0.13559865670E+02 0.16287548584E+02
 0.19183169585E+02 0.21855840541E+02 0.23909095969E+02 0.25024208265E+02 0.25023942448E+02
 0.23908328317E+02 0.21854858986E+02 0.19184220269E+02 0.16288714375E+02 0.20556988301E+02
 0.16344055373E+02 0.12920674191E+02 0.10484311140E+02 0.89681871226E+01 0.80660385661E+01
 0.74045685707E+01 0.68844736440E+01 0.65238046737E+01 0.62891610875E+01 0.61660721944E+01
 0.61246109123E+01 0.61653462678E+01 0.62895297141E+01 0.65227785334E+01 0.68850894205E+01
 0.74029853442E+01 0.80670820166E+01 0.89670155503E+01 0.10484701715E+02 0.12922171252E+02
 0.16342870219E+02 0.20556872982E+02 0.25161630844E+02 0.29613989056E+02 0.33332421282E+02
 0.35800941531E+02 0.36666035924E+02 0.35801380244E+02 0.33333212960E+02 0.29613349056E+02
 0.25160842814E+02 0.31858737243E+02 0.25203477423E+02 0.19283829435E+02 0.14574205802E+02
 0.11276062797E+02 0.92782950243E+01 0.81787674448E+01 0.74492777663E+01 0.68930110622E+01
 0.65182903329E+01 0.62891610875E+01 0.61858835030E+01 0.61854023441E+01 0.62900615558E+01
 0.65176183527E+01 0.68941883488E+01 0.74484766220E+01 0.81804285754E+01 0.92770426299E+01
 0.11277523289E+02 0.14573339363E+02 0.19282865094E+02 0.25204183488E+02 0.31859131863E+02
 0.38558801986E+02 0.44523468463E+02 0.49001379214E+02 0.51403446075E+02 0.51403041880E+02
 0.49001078693E+02 0.44523767085E+02 0.38559546919E+02 0.47884478770E+02 0.38586618548E+02
 0.29685970752E+02 0.21986850115E+02 0.16007358246E+02 0.11909930964E+02 0.94960219539E+01
 0.82392588377E+01 0.74655310656E+01 0.68930110622E+01 0.65238046737E+01 0.63151437863E+01
 0.62522585577E+01 0.63154954147E+01 0.65230991869E+01 0.68935385758E+01 0.74646007383E+01
 0.82398325382E+01 0.94946849244E+01 0.11910983811E+02 0.16006005934E+02 0.21987943997E+02
 0.29686548813E+02 0.38585998904E+02 0.47884110329E+02 0.56610956444E+02 0.63761287788E+02
 0.68456937628E+02 0.70093713254E+02 0.68457163519E+02 0.63760861237E+02 0.56610380791E+02
 0.68469716375E+02 0.56618668865E+02 0.44562683758E+02 0.33422609511E+02 0.24060544217E+02
 0.16980684561E+02 0.12262559607E+02 0.95733994966E+01 0.82392588377E+01 0.74492777663E+01
 0.68844736440E+01 0.65387259008E+01 0.63746007090E+01 0.63742516036E+01 0.65385345902E+01
 0.68851373819E+01 0.74486908324E+01 0.82402031906E+01 0.95728146648E+01 0.12263764454E+02
 0.16979734378E+02 0.24061666501E+02 0.33421482396E+02 0.44562584900E+02 0.56618974738E+02
 0.68470238286E+02 0.78865462428E+02 0.86608496666E+02 0.90744292763E+02 0.90744616924E+02
 0.86608645547E+02 0.78866283434E+02 0.92872595510E+02 0.78858193947E+02 0.63765966726E+02
 0.49042612688E+02 0.35899566381E+02 0.25185560072E+02 0.17326202882E+02 0.12262559607E+02
 0.94960219539E+01 0.81787674448E+01 0.74045685707E+01 0.68693958449E+01 0.65717802921E+01
 0.64735519927E+01 0.65720314903E+01 0.68696526618E+01 0.74037767800E+01 0.81795555491E+01
 0.94948875772E+01 0.12263351916E+02 0.17324897446E+02 0.25186693014E+02 0.35898491429E+02
 0.49043542671E+02 0.63765949326E+02 0.78857969376E+02 0.92872326155E+02 0.10429891984E+03
 0.11178784643E+03 0.11439706533E+03 0.11178735464E+03 0.10429830032E+03 0.11976793159E+03
 0.10427979431E+03 0.86586378977E+02 0.68455057685E+02 0.51443918628E+02 0.36766319472E+02
 0.25185560072E+02 0.16980684561E+02 0.11909930964E+02 0.92782950243E+01 0.80660385661E+01
 0.73309017046E+01 0.68564444456E+01 0.66282290594E+01 0.66297747092E+01 0.68547386627E+01
 0.73319048007E+01 0.80658570610E+01 0.92782529922E+01 0.11910452870E+02 0.16980375012E+02
 0.25186332323E+02 0.36765415944E+02 0.51444938517E+02 0.68454252505E+02 0.86586490145E+02
 0.10427976666E+03 0.11976827757E+03 0.13130729794E+03 0.13747865444E+03 0.13747865805E+03
 0.13130822530E+03 0.14724683596E+03 0.13128543581E+03 0.11175132498E+03 0.90711700608E+02
 0.70088861378E+02 0.51443918628E+02 0.35899566381E+02 0.24060544217E+02 0.16007358246E+02
 0.11276062797E+02 0.89681871226E+01 0.79093269012E+01 0.72383978579E+01 0.68497328954E+01
 0.67218321187E+01 0.68490276135E+01 0.72399158710E+01 0.79081996123E+01 0.89684459579E+01
 0.11276098627E+02 0.16006779258E+02 0.24060996519E+02 0.35898961287E+02 0.51444568934E+02
 0.70088006291E+02 0.90712361632E+02 0.11175131797E+03 0.13128541171E+03 0.14724690512E+03
 0.15773334451E+03 0.16139320825E+03 0.15773295605E+03 0.17287039599E+03 0.15771428754E+03
 0.13744182917E+03 0.11435394400E+03 0.90711700608E+02 0.68455057685E+02 0.49042612688E+02
 0.33422609511E+02 0.21986850115E+02 0.14574205802E+02 0.10484311140E+02 0.86184251545E+01
 0.77188659128E+01 0.71394193402E+01 0.68606959904E+01 0.68599053852E+01 0.71407894886E+01
 0.77162312987E+01 0.86210736463E+01 0.10482599091E+02 0.14575503269E+02 0.21986257311E+02
 0.33422856914E+02 0.49042667417E+02 0.68454962733E+02 0.90712007848E+02 0.11435370131E+03
 0.13744157771E+03 0.15771427373E+03 0.17287041302E+03 0.18099642732E+03 0.18099653611E+03
 0.19391223084E+03 0.18098446732E+03 0.16136637264E+03 0.13744182917E+03 0.11175132498E+03
 0.86586378977E+02 0.63765966726E+02 0.44562683758E+02 0.29685970752E+02 0.19283829435E+02
 0.12920674191E+02 0.96748553397E+01 0.82652697225E+01 0.75040501362E+01 0.70461252239E+01
 0.69004077690E+01 0.70458225999E+01 0.75040560247E+01 0.82670193657E+01 0.96722151302E+01
 0.12922670459E+02 0.19282109634E+02 0.29687331310E+02 0.44561712054E+02 0.63766484802E+02
 0.86586096474E+02 0.11175137086E+03 0.13744178577E+03 0.16136691066E+03 0.18098412825E+03
 0.19391225355E+03 0.19843096566E+03 0.20779449545E+03 0.19842637231E+03 0.18098446732E+03
 0.15771428754E+03 0.13128543581E+03 0.10427979431E+03 0.78858193947E+02 0.56618668865E+02
 0.38586618548E+02 0.25203477423E+02 0.16344055373E+02 0.11303853850E+02 0.89526348032E+01
 0.79154711807E+01 0.72819931866E+01 0.69732383516E+01 0.69709969617E+01 0.72847896296E+01
 0.79121552951E+01 0.89543305103E+01 0.11304066333E+02 0.16343782266E+02 0.25203590663E+02
 0.38586523619E+02 0.56618723666E+02 0.78858229863E+02 0.10427962392E+03 0.13128571778E+03
 0.15771391431E+03 0.18098456638E+03 0.19842639219E+03 0.20779461276E+03 0.20848917273E+03
 0.20373353545E+03 0.19013455396E+03 0.16951411435E+03 0.14439090989E+03 0.11743525491E+03
 0.91043103339E+02 0.67096203775E+02 0.46907106883E+02 0.31209548362E+02 0.20165022980E+02
 0.13350228521E+02 0.98319737119E+01 0.83082096074E+01 0.75215574555E+01 0.70459326514E+01
 0.68955044770E+01 0.70459189156E+01 0.75210210117E+01 0.83108177016E+01 0.98287710124E+01
 0.13351716946E+02 0.20164385055E+02 0.31210304370E+02 0.46906669699E+02 0.67097100648E+02
 0.91042628791E+02 0.11743602625E+03 0.14439060429E+03 0.16951379253E+03 0.19013452362E+03
 0.20373364931E+03 0.20373359543E+03 0.20373381706E+03 0.19456108910E+03 0.17747737827E+03
 0.15467221119E+03 0.12875518908E+03 0.10225280800E+03 0.77294877463E+02 0.55459524857E+02
 0.37766840722E+02 0.24657001565E+02 0.16001925567E+02 0.11099211933E+02 0.88222477965E+01
 0.78069105099E+01 0.71804297179E+01 0.68755275908E+01 0.68736158481E+01 0.71828605241E+01
 0.78036210727E+01 0.88242016553E+01 0.11099445662E+02 0.16001540401E+02 0.24657025388E+02
 0.37766573122E+02 0.55459324588E+02 0.77294556895E+02 0.10225285079E+03 0.12875465613E+03
 0.15467296383E+03 0.17747723270E+03 0.19456124518E+03 0.19013437424E+03 0.19455740913E+03
 0.19013446307E+03 0.17747770559E+03 0.15826007553E+03 0.13480648220E+03 0.10959959802E+03
 0.84889898965E+02 0.62470364861E+02 0.43606864566E+02 0.29007003318E+02 0.18820013872E+02
 0.12611703881E+02 0.94592528482E+01 0.80876848510E+01 0.73346038000E+01 0.68825625525E+01
 0.67383671270E+01 0.68821997794E+01 0.73349776630E+01 0.80890045046E+01 0.94567189481E+01
 0.12613600113E+02 0.18818549504E+02 0.29008357127E+02 0.43606302885E+02 0.62471153268E+02
 0.84889667704E+02 0.10960016084E+03 0.13480585428E+03 0.15826044055E+03 0.17747743596E+03
 0.16951418735E+03 0.17746765203E+03 0.17746746525E+03 0.16951360866E+03 0.15467280110E+03
 0.13480645124E+03 0.11215996534E+03 0.88947422593E+02 0.67076063228E+02 0.47993060341E+02
 0.32644317652E+02 0.21422947443E+02 0.14171449915E+02 0.10186761123E+02 0.83744913839E+01
 0.74874909951E+01 0.69135727690E+01 0.66370045816E+01 0.66367571591E+01 0.69142462088E+01
 0.74854690028E+01 0.83768561408E+01 0.10185292332E+02 0.14172338706E+02 0.21422565689E+02
 0.32643991485E+02 0.47993032474E+02 0.67075763775E+02 0.88947178262E+02 0.11216042582E+03
 0.13480609972E+03 0.15467251513E+03 0.14439081312E+03 0.15465669557E+03 0.15823937078E+03
 0.15465731827E+03 0.14439107391E+03 0.12875387275E+03 0.10960029835E+03 0.88946832495E+02
 0.68681014235E+02 0.50346403175E+02 0.35058832333E+02 0.23425871766E+02 0.15531504693E+02
 0.10908837731E+02 0.86647339787E+01 0.76241308487E+01 0.69558410846E+01 0.65698298466E+01
 0.64427032920E+01 0.65692404463E+01 0.69572973076E+01 0.76228112544E+01 0.86651549247E+01
 0.10909053642E+02 0.15530958685E+02 0.23426627296E+02 0.35058494576E+02 0.50346922000E+02
 0.68681022497E+02 0.88946574601E+02 0.10960051907E+03 0.12875450117E+03 0.11743579392E+03
 0.12873801541E+03 0.13477776313E+03 0.13477767153E+03 0.12873748576E+03 0.11743599320E+03
 0.10225336005E+03 0.84890070392E+02 0.67075586552E+02 0.50347294823E+02 0.35904569298E+02
 0.24515124142E+02 0.16457586778E+02 0.11492550153E+02 0.89260663624E+01 0.77347563105E+01
 0.69999814608E+01 0.65276796349E+01 0.62996133511E+01 0.63013591637E+01 0.65257519982E+01
 0.70014468201E+01 0.77341691173E+01 0.89260494973E+01 0.11492632668E+02 0.16457326689E+02
 0.24515236991E+02 0.35904457801E+02 0.50346898505E+02 0.67076390931E+02 0.84889285984E+02
 0.10225302925E+03 0.91042619706E+02 0.10224030284E+03 0.10957457206E+03 0.11212894523E+03
 0.10957437261E+03 0.10224042618E+03 0.91042819662E+02 0.77293656042E+02 0.62470939320E+02
 0.47993162238E+02 0.35058352505E+02 0.24515006609E+02 0.16787092426E+02 0.11818333690E+02
 0.91119747591E+01 0.78135506700E+01 0.70376963989E+01 0.65020921986E+01 0.62020052760E+01
 0.61034365222E+01 0.62021407574E+01 0.65022274715E+01 0.70369357711E+01 0.78147077809E+01
 0.91109927688E+01 0.11819542771E+02 0.16786175395E+02 0.24515478410E+02 0.35058276653E+02
 0.47992646736E+02 0.62471293569E+02 0.77294619861E+02 0.67096851228E+02 0.77293502955E+02
 0.84879400647E+02 0.88930043185E+02 0.88930423771E+02 0.84880181262E+02 0.77292923526E+02
 0.67097214238E+02 0.55460039903E+02 0.43606850476E+02 0.32643298023E+02 0.23427060625E+02
 0.16456944572E+02 0.11819197430E+02 0.91782698490E+01 0.78570123598E+01 0.70605760465E+01
 0.64901738519E+01 0.61375648317E+01 0.59710996750E+01 0.59706678696E+01 0.61378242449E+01
 0.64904568269E+01 0.70599855764E+01 0.78573348743E+01 0.91776870366E+01 0.11819284266E+02
 0.16457343776E+02 0.23426586714E+02 0.32644635727E+02 0.43605904079E+02 0.55459520127E+02
 0.46906500899E+02 0.55474347686E+02 0.62488452971E+02 0.67090516614E+02 0.68693114581E+02
 0.67089538983E+02 0.62487866495E+02 0.55474536953E+02 0.46906631761E+02 0.37765781881E+02
 0.29007746540E+02 0.21423803707E+02 0.15530325764E+02 0.11493189802E+02 0.91110758655E+01
 0.78569123656E+01 0.70688658524E+01 0.64845691366E+01 0.61029205272E+01 0.58894564775E+01
 0.58228203751E+01 0.58895515755E+01 0.61023051546E+01 0.64854305616E+01 0.70683179877E+01
 0.78577530942E+01 0.91108330539E+01 0.11493033802E+02 0.15530581047E+02 0.21422339666E+02
 0.29008337713E+02 0.37766795802E+02 0.31210271024E+02 0.37799608632E+02 0.43656465166E+02
 0.48050826427E+02 0.50407221991E+02 0.50407601407E+02 0.48051875228E+02 0.43657533590E+02
 0.37798934948E+02 0.31210323004E+02 0.24657840976E+02 0.18819062953E+02 0.14170579269E+02
 0.10910241521E+02 0.89250714546E+01 0.78149663743E+01 0.70602170581E+01 0.64850223843E+01
 0.60913502043E+01 0.58516391820E+01 0.57406470904E+01 0.57405383298E+01 0.58521532623E+01
 0.60907289573E+01 0.64852284158E+01 0.70597695022E+01 0.78146653500E+01 0.89258505098E+01
 0.10909229135E+02 0.14172766875E+02 0.18818366773E+02 0.24657004853E+02 0.20164180772E+02
 0.24704912621E+02 0.29091323968E+02 0.32749184441E+02 0.35174350466E+02 0.36023529679E+02
 0.35173952727E+02 0.32747482553E+02 0.29090566754E+02 0.24705464905E+02 0.20164746512E+02
 0.16000508637E+02 0.12613308624E+02 0.10187212680E+02 0.86635186579E+01 0.77357093703E+01
 0.70361291954E+01 0.64907089671E+01 0.61022136642E+01 0.58520167543E+01 0.57144088770E+01
 0.56713520877E+01 0.57141520958E+01 0.58523908908E+01 0.61022696718E+01 0.64909105296E+01
 0.70367405734E+01 0.77346057333E+01 0.86647418040E+01 0.10185101792E+02 0.12613545217E+02
 0.16001798564E+02 0.13351975004E+02 0.16061076415E+02 0.18926961923E+02 0.21567214487E+02
 0.23595575335E+02 0.24695691362E+02 0.24696288159E+02 0.23596033486E+02 0.21569321612E+02
 0.18927563797E+02 0.16060213527E+02 0.13350649034E+02 0.11101393813E+02 0.94564231625E+01
 0.83750714697E+01 0.76246404951E+01 0.69994607418E+01 0.65034904232E+01 0.61372128509E+01
 0.58899804565E+01 0.57404786304E+01 0.56714710797E+01 0.56714058637E+01 0.57402469253E+01
 0.58896408343E+01 0.61373167662E+01 0.65024764451E+01 0.70009564281E+01 0.76232781511E+01
 0.83769929048E+01 0.94568276208E+01 0.11099133723E+02 0.98287576640E+01 0.11164519132E+02
 0.12736896503E+02 0.14345197753E+02 0.15739074568E+02 0.16688250481E+02 0.17024207504E+02
 0.16687512729E+02 0.15738380953E+02 0.14342769453E+02 0.12736525771E+02 0.11166446978E+02
 0.98300954000E+01 0.88205239616E+01 0.80912992531E+01 0.74856806949E+01 0.69566125594E+01
 0.65271774115E+01 0.62012033610E+01 0.59710045031E+01 0.58224735998E+01 0.57402339204E+01
 0.57145998110E+01 0.57406937849E+01 0.58229758263E+01 0.59709306383E+01 0.62021364937E+01
 0.65259976802E+01 0.69570751209E+01 0.74850875288E+01 0.80891405420E+01 0.88242688845E+01
 0.83108302528E+01 0.88911397249E+01 0.95875229754E+01 0.10372959163E+02 0.11142918142E+02
 0.11758821529E+02 0.12101630614E+02 0.12102185475E+02 0.11759314848E+02 0.11144419811E+02
 0.10375049537E+02 0.95876086063E+01 0.88873009607E+01 0.83120972383E+01 0.78062468223E+01
 0.73324639679E+01 0.69146938500E+01 0.65690826997E+01 0.63003393888E+01 0.61042057774E+01
 0.59710037060E+01 0.58902259636E+01 0.58518250231E+01 0.58515932846E+01 0.58893002291E+01
 0.59708377035E+01 0.61034399887E+01 0.63011142789E+01 0.65694618359E+01 0.69146284799E+01
 0.73348408285E+01 0.78035546407E+01 0.75209195792E+01 0.78712752365E+01 0.82229766667E+01
 0.85710233147E+01 0.89090417651E+01 0.92098189550E+01 0.94196499218E+01 0.94950941977E+01
 0.94194403766E+01 0.92084549556E+01 0.89078053886E+01 0.85686257566E+01 0.82251611119E+01
 0.78740007657E+01 0.75185433500E+01 0.71816456567E+01 0.68839556965E+01 0.66365904977E+01
 0.64432585253E+01 0.63004282701E+01 0.62011152770E+01 0.61370562250E+01 0.61023165141E+01
 0.60914849829E+01 0.61029878944E+01 0.61379156845E+01 0.62019129283E+01 0.62999471171E+01
 0.64423930212E+01 0.66364637691E+01 0.68822477327E+01 0.71830158373E+01 0.70460146176E+01
 0.72513727635E+01 0.74696849082E+01 0.76811549274E+01 0.78726094643E+01 0.80291426174E+01
 0.81417501281E+01 0.82016189359E+01 0.82012154384E+01 0.81427357386E+01 0.80303713339E+01
 0.78743837709E+01 0.76818401212E+01 0.74672076799E+01 0.72500807608E+01 0.70480790018E+01
 0.68744774789E+01 0.67370524460E+01 0.66365847673E+01 0.65689995490E+01 0.65272597651E+01
 0.65036527796E+01 0.64906003866E+01 0.64848933362E+01 0.64844960389E+01 0.64898287296E+01
 0.65021788158E+01 0.65273515994E+01 0.65701343869E+01 0.66373037020E+01 0.67383134433E+01
 0.68734662655E+01 0.68954170766E+01 0.69422987748E+01 0.70178695594E+01 0.71129923310E+01
 0.72117623501E+01 0.73039184593E+01 0.73757826078E+01 0.74207217630E+01 0.74366873342E+01
 0.74204229186E+01 0.73750113171E+01 0.73019032789E+01 0.72112599463E+01 0.71130509257E+01
 0.70195793782E+01 0.69432272030E+01 0.68936340808E+01 0.68744691773E+01 0.68839697286E+01
 0.69147686991E+01 0.69565385074E+01 0.69992900838E+01 0.70362460775E+01 0.70603378046E+01
 0.70689472517E+01 0.70609128672E+01 0.70376180833E+01 0.70003011947E+01 0.69555448460E+01
 0.69132653470E+01 0.68826245378E+01 0.68756688719E+01 0.70460386756E+01 0.69443861171E+01
 0.68742516492E+01 0.68360027476E+01 0.68270611476E+01 0.68334998588E+01 0.68489651983E+01
 0.68646276837E+01 0.68730753095E+01 0.68738213873E+01 0.68645768866E+01 0.68505593560E+01
 0.68347979457E+01 0.68266502693E+01 0.68362082020E+01 0.68730128624E+01 0.69432458269E+01
 0.70480686796E+01 0.71816502485E+01 0.73323704950E+01 0.74857733707E+01 0.76247925292E+01
 0.77356111121E+01 0.78148270040E+01 0.78568495902E+01 0.78566569152E+01 0.78136476094E+01
 0.77344179527E+01 0.76244457112E+01 0.74877797933E+01 0.73345604385E+01 0.71802698129E+01
 0.75214826278E+01 0.72487317690E+01 0.70182461547E+01 0.68369925287E+01 0.67010702632E+01
 0.66116245826E+01 0.65554025954E+01 0.65228875676E+01 0.65079807674E+01 0.65025412241E+01
 0.65076411043E+01 0.65221663600E+01 0.65543127373E+01 0.66108176741E+01 0.67018940538E+01
 0.68361770055E+01 0.70195919509E+01 0.72500598866E+01 0.75185699548E+01 0.78063090988E+01
 0.80912377738E+01 0.83748882390E+01 0.86636481126E+01 0.89251796284E+01 0.91111698374E+01
 0.91785940970E+01 0.91119090161E+01 0.89263735237E+01 0.86644503127E+01 0.83741713893E+01