<?xml version="1.0" encoding="ISO-8859-1"?>
<modeling>
 <generator>
  <i name="program" type="string">vasp </i>
  <i name="version" type="string">6.3.2  </i>
  <i name="subversion" type="string">27Jun22 (build Aug 12 2022 00:53:59) complex                          parallel </i>
  <i name="platform" type="string">tv2STD </i>
  <i name="date" type="string">2024 11 30 </i>
  <i name="time" type="string">17:13:40 </i>
 </generator>
 <incar>
  <i type="string" name="SYSTEM">Co-hcc</i>
  <i type="int" name="ISTART">     0</i>
  <i type="string" name="PREC">Accurate      normal | accurate</i>
  <i type="string" name="ALGO">Normal     Normal, Fast, Very_Fast</i>
  <i type="logical" name="ADDGRID"> F  </i>
  <i type="int" name="ISPIN">     2</i>
  <i type="int" name="ICHARG">     2</i>
  <i type="int" name="INIWAV">     1</i>
  <i type="int" name="NELM">   100</i>
  <i type="int" name="IBRION">     2</i>
  <i name="EDIFF">      0.00000100</i>
  <i name="EDIFFG">     -0.02000000</i>
  <i type="int" name="NSW">   100</i>
  <i type="int" name="ISIF">     2</i>
  <i type="int" name="ISYM">     1</i>
  <i name="ENCUT">    400.00000000</i>
  <v name="MAGMOM">      3.00000000      3.00000000</v>
  <i type="logical" name="LREAL"> F  </i>
  <i type="int" name="ISMEAR">     0</i>
  <i name="SIGMA">      0.05000000</i>
  <i type="int" name="NWRITE">     2</i>
  <i type="logical" name="LWAVE"> T  </i>
  <i type="logical" name="LCHARG"> T  </i>
  <i type="int" name="LORBIT">    11</i>
 </incar>
 <primitive_cell>
  <structure name="primitive_cell" >
   <crystal>
    <varray name="basis" >
     <v>       2.51985666       0.00000000       0.00000000 </v>
     <v>      -1.25992833       2.18225988       0.00000000 </v>
     <v>       0.00000000       0.00000000       4.07702552 </v>
    </varray>
    <i name="volume">     22.41949042 </i>
    <varray name="rec_basis" >
     <v>       0.39684797       0.22912028       0.00000000 </v>
     <v>       0.00000000       0.45824056       0.00000000 </v>
     <v>       0.00000000       0.00000000       0.24527686 </v>
    </varray>
   </crystal>
   <varray name="positions" >
    <v>       0.00000000       0.00000000       0.00000000 </v>
    <v>       0.33333333       0.66666667       0.50000000 </v>
   </varray>
  </structure>
  <varray name="primitive_index" >
   <v type="int" >        1 </v>
   <v type="int" >        2 </v>
  </varray>
 </primitive_cell>
 <kpoints>
  <generation param="Gamma">
   <v type="int" name="divisions">      10       10        8 </v>
   <v name="usershift">      0.00000000       0.00000000       0.00000000 </v>
   <v name="genvec1">      0.10000000      -0.00000000       0.00000000 </v>
   <v name="genvec2">      0.00000000       0.10000000       0.00000000 </v>
   <v name="genvec3">      0.00000000       0.00000000       0.12500000 </v>
   <v name="shift">      0.00000000       0.00000000       0.00000000 </v>
  </generation>
  <varray name="kpointlist" >
   <v>       0.00000000       0.00000000       0.00000000 </v>
   <v>       0.10000000      -0.00000000       0.00000000 </v>
   <v>       0.20000000      -0.00000000       0.00000000 </v>
   <v>       0.30000000       0.00000000       0.00000000 </v>
   <v>       0.40000000       0.00000000       0.00000000 </v>
   <v>       0.50000000       0.00000000       0.00000000 </v>
   <v>       0.10000000       0.10000000       0.00000000 </v>
   <v>       0.20000000       0.10000000       0.00000000 </v>
   <v>       0.30000000       0.10000000       0.00000000 </v>
   <v>       0.40000000       0.10000000       0.00000000 </v>
   <v>       0.20000000       0.20000000       0.00000000 </v>
   <v>       0.30000000       0.20000000       0.00000000 </v>
   <v>       0.40000000       0.20000000       0.00000000 </v>
   <v>       0.30000000       0.30000000       0.00000000 </v>
   <v>       0.00000000       0.00000000       0.12500000 </v>
   <v>       0.10000000      -0.00000000       0.12500000 </v>
   <v>       0.20000000      -0.00000000       0.12500000 </v>
   <v>       0.30000000       0.00000000       0.12500000 </v>
   <v>       0.40000000       0.00000000       0.12500000 </v>
   <v>       0.50000000       0.00000000       0.12500000 </v>
   <v>       0.10000000       0.10000000       0.12500000 </v>
   <v>       0.20000000       0.10000000       0.12500000 </v>
   <v>       0.30000000       0.10000000       0.12500000 </v>
   <v>       0.40000000       0.10000000       0.12500000 </v>
   <v>       0.20000000       0.20000000       0.12500000 </v>
   <v>       0.30000000       0.20000000       0.12500000 </v>
   <v>       0.40000000       0.20000000       0.12500000 </v>
   <v>       0.30000000       0.30000000       0.12500000 </v>
   <v>       0.00000000       0.00000000       0.25000000 </v>
   <v>       0.10000000      -0.00000000       0.25000000 </v>
   <v>       0.20000000      -0.00000000       0.25000000 </v>
   <v>       0.30000000       0.00000000       0.25000000 </v>
   <v>       0.40000000       0.00000000       0.25000000 </v>
   <v>       0.50000000       0.00000000       0.25000000 </v>
   <v>       0.10000000       0.10000000       0.25000000 </v>
   <v>       0.20000000       0.10000000       0.25000000 </v>
   <v>       0.30000000       0.10000000       0.25000000 </v>
   <v>       0.40000000       0.10000000       0.25000000 </v>
   <v>       0.20000000       0.20000000       0.25000000 </v>
   <v>       0.30000000       0.20000000       0.25000000 </v>
   <v>       0.40000000       0.20000000       0.25000000 </v>
   <v>       0.30000000       0.30000000       0.25000000 </v>
   <v>       0.00000000       0.00000000       0.37500000 </v>
   <v>       0.10000000      -0.00000000       0.37500000 </v>
   <v>       0.20000000      -0.00000000       0.37500000 </v>
   <v>       0.30000000       0.00000000       0.37500000 </v>
   <v>       0.40000000       0.00000000       0.37500000 </v>
   <v>       0.50000000       0.00000000       0.37500000 </v>
   <v>       0.10000000       0.10000000       0.37500000 </v>
   <v>       0.20000000       0.10000000       0.37500000 </v>
   <v>       0.30000000       0.10000000       0.37500000 </v>
   <v>       0.40000000       0.10000000       0.37500000 </v>
   <v>       0.20000000       0.20000000       0.37500000 </v>
   <v>       0.30000000       0.20000000       0.37500000 </v>
   <v>       0.40000000       0.20000000       0.37500000 </v>
   <v>       0.30000000       0.30000000       0.37500000 </v>
   <v>       0.00000000       0.00000000       0.50000000 </v>
   <v>       0.10000000      -0.00000000       0.50000000 </v>
   <v>       0.20000000      -0.00000000       0.50000000 </v>
   <v>       0.30000000       0.00000000       0.50000000 </v>
   <v>       0.40000000       0.00000000       0.50000000 </v>
   <v>       0.50000000       0.00000000       0.50000000 </v>
   <v>       0.10000000       0.10000000       0.50000000 </v>
   <v>       0.20000000       0.10000000       0.50000000 </v>
   <v>       0.30000000       0.10000000       0.50000000 </v>
   <v>       0.40000000       0.10000000       0.50000000 </v>
   <v>       0.20000000       0.20000000       0.50000000 </v>
   <v>       0.30000000       0.20000000       0.50000000 </v>
   <v>       0.40000000       0.20000000       0.50000000 </v>
   <v>       0.30000000       0.30000000       0.50000000 </v>
  </varray>
  <varray name="weights" >
   <v>       0.00125000 </v>
   <v>       0.00750000 </v>
   <v>       0.00750000 </v>
   <v>       0.00750000 </v>
   <v>       0.00750000 </v>
   <v>       0.00375000 </v>
   <v>       0.00750000 </v>
   <v>       0.01500000 </v>
   <v>       0.01500000 </v>
   <v>       0.01500000 </v>
   <v>       0.00750000 </v>
   <v>       0.01500000 </v>
   <v>       0.00750000 </v>
   <v>       0.00750000 </v>
   <v>       0.00250000 </v>
   <v>       0.01500000 </v>
   <v>       0.01500000 </v>
   <v>       0.01500000 </v>
   <v>       0.01500000 </v>
   <v>       0.00750000 </v>
   <v>       0.01500000 </v>
   <v>       0.03000000 </v>
   <v>       0.03000000 </v>
   <v>       0.03000000 </v>
   <v>       0.01500000 </v>
   <v>       0.03000000 </v>
   <v>       0.01500000 </v>
   <v>       0.01500000 </v>
   <v>       0.00250000 </v>
   <v>       0.01500000 </v>
   <v>       0.01500000 </v>
   <v>       0.01500000 </v>
   <v>       0.01500000 </v>
   <v>       0.00750000 </v>
   <v>       0.01500000 </v>
   <v>       0.03000000 </v>
   <v>       0.03000000 </v>
   <v>       0.03000000 </v>
   <v>       0.01500000 </v>
   <v>       0.03000000 </v>
   <v>       0.01500000 </v>
   <v>       0.01500000 </v>
   <v>       0.00250000 </v>
   <v>       0.01500000 </v>
   <v>       0.01500000 </v>
   <v>       0.01500000 </v>
   <v>       0.01500000 </v>
   <v>       0.00750000 </v>
   <v>       0.01500000 </v>
   <v>       0.03000000 </v>
   <v>       0.03000000 </v>
   <v>       0.03000000 </v>
   <v>       0.01500000 </v>
   <v>       0.03000000 </v>
   <v>       0.01500000 </v>
   <v>       0.01500000 </v>
   <v>       0.00125000 </v>
   <v>       0.00750000 </v>
   <v>       0.00750000 </v>
   <v>       0.00750000 </v>
   <v>       0.00750000 </v>
   <v>       0.00375000 </v>
   <v>       0.00750000 </v>
   <v>       0.01500000 </v>
   <v>       0.01500000 </v>
   <v>       0.01500000 </v>
   <v>       0.00750000 </v>
   <v>       0.01500000 </v>
   <v>       0.00750000 </v>
   <v>       0.00750000 </v>
  </varray>
 </kpoints>
 <parameters>
  <separator name="general" >
   <i type="string" name="SYSTEM">Co-hcc</i>
   <i type="logical" name="LCOMPAT"> F  </i>
  </separator>
  <separator name="electronic" >
   <i type="string" name="PREC">accura</i>
   <i name="ENMAX">    400.00000000</i>
   <i name="ENAUG">    477.81800000</i>
   <i name="EDIFF">      0.00000100</i>
   <i type="int" name="IALGO">    38</i>
   <i type="int" name="IWAVPR">    11</i>
   <i type="int" name="NBANDS">    16</i>
   <i type="int" name="NBANDSLOW">    -1</i>
   <i type="int" name="NBANDSHIGH">    -1</i>
   <i name="NELECT">     18.00000000</i>
   <i type="int" name="TURBO">     0</i>
   <i type="int" name="IRESTART">     0</i>
   <i type="int" name="NREBOOT">     0</i>
   <i type="int" name="NMIN">     0</i>
   <i name="EREF">      0.00000000</i>
   <separator name="electronic smearing" >
    <i type="int" name="ISMEAR">     0</i>
    <i name="SIGMA">      0.05000000</i>
    <i name="KSPACING">      0.50000000</i>
    <i type="logical" name="KGAMMA"> T  </i>
    <i type="logical" name="KBLOWUP"> T  </i>
   </separator>
   <separator name="electronic projectors" >
    <i type="logical" name="LREAL"> F  </i>
    <v name="ROPT">      0.00000000</v>
    <i type="int" name="LMAXPAW">  -100</i>
    <i type="int" name="LMAXMIX">     2</i>
    <i type="logical" name="NLSPLINE"> F  </i>
   </separator>
   <separator name="electronic startup" >
    <i type="int" name="ISTART">     0</i>
    <i type="int" name="ICHARG">     2</i>
    <i type="int" name="INIWAV">     1</i>
   </separator>
   <separator name="electronic spin" >
    <i type="int" name="ISPIN">     2</i>
    <i type="logical" name="LNONCOLLINEAR"> F  </i>
    <v name="MAGMOM">      3.00000000      3.00000000</v>
    <i name="NUPDOWN">     -1.00000000</i>
    <i type="logical" name="LSORBIT"> F  </i>
    <v name="SAXIS">      0.00000000      0.00000000      1.00000000</v>
    <i type="logical" name="LSPIRAL"> F  </i>
    <v name="QSPIRAL">      0.00000000      0.00000000      0.00000000</v>
    <i type="logical" name="LZEROZ"> F  </i>
   </separator>
   <separator name="electronic exchange-correlation" >
    <i type="logical" name="LASPH"> F  </i>
    <i type="logical" name="LMETAGGA"> F  </i>
   </separator>
   <separator name="electronic convergence" >
    <i type="int" name="NELM">   100</i>
    <i type="int" name="NELMDL">    -5</i>
    <i type="int" name="NELMIN">     2</i>
    <i name="ENINI">    400.00000000</i>
    <separator name="electronic convergence detail" >
     <i type="logical" name="LDIAG"> T  </i>
     <i type="logical" name="LSUBROT"> F  </i>
     <i name="WEIMIN">      0.00100000</i>
     <i name="EBREAK">      0.00000002</i>
     <i name="DEPER">      0.30000000</i>
     <i type="int" name="NRMM">     4</i>
     <i name="TIME">      0.40000000</i>
    </separator>
   </separator>
   <separator name="electronic mixer" >
    <i name="AMIX">      0.40000000</i>
    <i name="BMIX">      1.00000000</i>
    <i name="AMIN">      0.10000000</i>
    <i name="AMIX_MAG">      1.60000000</i>
    <i name="BMIX_MAG">      1.00000000</i>
    <separator name="electronic mixer details" >
     <i type="int" name="IMIX">     4</i>
     <i type="logical" name="MIXFIRST"> F  </i>
     <i type="int" name="MAXMIX">   -45</i>
     <i name="WC">    100.00000000</i>
     <i type="int" name="INIMIX">     1</i>
     <i type="int" name="MIXPRE">     1</i>
     <i type="int" name="MREMOVE">     5</i>
    </separator>
   </separator>
   <separator name="electronic dipolcorrection" >
    <i type="logical" name="LDIPOL"> F  </i>
    <i type="logical" name="LMONO"> F  </i>
    <i type="int" name="IDIPOL">     0</i>
    <i name="EPSILON">      1.00000000</i>
    <v name="DIPOL">   -100.00000000   -100.00000000   -100.00000000</v>
    <i name="EFIELD">      0.00000000</i>
   </separator>
  </separator>
  <separator name="grids" >
   <i type="int" name="NGX">    16</i>
   <i type="int" name="NGY">    16</i>
   <i type="int" name="NGZ">    28</i>
   <i type="int" name="NGXF">    32</i>
   <i type="int" name="NGYF">    32</i>
   <i type="int" name="NGZF">    56</i>
   <i type="logical" name="ADDGRID"> F  </i>
  </separator>
  <separator name="ionic" >
   <i type="int" name="NSW">   100</i>
   <i type="int" name="IBRION">     2</i>
   <i type="int" name="MDALGO">     0</i>
   <i type="int" name="ISIF">     2</i>
   <i name="PSTRESS">      0.00000000</i>
   <i name="EDIFFG">     -0.02000000</i>
   <i type="int" name="NFREE">     1</i>
   <i name="POTIM">      0.50000000</i>
   <i name="SMASS">     -3.00000000</i>
   <i name="SCALEE">      1.00000000</i>
  </separator>
  <separator name="ionic md" >
   <i name="TEBEG">      0.00010000</i>
   <i name="TEEND">      0.00010000</i>
   <i type="int" name="NBLOCK">     1</i>
   <i type="int" name="KBLOCK">   100</i>
   <i type="int" name="NPACO">   256</i>
   <i name="APACO">     10.00000000</i>
  </separator>
  <separator name="symmetry" >
   <i type="int" name="ISYM">     1</i>
   <i name="SYMPREC">      0.00001000</i>
  </separator>
  <separator name="dos" >
   <i type="int" name="LORBIT">    11</i>
   <v name="RWIGS">     -1.00000000</v>
   <i type="int" name="NEDOS">   301</i>
   <i name="EMIN">     10.00000000</i>
   <i name="EMAX">    -10.00000000</i>
   <i name="EFERMI">      0.00000000</i>
  </separator>
  <separator name="writing" >
   <i type="int" name="NWRITE">     2</i>
   <i type="logical" name="LWAVE"> T  </i>
   <i type="logical" name="LDOWNSAMPLE"> F  </i>
   <i type="logical" name="LCHARG"> T  </i>
   <i type="logical" name="LPARD"> F  </i>
   <i type="logical" name="LVTOT"> F  </i>
   <i type="logical" name="LVHAR"> F  </i>
   <i type="logical" name="LELF"> F  </i>
   <i type="logical" name="LOPTICS"> F  </i>
   <v name="STM">      0.00000000      0.00000000      0.00000000      0.00000000      0.00000000      0.00000000      0.00000000</v>
  </separator>
  <separator name="performance" >
   <i type="int" name="NPAR">     4</i>
   <i type="int" name="NSIM">     4</i>
   <i type="int" name="NBLK">    -1</i>
   <i type="logical" name="LPLANE"> T  </i>
   <i type="logical" name="LSCALAPACK"> T  </i>
   <i type="logical" name="LSCAAWARE"> F  </i>
   <i type="logical" name="LSCALU"> F  </i>
   <i type="logical" name="LASYNC"> F  </i>
   <i type="logical" name="LORBITALREAL"> F  </i>
  </separator>
  <separator name="miscellaneous" >
   <i type="int" name="IDIOT">     3</i>
   <i type="int" name="PHON_NSTRUCT">    -1</i>
   <i type="logical" name="LMUSIC"> F  </i>
   <v name="POMASS">     58.93300000</v>
   <v name="DARWINR">      0.00000000</v>
   <v name="DARWINV">      1.00000000</v>
   <i type="logical" name="LCORR"> T  </i>
  </separator>
  <i type="logical" name="GGA_COMPAT"> T  </i>
  <i type="logical" name="LBERRY"> F  </i>
  <i type="int" name="ICORELEVEL">     0</i>
  <i type="logical" name="LDAU"> F  </i>
  <i type="int" name="I_CONSTRAINED_M">     0</i>
  <separator name="electronic exchange-correlation" >
   <i type="string" name="GGA">--</i>
   <i type="int" name="VOSKOWN">     0</i>
   <i type="logical" name="LHFCALC"> F  </i>
   <i type="string" name="PRECFOCK"></i>
   <i type="logical" name="LSYMGRAD"> F  </i>
   <i type="logical" name="LHFONE"> F  </i>
   <i type="logical" name="LRHFCALC"> F  </i>
   <i type="logical" name="LTHOMAS"> F  </i>
   <i type="logical" name="LMODELHF"> F  </i>
   <i type="logical" name="LFOCKACE"> F  </i>
   <i name="ENCUT4O">     -1.00000000</i>
   <i type="int" name="EXXOEP">     0</i>
   <i type="int" name="FOURORBIT">     0</i>
   <i name="AEXX">      0.00000000</i>
   <i name="HFALPHA">      0.00000000</i>
   <i name="MCALPHA">      0.00000000</i>
   <i name="ALDAX">      1.00000000</i>
   <i name="AGGAX">      1.00000000</i>
   <i name="ALDAC">      1.00000000</i>
   <i name="AGGAC">      1.00000000</i>
   <i type="int" name="NKREDX">     1</i>
   <i type="int" name="NKREDY">     1</i>
   <i type="int" name="NKREDZ">     1</i>
   <i type="logical" name="SHIFTRED"> F  </i>
   <i type="logical" name="ODDONLY"> F  </i>
   <i type="logical" name="EVENONLY"> F  </i>
   <i type="int" name="LMAXFOCK">     0</i>
   <i type="int" name="NMAXFOCKAE">     0</i>
   <i type="logical" name="LFOCKAEDFT"> F  </i>
   <i name="HFSCREEN">      0.00000000</i>
   <i name="HFSCREENC">      0.00000000</i>
   <i type="int" name="NBANDSGWLOW">     0</i>
  </separator>
  <separator name="vdW DFT" >
   <i type="logical" name="LUSE_VDW"> F  </i>
   <i name="Zab_VDW">     -0.84910000</i>
   <i name="PARAM1">      0.12340000</i>
   <i name="PARAM2">      1.00000000</i>
   <i name="PARAM3">      0.00000000</i>
  </separator>
  <separator name="model GW" >
   <i type="int" name="MODEL_GW">     0</i>
   <i name="MODEL_EPS0">      6.72584713</i>
   <i name="MODEL_ALPHA">      1.00000000</i>
  </separator>
  <separator name="linear response parameters" >
   <i type="logical" name="LEPSILON"> F  </i>
   <i type="logical" name="LRPA"> F  </i>
   <i type="logical" name="LNABLA"> F  </i>
   <i type="logical" name="LVEL"> F  </i>
   <i name="CSHIFT">      0.10000000</i>
   <i name="OMEGAMAX">     -1.00000000</i>
   <i name="DEG_THRESHOLD">      0.00200000</i>
   <i name="RTIME">     -0.10000000</i>
   <i name="WPLASMAI">      0.00000000</i>
   <v name="DFIELD">      0.00000000      0.00000000      0.00000000</v>
   <v name="WPLASMA">      0.00000000      0.00000000      0.00000000      0.00000000      0.00000000      0.00000000      0.00000000      0.00000000      0.00000000</v>
  </separator>
  <separator name="orbital magnetization" >
   <i type="logical" name="NUCIND"> F  </i>
   <v name="MAGPOS">      0.00000000      0.00000000      0.00000000</v>
   <i type="logical" name="LNICSALL"> T  </i>
   <i type="logical" name="ORBITALMAG"> F  </i>
   <i type="logical" name="LMAGBLOCH"> F  </i>
   <i type="logical" name="LCHIMAG"> F  </i>
   <i type="logical" name="LGAUGE"> T  </i>
   <i type="int" name="MAGATOM">     0</i>
   <v name="MAGDIPOL">      0.00000000      0.00000000      0.00000000</v>
   <v name="AVECCONST">      0.00000000      0.00000000      0.00000000</v>
  </separator>
  <separator name="response functions" >
   <i type="logical" name="LFINITE_TEMPERATURE"> F  </i>
   <i type="logical" name="LADDER"> F  </i>
   <i type="logical" name="LRPAFORCE"> F  </i>
   <i type="logical" name="LFXC"> F  </i>
   <i type="logical" name="LHARTREE"> T  </i>
   <i type="int" name="IBSE">     0</i>
   <v type="int" name="KPOINT">    -1     0     0     0</v>
   <i type="logical" name="LTCTC"> F  </i>
   <i type="logical" name="LTCTE"> F  </i>
   <i type="logical" name="LTETE"> F  </i>
   <i type="logical" name="LTRIPLET"> F  </i>
   <i type="logical" name="LFXCEPS"> F  </i>
   <i type="logical" name="LFXHEG"> F  </i>
   <i type="int" name="NATURALO">     2</i>
   <i type="logical" name="LHOLEGF"> F  </i>
   <i type="logical" name="L2ORDER"> F  </i>
   <i type="logical" name="LDMP1"> F  </i>
   <i type="logical" name="LMP2LT"> F  </i>
   <i type="logical" name="LSMP2LT"> F  </i>
   <i type="logical" name="LGWLF"> F  </i>
   <i name="ENCUTGW">     -2.00000000</i>
   <i name="ENCUTGWSOFT">     -2.00000000</i>
   <i name="ENCUTLF">     -1.00000000</i>
   <i type="logical" name="LESF_SPLINES"> F  </i>
   <i type="int" name="LMAXMP2">    -1</i>
   <i name="SCISSOR">      0.00000000</i>
   <i type="int" name="NOMEGA">     0</i>
   <i type="int" name="NOMEGAR">     0</i>
   <i type="int" name="NBANDSGW">    -1</i>
   <i type="int" name="NBANDSO">    -1</i>
   <i type="int" name="NBANDSV">    -1</i>
   <i type="int" name="NELMGW">     1</i>
   <i type="int" name="NELMHF">     1</i>
   <i type="int" name="DIM">     3</i>
   <i type="int" name="IESPILON">     4</i>
   <i type="int" name="ANTIRES">     0</i>
   <i name="OMEGAMAX">    -30.00000000</i>
   <i name="OMEGAMIN">    -30.00000000</i>
   <i name="OMEGATL">   -200.00000000</i>
   <i type="int" name="OMEGAGRID">     0</i>
   <i name="CSHIFT">     -0.10000000</i>
   <i type="logical" name="LSELFENERGY"> F  </i>
   <i type="logical" name="LSPECTRAL"> F  </i>
   <i type="logical" name="LSPECTRALGW"> F  </i>
   <i type="logical" name="LSINGLES"> F  </i>
   <i type="logical" name="LFERMIGW"> F  </i>
   <i type="logical" name="ODDONLYGW"> F  </i>
   <i type="logical" name="EVENONLYGW"> F  </i>
   <i type="int" name="NKREDLFX">     1</i>
   <i type="int" name="NKREDLFY">     1</i>
   <i type="int" name="NKREDLFZ">     1</i>
   <i type="int" name="MAXMEM">  2800</i>
   <i type="int" name="TELESCOPE">     0</i>
   <i type="int" name="NTAUPAR">    -1</i>
   <i type="int" name="NOMEGAPAR">    -1</i>
   <i name="DAMP_NEWTON">      0.80000001</i>
   <i name="LAMBDA">      1.00000000</i>
  </separator>
  <separator name="External order field" >
   <i name="OFIELD_KAPPA">      0.00000000</i>
   <v name="OFIELD_K">      0.00000000      0.00000000      0.00000000</v>
   <i name="OFIELD_Q6_NEAR">      0.00000000</i>
   <i name="OFIELD_Q6_FAR">      0.00000000</i>
   <i name="OFIELD_A">      0.00000000</i>
  </separator>
  <separator name="optional k-points parameters" >
   <i type="int" name="KPOINTS_OPT_MODE">     1</i>
   <i type="logical" name="LKPOINTS_OPT"> F  </i>
  </separator>
 </parameters>
 <atominfo>
  <atoms>       2 </atoms>
  <types>       1 </types>
  <array name="atoms" >
   <dimension dim="1">ion</dimension>
   <field type="string">element</field>
   <field type="int">atomtype</field>
   <set>
    <rc><c>Co</c><c>   1</c></rc>
    <rc><c>Co</c><c>   1</c></rc>
   </set>
  </array>
  <array name="atomtypes" >
   <dimension dim="1">type</dimension>
   <field type="int">atomspertype</field>
   <field type="string">element</field>
   <field>mass</field>
   <field>valence</field>
   <field type="string">pseudopotential</field>
   <set>
    <rc><c>   2</c><c>Co</c><c>     58.93300000</c><c>      9.00000000</c><c>  PAW_PBE Co 02Aug2007                  </c></rc>
   </set>
  </array>
 </atominfo>
 <structure name="initialpos" >
  <crystal>
   <varray name="basis" >
    <v>       2.51985666       0.00000000       0.00000000 </v>
    <v>      -1.25992833       2.18225988       0.00000000 </v>
    <v>       0.00000000       0.00000000       4.07702552 </v>
   </varray>
   <i name="volume">     22.41949042 </i>
   <varray name="rec_basis" >
    <v>       0.39684797       0.22912028       0.00000000 </v>
    <v>       0.00000000       0.45824056       0.00000000 </v>
    <v>       0.00000000       0.00000000       0.24527686 </v>
   </varray>
  </crystal>
  <varray name="positions" >
   <v>       0.00000000       0.00000000       0.00000000 </v>
   <v>       0.33333333       0.66666667       0.50000000 </v>
  </varray>
 </structure>
 <calculation>
  <scstep>
   <time name="dav">    0.42    0.43</time>
   <time name="total">    0.44    0.44</time>
   <energy>
    <i name="alphaZ">     75.57297708 </i>
    <i name="ewald">  -1505.18982814 </i>
    <i name="hartreedc">   -306.98500464 </i>
    <i name="XCdc">     35.42052241 </i>
    <i name="pawpsdc">   1439.98163886 </i>
    <i name="pawaedc">  -1545.88690193 </i>
    <i name="eentropy">     -0.00332189 </i>
    <i name="bandstr">    248.89636563 </i>
    <i name="atom">   1626.71546820 </i>
    <i name="e_fr_energy">     68.52191558 </i>
    <i name="e_wo_entrp">     68.52523747 </i>
    <i name="e_0_energy">     68.52357652 </i>
   </energy>
  </scstep>
  <scstep>
   <time name="dav">    0.39    0.40</time>
   <time name="total">    0.40    0.40</time>
   <energy>
    <i name="e_fr_energy">    -13.67153162 </i>
    <i name="e_wo_entrp">    -13.66981205 </i>
    <i name="e_0_energy">    -13.67067183 </i>
   </energy>
  </scstep>
  <scstep>
   <time name="dav">    0.48    0.49</time>
   <time name="total">    0.49    0.49</time>
   <energy>
    <i name="e_fr_energy">    -15.65247612 </i>
    <i name="e_wo_entrp">    -15.65031853 </i>
    <i name="e_0_energy">    -15.65139732 </i>
   </energy>
  </scstep>
  <scstep>
   <time name="dav">    0.54    0.54</time>
   <time name="total">    0.54    0.54</time>
   <energy>
    <i name="e_fr_energy">    -15.68752268 </i>
    <i name="e_wo_entrp">    -15.68534774 </i>
    <i name="e_0_energy">    -15.68643521 </i>
   </energy>
  </scstep>
  <scstep>
   <time name="dav">    0.49    0.49</time>
   <time name="total">    0.51    0.51</time>
   <energy>
    <i name="e_fr_energy">    -15.68768624 </i>
    <i name="e_wo_entrp">    -15.68551092 </i>
    <i name="e_0_energy">    -15.68659858 </i>
   </energy>
  </scstep>
  <scstep>
   <time name="dav">    0.41    0.41</time>
   <time name="total">    0.44    0.44</time>
   <energy>
    <i name="e_fr_energy">    -14.49416489 </i>
    <i name="e_wo_entrp">    -14.49139768 </i>
    <i name="e_0_energy">    -14.49278129 </i>
   </energy>
  </scstep>
  <scstep>
   <time name="dav">    0.43    0.43</time>
   <time name="total">    0.46    0.46</time>
   <energy>
    <i name="e_fr_energy">    -14.09444875 </i>
    <i name="e_wo_entrp">    -14.09152254 </i>
    <i name="e_0_energy">    -14.09298565 </i>
   </energy>
  </scstep>
  <scstep>
   <time name="dav">    0.52    0.52</time>
   <time name="total">    0.55    0.55</time>
   <energy>
    <i name="e_fr_energy">    -14.07623028 </i>
    <i name="e_wo_entrp">    -14.07342186 </i>
    <i name="e_0_energy">    -14.07482607 </i>
   </energy>
  </scstep>
  <scstep>
   <time name="dav">    0.55    0.55</time>
   <time name="total">    0.58    0.58</time>
   <energy>
    <i name="e_fr_energy">    -14.06215267 </i>
    <i name="e_wo_entrp">    -14.05941563 </i>
    <i name="e_0_energy">    -14.06078415 </i>
   </energy>
  </scstep>
  <scstep>
   <time name="dav">    0.50    0.51</time>
   <time name="total">    0.53    0.54</time>
   <energy>
    <i name="e_fr_energy">    -14.06122025 </i>
    <i name="e_wo_entrp">    -14.05841407 </i>
    <i name="e_0_energy">    -14.05981716 </i>
   </energy>
  </scstep>
  <scstep>
   <time name="dav">    0.55    0.56</time>
   <time name="total">    0.58    0.58</time>
   <energy>
    <i name="e_fr_energy">    -14.06121226 </i>
    <i name="e_wo_entrp">    -14.05835266 </i>
    <i name="e_0_energy">    -14.05978246 </i>
   </energy>
  </scstep>
  <scstep>
   <time name="dav">    0.42    0.42</time>
   <time name="total">    0.45    0.45</time>
   <energy>
    <i name="e_fr_energy">    -14.06120809 </i>
    <i name="e_wo_entrp">    -14.05834921 </i>
    <i name="e_0_energy">    -14.05977865 </i>
   </energy>
  </scstep>
  <scstep>
   <time name="dav">    0.33    0.33</time>
   <time name="total">    0.34    0.34</time>
   <energy>
    <i name="alphaZ">     75.57297708 </i>
    <i name="ewald">  -1505.18982814 </i>
    <i name="hartreedc">   -271.46001787 </i>
    <i name="XCdc">     32.73246114 </i>
    <i name="pawpsdc">   1772.68054421 </i>
    <i name="pawaedc">  -1878.51378934 </i>
    <i name="eentropy">     -0.00286293 </i>
    <i name="bandstr">    133.40384047 </i>
    <i name="atom">   1626.71546820 </i>
    <i name="e_fr_energy">    -14.06120718 </i>
    <i name="e_wo_entrp">    -14.05834425 </i>
    <i name="e_0_energy">    -14.05977572 </i>
   </energy>
  </scstep>
  <structure>
   <crystal>
    <varray name="basis" >
     <v>       2.51985666       0.00000000       0.00000000 </v>
     <v>      -1.25992833       2.18225988       0.00000000 </v>
     <v>       0.00000000       0.00000000       4.07702552 </v>
    </varray>
    <i name="volume">     22.41949042 </i>
    <varray name="rec_basis" >
     <v>       0.39684797       0.22912028       0.00000000 </v>
     <v>       0.00000000       0.45824056       0.00000000 </v>
     <v>       0.00000000       0.00000000       0.24527686 </v>
    </varray>
   </crystal>
   <varray name="positions" >
    <v>       0.00000000       0.00000000       0.00000000 </v>
    <v>       0.33333333       0.66666667       0.50000000 </v>
   </varray>
  </structure>
  <varray name="forces" >
   <v>       0.00000000      -0.00000000       0.00000000 </v>
   <v>      -0.00000000       0.00000000       0.00000000 </v>
  </varray>
  <varray name="stress" >
   <v>     -64.22311498       0.00000000       0.00000000 </v>
   <v>      -0.00000000     -64.22311498       0.00000000 </v>
   <v>       0.00000000       0.00000000     -65.19163597 </v>
  </varray>
  <energy>
   <i name="e_fr_energy">    -14.06120718 </i>
   <i name="e_wo_entrp">    -14.05834425 </i>
   <i name="e_0_energy">    -14.05977572 </i>
  </energy>
  <time name="totalsc">    6.53    6.67</time>
  <eigenvalues>
   <array>
    <dimension dim="1">band</dimension>
    <dimension dim="2">kpoint</dimension>
    <dimension dim="3">spin</dimension>
    <field>eigene</field>
    <field>occ</field>
    <set>
     <set comment="spin 1">
      <set comment="kpoint 1">
       <r>    1.0764    1.0000 </r>
       <r>    4.7945    1.0000 </r>
       <r>    7.1922    1.0000 </r>
       <r>    7.2130    1.0000 </r>
       <r>    7.2130    1.0000 </r>
       <r>    7.5062    1.0000 </r>
       <r>    7.5062    1.0000 </r>
       <r>    7.8380    1.0000 </r>
       <r>    7.8380    1.0000 </r>
       <r>    8.8785    1.0000 </r>
       <r>    8.8785    1.0000 </r>
       <r>    9.7362    0.7529 </r>
       <r>   15.8339    0.0000 </r>
       <r>   31.5052    0.0000 </r>
       <r>   33.7386    0.0000 </r>
       <r>   33.7386    0.0000 </r>
      </set>
      <set comment="kpoint 2">
       <r>    1.4168    1.0000 </r>
       <r>    4.9922    1.0000 </r>
       <r>    6.9421    1.0000 </r>
       <r>    7.3666    1.0000 </r>
       <r>    7.3927    1.0000 </r>
       <r>    7.4702    1.0000 </r>
       <r>    7.6092    1.0000 </r>
       <r>    7.6416    1.0000 </r>
       <r>    7.7444    1.0000 </r>
       <r>    8.0601    1.0000 </r>
       <r>    8.9173    1.0000 </r>
       <r>   11.0218    0.0000 </r>
       <r>   15.9005    0.0000 </r>
       <r>   28.7782    0.0000 </r>
       <r>   31.1979    0.0000 </r>
       <r>   31.6361    0.0000 </r>
      </set>
      <set comment="kpoint 3">
       <r>    2.3837    1.0000 </r>
       <r>    5.4210    1.0000 </r>
       <r>    6.6515    1.0000 </r>
       <r>    6.7479    1.0000 </r>
       <r>    7.2501    1.0000 </r>
       <r>    7.5288    1.0000 </r>
       <r>    7.7320    1.0000 </r>
       <r>    7.7872    1.0000 </r>
       <r>    7.8076    1.0000 </r>
       <r>    8.0097    1.0000 </r>
       <r>    8.9905    1.0000 </r>
       <r>   12.9447    0.0000 </r>
       <r>   16.1422    0.0000 </r>
       <r>   24.1918    0.0000 </r>
       <r>   28.4956    0.0000 </r>
       <r>   30.5129    0.0000 </r>
      </set>
      <set comment="kpoint 4">
       <r>    3.7414    1.0000 </r>
       <r>    5.5453    1.0000 </r>
       <r>    6.0301    1.0000 </r>
       <r>    6.6308    1.0000 </r>
       <r>    7.2627    1.0000 </r>
       <r>    7.2974    1.0000 </r>
       <r>    7.5150    1.0000 </r>
       <r>    8.3466    1.0000 </r>
       <r>    8.4277    1.0000 </r>
       <r>    8.4987    1.0000 </r>
       <r>    9.0484    1.0000 </r>
       <r>   15.1455    0.0000 </r>
       <r>   16.5311    0.0000 </r>
       <r>   20.1139    0.0000 </r>
       <r>   26.3076    0.0000 </r>
       <r>   27.5790    0.0000 </r>
      </set>
      <set comment="kpoint 5">
       <r>    4.8216    1.0000 </r>
       <r>    5.3416    1.0000 </r>
       <r>    5.5977    1.0000 </r>
       <r>    6.9893    1.0000 </r>
       <r>    7.1274    1.0000 </r>
       <r>    7.3520    1.0000 </r>
       <r>    7.4978    1.0000 </r>
       <r>    8.8201    1.0000 </r>
       <r>    8.9463    1.0000 </r>
       <r>    9.0792    1.0000 </r>
       <r>    9.5586    1.0000 </r>
       <r>   15.1380    0.0000 </r>
       <r>   17.5234    0.0000 </r>
       <r>   18.9146    0.0000 </r>
       <r>   24.2321    0.0000 </r>
       <r>   24.8364    0.0000 </r>
      </set>
      <set comment="kpoint 6">
       <r>    5.1690    1.0000 </r>
       <r>    5.1735    1.0000 </r>
       <r>    5.4542    1.0000 </r>
       <r>    7.0655    1.0000 </r>
       <r>    7.2908    1.0000 </r>
       <r>    7.3177    1.0000 </r>
       <r>    7.6014    1.0000 </r>
       <r>    8.9990    1.0000 </r>
       <r>    9.0884    1.0000 </r>
       <r>    9.1402    1.0000 </r>
       <r>   10.9866    0.0000 </r>
       <r>   12.9240    0.0000 </r>
       <r>   19.2177    0.0000 </r>
       <r>   19.8233    0.0000 </r>
       <r>   22.2195    0.0000 </r>
       <r>   23.3111    0.0000 </r>
      </set>
      <set comment="kpoint 7">
       <r>    2.0732    1.0000 </r>
       <r>    5.3230    1.0000 </r>
       <r>    6.6853    1.0000 </r>
       <r>    7.0143    1.0000 </r>
       <r>    7.3206    1.0000 </r>
       <r>    7.4905    1.0000 </r>
       <r>    7.5978    1.0000 </r>
       <r>    7.6798    1.0000 </r>
       <r>    7.8756    1.0000 </r>
       <r>    7.9494    1.0000 </r>
       <r>    8.9566    1.0000 </r>
       <r>   12.4032    0.0000 </r>
       <r>   16.0605    0.0000 </r>
       <r>   26.3620    0.0000 </r>
       <r>   26.9190    0.0000 </r>
       <r>   33.2553    0.0000 </r>
      </set>
      <set comment="kpoint 8">
       <r>    3.2641    1.0000 </r>
       <r>    5.6788    1.0000 </r>
       <r>    6.2941    1.0000 </r>
       <r>    6.4260    1.0000 </r>
       <r>    7.2382    1.0000 </r>
       <r>    7.2412    1.0000 </r>
       <r>    7.6954    1.0000 </r>
       <r>    7.9186    1.0000 </r>
       <r>    8.2161    1.0000 </r>
       <r>    8.5128    1.0000 </r>
       <r>    8.9974    1.0000 </r>
       <r>   14.3561    0.0000 </r>
       <r>   16.4615    0.0000 </r>
       <r>   22.1632    0.0000 </r>
       <r>   24.7309    0.0000 </r>
       <r>   29.5829    0.0000 </r>
      </set>
      <set comment="kpoint 9">
       <r>    4.5747    1.0000 </r>
       <r>    5.5739    1.0000 </r>
       <r>    5.7800    1.0000 </r>
       <r>    6.5636    1.0000 </r>
       <r>    7.0780    1.0000 </r>
       <r>    7.3954    1.0000 </r>
       <r>    7.4651    1.0000 </r>
       <r>    8.4298    1.0000 </r>
       <r>    8.7415    1.0000 </r>
       <r>    9.0255    1.0000 </r>
       <r>    9.3354    1.0000 </r>
       <r>   16.5542    0.0000 </r>
       <r>   16.6250    0.0000 </r>
       <r>   18.9753    0.0000 </r>
       <r>   23.2036    0.0000 </r>
       <r>   26.0125    0.0000 </r>
      </set>
      <set comment="kpoint 10">
       <r>    5.2210    1.0000 </r>
       <r>    5.3753    1.0000 </r>
       <r>    5.5208    1.0000 </r>
       <r>    6.9899    1.0000 </r>
       <r>    7.0223    1.0000 </r>
       <r>    7.2865    1.0000 </r>
       <r>    7.5963    1.0000 </r>
       <r>    8.9059    1.0000 </r>
       <r>    9.0177    1.0000 </r>
       <r>    9.0375    1.0000 </r>
       <r>   10.7661    0.0000 </r>
       <r>   13.9742    0.0000 </r>
       <r>   18.9512    0.0000 </r>
       <r>   19.6731    0.0000 </r>
       <r>   22.2297    0.0000 </r>
       <r>   23.0399    0.0000 </r>
      </set>
      <set comment="kpoint 11">
       <r>    4.4970    1.0000 </r>
       <r>    5.8972    1.0000 </r>
       <r>    5.9383    1.0000 </r>
       <r>    6.1058    1.0000 </r>
       <r>    6.9905    1.0000 </r>
       <r>    7.3596    1.0000 </r>
       <r>    7.5490    1.0000 </r>
       <r>    8.1069    1.0000 </r>
       <r>    8.7466    1.0000 </r>
       <r>    8.9736    1.0000 </r>
       <r>    9.3649    1.0000 </r>
       <r>   16.3249    0.0000 </r>
       <r>   17.1177    0.0000 </r>
       <r>   20.3511    0.0000 </r>
       <r>   20.8617    0.0000 </r>
       <r>   28.0766    0.0000 </r>
      </set>
      <set comment="kpoint 12">
       <r>    5.4501    1.0000 </r>
       <r>    5.6455    1.0000 </r>
       <r>    5.7569    1.0000 </r>
       <r>    6.3349    1.0000 </r>
       <r>    6.9063    1.0000 </r>
       <r>    7.3110    1.0000 </r>
       <r>    7.5942    1.0000 </r>
       <r>    8.4685    1.0000 </r>
       <r>    8.9525    1.0000 </r>
       <r>    9.0215    1.0000 </r>
       <r>   10.7034    0.0000 </r>
       <r>   16.1250    0.0000 </r>
       <r>   18.6458    0.0000 </r>
       <r>   18.7817    0.0000 </r>
       <r>   20.0326    0.0000 </r>
       <r>   24.9364    0.0000 </r>
      </set>
      <set comment="kpoint 13">
       <r>    5.5607    1.0000 </r>
       <r>    5.6487    1.0000 </r>
       <r>    5.6492    1.0000 </r>
       <r>    6.6200    1.0000 </r>
       <r>    6.9355    1.0000 </r>
       <r>    7.1581    1.0000 </r>
       <r>    7.7108    1.0000 </r>
       <r>    8.7887    1.0000 </r>
       <r>    8.9443    1.0000 </r>
       <r>    8.9722    1.0000 </r>
       <r>   12.3800    0.0000 </r>
       <r>   13.6955    0.0000 </r>
       <r>   18.7744    0.0000 </r>
       <r>   20.5126    0.0000 </r>
       <r>   20.7944    0.0000 </r>
       <r>   22.7312    0.0000 </r>
      </set>
      <set comment="kpoint 14">
       <r>    5.6057    1.0000 </r>
       <r>    5.8440    1.0000 </r>
       <r>    5.9973    1.0000 </r>
       <r>    6.2286    1.0000 </r>
       <r>    6.9006    1.0000 </r>
       <r>    7.0852    1.0000 </r>
       <r>    7.7975    1.0000 </r>
       <r>    8.6374    1.0000 </r>
       <r>    8.8980    1.0000 </r>
       <r>    8.9326    1.0000 </r>
       <r>   12.7615    0.0000 </r>
       <r>   15.6858    0.0000 </r>
       <r>   15.7002    0.0000 </r>
       <r>   21.0411    0.0000 </r>
       <r>   21.2595    0.0000 </r>
       <r>   23.8213    0.0000 </r>
      </set>
      <set comment="kpoint 15">
       <r>    1.2301    1.0000 </r>
       <r>    4.7625    1.0000 </r>
       <r>    7.1543    1.0000 </r>
       <r>    7.1736    1.0000 </r>
       <r>    7.1736    1.0000 </r>
       <r>    7.4661    1.0000 </r>
       <r>    7.4661    1.0000 </r>
       <r>    7.9300    1.0000 </r>
       <r>    7.9300    1.0000 </r>
       <r>    8.8703    1.0000 </r>
       <r>    8.8703    1.0000 </r>
       <r>    9.1160    1.0000 </r>
       <r>   16.7625    0.0000 </r>
       <r>   31.4558    0.0000 </r>
       <r>   33.5246    0.0000 </r>
       <r>   33.8808    0.0000 </r>
      </set>
      <set comment="kpoint 16">
       <r>    1.5672    1.0000 </r>
       <r>    4.9721    1.0000 </r>
       <r>    6.9447    1.0000 </r>
       <r>    7.2899    1.0000 </r>
       <r>    7.3091    1.0000 </r>
       <r>    7.3133    1.0000 </r>
       <r>    7.5942    1.0000 </r>
       <r>    7.7450    1.0000 </r>
       <r>    7.8651    1.0000 </r>
       <r>    8.0266    1.0000 </r>
       <r>    8.9035    1.0000 </r>
       <r>   10.4393    0.0000 </r>
       <r>   16.9012    0.0000 </r>
       <r>   28.8817    0.0000 </r>
       <r>   31.3533    0.0000 </r>
       <r>   31.6041    0.0000 </r>
      </set>
      <set comment="kpoint 17">
       <r>    2.5200    1.0000 </r>
       <r>    5.4351    1.0000 </r>
       <r>    6.6168    1.0000 </r>
       <r>    6.6846    1.0000 </r>
       <r>    7.1870    1.0000 </r>
       <r>    7.4925    1.0000 </r>
       <r>    7.6122    1.0000 </r>
       <r>    7.8609    1.0000 </r>
       <r>    7.9843    1.0000 </r>
       <r>    7.9923    1.0000 </r>
       <r>    8.9656    1.0000 </r>
       <r>   12.0439    0.0000 </r>
       <r>   17.3793    0.0000 </r>
       <r>   24.3261    0.0000 </r>
       <r>   28.6813    0.0000 </r>
       <r>   29.8291    0.0000 </r>
      </set>
      <set comment="kpoint 18">
       <r>    3.8304    1.0000 </r>
       <r>    5.5772    1.0000 </r>
       <r>    6.0021    1.0000 </r>
       <r>    6.6109    1.0000 </r>
       <r>    7.1767    1.0000 </r>
       <r>    7.3384    1.0000 </r>
       <r>    7.6448    1.0000 </r>
       <r>    8.3653    1.0000 </r>
       <r>    8.4212    1.0000 </r>
       <r>    8.4562    1.0000 </r>
       <r>    9.0162    1.0000 </r>
       <r>   13.6954    0.0000 </r>
       <r>   18.1855    0.0000 </r>
       <r>   20.2872    0.0000 </r>
       <r>   26.3092    0.0000 </r>
       <r>   26.5189    0.0000 </r>
      </set>
      <set comment="kpoint 19">
       <r>    4.7787    1.0000 </r>
       <r>    5.3413    1.0000 </r>
       <r>    5.7588    1.0000 </r>
       <r>    6.6119    1.0000 </r>
       <r>    7.1864    1.0000 </r>
       <r>    7.4911    1.0000 </r>
       <r>    7.8429    1.0000 </r>
       <r>    8.8212    1.0000 </r>
       <r>    8.8759    1.0000 </r>
       <r>    9.0651    1.0000 </r>
       <r>    9.4813    1.0000 </r>
       <r>   14.4882    0.0000 </r>
       <r>   17.2018    0.0000 </r>
       <r>   19.9209    0.0000 </r>
       <r>   23.2593    0.0000 </r>
       <r>   25.0670    0.0000 </r>
      </set>
      <set comment="kpoint 20">
       <r>    4.9807    1.0000 </r>
       <r>    5.1991    1.0000 </r>
       <r>    5.7457    1.0000 </r>
       <r>    6.6383    1.0000 </r>
       <r>    7.1292    1.0000 </r>
       <r>    7.6043    1.0000 </r>
       <r>    8.0682    1.0000 </r>
       <r>    8.9471    1.0000 </r>
       <r>    9.0519    1.0000 </r>
       <r>    9.1360    1.0000 </r>
       <r>   10.8887    0.0000 </r>
       <r>   12.8414    0.0000 </r>
       <r>   18.6201    0.0000 </r>
       <r>   18.9594    0.0000 </r>
       <r>   23.3657    0.0000 </r>
       <r>   24.2258    0.0000 </r>
      </set>
      <set comment="kpoint 21">
       <r>    2.2151    1.0000 </r>
       <r>    5.3274    1.0000 </r>
       <r>    6.7030    1.0000 </r>
       <r>    6.8434    1.0000 </r>
       <r>    7.3080    1.0000 </r>
       <r>    7.3861    1.0000 </r>
       <r>    7.5865    1.0000 </r>
       <r>    7.7364    1.0000 </r>
       <r>    7.9678    1.0000 </r>
       <r>    7.9775    1.0000 </r>
       <r>    8.9382    1.0000 </r>
       <r>   11.6093    0.0000 </r>
       <r>   17.2152    0.0000 </r>
       <r>   26.4823    0.0000 </r>
       <r>   27.0659    0.0000 </r>
       <r>   32.1057    0.0000 </r>
      </set>
      <set comment="kpoint 22">
       <r>    3.3793    1.0000 </r>
       <r>    5.7206    1.0000 </r>
       <r>    6.2023    1.0000 </r>
       <r>    6.4622    1.0000 </r>
       <r>    7.1232    1.0000 </r>
       <r>    7.3439    1.0000 </r>
       <r>    7.6177    1.0000 </r>
       <r>    7.9643    1.0000 </r>
       <r>    8.2900    1.0000 </r>
       <r>    8.4664    1.0000 </r>
       <r>    8.9878    1.0000 </r>
       <r>   13.1489    0.0000 </r>
       <r>   17.9493    0.0000 </r>
       <r>   22.3072    0.0000 </r>
       <r>   24.8856    0.0000 </r>
       <r>   28.4449    0.0000 </r>
      </set>
      <set comment="kpoint 23">
       <r>    4.6052    1.0000 </r>
       <r>    5.6065    1.0000 </r>
       <r>    5.8095    1.0000 </r>
       <r>    6.4977    1.0000 </r>
       <r>    7.1146    1.0000 </r>
       <r>    7.4115    1.0000 </r>
       <r>    7.5561    1.0000 </r>
       <r>    8.4155    1.0000 </r>
       <r>    8.7830    1.0000 </r>
       <r>    8.9019    1.0000 </r>
       <r>    9.3697    1.0000 </r>
       <r>   14.6955    0.0000 </r>
       <r>   18.0586    0.0000 </r>
       <r>   19.7013    0.0000 </r>
       <r>   23.3470    0.0000 </r>
       <r>   24.8824    0.0000 </r>
      </set>
      <set comment="kpoint 24">
       <r>    5.0807    1.0000 </r>
       <r>    5.3768    1.0000 </r>
       <r>    5.7931    1.0000 </r>
       <r>    6.5672    1.0000 </r>
       <r>    7.0545    1.0000 </r>
       <r>    7.6223    1.0000 </r>
       <r>    7.7261    1.0000 </r>
       <r>    8.8671    1.0000 </r>
       <r>    8.9610    1.0000 </r>
       <r>    9.0445    1.0000 </r>
       <r>   10.7567    0.0000 </r>
       <r>   13.8369    0.0000 </r>
       <r>   17.9333    0.0000 </r>
       <r>   20.0304    0.0000 </r>
       <r>   22.3579    0.0000 </r>
       <r>   23.2265    0.0000 </r>
      </set>
      <set comment="kpoint 25">
       <r>    4.5615    1.0000 </r>
       <r>    5.8148    1.0000 </r>
       <r>    6.0504    1.0000 </r>
       <r>    6.1320    1.0000 </r>
       <r>    7.0315    1.0000 </r>
       <r>    7.3450    1.0000 </r>
       <r>    7.4841    1.0000 </r>
       <r>    8.1349    1.0000 </r>
       <r>    8.8011    1.0000 </r>
       <r>    8.8392    1.0000 </r>
       <r>    9.4322    1.0000 </r>
       <r>   14.6529    0.0000 </r>
       <r>   18.9717    0.0000 </r>
       <r>   20.5006    0.0000 </r>
       <r>   21.0564    0.0000 </r>
       <r>   26.9058    0.0000 </r>
      </set>
      <set comment="kpoint 26">
       <r>    5.3753    1.0000 </r>
       <r>    5.7369    1.0000 </r>
       <r>    5.8121    1.0000 </r>
       <r>    6.3003    1.0000 </r>
       <r>    6.9817    1.0000 </r>
       <r>    7.2876    1.0000 </r>
       <r>    7.6098    1.0000 </r>
       <r>    8.4756    1.0000 </r>
       <r>    8.8376    1.0000 </r>
       <r>    9.0585    1.0000 </r>
       <r>   10.7673    0.0000 </r>
       <r>   15.6760    0.0000 </r>
       <r>   17.7189    0.0000 </r>
       <r>   19.5343    0.0000 </r>
       <r>   20.9133    0.0000 </r>
       <r>   23.9287    0.0000 </r>
      </set>
      <set comment="kpoint 27">
       <r>    5.4026    1.0000 </r>
       <r>    5.6949    1.0000 </r>
       <r>    5.9069    1.0000 </r>
       <r>    6.4249    1.0000 </r>
       <r>    6.9119    1.0000 </r>
       <r>    7.3070    1.0000 </r>
       <r>    7.7401    1.0000 </r>
       <r>    8.7922    1.0000 </r>
       <r>    8.8182    1.0000 </r>
       <r>    9.0035    1.0000 </r>
       <r>   12.4755    0.0000 </r>
       <r>   13.6992    0.0000 </r>
       <r>   18.7175    0.0000 </r>
       <r>   19.7718    0.0000 </r>
       <r>   20.0138    0.0000 </r>
       <r>   23.8995    0.0000 </r>
      </set>
      <set comment="kpoint 28">
       <r>    5.6304    1.0000 </r>
       <r>    5.8625    1.0000 </r>
       <r>    6.0477    1.0000 </r>
       <r>    6.2004    1.0000 </r>
       <r>    6.9483    1.0000 </r>
       <r>    7.0360    1.0000 </r>
       <r>    7.7872    1.0000 </r>
       <r>    8.6566    1.0000 </r>
       <r>    8.7742    1.0000 </r>
       <r>    8.9572    1.0000 </r>
       <r>   12.8817    0.0000 </r>
       <r>   15.6847    0.0000 </r>
       <r>   15.8343    0.0000 </r>
       <r>   19.7054    0.0000 </r>
       <r>   21.7204    0.0000 </r>
       <r>   22.7753    0.0000 </r>
      </set>
      <set comment="kpoint 29">
       <r>    1.6808    1.0000 </r>
       <r>    4.5945    1.0000 </r>
       <r>    7.0547    1.0000 </r>
       <r>    7.1158    1.0000 </r>
       <r>    7.1158    1.0000 </r>
       <r>    7.3651    1.0000 </r>
       <r>    7.3651    1.0000 </r>
       <r>    7.9883    1.0000 </r>
       <r>    8.1367    1.0000 </r>
       <r>    8.1367    1.0000 </r>
       <r>    8.8322    1.0000 </r>
       <r>    8.8322    1.0000 </r>
       <r>   18.8788    0.0000 </r>
       <r>   30.4111    0.0000 </r>
       <r>   31.8246    0.0000 </r>
       <r>   33.5181    0.0000 </r>
      </set>
      <set comment="kpoint 30">
       <r>    2.0078    1.0000 </r>
       <r>    4.8353    1.0000 </r>
       <r>    6.9666    1.0000 </r>
       <r>    7.0252    1.0000 </r>
       <r>    7.0887    1.0000 </r>
       <r>    7.2381    1.0000 </r>
       <r>    7.4918    1.0000 </r>
       <r>    7.6389    1.0000 </r>
       <r>    8.0949    1.0000 </r>
       <r>    8.1518    1.0000 </r>
       <r>    8.8513    1.0000 </r>
       <r>    9.5775    1.0000 </r>
       <r>   19.0832    0.0000 </r>
       <r>   29.1833    0.0000 </r>
       <r>   30.6647    0.0000 </r>
       <r>   31.7498    0.0000 </r>
      </set>
      <set comment="kpoint 31">
       <r>    2.9168    1.0000 </r>
       <r>    5.3903    1.0000 </r>
       <r>    6.3682    1.0000 </r>
       <r>    6.7409    1.0000 </r>
       <r>    7.0128    1.0000 </r>
       <r>    7.4649    1.0000 </r>
       <r>    7.4946    1.0000 </r>
       <r>    7.8319    1.0000 </r>
       <r>    8.1158    1.0000 </r>
       <r>    8.2424    1.0000 </r>
       <r>    8.8868    1.0000 </r>
       <r>   10.7292    0.0000 </r>
       <r>   19.7146    0.0000 </r>
       <r>   24.7244    0.0000 </r>
       <r>   28.5494    0.0000 </r>
       <r>   29.2304    0.0000 </r>
      </set>
      <set comment="kpoint 32">
       <r>    4.0819    1.0000 </r>
       <r>    5.5681    1.0000 </r>
       <r>    5.9592    1.0000 </r>
       <r>    6.5973    1.0000 </r>
       <r>    7.1182    1.0000 </r>
       <r>    7.4574    1.0000 </r>
       <r>    7.7811    1.0000 </r>
       <r>    8.3007    1.0000 </r>
       <r>    8.4526    1.0000 </r>
       <r>    8.4879    1.0000 </r>
       <r>    8.9297    1.0000 </r>
       <r>   11.9928    0.0000 </r>
       <r>   20.1568    0.0000 </r>
       <r>   21.1064    0.0000 </r>
       <r>   24.8774    0.0000 </r>
       <r>   27.1381    0.0000 </r>
      </set>
      <set comment="kpoint 33">
       <r>    4.7436    1.0000 </r>
       <r>    5.3422    1.0000 </r>
       <r>    5.9533    1.0000 </r>
       <r>    6.3436    1.0000 </r>
       <r>    7.3577    1.0000 </r>
       <r>    7.5517    1.0000 </r>
       <r>    8.5543    1.0000 </r>
       <r>    8.6352    1.0000 </r>
       <r>    8.8625    1.0000 </r>
       <r>    9.0347    1.0000 </r>
       <r>    9.2558    1.0000 </r>
       <r>   13.0992    0.0000 </r>
       <r>   17.2987    0.0000 </r>
       <r>   20.2960    0.0000 </r>
       <r>   23.6379    0.0000 </r>
       <r>   25.7366    0.0000 </r>
      </set>
      <set comment="kpoint 34">
       <r>    4.8301    1.0000 </r>
       <r>    5.2426    1.0000 </r>
       <r>    6.1037    1.0000 </r>
       <r>    6.1578    1.0000 </r>
       <r>    7.3144    1.0000 </r>
       <r>    7.7002    1.0000 </r>
       <r>    8.7081    1.0000 </r>
       <r>    8.8111    1.0000 </r>
       <r>    9.0491    1.0000 </r>
       <r>    9.1242    1.0000 </r>
       <r>   10.6589    0.0000 </r>
       <r>   12.5659    0.0000 </r>
       <r>   17.6554    0.0000 </r>
       <r>   17.7913    0.0000 </r>
       <r>   25.2358    0.0000 </r>
       <r>   25.3985    0.0000 </r>
      </set>
      <set comment="kpoint 35">
       <r>    2.6300    1.0000 </r>
       <r>    5.2551    1.0000 </r>
       <r>    6.5335    1.0000 </r>
       <r>    6.7602    1.0000 </r>
       <r>    7.0655    1.0000 </r>
       <r>    7.4253    1.0000 </r>
       <r>    7.4518    1.0000 </r>
       <r>    7.7206    1.0000 </r>
       <r>    8.1551    1.0000 </r>
       <r>    8.1703    1.0000 </r>
       <r>    8.8758    1.0000 </r>
       <r>   10.4159    0.0000 </r>
       <r>   19.5078    0.0000 </r>
       <r>   26.8361    0.0000 </r>
       <r>   27.4929    0.0000 </r>
       <r>   30.7084    0.0000 </r>
      </set>
      <set comment="kpoint 36">
       <r>    3.7103    1.0000 </r>
       <r>    5.7458    1.0000 </r>
       <r>    6.0331    1.0000 </r>
       <r>    6.5470    1.0000 </r>
       <r>    6.9850    1.0000 </r>
       <r>    7.3857    1.0000 </r>
       <r>    7.5186    1.0000 </r>
       <r>    8.0604    1.0000 </r>
       <r>    8.4057    1.0000 </r>
       <r>    8.4479    1.0000 </r>
       <r>    8.9508    1.0000 </r>
       <r>   11.5763    0.0000 </r>
       <r>   20.3563    0.0000 </r>
       <r>   22.7362    0.0000 </r>
       <r>   25.3117    0.0000 </r>
       <r>   27.0072    0.0000 </r>
      </set>
      <set comment="kpoint 37">
       <r>    4.7022    1.0000 </r>
       <r>    5.5894    1.0000 </r>
       <r>    5.8870    1.0000 </r>
       <r>    6.4932    1.0000 </r>
       <r>    7.1162    1.0000 </r>
       <r>    7.4815    1.0000 </r>
       <r>    7.7667    1.0000 </r>
       <r>    8.3920    1.0000 </r>
       <r>    8.6758    1.0000 </r>
       <r>    8.8945    1.0000 </r>
       <r>    9.4130    1.0000 </r>
       <r>   12.9341    0.0000 </r>
       <r>   18.7458    0.0000 </r>
       <r>   21.3744    0.0000 </r>
       <r>   23.4302    0.0000 </r>
       <r>   24.2810    0.0000 </r>
      </set>
      <set comment="kpoint 38">
       <r>    4.9598    1.0000 </r>
       <r>    5.4235    1.0000 </r>
       <r>    6.0558    1.0000 </r>
       <r>    6.2847    1.0000 </r>
       <r>    7.0800    1.0000 </r>
       <r>    7.7689    1.0000 </r>
       <r>    8.1843    1.0000 </r>
       <r>    8.6281    1.0000 </r>
       <r>    8.9060    1.0000 </r>
       <r>    9.1103    1.0000 </r>
       <r>   10.7848    0.0000 </r>
       <r>   13.3471    0.0000 </r>
       <r>   17.1043    0.0000 </r>
       <r>   19.1549    0.0000 </r>
       <r>   23.0826    0.0000 </r>
       <r>   24.7870    0.0000 </r>
      </set>
      <set comment="kpoint 39">
       <r>    4.7402    1.0000 </r>
       <r>    5.6983    1.0000 </r>
       <r>    6.2210    1.0000 </r>
       <r>    6.2248    1.0000 </r>
       <r>    7.0683    1.0000 </r>
       <r>    7.2245    1.0000 </r>
       <r>    7.4458    1.0000 </r>
       <r>    8.2457    1.0000 </r>
       <r>    8.6127    1.0000 </r>
       <r>    8.9165    1.0000 </r>
       <r>    9.5385    1.0000 </r>
       <r>   12.8900    0.0000 </r>
       <r>   20.9327    0.0000 </r>
       <r>   20.9662    0.0000 </r>
       <r>   21.8812    0.0000 </r>
       <r>   25.5429    0.0000 </r>
      </set>
      <set comment="kpoint 40">
       <r>    5.3190    1.0000 </r>
       <r>    5.7499    1.0000 </r>
       <r>    5.9435    1.0000 </r>
       <r>    6.4196    1.0000 </r>
       <r>    6.9458    1.0000 </r>
       <r>    7.3124    1.0000 </r>
       <r>    7.6746    1.0000 </r>
       <r>    8.4444    1.0000 </r>
       <r>    8.6541    1.0000 </r>
       <r>    9.1300    1.0000 </r>
       <r>   10.9592    0.0000 </r>
       <r>   14.4182    0.0000 </r>
       <r>   17.7307    0.0000 </r>
       <r>   20.0292    0.0000 </r>
       <r>   21.2751    0.0000 </r>
       <r>   23.9386    0.0000 </r>
      </set>
      <set comment="kpoint 41">
       <r>    5.3176    1.0000 </r>
       <r>    5.7996    1.0000 </r>
       <r>    6.1306    1.0000 </r>
       <r>    6.2826    1.0000 </r>
       <r>    6.8132    1.0000 </r>
       <r>    7.4791    1.0000 </r>
       <r>    7.8389    1.0000 </r>
       <r>    8.5208    1.0000 </r>
       <r>    8.8115    1.0000 </r>
       <r>    9.0523    1.0000 </r>
       <r>   12.7359    0.0000 </r>
       <r>   13.6989    0.0000 </r>
       <r>   18.0800    0.0000 </r>
       <r>   18.4304    0.0000 </r>
       <r>   19.9763    0.0000 </r>
       <r>   24.0482    0.0000 </r>
      </set>
      <set comment="kpoint 42">
       <r>    5.6926    1.0000 </r>
       <r>    5.8889    1.0000 </r>
       <r>    6.1820    1.0000 </r>
       <r>    6.1847    1.0000 </r>
       <r>    6.9219    1.0000 </r>
       <r>    7.0199    1.0000 </r>
       <r>    7.7687    1.0000 </r>
       <r>    8.4548    1.0000 </r>
       <r>    8.7389    1.0000 </r>
       <r>    9.0025    1.0000 </r>
       <r>   13.2062    0.0000 </r>
       <r>   15.5289    0.0000 </r>
       <r>   16.2677    0.0000 </r>
       <r>   18.6007    0.0000 </r>
       <r>   20.7118    0.0000 </r>
       <r>   21.3243    0.0000 </r>
      </set>
      <set comment="kpoint 43">
       <r>    2.3911    1.0000 </r>
       <r>    4.0995    1.0000 </r>
       <r>    6.9411    1.0000 </r>
       <r>    7.1023    1.0000 </r>
       <r>    7.1023    1.0000 </r>
       <r>    7.1843    1.0000 </r>
       <r>    7.2459    1.0000 </r>
       <r>    7.2459    1.0000 </r>
       <r>    8.3717    1.0000 </r>
       <r>    8.3717    1.0000 </r>
       <r>    8.7400    1.0000 </r>
       <r>    8.7400    1.0000 </r>
       <r>   21.5161    0.0000 </r>
       <r>   27.4697    0.0000 </r>
       <r>   31.8573    0.0000 </r>
       <r>   32.7898    0.0000 </r>
      </set>
      <set comment="kpoint 44">
       <r>    2.7015    1.0000 </r>
       <r>    4.3684    1.0000 </r>
       <r>    6.7494    1.0000 </r>
       <r>    6.8729    1.0000 </r>
       <r>    7.0342    1.0000 </r>
       <r>    7.2232    1.0000 </r>
       <r>    7.3714    1.0000 </r>
       <r>    7.3717    1.0000 </r>
       <r>    8.3437    1.0000 </r>
       <r>    8.4203    1.0000 </r>
       <r>    8.7419    1.0000 </r>
       <r>    9.0497    1.0000 </r>
       <r>   21.7469    0.0000 </r>
       <r>   27.7096    0.0000 </r>
       <r>   29.7035    0.0000 </r>
       <r>   31.1322    0.0000 </r>
      </set>
      <set comment="kpoint 45">
       <r>    3.5342    1.0000 </r>
       <r>    4.9992    1.0000 </r>
       <r>    6.2991    1.0000 </r>
       <r>    6.7077    1.0000 </r>
       <r>    6.9342    1.0000 </r>
       <r>    7.3221    1.0000 </r>
       <r>    7.4948    1.0000 </r>
       <r>    7.7050    1.0000 </r>
       <r>    8.3384    1.0000 </r>
       <r>    8.5814    1.0000 </r>
       <r>    8.7497    1.0000 </r>
       <r>    9.7202    0.8724 </r>
       <r>   22.4066    0.0000 </r>
       <r>   25.3680    0.0000 </r>
       <r>   27.2466    0.0000 </r>
       <r>   28.6355    0.0000 </r>
      </set>
      <set comment="kpoint 46">
       <r>    4.4520    1.0000 </r>
       <r>    5.2908    1.0000 </r>
       <r>    6.1021    1.0000 </r>
       <r>    6.5218    1.0000 </r>
       <r>    7.2309    1.0000 </r>
       <r>    7.6414    1.0000 </r>
       <r>    7.7089    1.0000 </r>
       <r>    8.1008    1.0000 </r>
       <r>    8.5531    1.0000 </r>
       <r>    8.8103    1.0000 </r>
       <r>    8.8361    1.0000 </r>
       <r>   10.5829    0.0000 </r>
       <r>   21.0968    0.0000 </r>
       <r>   22.6164    0.0000 </r>
       <r>   24.4343    0.0000 </r>
       <r>   28.1252    0.0000 </r>
      </set>
      <set comment="kpoint 47">
       <r>    4.8051    1.0000 </r>
       <r>    5.2001    1.0000 </r>
       <r>    6.0214    1.0000 </r>
       <r>    6.3153    1.0000 </r>
       <r>    7.6245    1.0000 </r>
       <r>    7.8523    1.0000 </r>
       <r>    8.3136    1.0000 </r>
       <r>    8.8383    1.0000 </r>
       <r>    8.9007    1.0000 </r>
       <r>    8.9939    1.0000 </r>
       <r>    9.4316    1.0000 </r>
       <r>   11.6738    0.0000 </r>
       <r>   17.7636    0.0000 </r>
       <r>   19.4070    0.0000 </r>
       <r>   25.7595    0.0000 </r>
       <r>   26.7893    0.0000 </r>
      </set>
      <set comment="kpoint 48">
       <r>    4.8237    1.0000 </r>
       <r>    5.1503    1.0000 </r>
       <r>    6.0069    1.0000 </r>
       <r>    6.2228    1.0000 </r>
       <r>    7.6031    1.0000 </r>
       <r>    8.0780    1.0000 </r>
       <r>    8.3541    1.0000 </r>
       <r>    9.0648    1.0000 </r>
       <r>    9.1065    1.0000 </r>
       <r>    9.1086    1.0000 </r>
       <r>   10.7037    0.0000 </r>
       <r>   12.0499    0.0000 </r>
       <r>   16.9754    0.0000 </r>
       <r>   17.0103    0.0000 </r>
       <r>   26.3128    0.0000 </r>
       <r>   27.5885    0.0000 </r>
      </set>
      <set comment="kpoint 49">
       <r>    3.2796    1.0000 </r>
       <r>    4.8374    1.0000 </r>
       <r>    6.3965    1.0000 </r>
       <r>    6.7571    1.0000 </r>
       <r>    6.9208    1.0000 </r>
       <r>    7.2756    1.0000 </r>
       <r>    7.4479    1.0000 </r>
       <r>    7.6118    1.0000 </r>
       <r>    8.3640    1.0000 </r>
       <r>    8.4955    1.0000 </r>
       <r>    8.7639    1.0000 </r>
       <r>    9.5268    1.0000 </r>
       <r>   22.2046    0.0000 </r>
       <r>   27.3952    0.0000 </r>
       <r>   28.0973    0.0000 </r>
       <r>   28.1060    0.0000 </r>
      </set>
      <set comment="kpoint 50">
       <r>    4.2111    1.0000 </r>
       <r>    5.3664    1.0000 </r>
       <r>    6.1709    1.0000 </r>
       <r>    6.6030    1.0000 </r>
       <r>    6.8750    1.0000 </r>
       <r>    7.2176    1.0000 </r>
       <r>    7.6194    1.0000 </r>
       <r>    7.9818    1.0000 </r>
       <r>    8.5581    1.0000 </r>
       <r>    8.6845    1.0000 </r>
       <r>    8.9110    1.0000 </r>
       <r>   10.2969    0.0000 </r>
       <r>   22.8649    0.0000 </r>
       <r>   23.5198    0.0000 </r>
       <r>   25.4062    0.0000 </r>
       <r>   26.4055    0.0000 </r>
      </set>
      <set comment="kpoint 51">
       <r>    4.8720    1.0000 </r>
       <r>    5.3750    1.0000 </r>
       <r>    6.0826    1.0000 </r>
       <r>    6.4953    1.0000 </r>
       <r>    7.2203    1.0000 </r>
       <r>    7.5703    1.0000 </r>
       <r>    7.8499    1.0000 </r>
       <r>    8.1916    1.0000 </r>
       <r>    8.7643    1.0000 </r>
       <r>    9.0094    1.0000 </r>
       <r>    9.5812    1.0000 </r>
       <r>   11.4291    0.0000 </r>
       <r>   19.4363    0.0000 </r>
       <r>   21.2591    0.0000 </r>
       <r>   24.5240    0.0000 </r>
       <r>   25.3665    0.0000 </r>
      </set>
      <set comment="kpoint 52">
       <r>    4.9700    1.0000 </r>
       <r>    5.3161    1.0000 </r>
       <r>    6.0456    1.0000 </r>
       <r>    6.3574    1.0000 </r>
       <r>    7.2801    1.0000 </r>
       <r>    8.0294    1.0000 </r>
       <r>    8.1722    1.0000 </r>
       <r>    8.4853    1.0000 </r>
       <r>    8.9101    1.0000 </r>
       <r>    9.1291    1.0000 </r>
       <r>   11.0449    0.0000 </r>
       <r>   12.5298    0.0000 </r>
       <r>   16.9629    0.0000 </r>
       <r>   18.1274    0.0000 </r>
       <r>   23.9943    0.0000 </r>
       <r>   26.3187    0.0000 </r>
      </set>
      <set comment="kpoint 53">
       <r>    4.9935    1.0000 </r>
       <r>    5.5176    1.0000 </r>
       <r>    6.3756    1.0000 </r>
       <r>    6.4222    1.0000 </r>
       <r>    6.9887    1.0000 </r>
       <r>    7.0046    1.0000 </r>
       <r>    7.5667    1.0000 </r>
       <r>    8.1085    1.0000 </r>
       <r>    8.7771    1.0000 </r>
       <r>    9.0153    1.0000 </r>
       <r>    9.7222    0.8600 </r>
       <r>   11.4122    0.0000 </r>
       <r>   21.6026    0.0000 </r>
       <r>   22.0021    0.0000 </r>
       <r>   23.1492    0.0000 </r>
       <r>   24.3488    0.0000 </r>
      </set>
      <set comment="kpoint 54">
       <r>    5.3451    1.0000 </r>
       <r>    5.6030    1.0000 </r>
       <r>    6.1691    1.0000 </r>
       <r>    6.6496    1.0000 </r>
       <r>    6.8189    1.0000 </r>
       <r>    7.2927    1.0000 </r>
       <r>    7.7610    1.0000 </r>
       <r>    8.1425    1.0000 </r>
       <r>    8.8243    1.0000 </r>
       <r>    9.1524    1.0000 </r>
       <r>   11.3398    0.0000 </r>
       <r>   13.0933    0.0000 </r>
       <r>   18.2670    0.0000 </r>
       <r>   20.0035    0.0000 </r>
       <r>   21.0522    0.0000 </r>
       <r>   23.0799    0.0000 </r>
      </set>
      <set comment="kpoint 55">
       <r>    5.3462    1.0000 </r>
       <r>    5.6982    1.0000 </r>
       <r>    6.1404    1.0000 </r>
       <r>    6.6207    1.0000 </r>
       <r>    6.7142    1.0000 </r>
       <r>    7.4556    1.0000 </r>
       <r>    7.9766    1.0000 </r>
       <r>    8.2287    1.0000 </r>
       <r>    8.8710    1.0000 </r>
       <r>    9.0527    1.0000 </r>
       <r>   13.0984    0.0000 </r>
       <r>   13.6450    0.0000 </r>
       <r>   17.3205    0.0000 </r>
       <r>   17.4461    0.0000 </r>
       <r>   20.6351    0.0000 </r>
       <r>   22.7721    0.0000 </r>
      </set>
      <set comment="kpoint 56">
       <r>    5.7656    1.0000 </r>
       <r>    5.8731    1.0000 </r>
       <r>    6.2499    1.0000 </r>
       <r>    6.3386    1.0000 </r>
       <r>    6.8326    1.0000 </r>
       <r>    7.0104    1.0000 </r>
       <r>    7.7802    1.0000 </r>
       <r>    8.1168    1.0000 </r>
       <r>    8.8500    1.0000 </r>
       <r>    9.0140    1.0000 </r>
       <r>   13.6933    0.0000 </r>
       <r>   15.0298    0.0000 </r>
       <r>   16.9362    0.0000 </r>
       <r>   18.1308    0.0000 </r>
       <r>   19.6541    0.0000 </r>
       <r>   20.1310    0.0000 </r>
      </set>
      <set comment="kpoint 57">
       <r>    3.2686    1.0000 </r>
       <r>    3.2686    1.0000 </r>
       <r>    6.9148    1.0000 </r>
       <r>    6.9148    1.0000 </r>
       <r>    7.1491    1.0000 </r>
       <r>    7.1491    1.0000 </r>
       <r>    7.1491    1.0000 </r>
       <r>    7.1491    1.0000 </r>
       <r>    8.5831    1.0000 </r>
       <r>    8.5831    1.0000 </r>
       <r>    8.5831    1.0000 </r>
       <r>    8.5831    1.0000 </r>
       <r>   24.4250    0.0000 </r>
       <r>   24.4250    0.0000 </r>
       <r>   32.2099    0.0000 </r>
       <r>   32.2099    0.0000 </r>
      </set>
      <set comment="kpoint 58">
       <r>    3.5581    1.0000 </r>
       <r>    3.5581    1.0000 </r>
       <r>    6.7204    1.0000 </r>
       <r>    6.7204    1.0000 </r>
       <r>    7.1662    1.0000 </r>
       <r>    7.1662    1.0000 </r>
       <r>    7.2725    1.0000 </r>
       <r>    7.2725    1.0000 </r>
       <r>    8.5688    1.0000 </r>
       <r>    8.5688    1.0000 </r>
       <r>    8.7123    1.0000 </r>
       <r>    8.7123    1.0000 </r>
       <r>   24.6659    0.0000 </r>
       <r>   24.6659    0.0000 </r>
       <r>   30.3711    0.0000 </r>
       <r>   30.3711    0.0000 </r>
      </set>
      <set comment="kpoint 59">
       <r>    4.2854    1.0000 </r>
       <r>    4.2854    1.0000 </r>
       <r>    6.4733    1.0000 </r>
       <r>    6.4733    1.0000 </r>
       <r>    7.1087    1.0000 </r>
       <r>    7.1087    1.0000 </r>
       <r>    7.5810    1.0000 </r>
       <r>    7.5810    1.0000 </r>
       <r>    8.5604    1.0000 </r>
       <r>    8.5604    1.0000 </r>
       <r>    9.0442    1.0000 </r>
       <r>    9.0442    1.0000 </r>
       <r>   25.1757    0.0000 </r>
       <r>   25.1757    0.0000 </r>
       <r>   26.4892    0.0000 </r>
       <r>   26.4892    0.0000 </r>
      </set>
      <set comment="kpoint 60">
       <r>    4.8789    1.0000 </r>
       <r>    4.8789    1.0000 </r>
       <r>    6.3295    1.0000 </r>
       <r>    6.3295    1.0000 </r>
       <r>    7.4799    1.0000 </r>
       <r>    7.4799    1.0000 </r>
       <r>    7.8669    1.0000 </r>
       <r>    7.8669    1.0000 </r>
       <r>    8.6787    1.0000 </r>
       <r>    8.6787    1.0000 </r>
       <r>    9.5284    1.0000 </r>
       <r>    9.5284    1.0000 </r>
       <r>   21.9773    0.0000 </r>
       <r>   21.9773    0.0000 </r>
       <r>   26.7447    0.0000 </r>
       <r>   26.7447    0.0000 </r>
      </set>
      <set comment="kpoint 61">
       <r>    4.9731    1.0000 </r>
       <r>    4.9731    1.0000 </r>
       <r>    6.1819    1.0000 </r>
       <r>    6.1819    1.0000 </r>
       <r>    7.9575    1.0000 </r>
       <r>    7.9575    1.0000 </r>
       <r>    8.3534    1.0000 </r>
       <r>    8.3534    1.0000 </r>
       <r>    8.9471    1.0000 </r>
       <r>    8.9471    1.0000 </r>
       <r>   10.4362    0.0000 </r>
       <r>   10.4362    0.0000 </r>
       <r>   18.4853    0.0000 </r>
       <r>   18.4853    0.0000 </r>
       <r>   28.1411    0.0000 </r>
       <r>   28.1479    0.0000 </r>
      </set>
      <set comment="kpoint 62">
       <r>    4.9520    1.0000 </r>
       <r>    4.9520    1.0000 </r>
       <r>    6.1176    1.0000 </r>
       <r>    6.1176    1.0000 </r>
       <r>    7.9650    1.0000 </r>
       <r>    7.9650    1.0000 </r>
       <r>    8.6736    1.0000 </r>
       <r>    8.6736    1.0000 </r>
       <r>    9.0855    1.0000 </r>
       <r>    9.0855    1.0000 </r>
       <r>   11.3384    0.0000 </r>
       <r>   11.3384    0.0000 </r>
       <r>   16.7428    0.0000 </r>
       <r>   16.7428    0.0000 </r>
       <r>   27.7023    0.0000 </r>
       <r>   27.7023    0.0000 </r>
      </set>
      <set comment="kpoint 63">
       <r>    4.0777    1.0000 </r>
       <r>    4.0777    1.0000 </r>
       <r>    6.5295    1.0000 </r>
       <r>    6.5295    1.0000 </r>
       <r>    7.0757    1.0000 </r>
       <r>    7.0757    1.0000 </r>
       <r>    7.5093    1.0000 </r>
       <r>    7.5093    1.0000 </r>
       <r>    8.5670    1.0000 </r>
       <r>    8.5670    1.0000 </r>
       <r>    8.9433    1.0000 </r>
       <r>    8.9433    1.0000 </r>
       <r>   25.1167    0.0000 </r>
       <r>   25.1167    0.0000 </r>
       <r>   28.0936    0.0000 </r>
       <r>   28.0936    0.0000 </r>
      </set>
      <set comment="kpoint 64">
       <r>    4.8000    1.0000 </r>
       <r>    4.8000    1.0000 </r>
       <r>    6.4192    1.0000 </r>
       <r>    6.4192    1.0000 </r>
       <r>    7.0057    1.0000 </r>
       <r>    7.0057    1.0000 </r>
       <r>    7.7938    1.0000 </r>
       <r>    7.7938    1.0000 </r>
       <r>    8.7072    1.0000 </r>
       <r>    8.7072    1.0000 </r>
       <r>    9.3724    1.0000 </r>
       <r>    9.3724    1.0000 </r>
       <r>   24.1130    0.0000 </r>
       <r>   24.1130    0.0000 </r>
       <r>   26.1092    0.0000 </r>
       <r>   26.1092    0.0000 </r>
      </set>
      <set comment="kpoint 65">
       <r>    5.1071    1.0000 </r>
       <r>    5.1071    1.0000 </r>
       <r>    6.3207    1.0000 </r>
       <r>    6.3207    1.0000 </r>
       <r>    7.4777    1.0000 </r>
       <r>    7.4777    1.0000 </r>
       <r>    7.9331    1.0000 </r>
       <r>    7.9331    1.0000 </r>
       <r>    8.9657    1.0000 </r>
       <r>    8.9657    1.0000 </r>
       <r>   10.2613    0.0000 </r>
       <r>   10.2613    0.0000 </r>
       <r>   20.2979    0.0000 </r>
       <r>   20.2979    0.0000 </r>
       <r>   25.7431    0.0000 </r>
       <r>   25.7431    0.0000 </r>
      </set>
      <set comment="kpoint 66">
       <r>    5.1063    1.0000 </r>
       <r>    5.1063    1.0000 </r>
       <r>    6.2138    1.0000 </r>
       <r>    6.2138    1.0000 </r>
       <r>    7.6973    1.0000 </r>
       <r>    7.6973    1.0000 </r>
       <r>    8.3639    1.0000 </r>
       <r>    8.3639    1.0000 </r>
       <r>    9.0165    1.0000 </r>
       <r>    9.0165    1.0000 </r>
       <r>   11.6731    0.0000 </r>
       <r>   11.6731    0.0000 </r>
       <r>   17.3565    0.0000 </r>
       <r>   17.3565    0.0000 </r>
       <r>   25.1006    0.0000 </r>
       <r>   25.1006    0.0000 </r>
      </set>
      <set comment="kpoint 67">
       <r>    5.2698    1.0000 </r>
       <r>    5.2698    1.0000 </r>
       <r>    6.5176    1.0000 </r>
       <r>    6.5176    1.0000 </r>
       <r>    6.8810    1.0000 </r>
       <r>    6.8810    1.0000 </r>
       <r>    7.8074    1.0000 </r>
       <r>    7.8074    1.0000 </r>
       <r>    9.0135    1.0000 </r>
       <r>    9.0136    1.0000 </r>
       <r>   10.3044    0.0000 </r>
       <r>   10.3044    0.0000 </r>
       <r>   22.3891    0.0000 </r>
       <r>   22.3891    0.0000 </r>
       <r>   23.1753    0.0000 </r>
       <r>   23.1753    0.0000 </r>
      </set>
      <set comment="kpoint 68">
       <r>    5.4487    1.0000 </r>
       <r>    5.4487    1.0000 </r>
       <r>    6.4359    1.0000 </r>
       <r>    6.4359    1.0000 </r>
       <r>    7.0968    1.0000 </r>
       <r>    7.0968    1.0000 </r>
       <r>    7.8889    1.0000 </r>
       <r>    7.8889    1.0000 </r>
       <r>    9.0501    1.0000 </r>
       <r>    9.0501    1.0000 </r>
       <r>   12.0347    0.0000 </r>
       <r>   12.0347    0.0000 </r>
       <r>   19.0746    0.0000 </r>
       <r>   19.0746    0.0000 </r>
       <r>   21.9401    0.0000 </r>
       <r>   21.9401    0.0000 </r>
      </set>
      <set comment="kpoint 69">
       <r>    5.4824    1.0000 </r>
       <r>    5.4824    1.0000 </r>
       <r>    6.3758    1.0000 </r>
       <r>    6.3758    1.0000 </r>
       <r>    7.1468    1.0000 </r>
       <r>    7.1468    1.0000 </r>
       <r>    8.0872    1.0000 </r>
       <r>    8.0872    1.0000 </r>
       <r>    8.9732    1.0000 </r>
       <r>    8.9732    1.0000 </r>
       <r>   13.4468    0.0000 </r>
       <r>   13.4468    0.0000 </r>
       <r>   17.0482    0.0000 </r>
       <r>   17.0482    0.0000 </r>
       <r>   21.5999    0.0000 </r>
       <r>   21.5999    0.0000 </r>
      </set>
      <set comment="kpoint 70">
       <r>    5.8276    1.0000 </r>
       <r>    5.8276    1.0000 </r>
       <r>    6.3495    1.0000 </r>
       <r>    6.3495    1.0000 </r>
       <r>    6.8976    1.0000 </r>
       <r>    6.8976    1.0000 </r>
       <r>    7.8799    1.0000 </r>
       <r>    7.8799    1.0000 </r>
       <r>    8.9587    1.0000 </r>
       <r>    8.9587    1.0000 </r>
       <r>   14.3294    0.0000 </r>
       <r>   14.3294    0.0000 </r>
       <r>   17.6940    0.0000 </r>
       <r>   17.6940    0.0000 </r>
       <r>   19.4080    0.0000 </r>
       <r>   19.4080    0.0000 </r>
      </set>
     </set>
     <set comment="spin 2">
      <set comment="kpoint 1">
       <r>    1.0794    1.0000 </r>
       <r>    5.7885    1.0000 </r>
       <r>    8.8996    1.0000 </r>
       <r>    8.9322    1.0000 </r>
       <r>    8.9322    1.0000 </r>
       <r>    9.2801    1.0000 </r>
       <r>    9.2801    1.0000 </r>
       <r>    9.6721    0.9938 </r>
       <r>    9.6816    0.9871 </r>
       <r>    9.6816    0.9871 </r>
       <r>   10.8409    0.0000 </r>
       <r>   10.8409    0.0000 </r>
       <r>   16.8894    0.0000 </r>
       <r>   31.2178    0.0000 </r>
       <r>   34.1093    0.0000 </r>
       <r>   34.1102    0.0000 </r>
      </set>
      <set comment="kpoint 2">
       <r>    1.4213    1.0000 </r>
       <r>    6.0172    1.0000 </r>
       <r>    8.5990    1.0000 </r>
       <r>    8.8496    1.0000 </r>
       <r>    9.1026    1.0000 </r>
       <r>    9.1326    1.0000 </r>
       <r>    9.2219    1.0000 </r>
       <r>    9.4302    1.0000 </r>
       <r>    9.5712    1.0000 </r>
       <r>    9.5996    1.0000 </r>
       <r>   10.8875    0.0000 </r>
       <r>   11.9616    0.0000 </r>
       <r>   16.9208    0.0000 </r>
       <r>   28.9668    0.0000 </r>
       <r>   31.5386    0.0000 </r>
       <r>   31.6711    0.0000 </r>
      </set>
      <set comment="kpoint 3">
       <r>    2.4032    1.0000 </r>
       <r>    6.5518    1.0000 </r>
       <r>    7.9189    1.0000 </r>
       <r>    8.1938    1.0000 </r>
       <r>    8.9294    1.0000 </r>
       <r>    9.3189    1.0000 </r>
       <r>    9.3890    1.0000 </r>
       <r>    9.5731    1.0000 </r>
       <r>    9.5794    1.0000 </r>
       <r>    9.8397    0.0125 </r>
       <r>   10.9741    0.0000 </r>
       <r>   13.7732    0.0000 </r>
       <r>   17.0508    0.0000 </r>
       <r>   24.5931    0.0000 </r>
       <r>   28.8029    0.0000 </r>
       <r>   30.6448    0.0000 </r>
      </set>
      <set comment="kpoint 4">
       <r>    3.8596    1.0000 </r>
       <r>    6.8459    1.0000 </r>
       <r>    7.2556    1.0000 </r>
       <r>    7.9473    1.0000 </r>
       <r>    8.8785    1.0000 </r>
       <r>    9.0502    1.0000 </r>
       <r>    9.1336    1.0000 </r>
       <r>   10.1962    0.0000 </r>
       <r>   10.2103    0.0000 </r>
       <r>   10.3872    0.0000 </r>
       <r>   11.0413    0.0000 </r>
       <r>   15.8601    0.0000 </r>
       <r>   17.2460    0.0000 </r>
       <r>   20.6888    0.0000 </r>
       <r>   26.5575    0.0000 </r>
       <r>   27.8017    0.0000 </r>
      </set>
      <set comment="kpoint 5">
       <r>    5.3536    1.0000 </r>
       <r>    6.6568    1.0000 </r>
       <r>    6.8681    1.0000 </r>
       <r>    7.9349    1.0000 </r>
       <r>    8.8538    1.0000 </r>
       <r>    8.9298    1.0000 </r>
       <r>    9.1259    1.0000 </r>
       <r>   10.7599    0.0000 </r>
       <r>   10.8962    0.0000 </r>
       <r>   11.0766    0.0000 </r>
       <r>   11.1730    0.0000 </r>
       <r>   15.8736    0.0000 </r>
       <r>   18.1001    0.0000 </r>
       <r>   19.4755    0.0000 </r>
       <r>   24.6262    0.0000 </r>
       <r>   25.0193    0.0000 </r>
      </set>
      <set comment="kpoint 6">
       <r>    6.0834    1.0000 </r>
       <r>    6.4371    1.0000 </r>
       <r>    6.7416    1.0000 </r>
       <r>    8.0297    1.0000 </r>
       <r>    8.7824    1.0000 </r>
       <r>    8.8521    1.0000 </r>
       <r>    9.2473    1.0000 </r>
       <r>   10.9667    0.0000 </r>
       <r>   11.0869    0.0000 </r>
       <r>   11.1240    0.0000 </r>
       <r>   12.2637    0.0000 </r>
       <r>   13.9484    0.0000 </r>
       <r>   19.6431    0.0000 </r>
       <r>   20.2169    0.0000 </r>
       <r>   22.7776    0.0000 </r>
       <r>   23.8948    0.0000 </r>
      </set>
      <set comment="kpoint 7">
       <r>    2.0846    1.0000 </r>
       <r>    6.4119    1.0000 </r>
       <r>    8.1589    1.0000 </r>
       <r>    8.2753    1.0000 </r>
       <r>    9.0233    1.0000 </r>
       <r>    9.2618    1.0000 </r>
       <r>    9.3625    1.0000 </r>
       <r>    9.4477    1.0000 </r>
       <r>    9.5800    1.0000 </r>
       <r>    9.7622    0.4797 </r>
       <r>   10.9337    0.0000 </r>
       <r>   13.2635    0.0000 </r>
       <r>   17.0076    0.0000 </r>
       <r>   26.6448    0.0000 </r>
       <r>   27.2930    0.0000 </r>
       <r>   33.1618    0.0000 </r>
      </set>
      <set comment="kpoint 8">
       <r>    3.3180    1.0000 </r>
       <r>    6.9033    1.0000 </r>
       <r>    7.4946    1.0000 </r>
       <r>    7.8822    1.0000 </r>
       <r>    8.8754    1.0000 </r>
       <r>    8.9526    1.0000 </r>
       <r>    9.3870    1.0000 </r>
       <r>    9.7158    0.8967 </r>
       <r>   10.0452    0.0000 </r>
       <r>   10.3481    0.0000 </r>
       <r>   10.9814    0.0000 </r>
       <r>   15.1203    0.0000 </r>
       <r>   17.2574    0.0000 </r>
       <r>   22.6287    0.0000 </r>
       <r>   25.0896    0.0000 </r>
       <r>   29.6903    0.0000 </r>
      </set>
      <set comment="kpoint 9">
       <r>    4.8517    1.0000 </r>
       <r>    6.9068    1.0000 </r>
       <r>    7.0410    1.0000 </r>
       <r>    7.7633    1.0000 </r>
       <r>    8.7504    1.0000 </r>
       <r>    9.0142    1.0000 </r>
       <r>    9.1075    1.0000 </r>
       <r>   10.2717    0.0000 </r>
       <r>   10.6469    0.0000 </r>
       <r>   11.0138    0.0000 </r>
       <r>   11.0990    0.0000 </r>
       <r>   17.1798    0.0000 </r>
       <r>   17.2747    0.0000 </r>
       <r>   19.5906    0.0000 </r>
       <r>   23.5335    0.0000 </r>
       <r>   26.3061    0.0000 </r>
      </set>
      <set comment="kpoint 10">
       <r>    6.0415    1.0000 </r>
       <r>    6.6538    1.0000 </r>
       <r>    6.8185    1.0000 </r>
       <r>    7.8386    1.0000 </r>
       <r>    8.7008    1.0000 </r>
       <r>    8.8671    1.0000 </r>
       <r>    9.2478    1.0000 </r>
       <r>   10.8354    0.0000 </r>
       <r>   10.9718    0.0000 </r>
       <r>   11.0274    0.0000 </r>
       <r>   12.1411    0.0000 </r>
       <r>   14.8610    0.0000 </r>
       <r>   19.4504    0.0000 </r>
       <r>   20.1227    0.0000 </r>
       <r>   22.5472    0.0000 </r>
       <r>   23.5177    0.0000 </r>
      </set>
      <set comment="kpoint 11">
       <r>    4.6713    1.0000 </r>
       <r>    7.1546    1.0000 </r>
[...]
       </set>
       <set comment="band 12">
        <r>  0.0000  0.0000  0.0414  0.0000  0.0000  0.1634  0.0000  0.1780  0.0000 </r>
        <r>  0.0633  0.0423  0.0000  0.0451  0.1602  0.0000  0.1200  0.0000  0.1072 </r>
       </set>
       <set comment="band 13">
        <r>  0.1782  0.0193  0.0000  0.1900  0.1151  0.0000  0.0349  0.0000  0.0879 </r>
        <r>  0.0000  0.0000  0.0453  0.0000  0.0000  0.0227  0.0000  0.1168  0.0000 </r>
       </set>
       <set comment="band 14">
        <r>  0.0000  0.0000  0.0453  0.0000  0.0000  0.0227  0.0000  0.1168  0.0000 </r>
        <r>  0.1782  0.0193  0.0000  0.1900  0.1151  0.0000  0.0349  0.0000  0.0879 </r>
       </set>
       <set comment="band 15">
        <r>  0.0561  0.3082  0.0000  0.0248  0.0312  0.0000  0.0696  0.0000  0.1027 </r>
        <r>  0.0000  0.0000  0.0124  0.0000  0.0000  0.1283  0.0000  0.0148  0.0000 </r>
       </set>
       <set comment="band 16">
        <r>  0.0000  0.0000  0.0124  0.0000  0.0000  0.1283  0.0000  0.0148  0.0000 </r>
        <r>  0.0561  0.3082  0.0000  0.0248  0.0312  0.0000  0.0696  0.0000  0.1027 </r>
       </set>
      </set>
      <set comment="kpoint 66">
       <set comment="band 1">
        <r>  0.1169  0.0179  0.0000  0.0088  0.2187  0.0000  0.0224  0.0000  0.0641 </r>
        <r>  0.0000  0.0000  0.0100  0.0000  0.0000  0.1170  0.0000  0.2668  0.0000 </r>
       </set>
       <set comment="band 2">
        <r>  0.0000  0.0000  0.0100  0.0000  0.0000  0.1170  0.0000  0.2668  0.0000 </r>
        <r>  0.1169  0.0179  0.0000  0.0088  0.2187  0.0000  0.0224  0.0000  0.0641 </r>
       </set>
       <set comment="band 3">
        <r>  0.0015  0.0119  0.0000  0.0238  0.3069  0.0000  0.2341  0.0000  0.1313 </r>
        <r>  0.0000  0.0000  0.0129  0.0000  0.0000  0.0706  0.0000  0.1266  0.0000 </r>
       </set>
       <set comment="band 4">
        <r>  0.0000  0.0000  0.0129  0.0000  0.0000  0.0706  0.0000  0.1266  0.0000 </r>
        <r>  0.0015  0.0119  0.0000  0.0238  0.3069  0.0000  0.2341  0.0000  0.1313 </r>
       </set>
       <set comment="band 5">
        <r>  0.0142  0.0331  0.0000  0.0941  0.0096  0.0000  0.1472  0.0000  0.0827 </r>
        <r>  0.0000  0.0000  0.0364  0.0000  0.0000  0.2952  0.0000  0.1665  0.0000 </r>
       </set>
       <set comment="band 6">
        <r>  0.0000  0.0000  0.0364  0.0000  0.0000  0.2952  0.0000  0.1665  0.0000 </r>
        <r>  0.0142  0.0331  0.0000  0.0941  0.0096  0.0000  0.1472  0.0000  0.0827 </r>
       </set>
       <set comment="band 7">
        <r>  0.0029  0.0179  0.0000  0.0477  0.0408  0.0000  0.1137  0.0000  0.2789 </r>
        <r>  0.0000  0.0000  0.0160  0.0000  0.0000  0.2780  0.0000  0.1457  0.0000 </r>
       </set>
       <set comment="band 8">
        <r>  0.0000  0.0000  0.0160  0.0000  0.0000  0.2780  0.0000  0.1457  0.0000 </r>
        <r>  0.0029  0.0179  0.0000  0.0477  0.0408  0.0000  0.1137  0.0000  0.2789 </r>
       </set>
       <set comment="band 9">
        <r>  0.0004  0.0015  0.0000  0.0005  0.1666  0.0000  0.3857  0.0000  0.2085 </r>
        <r>  0.0000  0.0000  0.0023  0.0000  0.0000  0.1085  0.0000  0.1130  0.0000 </r>
       </set>
       <set comment="band 10">
        <r>  0.0000  0.0000  0.0023  0.0000  0.0000  0.1085  0.0000  0.1130  0.0000 </r>
        <r>  0.0004  0.0015  0.0000  0.0005  0.1666  0.0000  0.3857  0.0000  0.2085 </r>
       </set>
       <set comment="band 11">
        <r>  0.0301  0.0780  0.0000  0.1607  0.1596  0.0000  0.0534  0.0000  0.1733 </r>
        <r>  0.0000  0.0000  0.0667  0.0000  0.0000  0.0688  0.0000  0.0679  0.0000 </r>
       </set>
       <set comment="band 12">
        <r>  0.0000  0.0000  0.0667  0.0000  0.0000  0.0688  0.0000  0.0679  0.0000 </r>
        <r>  0.0301  0.0780  0.0000  0.1607  0.1596  0.0000  0.0534  0.0000  0.1733 </r>
       </set>
       <set comment="band 13">
        <r>  0.3185  0.0043  0.0000  0.0723  0.1376  0.0000  0.0216  0.0000  0.0770 </r>
        <r>  0.0000  0.0000  0.0332  0.0000  0.0000  0.0406  0.0000  0.1546  0.0000 </r>
       </set>
       <set comment="band 14">
        <r>  0.0000  0.0000  0.0332  0.0000  0.0000  0.0406  0.0000  0.1546  0.0000 </r>
        <r>  0.3185  0.0043  0.0000  0.0723  0.1376  0.0000  0.0216  0.0000  0.0770 </r>
       </set>
       <set comment="band 15">
        <r>  0.0780  0.2869  0.0000  0.0684  0.0567  0.0000  0.0399  0.0000  0.0483 </r>
        <r>  0.0000  0.0000  0.0119  0.0000  0.0000  0.1139  0.0000  0.0305  0.0000 </r>
       </set>
       <set comment="band 16">
        <r>  0.0000  0.0000  0.0119  0.0000  0.0000  0.1139  0.0000  0.0305  0.0000 </r>
        <r>  0.0780  0.2869  0.0000  0.0684  0.0567  0.0000  0.0399  0.0000  0.0483 </r>
       </set>
      </set>
      <set comment="kpoint 67">
       <set comment="band 1">
        <r>  0.2320  0.0740  0.0000  0.0259  0.0466  0.0000  0.0059  0.0000  0.0211 </r>
        <r>  0.0000  0.0000  0.0700  0.0000  0.0000  0.2194  0.0000  0.0732  0.0000 </r>
       </set>
       <set comment="band 2">
        <r>  0.0000  0.0000  0.0700  0.0000  0.0000  0.2194  0.0000  0.0732  0.0000 </r>
        <r>  0.2320  0.0740  0.0000  0.0259  0.0466  0.0000  0.0059  0.0000  0.0211 </r>
       </set>
       <set comment="band 3">
        <r>  0.0203  0.0292  0.0000  0.0297  0.1844  0.0000  0.0873  0.0000  0.4584 </r>
        <r>  0.0000  0.0000  0.0201  0.0000  0.0000  0.0545  0.0000  0.0201  0.0000 </r>
       </set>
       <set comment="band 4">
        <r>  0.0000  0.0000  0.0201  0.0000  0.0000  0.0545  0.0000  0.0201  0.0000 </r>
        <r>  0.0203  0.0292  0.0000  0.0297  0.1844  0.0000  0.0873  0.0000  0.4584 </r>
       </set>
       <set comment="band 5">
        <r>  0.0010  0.0283  0.0000  0.0137  0.0756  0.0000  0.4747  0.0000  0.1401 </r>
        <r>  0.0000  0.0000  0.0009  0.0000  0.0000  0.0821  0.0000  0.1106  0.0000 </r>
       </set>
       <set comment="band 6">
        <r>  0.0000  0.0000  0.0009  0.0000  0.0000  0.0821  0.0000  0.1106  0.0000 </r>
        <r>  0.0010  0.0283  0.0000  0.0137  0.0756  0.0000  0.4747  0.0000  0.1401 </r>
       </set>
       <set comment="band 7">
        <r>  0.0033  0.0025  0.0000  0.0010  0.1346  0.0000  0.0065  0.0000  0.0940 </r>
        <r>  0.0000  0.0000  0.0010  0.0000  0.0000  0.2026  0.0000  0.5168  0.0000 </r>
       </set>
       <set comment="band 8">
        <r>  0.0000  0.0000  0.0010  0.0000  0.0000  0.2026  0.0000  0.5168  0.0000 </r>
        <r>  0.0033  0.0025  0.0000  0.0010  0.1346  0.0000  0.0065  0.0000  0.0940 </r>
       </set>
       <set comment="band 9">
        <r>  0.0000  0.0000  0.0000  0.0000  0.2839  0.0000  0.3187  0.0000  0.0985 </r>
        <r>  0.0000  0.0000  0.0017  0.0000  0.0000  0.1499  0.0000  0.1381  0.0000 </r>
       </set>
       <set comment="band 10">
        <r>  0.0000  0.0000  0.0017  0.0000  0.0000  0.1499  0.0000  0.1381  0.0000 </r>
        <r>  0.0000  0.0000  0.0000  0.0000  0.2839  0.0000  0.3187  0.0000  0.0985 </r>
       </set>
       <set comment="band 11">
        <r>  0.0727  0.0625  0.0000  0.0217  0.2382  0.0000  0.0497  0.0000  0.1006 </r>
        <r>  0.0000  0.0000  0.0453  0.0000  0.0000  0.2426  0.0000  0.0871  0.0000 </r>
       </set>
       <set comment="band 12">
        <r>  0.0000  0.0000  0.0453  0.0000  0.0000  0.2426  0.0000  0.0871  0.0000 </r>
        <r>  0.0727  0.0625  0.0000  0.0217  0.2382  0.0000  0.0497  0.0000  0.1006 </r>
       </set>
       <set comment="band 13">
        <r>  0.0015  0.0784  0.0000  0.2000  0.0800  0.0000  0.0104  0.0000  0.2398 </r>
        <r>  0.0000  0.0000  0.0655  0.0000  0.0000  0.0460  0.0000  0.0458  0.0000 </r>
       </set>
       <set comment="band 14">
        <r>  0.0000  0.0000  0.0655  0.0000  0.0000  0.0460  0.0000  0.0458  0.0000 </r>
        <r>  0.0015  0.0784  0.0000  0.2000  0.0800  0.0000  0.0104  0.0000  0.2398 </r>
       </set>
       <set comment="band 15">
        <r>  0.2334  0.1996  0.0000  0.0739  0.0097  0.0000  0.0850  0.0000  0.0115 </r>
        <r>  0.0000  0.0000  0.0042  0.0000  0.0000  0.0952  0.0000  0.0839  0.0000 </r>
       </set>
       <set comment="band 16">
        <r>  0.0000  0.0000  0.0042  0.0000  0.0000  0.0952  0.0000  0.0839  0.0000 </r>
        <r>  0.2334  0.1996  0.0000  0.0739  0.0097  0.0000  0.0850  0.0000  0.0115 </r>
       </set>
      </set>
      <set comment="kpoint 68">
       <set comment="band 1">
        <r>  0.1134  0.0485  0.0000  0.0159  0.1261  0.0000  0.0420  0.0000  0.0251 </r>
        <r>  0.0000  0.0000  0.0208  0.0000  0.0000  0.2368  0.0000  0.2001  0.0000 </r>
       </set>
       <set comment="band 2">
        <r>  0.0000  0.0000  0.0208  0.0000  0.0000  0.2368  0.0000  0.2001  0.0000 </r>
        <r>  0.1134  0.0485  0.0000  0.0159  0.1261  0.0000  0.0420  0.0000  0.0251 </r>
       </set>
       <set comment="band 3">
        <r>  0.0133  0.0233  0.0000  0.0353  0.2886  0.0000  0.0991  0.0000  0.3209 </r>
        <r>  0.0000  0.0000  0.0245  0.0000  0.0000  0.0896  0.0000  0.0109  0.0000 </r>
       </set>
       <set comment="band 4">
        <r>  0.0000  0.0000  0.0245  0.0000  0.0000  0.0896  0.0000  0.0109  0.0000 </r>
        <r>  0.0133  0.0233  0.0000  0.0353  0.2886  0.0000  0.0991  0.0000  0.3209 </r>
       </set>
       <set comment="band 5">
        <r>  0.0101  0.0430  0.0000  0.0648  0.0416  0.0000  0.2609  0.0000  0.1492 </r>
        <r>  0.0000  0.0000  0.0182  0.0000  0.0000  0.0802  0.0000  0.2189  0.0000 </r>
       </set>
       <set comment="band 6">
        <r>  0.0000  0.0000  0.0182  0.0000  0.0000  0.0802  0.0000  0.2189  0.0000 </r>
        <r>  0.0101  0.0430  0.0000  0.0648  0.0416  0.0000  0.2609  0.0000  0.1492 </r>
       </set>
       <set comment="band 7">
        <r>  0.0077  0.0026  0.0000  0.0056  0.1146  0.0000  0.0459  0.0000  0.2188 </r>
        <r>  0.0000  0.0000  0.0010  0.0000  0.0000  0.2562  0.0000  0.3081  0.0000 </r>
       </set>
       <set comment="band 8">
        <r>  0.0000  0.0000  0.0010  0.0000  0.0000  0.2562  0.0000  0.3081  0.0000 </r>
        <r>  0.0077  0.0026  0.0000  0.0056  0.1146  0.0000  0.0459  0.0000  0.2188 </r>
       </set>
       <set comment="band 9">
        <r>  0.0001  0.0023  0.0000  0.0007  0.1282  0.0000  0.5009  0.0000  0.0542 </r>
        <r>  0.0000  0.0000  0.0032  0.0000  0.0000  0.1719  0.0000  0.1267  0.0000 </r>
       </set>
       <set comment="band 10">
        <r>  0.0000  0.0000  0.0032  0.0000  0.0000  0.1719  0.0000  0.1267  0.0000 </r>
        <r>  0.0001  0.0023  0.0000  0.0007  0.1282  0.0000  0.5009  0.0000  0.0542 </r>
       </set>
       <set comment="band 11">
        <r>  0.0711  0.1071  0.0000  0.0797  0.2530  0.0000  0.0049  0.0000  0.1396 </r>
        <r>  0.0000  0.0000  0.0704  0.0000  0.0000  0.1059  0.0000  0.0441  0.0000 </r>
       </set>
       <set comment="band 12">
        <r>  0.0000  0.0000  0.0704  0.0000  0.0000  0.1059  0.0000  0.0441  0.0000 </r>
        <r>  0.0711  0.1071  0.0000  0.0797  0.2530  0.0000  0.0049  0.0000  0.1396 </r>
       </set>
       <set comment="band 13">
        <r>  0.1667  0.0048  0.0000  0.2093  0.0857  0.0000  0.0183  0.0000  0.1385 </r>
        <r>  0.0000  0.0000  0.0454  0.0000  0.0000  0.0184  0.0000  0.1296  0.0000 </r>
       </set>
       <set comment="band 14">
        <r>  0.0000  0.0000  0.0454  0.0000  0.0000  0.0184  0.0000  0.1296  0.0000 </r>
        <r>  0.1667  0.0048  0.0000  0.2093  0.0857  0.0000  0.0183  0.0000  0.1385 </r>
       </set>
       <set comment="band 15">
        <r>  0.2095  0.2349  0.0000  0.0193  0.0308  0.0000  0.0435  0.0000  0.0595 </r>
        <r>  0.0000  0.0000  0.0206  0.0000  0.0000  0.1260  0.0000  0.0358  0.0000 </r>
       </set>
       <set comment="band 16">
        <r>  0.0000  0.0000  0.0206  0.0000  0.0000  0.1260  0.0000  0.0358  0.0000 </r>
        <r>  0.2095  0.2349  0.0000  0.0193  0.0308  0.0000  0.0435  0.0000  0.0595 </r>
       </set>
      </set>
      <set comment="kpoint 69">
       <set comment="band 1">
        <r>  0.0755  0.0259  0.0000  0.0193  0.1725  0.0000  0.0503  0.0000  0.0629 </r>
        <r>  0.0000  0.0000  0.0030  0.0000  0.0000  0.1112  0.0000  0.3335  0.0000 </r>
       </set>
       <set comment="band 2">
        <r>  0.0000  0.0000  0.0030  0.0000  0.0000  0.1112  0.0000  0.3335  0.0000 </r>
        <r>  0.0755  0.0259  0.0000  0.0193  0.1725  0.0000  0.0503  0.0000  0.0629 </r>
       </set>
       <set comment="band 3">
        <r>  0.0011  0.0275  0.0000  0.0154  0.3225  0.0000  0.2219  0.0000  0.1167 </r>
        <r>  0.0000  0.0000  0.0096  0.0000  0.0000  0.0996  0.0000  0.1053  0.0000 </r>
       </set>
       <set comment="band 4">
        <r>  0.0000  0.0000  0.0096  0.0000  0.0000  0.0996  0.0000  0.1053  0.0000 </r>
        <r>  0.0011  0.0275  0.0000  0.0154  0.3225  0.0000  0.2219  0.0000  0.1167 </r>
       </set>
       <set comment="band 5">
        <r>  0.0166  0.0336  0.0000  0.1008  0.0860  0.0000  0.0476  0.0000  0.1737 </r>
        <r>  0.0000  0.0000  0.0368  0.0000  0.0000  0.2694  0.0000  0.0994  0.0000 </r>
       </set>
       <set comment="band 6">
        <r>  0.0000  0.0000  0.0368  0.0000  0.0000  0.2694  0.0000  0.0994  0.0000 </r>
        <r>  0.0166  0.0336  0.0000  0.1008  0.0860  0.0000  0.0476  0.0000  0.1737 </r>
       </set>
       <set comment="band 7">
        <r>  0.0007  0.0083  0.0000  0.0224  0.1481  0.0000  0.0176  0.0000  0.3341 </r>
        <r>  0.0000  0.0000  0.0048  0.0000  0.0000  0.2813  0.0000  0.1395  0.0000 </r>
       </set>
       <set comment="band 8">
        <r>  0.0000  0.0000  0.0048  0.0000  0.0000  0.2813  0.0000  0.1395  0.0000 </r>
        <r>  0.0007  0.0083  0.0000  0.0224  0.1481  0.0000  0.0176  0.0000  0.3341 </r>
       </set>
       <set comment="band 9">
        <r>  0.0007  0.0010  0.0000  0.0003  0.0436  0.0000  0.6158  0.0000  0.0395 </r>
        <r>  0.0000  0.0000  0.0012  0.0000  0.0000  0.1180  0.0000  0.1666  0.0000 </r>
       </set>
       <set comment="band 10">
        <r>  0.0000  0.0000  0.0012  0.0000  0.0000  0.1180  0.0000  0.1666  0.0000 </r>
        <r>  0.0007  0.0010  0.0000  0.0003  0.0436  0.0000  0.6158  0.0000  0.0395 </r>
       </set>
       <set comment="band 11">
        <r>  0.0089  0.0798  0.0000  0.2270  0.1031  0.0000  0.0074  0.0000  0.2429 </r>
        <r>  0.0000  0.0000  0.0988  0.0000  0.0000  0.0336  0.0000  0.0314  0.0000 </r>
       </set>
       <set comment="band 12">
        <r>  0.0000  0.0000  0.0988  0.0000  0.0000  0.0336  0.0000  0.0314  0.0000 </r>
        <r>  0.0089  0.0798  0.0000  0.2270  0.1031  0.0000  0.0074  0.0000  0.2429 </r>
       </set>
       <set comment="band 13">
        <r>  0.2838  0.0661  0.0000  0.0372  0.1641  0.0000  0.0132  0.0000  0.0592 </r>
        <r>  0.0000  0.0000  0.0267  0.0000  0.0000  0.0512  0.0000  0.1527  0.0000 </r>
       </set>
       <set comment="band 14">
        <r>  0.0000  0.0000  0.0267  0.0000  0.0000  0.0512  0.0000  0.1527  0.0000 </r>
        <r>  0.2838  0.0661  0.0000  0.0372  0.1641  0.0000  0.0132  0.0000  0.0592 </r>
       </set>
       <set comment="band 15">
        <r>  0.2107  0.1909  0.0000  0.0640  0.0666  0.0000  0.0365  0.0000  0.0223 </r>
        <r>  0.0000  0.0000  0.0213  0.0000  0.0000  0.1155  0.0000  0.0478  0.0000 </r>
       </set>
       <set comment="band 16">
        <r>  0.0000  0.0000  0.0213  0.0000  0.0000  0.1155  0.0000  0.0478  0.0000 </r>
        <r>  0.2107  0.1909  0.0000  0.0640  0.0666  0.0000  0.0365  0.0000  0.0223 </r>
       </set>
      </set>
      <set comment="kpoint 70">
       <set comment="band 1">
        <r>  0.0504  0.0357  0.0000  0.0290  0.0696  0.0000  0.0900  0.0000  0.0791 </r>
        <r>  0.0000  0.0000  0.0021  0.0000  0.0000  0.3763  0.0000  0.1256  0.0000 </r>
       </set>
       <set comment="band 2">
        <r>  0.0000  0.0000  0.0021  0.0000  0.0000  0.3763  0.0000  0.1256  0.0000 </r>
        <r>  0.0504  0.0357  0.0000  0.0290  0.0696  0.0000  0.0900  0.0000  0.0791 </r>
       </set>
       <set comment="band 3">
        <r>  0.0253  0.0174  0.0000  0.0367  0.0652  0.0000  0.1493  0.0000  0.1824 </r>
        <r>  0.0000  0.0000  0.0050  0.0000  0.0000  0.1095  0.0000  0.3005  0.0000 </r>
       </set>
       <set comment="band 4">
        <r>  0.0000  0.0000  0.0050  0.0000  0.0000  0.1095  0.0000  0.3005  0.0000 </r>
        <r>  0.0253  0.0174  0.0000  0.0367  0.0652  0.0000  0.1493  0.0000  0.1824 </r>
       </set>
       <set comment="band 5">
        <r>  0.0008  0.0819  0.0000  0.0470  0.3100  0.0000  0.0463  0.0000  0.2931 </r>
        <r>  0.0000  0.0000  0.0402  0.0000  0.0000  0.0165  0.0000  0.0495  0.0000 </r>
       </set>
       <set comment="band 6">
        <r>  0.0000  0.0000  0.0402  0.0000  0.0000  0.0165  0.0000  0.0495  0.0000 </r>
        <r>  0.0008  0.0819  0.0000  0.0470  0.3100  0.0000  0.0463  0.0000  0.2931 </r>
       </set>
       <set comment="band 7">
        <r>  0.0026  0.0055  0.0000  0.0023  0.2689  0.0000  0.0152  0.0000  0.2092 </r>
        <r>  0.0000  0.0000  0.0003  0.0000  0.0000  0.1892  0.0000  0.2684  0.0000 </r>
       </set>
       <set comment="band 8">
        <r>  0.0000  0.0000  0.0003  0.0000  0.0000  0.1892  0.0000  0.2684  0.0000 </r>
        <r>  0.0026  0.0055  0.0000  0.0023  0.2689  0.0000  0.0152  0.0000  0.2092 </r>
       </set>
       <set comment="band 9">
        <r>  0.0020  0.0009  0.0000  0.0003  0.0246  0.0000  0.6587  0.0000  0.0104 </r>
        <r>  0.0000  0.0000  0.0006  0.0000  0.0000  0.1605  0.0000  0.1279  0.0000 </r>
       </set>
       <set comment="band 10">
        <r>  0.0000  0.0000  0.0006  0.0000  0.0000  0.1605  0.0000  0.1279  0.0000 </r>
        <r>  0.0020  0.0009  0.0000  0.0003  0.0246  0.0000  0.6587  0.0000  0.0104 </r>
       </set>
       <set comment="band 11">
        <r>  0.0351  0.2014  0.0000  0.0801  0.2421  0.0000  0.0005  0.0000  0.1056 </r>
        <r>  0.0000  0.0000  0.1125  0.0000  0.0000  0.0451  0.0000  0.0187  0.0000 </r>
       </set>
       <set comment="band 12">
        <r>  0.0000  0.0000  0.1125  0.0000  0.0000  0.0451  0.0000  0.0187  0.0000 </r>
        <r>  0.0351  0.2014  0.0000  0.0801  0.2421  0.0000  0.0005  0.0000  0.1056 </r>
       </set>
       <set comment="band 13">
        <r>  0.0058  0.0940  0.0000  0.2365  0.0789  0.0000  0.0000  0.0000  0.2120 </r>
        <r>  0.0000  0.0000  0.0432  0.0000  0.0000  0.0774  0.0000  0.0553  0.0000 </r>
       </set>
       <set comment="band 14">
        <r>  0.0000  0.0000  0.0432  0.0000  0.0000  0.0774  0.0000  0.0553  0.0000 </r>
        <r>  0.0058  0.0940  0.0000  0.2365  0.0789  0.0000  0.0000  0.0000  0.2120 </r>
       </set>
       <set comment="band 15">
        <r>  0.4868  0.0386  0.0000  0.0130  0.0021  0.0000  0.0469  0.0000  0.0008 </r>
        <r>  0.0000  0.0000  0.0019  0.0000  0.0000  0.1024  0.0000  0.1305  0.0000 </r>
       </set>
       <set comment="band 16">
        <r>  0.0000  0.0000  0.0019  0.0000  0.0000  0.1024  0.0000  0.1305  0.0000 </r>
        <r>  0.4868  0.0386  0.0000  0.0130  0.0021  0.0000  0.0469  0.0000  0.0008 </r>
       </set>
      </set>
     </set>
    </set>
   </array>
  </projected>
 </calculation>
 <structure name="finalpos" >
  <crystal>
   <varray name="basis" >
    <v>       2.51985666       0.00000000       0.00000000 </v>
    <v>      -1.25992833       2.18225988       0.00000000 </v>
    <v>       0.00000000       0.00000000       4.07702552 </v>
   </varray>
   <i name="volume">     22.41949042 </i>
   <varray name="rec_basis" >
    <v>       0.39684797       0.22912028       0.00000000 </v>
    <v>       0.00000000       0.45824056       0.00000000 </v>
    <v>       0.00000000       0.00000000       0.24527686 </v>
   </varray>
  </crystal>
  <varray name="positions" >
   <v>       0.00000000       0.00000000       0.00000000 </v>
   <v>       0.33333333       0.66666667       0.50000000 </v>
  </varray>
 </structure>
</modeling>
