   1   1   0   0
  0.1529075E+02  0.2786001E-09  0.2786001E-09  0.2786001E-09  0.5000000E-15
  1.000000000000000E-004
  CAR 
 Pt-fcc                                  
     68.28346056    -46.34581268  301     11.79191239      1.00000000
    -46.346  0.0000E+00  0.0000E+00
    -45.964  0.0000E+00  0.0000E+00
    -45.582  0.0000E+00  0.0000E+00
    -45.200  0.0000E+00  0.0000E+00
    -44.817  0.0000E+00  0.0000E+00
    -44.435  0.0000E+00  0.0000E+00
    -44.053  0.0000E+00  0.0000E+00
    -43.671  0.0000E+00  0.0000E+00
    -43.289  0.0000E+00  0.0000E+00
    -42.907  0.0000E+00  0.0000E+00
    -42.525  0.0000E+00  0.0000E+00
    -42.143  0.0000E+00  0.0000E+00
    -41.761  0.0000E+00  0.0000E+00
    -41.379  0.4516E-12  0.1725E-12
    -40.996  0.4042E+01  0.1545E+01
    -40.614  0.1147E+02  0.5999E+01
    -40.232  0.0000E+00  0.6000E+01
    -39.850  0.0000E+00  0.6000E+01
    -39.468  0.0000E+00  0.6000E+01
    -39.086  0.0000E+00  0.6000E+01
    -38.704  0.0000E+00  0.6000E+01
    -38.322  0.0000E+00  0.6000E+01
    -37.940  0.0000E+00  0.6000E+01
    -37.558  0.0000E+00  0.6000E+01
    -37.175  0.0000E+00  0.6000E+01
    -36.793  0.0000E+00  0.6000E+01
    -36.411  0.0000E+00  0.6000E+01
    -36.029  0.0000E+00  0.6000E+01
    -35.647  0.0000E+00  0.6000E+01
    -35.265  0.0000E+00  0.6000E+01
    -34.883  0.0000E+00  0.6000E+01
    -34.501  0.0000E+00  0.6000E+01
    -34.119  0.0000E+00  0.6000E+01
    -33.737  0.0000E+00  0.6000E+01
    -33.354  0.0000E+00  0.6000E+01
    -32.972  0.0000E+00  0.6000E+01
    -32.590  0.0000E+00  0.6000E+01
    -32.208  0.0000E+00  0.6000E+01
    -31.826  0.0000E+00  0.6000E+01
    -31.444  0.0000E+00  0.6000E+01
    -31.062  0.0000E+00  0.6000E+01
    -30.680  0.0000E+00  0.6000E+01
    -30.298  0.0000E+00  0.6000E+01
    -29.916  0.0000E+00  0.6000E+01
    -29.534  0.0000E+00  0.6000E+01
    -29.151  0.0000E+00  0.6000E+01
    -28.769  0.0000E+00  0.6000E+01
    -28.387  0.0000E+00  0.6000E+01
    -28.005  0.0000E+00  0.6000E+01
    -27.623  0.0000E+00  0.6000E+01
    -27.241  0.0000E+00  0.6000E+01
    -26.859  0.0000E+00  0.6000E+01
    -26.477  0.0000E+00  0.6000E+01
    -26.095  0.0000E+00  0.6000E+01
    -25.713  0.0000E+00  0.6000E+01
    -25.330  0.0000E+00  0.6000E+01
    -24.948  0.0000E+00  0.6000E+01
    -24.566  0.0000E+00  0.6000E+01
    -24.184  0.0000E+00  0.6000E+01
    -23.802  0.0000E+00  0.6000E+01
    -23.420  0.0000E+00  0.6000E+01
    -23.038  0.0000E+00  0.6000E+01
    -22.656  0.0000E+00  0.6000E+01
    -22.274  0.0000E+00  0.6000E+01
    -21.892  0.0000E+00  0.6000E+01
    -21.509  0.0000E+00  0.6000E+01
    -21.127  0.0000E+00  0.6000E+01
    -20.745  0.0000E+00  0.6000E+01
    -20.363  0.0000E+00  0.6000E+01
    -19.981  0.0000E+00  0.6000E+01
    -19.599  0.0000E+00  0.6000E+01
    -19.217  0.0000E+00  0.6000E+01
    -18.835  0.0000E+00  0.6000E+01
    -18.453  0.0000E+00  0.6000E+01
    -18.071  0.0000E+00  0.6000E+01
    -17.688  0.0000E+00  0.6000E+01
    -17.306  0.0000E+00  0.6000E+01
    -16.924  0.0000E+00  0.6000E+01
    -16.542  0.0000E+00  0.6000E+01
    -16.160  0.0000E+00  0.6000E+01
    -15.778  0.0000E+00  0.6000E+01
    -15.396  0.0000E+00  0.6000E+01
    -15.014  0.0000E+00  0.6000E+01
    -14.632  0.0000E+00  0.6000E+01
    -14.250  0.0000E+00  0.6000E+01
    -13.868  0.0000E+00  0.6000E+01
    -13.485  0.0000E+00  0.6000E+01
    -13.103  0.0000E+00  0.6000E+01
    -12.721  0.0000E+00  0.6000E+01
    -12.339  0.0000E+00  0.6000E+01
    -11.957  0.0000E+00  0.6000E+01
    -11.575  0.0000E+00  0.6000E+01
    -11.193  0.0000E+00  0.6000E+01
    -10.811  0.0000E+00  0.6000E+01
    -10.429  0.0000E+00  0.6000E+01
    -10.047  0.0000E+00  0.6000E+01
     -9.664  0.0000E+00  0.6000E+01
     -9.282  0.0000E+00  0.6000E+01
     -8.900  0.0000E+00  0.6000E+01
     -8.518  0.0000E+00  0.6000E+01
     -8.136  0.0000E+00  0.6000E+01
     -7.754  0.0000E+00  0.6000E+01
     -7.372  0.0000E+00  0.6000E+01
     -6.990  0.0000E+00  0.6000E+01
     -6.608  0.0000E+00  0.6000E+01
     -6.226  0.0000E+00  0.6000E+01
     -5.843  0.0000E+00  0.6000E+01
     -5.461  0.0000E+00  0.6000E+01
     -5.079  0.0000E+00  0.6000E+01
     -4.697  0.0000E+00  0.6000E+01
     -4.315  0.0000E+00  0.6000E+01
     -3.933  0.0000E+00  0.6000E+01
     -3.551  0.0000E+00  0.6000E+01
     -3.169  0.0000E+00  0.6000E+01
     -2.787  0.0000E+00  0.6000E+01
     -2.405  0.0000E+00  0.6000E+01
     -2.022  0.0000E+00  0.6000E+01
     -1.640  0.0000E+00  0.6000E+01
     -1.258  0.0000E+00  0.6000E+01
     -0.876  0.0000E+00  0.6000E+01
     -0.494  0.0000E+00  0.6000E+01
     -0.112  0.0000E+00  0.6000E+01
      0.270  0.0000E+00  0.6000E+01
      0.652  0.0000E+00  0.6000E+01
      1.034  0.0000E+00  0.6000E+01
      1.416  0.0000E+00  0.6000E+01
      1.798  0.1802E-07  0.6000E+01
      2.181  0.4847E-01  0.6019E+01
      2.563  0.1153E-03  0.6019E+01
      2.945  0.1453E+00  0.6074E+01
      3.327  0.1199E+00  0.6120E+01
      3.709  0.1234E-01  0.6134E+01
      4.091  0.1815E+00  0.6204E+01
      4.473  0.3532E+00  0.6339E+01
      4.855  0.4069E+00  0.6495E+01
      5.237  0.7922E+00  0.6803E+01
      5.619  0.1079E+01  0.7247E+01
      6.002  0.1507E+01  0.7823E+01
      6.384  0.1263E+01  0.8316E+01
      6.766  0.8788E+00  0.8652E+01
      7.148  0.1270E+01  0.9166E+01
      7.530  0.1661E+01  0.9808E+01
      7.912  0.1052E+01  0.1024E+02
      8.294  0.1884E+01  0.1096E+02
      8.676  0.2422E+01  0.1189E+02
      9.058  0.1295E+01  0.1242E+02
      9.440  0.9257E+00  0.1278E+02
      9.823  0.1338E+01  0.1330E+02
     10.205  0.1600E+01  0.1391E+02
     10.587  0.9773E+00  0.1428E+02
     10.969  0.1620E+01  0.1490E+02
     11.351  0.6679E+00  0.1516E+02
     11.733  0.1932E+01  0.1593E+02
     12.115  0.1316E+01  0.1644E+02
     12.497  0.8475E+00  0.1678E+02
     12.879  0.8974E-11  0.1678E+02
     13.261  0.1454E+00  0.1683E+02
     13.644  0.4390E+00  0.1700E+02
     14.026  0.4171E+00  0.1716E+02
     14.408  0.1453E+00  0.1722E+02
     14.790  0.1308E+00  0.1727E+02
     15.172  0.3054E+00  0.1739E+02
     15.554  0.2908E+00  0.1750E+02
     15.936  0.2388E+00  0.1759E+02
     16.318  0.2901E+00  0.1772E+02
     16.700  0.2908E+00  0.1783E+02
     17.082  0.0000E+00  0.1783E+02
     17.464  0.1143E+00  0.1788E+02
     17.847  0.8682E+00  0.1822E+02
     18.229  0.1423E+00  0.1828E+02
     18.611  0.0000E+00  0.1828E+02
     18.993  0.2483E-02  0.1828E+02
     19.375  0.1064E+01  0.1869E+02
     19.757  0.2908E+00  0.1880E+02
     20.139  0.1814E+00  0.1887E+02
     20.521  0.2549E+00  0.1896E+02
     20.903  0.1453E+00  0.1902E+02
     21.285  0.2909E+00  0.1913E+02
     21.668  0.5275E+00  0.1933E+02
     22.050  0.2908E+00  0.1946E+02
     22.432  0.3972E-06  0.1946E+02
     22.814  0.7153E+00  0.1974E+02
     23.196  0.2596E+00  0.1984E+02
     23.578  0.5431E+00  0.2006E+02
     23.960  0.5816E+00  0.2030E+02
     24.342  0.9289E-01  0.2033E+02
     24.724  0.4899E+00  0.2052E+02
     25.106  0.3380E+00  0.2065E+02
     25.489  0.8586E+00  0.2098E+02
     25.871  0.1681E+00  0.2105E+02
     26.253  0.7069E+00  0.2132E+02
     26.635  0.7727E+00  0.2161E+02
     27.017  0.3923E+00  0.2176E+02
     27.399  0.1401E+01  0.2230E+02
     27.781  0.4548E+00  0.2247E+02
     28.163  0.3156E+00  0.2259E+02
     28.545  0.8720E+00  0.2293E+02
     28.927  0.8736E+00  0.2326E+02
     29.310  0.1472E+00  0.2332E+02
     29.692  0.4326E+00  0.2348E+02
     30.074  0.4770E-01  0.2350E+02
     30.456  0.7358E+00  0.2378E+02
     30.838  0.9604E+00  0.2415E+02
     31.220  0.3166E+00  0.2427E+02
     31.602  0.7584E+00  0.2458E+02
     31.984  0.6611E+00  0.2485E+02
     32.366  0.8533E+00  0.2518E+02
     32.748  0.5670E+00  0.2540E+02
     33.130  0.5747E+00  0.2562E+02
     33.513  0.6030E+00  0.2585E+02
     33.895  0.1416E+00  0.2591E+02
     34.277  0.1852E+00  0.2598E+02
     34.659  0.4184E+00  0.2616E+02
     35.041  0.5494E+00  0.2638E+02
     35.423  0.7753E+00  0.2669E+02
     35.805  0.2898E+00  0.2680E+02
     36.187  0.3861E+00  0.2694E+02
     36.569  0.2545E+00  0.2704E+02
     36.951  0.7469E+00  0.2734E+02
     37.334  0.6710E+00  0.2760E+02
     37.716  0.4334E+00  0.2778E+02
     38.098  0.4854E+00  0.2796E+02
     38.480  0.8280E+00  0.2828E+02
     38.862  0.6882E+00  0.2856E+02
     39.244  0.1143E+01  0.2901E+02
     39.626  0.1465E+01  0.2957E+02
     40.008  0.9235E+00  0.2996E+02
     40.390  0.3617E+00  0.3010E+02
     40.772  0.1091E+01  0.3052E+02
     41.155  0.4699E+00  0.3070E+02
     41.537  0.5915E+00  0.3094E+02
     41.919  0.8099E+00  0.3125E+02
     42.301  0.1212E+01  0.3171E+02
     42.683  0.5010E+00  0.3191E+02
     43.065  0.2859E+00  0.3202E+02
     43.447  0.8319E+00  0.3234E+02
     43.829  0.1510E+01  0.3291E+02
     44.211  0.6157E+00  0.3315E+02
     44.593  0.4685E+00  0.3333E+02
     44.976  0.6330E+00  0.3357E+02
     45.358  0.2908E+00  0.3369E+02
     45.740  0.2908E+00  0.3380E+02
     46.122  0.6371E+00  0.3404E+02
     46.504  0.5323E+00  0.3424E+02
     46.886  0.1005E+01  0.3463E+02
     47.268  0.1446E+01  0.3518E+02
     47.650  0.1201E+01  0.3565E+02
     48.032  0.1051E+01  0.3606E+02
     48.414  0.6475E+00  0.3632E+02
     48.796  0.5709E+00  0.3655E+02
     49.179  0.1075E+01  0.3696E+02
     49.561  0.1565E+01  0.3756E+02
     49.943  0.6267E+00  0.3783E+02
     50.325  0.1103E+01  0.3825E+02
     50.707  0.2956E+00  0.3836E+02
     51.089  0.4363E+00  0.3854E+02
     51.471  0.7028E+00  0.3881E+02
     51.853  0.1307E+01  0.3931E+02
     52.235  0.9929E-01  0.3935E+02
     52.617  0.6300E+01  0.4176E+02
     53.000  0.9695E+00  0.4213E+02
     53.382  0.6997E+00  0.4241E+02
     53.764  0.1077E+01  0.4282E+02
     54.146  0.7540E+00  0.4311E+02
     54.528  0.7532E+00  0.4340E+02
     54.910  0.1086E+01  0.4381E+02
     55.292  0.1020E+01  0.4420E+02
     55.674  0.2412E+00  0.4430E+02
     56.056  0.1116E+01  0.4472E+02
     56.438  0.1615E+00  0.4478E+02
     56.821  0.9513E+00  0.4515E+02
     57.203  0.1399E+01  0.4568E+02
     57.585  0.5359E+00  0.4589E+02
     57.967  0.8268E+00  0.4621E+02
     58.349  0.1188E+01  0.4666E+02
     58.731  0.6165E+00  0.4690E+02
     59.113  0.1044E+01  0.4730E+02
     59.495  0.3782E+00  0.4744E+02
     59.877  0.2289E+00  0.4755E+02
     60.259  0.1026E-02  0.4757E+02
     60.642  0.1928E+00  0.4765E+02
     61.024  0.2911E+00  0.4776E+02
     61.406  0.1324E+00  0.4781E+02
     61.788  0.2067E+00  0.4789E+02
     62.170  0.1453E+00  0.4794E+02
     62.552  0.0000E+00  0.4794E+02
     62.934  0.6177E-05  0.4794E+02
     63.316  0.1454E+00  0.4800E+02
     63.698  0.0000E+00  0.4800E+02
     64.080  0.0000E+00  0.4800E+02
     64.462  0.0000E+00  0.4800E+02
     64.845  0.0000E+00  0.4800E+02
     65.227  0.0000E+00  0.4800E+02
     65.609  0.0000E+00  0.4800E+02
     65.991  0.0000E+00  0.4800E+02
     66.373  0.0000E+00  0.4800E+02
     66.755  0.0000E+00  0.4800E+02
     67.137  0.0000E+00  0.4800E+02
     67.519  0.0000E+00  0.4800E+02
     67.901  0.0000E+00  0.4800E+02
     68.283  0.0000E+00  0.4800E+02
