<?xml version="1.0" encoding="ISO-8859-1"?>
<modeling>
 <generator>
  <i name="program" type="string">vasp </i>
  <i name="version" type="string">6.3.2  </i>
  <i name="subversion" type="string">27Jun22 (build Aug 12 2022 00:53:59) complex                          parallel </i>
  <i name="platform" type="string">tv2STD </i>
  <i name="date" type="string">2024 11 30 </i>
  <i name="time" type="string">15:52:09 </i>
 </generator>
 <incar>
  <i type="string" name="SYSTEM">Pt-fcc</i>
  <i type="int" name="ISTART">     0</i>
  <i type="string" name="PREC">Accurate      normal | accurate</i>
  <i type="string" name="ALGO">Normal     Normal, Fast, Very_Fast</i>
  <i type="logical" name="ADDGRID"> F  </i>
  <i type="int" name="ICHARG">     2</i>
  <i type="int" name="INIWAV">     1</i>
  <i type="int" name="NELM">   100</i>
  <i type="int" name="IBRION">    -1</i>
  <i name="EDIFF">      0.00000100</i>
  <i name="EDIFFG">     -0.02000000</i>
  <i type="int" name="NSW">     0</i>
  <i type="int" name="ISIF">     2</i>
  <i type="int" name="ISYM">     1</i>
  <i name="ENCUT">    500.00000000</i>
  <i type="logical" name="LREAL"> F  </i>
  <i type="int" name="ISMEAR">     0</i>
  <i name="SIGMA">      0.05000000</i>
  <i type="int" name="NWRITE">     2</i>
  <i type="logical" name="LWAVE"> F  </i>
  <i type="logical" name="LCHARG"> F  </i>
 </incar>
 <primitive_cell>
  <structure name="primitive_cell" >
   <crystal>
    <varray name="basis" >
     <v>       0.00000000       1.97000000       1.97000000 </v>
     <v>       1.97000000       0.00000000       1.97000000 </v>
     <v>       1.97000000       1.97000000       0.00000000 </v>
    </varray>
    <i name="volume">     15.29074600 </i>
    <varray name="rec_basis" >
     <v>      -0.25380711       0.25380711       0.25380711 </v>
     <v>       0.25380711      -0.25380711       0.25380711 </v>
     <v>       0.25380711       0.25380711      -0.25380711 </v>
    </varray>
   </crystal>
   <varray name="positions" >
    <v>       0.00000000       0.00000000       0.00000000 </v>
   </varray>
  </structure>
  <varray name="primitive_index" >
   <v type="int" >        1 </v>
  </varray>
 </primitive_cell>
 <kpoints>
  <generation param="Monkhorst-Pack">
   <v type="int" name="divisions">       6        6        6 </v>
   <v name="usershift">      0.00000000       0.00000000       0.00000000 </v>
   <v name="genvec1">      0.16666667       0.00000000       0.00000000 </v>
   <v name="genvec2">      0.00000000       0.16666667       0.00000000 </v>
   <v name="genvec3">      0.00000000       0.00000000       0.16666667 </v>
   <v name="shift">      0.50000000       0.50000000       0.50000000 </v>
  </generation>
  <varray name="kpointlist" >
   <v>       0.08333333       0.08333333       0.08333333 </v>
   <v>       0.25000000       0.08333333       0.08333333 </v>
   <v>       0.41666667       0.08333333       0.08333333 </v>
   <v>      -0.41666667       0.08333333       0.08333333 </v>
   <v>      -0.25000000       0.08333333       0.08333333 </v>
   <v>      -0.08333333       0.08333333       0.08333333 </v>
   <v>       0.25000000       0.25000000       0.08333333 </v>
   <v>       0.41666667       0.25000000       0.08333333 </v>
   <v>      -0.41666667       0.25000000       0.08333333 </v>
   <v>      -0.25000000       0.25000000       0.08333333 </v>
   <v>      -0.08333333       0.25000000       0.08333333 </v>
   <v>       0.41666667       0.41666667       0.08333333 </v>
   <v>      -0.41666667       0.41666667       0.08333333 </v>
   <v>      -0.25000000       0.41666667       0.08333333 </v>
   <v>      -0.08333333       0.41666667       0.08333333 </v>
   <v>      -0.41666667      -0.41666667       0.08333333 </v>
   <v>      -0.25000000      -0.41666667       0.08333333 </v>
   <v>      -0.25000000      -0.25000000       0.08333333 </v>
   <v>       0.25000000       0.25000000       0.25000000 </v>
   <v>       0.41666667       0.25000000       0.25000000 </v>
   <v>      -0.41666667       0.25000000       0.25000000 </v>
   <v>      -0.25000000       0.25000000       0.25000000 </v>
   <v>       0.41666667       0.41666667       0.25000000 </v>
   <v>      -0.41666667       0.41666667       0.25000000 </v>
   <v>      -0.25000000       0.41666667       0.25000000 </v>
   <v>      -0.41666667      -0.41666667       0.25000000 </v>
   <v>       0.41666667       0.41666667       0.41666667 </v>
   <v>      -0.41666667       0.41666667       0.41666667 </v>
  </varray>
  <varray name="weights" >
   <v>       0.00925926 </v>
   <v>       0.02777778 </v>
   <v>       0.02777778 </v>
   <v>       0.02777778 </v>
   <v>       0.02777778 </v>
   <v>       0.02777778 </v>
   <v>       0.02777778 </v>
   <v>       0.05555556 </v>
   <v>       0.05555556 </v>
   <v>       0.05555556 </v>
   <v>       0.05555556 </v>
   <v>       0.02777778 </v>
   <v>       0.05555556 </v>
   <v>       0.05555556 </v>
   <v>       0.05555556 </v>
   <v>       0.02777778 </v>
   <v>       0.05555556 </v>
   <v>       0.02777778 </v>
   <v>       0.00925926 </v>
   <v>       0.02777778 </v>
   <v>       0.02777778 </v>
   <v>       0.02777778 </v>
   <v>       0.02777778 </v>
   <v>       0.05555556 </v>
   <v>       0.05555556 </v>
   <v>       0.02777778 </v>
   <v>       0.00925926 </v>
   <v>       0.02777778 </v>
  </varray>
 </kpoints>
 <parameters>
  <separator name="general" >
   <i type="string" name="SYSTEM">Pt-fcc</i>
   <i type="logical" name="LCOMPAT"> F  </i>
  </separator>
  <separator name="electronic" >
   <i type="string" name="PREC">accura</i>
   <i name="ENMAX">    500.00000000</i>
   <i name="ENAUG">    527.01400000</i>
   <i name="EDIFF">      0.00000100</i>
   <i type="int" name="IALGO">    38</i>
   <i type="int" name="IWAVPR">    10</i>
   <i type="int" name="NBANDS">    24</i>
   <i type="int" name="NBANDSLOW">    -1</i>
   <i type="int" name="NBANDSHIGH">    -1</i>
   <i name="NELECT">     16.00000000</i>
   <i type="int" name="TURBO">     0</i>
   <i type="int" name="IRESTART">     0</i>
   <i type="int" name="NREBOOT">     0</i>
   <i type="int" name="NMIN">     0</i>
   <i name="EREF">      0.00000000</i>
   <separator name="electronic smearing" >
    <i type="int" name="ISMEAR">     0</i>
    <i name="SIGMA">      0.05000000</i>
    <i name="KSPACING">      0.50000000</i>
    <i type="logical" name="KGAMMA"> T  </i>
    <i type="logical" name="KBLOWUP"> T  </i>
   </separator>
   <separator name="electronic projectors" >
    <i type="logical" name="LREAL"> F  </i>
    <v name="ROPT">      0.00000000</v>
    <i type="int" name="LMAXPAW">  -100</i>
    <i type="int" name="LMAXMIX">     2</i>
    <i type="logical" name="NLSPLINE"> F  </i>
   </separator>
   <separator name="electronic startup" >
    <i type="int" name="ISTART">     0</i>
    <i type="int" name="ICHARG">     2</i>
    <i type="int" name="INIWAV">     1</i>
   </separator>
   <separator name="electronic spin" >
    <i type="int" name="ISPIN">     1</i>
    <i type="logical" name="LNONCOLLINEAR"> F  </i>
    <v name="MAGMOM">      1.00000000</v>
    <i name="NUPDOWN">     -1.00000000</i>
    <i type="logical" name="LSORBIT"> F  </i>
    <v name="SAXIS">      0.00000000      0.00000000      1.00000000</v>
    <i type="logical" name="LSPIRAL"> F  </i>
    <v name="QSPIRAL">      0.00000000      0.00000000      0.00000000</v>
    <i type="logical" name="LZEROZ"> F  </i>
   </separator>
   <separator name="electronic exchange-correlation" >
    <i type="logical" name="LASPH"> F  </i>
    <i type="logical" name="LMETAGGA"> F  </i>
   </separator>
   <separator name="electronic convergence" >
    <i type="int" name="NELM">   100</i>
    <i type="int" name="NELMDL">    -5</i>
    <i type="int" name="NELMIN">     2</i>
    <i name="ENINI">    500.00000000</i>
    <separator name="electronic convergence detail" >
     <i type="logical" name="LDIAG"> T  </i>
     <i type="logical" name="LSUBROT"> F  </i>
     <i name="WEIMIN">      0.00000000</i>
     <i name="EBREAK">      0.00000001</i>
     <i name="DEPER">      0.30000000</i>
     <i type="int" name="NRMM">     4</i>
     <i name="TIME">      0.40000000</i>
    </separator>
   </separator>
   <separator name="electronic mixer" >
    <i name="AMIX">      0.40000000</i>
    <i name="BMIX">      1.00000000</i>
    <i name="AMIN">      0.10000000</i>
    <i name="AMIX_MAG">      1.60000000</i>
    <i name="BMIX_MAG">      1.00000000</i>
    <separator name="electronic mixer details" >
     <i type="int" name="IMIX">     4</i>
     <i type="logical" name="MIXFIRST"> F  </i>
     <i type="int" name="MAXMIX">   -45</i>
     <i name="WC">    100.00000000</i>
     <i type="int" name="INIMIX">     1</i>
     <i type="int" name="MIXPRE">     1</i>
     <i type="int" name="MREMOVE">     5</i>
    </separator>
   </separator>
   <separator name="electronic dipolcorrection" >
    <i type="logical" name="LDIPOL"> F  </i>
    <i type="logical" name="LMONO"> F  </i>
    <i type="int" name="IDIPOL">     0</i>
    <i name="EPSILON">      1.00000000</i>
    <v name="DIPOL">   -100.00000000   -100.00000000   -100.00000000</v>
    <i name="EFIELD">      0.00000000</i>
   </separator>
  </separator>
  <separator name="grids" >
   <i type="int" name="NGX">    20</i>
   <i type="int" name="NGY">    20</i>
   <i type="int" name="NGZ">    20</i>
   <i type="int" name="NGXF">    40</i>
   <i type="int" name="NGYF">    40</i>
   <i type="int" name="NGZF">    40</i>
   <i type="logical" name="ADDGRID"> F  </i>
  </separator>
  <separator name="ionic" >
   <i type="int" name="NSW">     0</i>
   <i type="int" name="IBRION">    -1</i>
   <i type="int" name="MDALGO">     0</i>
   <i type="int" name="ISIF">     2</i>
   <i name="PSTRESS">      0.00000000</i>
   <i name="EDIFFG">     -0.02000000</i>
   <i type="int" name="NFREE">     0</i>
   <i name="POTIM">      0.50000000</i>
   <i name="SMASS">     -3.00000000</i>
   <i name="SCALEE">      1.00000000</i>
  </separator>
  <separator name="ionic md" >
   <i name="TEBEG">      0.00010000</i>
   <i name="TEEND">      0.00010000</i>
   <i type="int" name="NBLOCK">     1</i>
   <i type="int" name="KBLOCK">     1</i>
   <i type="int" name="NPACO">   256</i>
   <i name="APACO">     10.00000000</i>
  </separator>
  <separator name="symmetry" >
   <i type="int" name="ISYM">     1</i>
   <i name="SYMPREC">      0.00001000</i>
  </separator>
  <separator name="dos" >
   <i type="int" name="LORBIT">     0</i>
   <v name="RWIGS">     -1.00000000</v>
   <i type="int" name="NEDOS">   301</i>
   <i name="EMIN">     10.00000000</i>
   <i name="EMAX">    -10.00000000</i>
   <i name="EFERMI">      0.00000000</i>
  </separator>
  <separator name="writing" >
   <i type="int" name="NWRITE">     2</i>
   <i type="logical" name="LWAVE"> F  </i>
   <i type="logical" name="LDOWNSAMPLE"> F  </i>
   <i type="logical" name="LCHARG"> F  </i>
   <i type="logical" name="LPARD"> F  </i>
   <i type="logical" name="LVTOT"> F  </i>
   <i type="logical" name="LVHAR"> F  </i>
   <i type="logical" name="LELF"> F  </i>
   <i type="logical" name="LOPTICS"> F  </i>
   <v name="STM">      0.00000000      0.00000000      0.00000000      0.00000000      0.00000000      0.00000000      0.00000000</v>
  </separator>
  <separator name="performance" >
   <i type="int" name="NPAR">    24</i>
   <i type="int" name="NSIM">     4</i>
   <i type="int" name="NBLK">    -1</i>
   <i type="logical" name="LPLANE"> T  </i>
   <i type="logical" name="LSCALAPACK"> T  </i>
   <i type="logical" name="LSCAAWARE"> T  </i>
   <i type="logical" name="LSCALU"> F  </i>
   <i type="logical" name="LASYNC"> F  </i>
   <i type="logical" name="LORBITALREAL"> F  </i>
  </separator>
  <separator name="miscellaneous" >
   <i type="int" name="IDIOT">     3</i>
   <i type="int" name="PHON_NSTRUCT">    -1</i>
   <i type="logical" name="LMUSIC"> F  </i>
   <v name="POMASS">    195.08000000</v>
   <v name="DARWINR">      0.00000000</v>
   <v name="DARWINV">      1.00000000</v>
   <i type="logical" name="LCORR"> T  </i>
  </separator>
  <i type="logical" name="GGA_COMPAT"> T  </i>
  <i type="logical" name="LBERRY"> F  </i>
  <i type="int" name="ICORELEVEL">     0</i>
  <i type="logical" name="LDAU"> F  </i>
  <i type="int" name="I_CONSTRAINED_M">     0</i>
  <separator name="electronic exchange-correlation" >
   <i type="string" name="GGA">--</i>
   <i type="int" name="VOSKOWN">     0</i>
   <i type="logical" name="LHFCALC"> F  </i>
   <i type="string" name="PRECFOCK"></i>
   <i type="logical" name="LSYMGRAD"> F  </i>
   <i type="logical" name="LHFONE"> F  </i>
   <i type="logical" name="LRHFCALC"> F  </i>
   <i type="logical" name="LTHOMAS"> F  </i>
   <i type="logical" name="LMODELHF"> F  </i>
   <i type="logical" name="LFOCKACE"> F  </i>
   <i name="ENCUT4O">     -1.00000000</i>
   <i type="int" name="EXXOEP">     0</i>
   <i type="int" name="FOURORBIT">     0</i>
   <i name="AEXX">      0.00000000</i>
   <i name="HFALPHA">      0.00000000</i>
   <i name="MCALPHA">      0.00000000</i>
   <i name="ALDAX">      1.00000000</i>
   <i name="AGGAX">      1.00000000</i>
   <i name="ALDAC">      1.00000000</i>
   <i name="AGGAC">      1.00000000</i>
   <i type="int" name="NKREDX">     1</i>
   <i type="int" name="NKREDY">     1</i>
   <i type="int" name="NKREDZ">     1</i>
   <i type="logical" name="SHIFTRED"> F  </i>
   <i type="logical" name="ODDONLY"> F  </i>
   <i type="logical" name="EVENONLY"> F  </i>
   <i type="int" name="LMAXFOCK">     0</i>
   <i type="int" name="NMAXFOCKAE">     0</i>
   <i type="logical" name="LFOCKAEDFT"> F  </i>
   <i name="HFSCREEN">      0.00000000</i>
   <i name="HFSCREENC">      0.00000000</i>
   <i type="int" name="NBANDSGWLOW">     0</i>
  </separator>
  <separator name="vdW DFT" >
   <i type="logical" name="LUSE_VDW"> F  </i>
   <i name="Zab_VDW">     -0.84910000</i>
   <i name="PARAM1">      0.12340000</i>
   <i name="PARAM2">      1.00000000</i>
   <i name="PARAM3">      0.00000000</i>
  </separator>
  <separator name="model GW" >
   <i type="int" name="MODEL_GW">     0</i>
   <i name="MODEL_EPS0">      9.17444760</i>
   <i name="MODEL_ALPHA">      1.00000000</i>
  </separator>
  <separator name="linear response parameters" >
   <i type="logical" name="LEPSILON"> F  </i>
   <i type="logical" name="LRPA"> F  </i>
   <i type="logical" name="LNABLA"> F  </i>
   <i type="logical" name="LVEL"> F  </i>
   <i name="CSHIFT">      0.10000000</i>
   <i name="OMEGAMAX">     -1.00000000</i>
   <i name="DEG_THRESHOLD">      0.00200000</i>
   <i name="RTIME">     -0.10000000</i>
   <i name="WPLASMAI">      0.00000000</i>
   <v name="DFIELD">      0.00000000      0.00000000      0.00000000</v>
   <v name="WPLASMA">      0.00000000      0.00000000      0.00000000      0.00000000      0.00000000      0.00000000      0.00000000      0.00000000      0.00000000</v>
  </separator>
  <separator name="orbital magnetization" >
   <i type="logical" name="NUCIND"> F  </i>
   <v name="MAGPOS">      0.00000000      0.00000000      0.00000000</v>
   <i type="logical" name="LNICSALL"> T  </i>
   <i type="logical" name="ORBITALMAG"> F  </i>
   <i type="logical" name="LMAGBLOCH"> F  </i>
   <i type="logical" name="LCHIMAG"> F  </i>
   <i type="logical" name="LGAUGE"> T  </i>
   <i type="int" name="MAGATOM">     0</i>
   <v name="MAGDIPOL">      0.00000000      0.00000000      0.00000000</v>
   <v name="AVECCONST">      0.00000000      0.00000000      0.00000000</v>
  </separator>
  <separator name="response functions" >
   <i type="logical" name="LFINITE_TEMPERATURE"> F  </i>
   <i type="logical" name="LADDER"> F  </i>
   <i type="logical" name="LRPAFORCE"> F  </i>
   <i type="logical" name="LFXC"> F  </i>
   <i type="logical" name="LHARTREE"> T  </i>
   <i type="int" name="IBSE">     0</i>
   <v type="int" name="KPOINT">    -1     0     0     0</v>
   <i type="logical" name="LTCTC"> F  </i>
   <i type="logical" name="LTCTE"> F  </i>
   <i type="logical" name="LTETE"> F  </i>
   <i type="logical" name="LTRIPLET"> F  </i>
   <i type="logical" name="LFXCEPS"> F  </i>
   <i type="logical" name="LFXHEG"> F  </i>
   <i type="int" name="NATURALO">     2</i>
   <i type="logical" name="LHOLEGF"> F  </i>
   <i type="logical" name="L2ORDER"> F  </i>
   <i type="logical" name="LDMP1"> F  </i>
   <i type="logical" name="LMP2LT"> F  </i>
   <i type="logical" name="LSMP2LT"> F  </i>
   <i type="logical" name="LGWLF"> F  </i>
   <i name="ENCUTGW">     -2.00000000</i>
   <i name="ENCUTGWSOFT">     -2.00000000</i>
   <i name="ENCUTLF">     -1.00000000</i>
   <i type="logical" name="LESF_SPLINES"> F  </i>
   <i type="int" name="LMAXMP2">    -1</i>
   <i name="SCISSOR">      0.00000000</i>
   <i type="int" name="NOMEGA">     0</i>
   <i type="int" name="NOMEGAR">     0</i>
   <i type="int" name="NBANDSGW">    -1</i>
   <i type="int" name="NBANDSO">    -1</i>
   <i type="int" name="NBANDSV">    -1</i>
   <i type="int" name="NELMGW">     1</i>
   <i type="int" name="NELMHF">     1</i>
   <i type="int" name="DIM">     3</i>
   <i type="int" name="IESPILON">     4</i>
   <i type="int" name="ANTIRES">     0</i>
   <i name="OMEGAMAX">    -30.00000000</i>
   <i name="OMEGAMIN">    -30.00000000</i>
   <i name="OMEGATL">   -200.00000000</i>
   <i type="int" name="OMEGAGRID">     0</i>
   <i name="CSHIFT">     -0.10000000</i>
   <i type="logical" name="LSELFENERGY"> F  </i>
   <i type="logical" name="LSPECTRAL"> F  </i>
   <i type="logical" name="LSPECTRALGW"> F  </i>
   <i type="logical" name="LSINGLES"> F  </i>
   <i type="logical" name="LFERMIGW"> F  </i>
   <i type="logical" name="ODDONLYGW"> F  </i>
   <i type="logical" name="EVENONLYGW"> F  </i>
   <i type="int" name="NKREDLFX">     1</i>
   <i type="int" name="NKREDLFY">     1</i>
   <i type="int" name="NKREDLFZ">     1</i>
   <i type="int" name="MAXMEM">  2800</i>
   <i type="int" name="TELESCOPE">     0</i>
   <i type="int" name="NTAUPAR">    -1</i>
   <i type="int" name="NOMEGAPAR">    -1</i>
   <i name="DAMP_NEWTON">      0.80000001</i>
   <i name="LAMBDA">      1.00000000</i>
  </separator>
  <separator name="External order field" >
   <i name="OFIELD_KAPPA">      0.00000000</i>
   <v name="OFIELD_K">      0.00000000      0.00000000      0.00000000</v>
   <i name="OFIELD_Q6_NEAR">      0.00000000</i>
   <i name="OFIELD_Q6_FAR">      0.00000000</i>
   <i name="OFIELD_A">      0.00000000</i>
  </separator>
  <separator name="optional k-points parameters" >
   <i type="int" name="KPOINTS_OPT_MODE">     1</i>
   <i type="logical" name="LKPOINTS_OPT"> F  </i>
  </separator>
 </parameters>
 <atominfo>
  <atoms>       1 </atoms>
  <types>       1 </types>
  <array name="atoms" >
   <dimension dim="1">ion</dimension>
   <field type="string">element</field>
   <field type="int">atomtype</field>
   <set>
    <rc><c>Pt</c><c>   1</c></rc>
   </set>
  </array>
  <array name="atomtypes" >
   <dimension dim="1">type</dimension>
   <field type="int">atomspertype</field>
   <field type="string">element</field>
   <field>mass</field>
   <field>valence</field>
   <field type="string">pseudopotential</field>
   <set>
    <rc><c>   1</c><c>Pt</c><c>    195.08000000</c><c>     16.00000000</c><c>  PAW_PBE Pt_pv 12Dec2005               </c></rc>
   </set>
  </array>
 </atominfo>
 <structure name="initialpos" >
  <crystal>
   <varray name="basis" >
    <v>       0.00000000       1.97000000       1.97000000 </v>
    <v>       1.97000000       0.00000000       1.97000000 </v>
    <v>       1.97000000       1.97000000       0.00000000 </v>
   </varray>
   <i name="volume">     15.29074600 </i>
   <varray name="rec_basis" >
    <v>      -0.25380711       0.25380711       0.25380711 </v>
    <v>       0.25380711      -0.25380711       0.25380711 </v>
    <v>       0.25380711       0.25380711      -0.25380711 </v>
   </varray>
  </crystal>
  <varray name="positions" >
   <v>       0.00000000       0.00000000       0.00000000 </v>
  </varray>
 </structure>
 <calculation>
  <scstep>
   <time name="dav">    0.12    0.12</time>
   <time name="total">    0.13    0.13</time>
   <energy>
    <i name="alphaZ">    156.91311333 </i>
    <i name="ewald">  -2144.84590610 </i>
    <i name="hartreedc">   -397.82488157 </i>
    <i name="XCdc">     63.81680431 </i>
    <i name="pawpsdc">   2065.75261637 </i>
    <i name="pawaedc">  -2030.83594803 </i>
    <i name="eentropy">     -0.00006242 </i>
    <i name="bandstr">   -114.49685306 </i>
    <i name="atom">   2428.23489925 </i>
    <i name="e_fr_energy">     26.71378210 </i>
    <i name="e_wo_entrp">     26.71384452 </i>
    <i name="e_0_energy">     26.71381331 </i>
   </energy>
  </scstep>
  <scstep>
   <time name="dav">    0.18    0.18</time>
   <time name="total">    0.18    0.18</time>
   <energy>
    <i name="e_fr_energy">     -6.39165205 </i>
    <i name="e_wo_entrp">     -6.39016022 </i>
    <i name="e_0_energy">     -6.39090614 </i>
   </energy>
  </scstep>
  <scstep>
   <time name="dav">    0.14    0.14</time>
   <time name="total">    0.14    0.14</time>
   <energy>
    <i name="e_fr_energy">     -6.43808673 </i>
    <i name="e_wo_entrp">     -6.43656351 </i>
    <i name="e_0_energy">     -6.43732512 </i>
   </energy>
  </scstep>
  <scstep>
   <time name="dav">    0.26    0.26</time>
   <time name="total">    0.26    0.26</time>
   <energy>
    <i name="e_fr_energy">     -6.43812657 </i>
    <i name="e_wo_entrp">     -6.43660336 </i>
    <i name="e_0_energy">     -6.43736497 </i>
   </energy>
  </scstep>
  <scstep>
   <time name="dav">    0.15    0.15</time>
   <time name="total">    0.16    0.16</time>
   <energy>
    <i name="e_fr_energy">     -6.43812657 </i>
    <i name="e_wo_entrp">     -6.43660337 </i>
    <i name="e_0_energy">     -6.43736497 </i>
   </energy>
  </scstep>
  <scstep>
   <time name="dav">    0.13    0.13</time>
   <time name="total">    0.14    0.14</time>
   <energy>
    <i name="e_fr_energy">     -6.11226417 </i>
    <i name="e_wo_entrp">     -6.11071534 </i>
    <i name="e_0_energy">     -6.11148975 </i>
   </energy>
  </scstep>
  <scstep>
   <time name="dav">    0.20    0.20</time>
   <time name="total">    0.21    0.22</time>
   <energy>
    <i name="e_fr_energy">     -6.09399688 </i>
    <i name="e_wo_entrp">     -6.09243733 </i>
    <i name="e_0_energy">     -6.09321710 </i>
   </energy>
  </scstep>
  <scstep>
   <time name="dav">    0.13    0.13</time>
   <time name="total">    0.14    0.14</time>
   <energy>
    <i name="e_fr_energy">     -6.09270417 </i>
    <i name="e_wo_entrp">     -6.09115689 </i>
    <i name="e_0_energy">     -6.09193053 </i>
   </energy>
  </scstep>
  <scstep>
   <time name="dav">    0.22    0.23</time>
   <time name="total">    0.24    0.24</time>
   <energy>
    <i name="e_fr_energy">     -6.09263641 </i>
    <i name="e_wo_entrp">     -6.09108766 </i>
    <i name="e_0_energy">     -6.09186203 </i>
   </energy>
  </scstep>
  <scstep>
   <time name="dav">    0.18    0.18</time>
   <time name="total">    0.20    0.20</time>
   <energy>
    <i name="e_fr_energy">     -6.09264200 </i>
    <i name="e_wo_entrp">     -6.09109276 </i>
    <i name="e_0_energy">     -6.09186738 </i>
   </energy>
  </scstep>
  <scstep>
   <time name="dav">    0.08    0.09</time>
   <time name="total">    0.09    0.09</time>
   <energy>
    <i name="alphaZ">    156.91311333 </i>
    <i name="ewald">  -2144.84590610 </i>
    <i name="hartreedc">   -378.63075460 </i>
    <i name="XCdc">     62.96878964 </i>
    <i name="pawpsdc">   2352.04559213 </i>
    <i name="pawaedc">  -2319.71530317 </i>
    <i name="eentropy">     -0.00154923 </i>
    <i name="bandstr">   -163.06152322 </i>
    <i name="atom">   2428.23489925 </i>
    <i name="e_fr_energy">     -6.09264198 </i>
    <i name="e_wo_entrp">     -6.09109274 </i>
    <i name="e_0_energy">     -6.09186736 </i>
   </energy>
  </scstep>
  <structure>
   <crystal>
    <varray name="basis" >
     <v>       0.00000000       1.97000000       1.97000000 </v>
     <v>       1.97000000       0.00000000       1.97000000 </v>
     <v>       1.97000000       1.97000000       0.00000000 </v>
    </varray>
    <i name="volume">     15.29074600 </i>
    <varray name="rec_basis" >
     <v>      -0.25380711       0.25380711       0.25380711 </v>
     <v>       0.25380711      -0.25380711       0.25380711 </v>
     <v>       0.25380711       0.25380711      -0.25380711 </v>
    </varray>
   </crystal>
   <varray name="positions" >
    <v>       0.00000000       0.00000000       0.00000000 </v>
   </varray>
  </structure>
  <varray name="forces" >
   <v>       0.00000000       0.00000000       0.00000000 </v>
  </varray>
  <varray name="stress" >
   <v>      54.44592034      -0.00000000       0.00000000 </v>
   <v>       0.00000000      54.44592034       0.00000000 </v>
   <v>      -0.00000000       0.00000000      54.44592034 </v>
  </varray>
  <energy>
   <i name="e_fr_energy">     -6.09264198 </i>
   <i name="e_wo_entrp">     -6.09109274 </i>
   <i name="e_0_energy">     -6.09186736 </i>
  </energy>
  <time name="totalsc">    1.94    1.96</time>
  <eigenvalues>
   <array>
    <dimension dim="1">band</dimension>
    <dimension dim="2">kpoint</dimension>
    <dimension dim="3">spin</dimension>
    <field>eigene</field>
    <field>occ</field>
    <set>
     <set comment="spin 1">
      <set comment="kpoint 1">
       <r>  -40.7302    1.0000 </r>
       <r>  -40.7038    1.0000 </r>
       <r>  -40.7038    1.0000 </r>
       <r>    1.9735    1.0000 </r>
       <r>    7.9635    1.0000 </r>
       <r>    8.1872    1.0000 </r>
       <r>    8.1872    1.0000 </r>
       <r>   10.1404    1.0000 </r>
       <r>   10.1404    1.0000 </r>
       <r>   26.8562    0.0000 </r>
       <r>   30.0023    0.0000 </r>
       <r>   31.7381    0.0000 </r>
       <r>   31.7381    0.0000 </r>
       <r>   37.9660    0.0000 </r>
       <r>   40.8585    0.0000 </r>
       <r>   41.9398    0.0000 </r>
       <r>   41.9398    0.0000 </r>
       <r>   46.2451    0.0000 </r>
       <r>   46.2451    0.0000 </r>
       <r>   47.9429    0.0000 </r>
       <r>   52.4688    0.0000 </r>
       <r>   52.8235    0.0000 </r>
       <r>   52.8235    0.0000 </r>
       <r>   60.3312    0.0000 </r>
      </set>
      <set comment="kpoint 2">
       <r>  -40.8581    1.0000 </r>
       <r>  -40.7456    1.0000 </r>
       <r>  -40.7169    1.0000 </r>
       <r>    3.2939    1.0000 </r>
       <r>    7.5096    1.0000 </r>
       <r>    8.5044    1.0000 </r>
       <r>    8.6005    1.0000 </r>
       <r>    9.7179    1.0000 </r>
       <r>   10.5703    1.0000 </r>
       <r>   26.8888    0.0000 </r>
       <r>   28.3217    0.0000 </r>
       <r>   31.7212    0.0000 </r>
       <r>   34.2575    0.0000 </r>
       <r>   34.6158    0.0000 </r>
       <r>   38.9271    0.0000 </r>
       <r>   39.3537    0.0000 </r>
       <r>   43.3055    0.0000 </r>
       <r>   43.8745    0.0000 </r>
       <r>   47.8407    0.0000 </r>
       <r>   50.0776    0.0000 </r>
       <r>   52.4699    0.0000 </r>
       <r>   53.2495    0.0000 </r>
       <r>   55.0823    0.0000 </r>
       <r>   61.3987    0.0000 </r>
      </set>
      <set comment="kpoint 3">
       <r>  -41.0638    1.0000 </r>
       <r>  -40.7814    1.0000 </r>
       <r>  -40.7510    1.0000 </r>
       <r>    4.7457    1.0000 </r>
       <r>    8.0812    1.0000 </r>
       <r>    8.3534    1.0000 </r>
       <r>    8.6578    1.0000 </r>
       <r>   10.8266    1.0000 </r>
       <r>   12.0326    0.0000 </r>
       <r>   21.0620    0.0000 </r>
       <r>   27.1279    0.0000 </r>
       <r>   30.3551    0.0000 </r>
       <r>   33.1430    0.0000 </r>
       <r>   36.1729    0.0000 </r>
       <r>   38.7705    0.0000 </r>
       <r>   39.6217    0.0000 </r>
       <r>   44.5827    0.0000 </r>
       <r>   47.3927    0.0000 </r>
       <r>   50.1694    0.0000 </r>
       <r>   51.4378    0.0000 </r>
       <r>   52.4708    0.0000 </r>
       <r>   54.3763    0.0000 </r>
       <r>   56.1797    0.0000 </r>
       <r>   58.0905    0.0000 </r>
      </set>
      <set comment="kpoint 4">
       <r>  -41.1354    1.0000 </r>
       <r>  -40.7837    1.0000 </r>
       <r>  -40.7722    1.0000 </r>
       <r>    4.8089    1.0000 </r>
       <r>    7.8468    1.0000 </r>
       <r>    8.2145    1.0000 </r>
       <r>   10.0192    1.0000 </r>
       <r>   11.8498    0.0508 </r>
       <r>   13.1068    0.0000 </r>
       <r>   17.6550    0.0000 </r>
       <r>   26.4048    0.0000 </r>
       <r>   30.1768    0.0000 </r>
       <r>   30.2794    0.0000 </r>
       <r>   39.3373    0.0000 </r>
       <r>   39.8568    0.0000 </r>
       <r>   41.5722    0.0000 </r>
       <r>   45.2186    0.0000 </r>
       <r>   47.5341    0.0000 </r>
       <r>   47.9559    0.0000 </r>
       <r>   52.4697    0.0000 </r>
       <r>   52.9729    0.0000 </r>
       <r>   54.3852    0.0000 </r>
       <r>   56.8325    0.0000 </r>
       <r>   58.3419    0.0000 </r>
      </set>
      <set comment="kpoint 5">
       <r>  -41.0019    1.0000 </r>
       <r>  -40.7593    1.0000 </r>
       <r>  -40.7521    1.0000 </r>
       <r>    4.4786    1.0000 </r>
       <r>    7.7991    1.0000 </r>
       <r>    8.2330    1.0000 </r>
       <r>    8.5467    1.0000 </r>
       <r>   10.7300    1.0000 </r>
       <r>   11.1579    1.0000 </r>
       <r>   23.1505    0.0000 </r>
       <r>   27.8368    0.0000 </r>
       <r>   31.5709    0.0000 </r>
       <r>   33.1312    0.0000 </r>
       <r>   36.6728    0.0000 </r>
       <r>   36.9823    0.0000 </r>
       <r>   38.2669    0.0000 </r>
       <r>   43.4862    0.0000 </r>
       <r>   48.9491    0.0000 </r>
       <r>   49.3926    0.0000 </r>
       <r>   50.9129    0.0000 </r>
       <r>   51.7493    0.0000 </r>
       <r>   52.4714    0.0000 </r>
       <r>   57.0598    0.0000 </r>
       <r>   59.3518    0.0000 </r>
      </set>
      <set comment="kpoint 6">
       <r>  -40.7914    1.0000 </r>
       <r>  -40.7252    1.0000 </r>
       <r>  -40.7193    1.0000 </r>
       <r>    2.6743    1.0000 </r>
       <r>    7.5847    1.0000 </r>
       <r>    8.4915    1.0000 </r>
       <r>    8.5064    1.0000 </r>
       <r>    9.7141    1.0000 </r>
       <r>   10.3789    1.0000 </r>
       <r>   27.8315    0.0000 </r>
       <r>   28.6509    0.0000 </r>
       <r>   31.6413    0.0000 </r>
       <r>   32.3242    0.0000 </r>
       <r>   37.4074    0.0000 </r>
       <r>   38.8416    0.0000 </r>
       <r>   41.0063    0.0000 </r>
       <r>   41.8448    0.0000 </r>
       <r>   43.3348    0.0000 </r>
       <r>   49.0658    0.0000 </r>
       <r>   50.0578    0.0000 </r>
       <r>   50.6622    0.0000 </r>
       <r>   52.4699    0.0000 </r>
       <r>   54.9005    0.0000 </r>
       <r>   61.5134    0.0000 </r>
      </set>
      <set comment="kpoint 7">
       <r>  -40.8827    1.0000 </r>
       <r>  -40.7620    1.0000 </r>
       <r>  -40.7591    1.0000 </r>
       <r>    3.9080    1.0000 </r>
       <r>    6.9394    1.0000 </r>
       <r>    8.6667    1.0000 </r>
       <r>    9.1251    1.0000 </r>
       <r>    9.6452    1.0000 </r>
       <r>   10.8058    1.0000 </r>
       <r>   27.5935    0.0000 </r>
       <r>   29.3794    0.0000 </r>
       <r>   30.2659    0.0000 </r>
       <r>   31.2423    0.0000 </r>
       <r>   35.3121    0.0000 </r>
       <r>   37.9154    0.0000 </r>
       <r>   38.5588    0.0000 </r>
       <r>   43.7206    0.0000 </r>
       <r>   46.2252    0.0000 </r>
       <r>   46.7088    0.0000 </r>
       <r>   51.4725    0.0000 </r>
       <r>   52.4234    0.0000 </r>
       <r>   52.4715    0.0000 </r>
       <r>   55.7181    0.0000 </r>
       <r>   63.0730    0.0000 </r>
      </set>
      <set comment="kpoint 8">
       <r>  -41.0106    1.0000 </r>
       <r>  -40.8331    1.0000 </r>
       <r>  -40.7871    1.0000 </r>
       <r>    5.4574    1.0000 </r>
       <r>    6.6688    1.0000 </r>
       <r>    7.9290    1.0000 </r>
       <r>    9.6863    1.0000 </r>
       <r>   10.7872    1.0000 </r>
       <r>   12.3219    0.0000 </r>
       <r>   23.5376    0.0000 </r>
       <r>   27.0267    0.0000 </r>
       <r>   28.3979    0.0000 </r>
       <r>   32.1155    0.0000 </r>
       <r>   35.2154    0.0000 </r>
       <r>   38.6303    0.0000 </r>
       <r>   40.5338    0.0000 </r>
       <r>   43.5912    0.0000 </r>
       <r>   45.9564    0.0000 </r>
       <r>   49.2871    0.0000 </r>
       <r>   52.4695    0.0000 </r>
       <r>   52.8623    0.0000 </r>
       <r>   53.7721    0.0000 </r>
       <r>   56.6721    0.0000 </r>
       <r>   60.8662    0.0000 </r>
      </set>
      <set comment="kpoint 9">
       <r>  -41.0865    1.0000 </r>
       <r>  -40.8823    1.0000 </r>
       <r>  -40.8049    1.0000 </r>
       <r>    5.8139    1.0000 </r>
       <r>    7.0952    1.0000 </r>
       <r>    8.3235    1.0000 </r>
       <r>    9.2420    1.0000 </r>
       <r>   11.6827    0.9990 </r>
       <r>   15.9036    0.0000 </r>
       <r>   17.5348    0.0000 </r>
       <r>   26.1222    0.0000 </r>
       <r>   27.1525    0.0000 </r>
       <r>   30.6626    0.0000 </r>
       <r>   37.9381    0.0000 </r>
       <r>   40.4254    0.0000 </r>
       <r>   42.2441    0.0000 </r>
       <r>   44.3134    0.0000 </r>
       <r>   47.0316    0.0000 </r>
       <r>   50.3176    0.0000 </r>
       <r>   50.9337    0.0000 </r>
       <r>   52.4705    0.0000 </r>
       <r>   53.5070    0.0000 </r>
       <r>   57.1977    0.0000 </r>
       <r>   58.6125    0.0000 </r>
      </set>
      <set comment="kpoint 10">
       <r>  -41.0383    1.0000 </r>
       <r>  -40.8772    1.0000 </r>
       <r>  -40.7764    1.0000 </r>
       <r>    5.9466    1.0000 </r>
       <r>    7.3681    1.0000 </r>
       <r>    7.4501    1.0000 </r>
       <r>    9.3755    1.0000 </r>
       <r>   10.5825    1.0000 </r>
       <r>   13.6427    0.0000 </r>
       <r>   21.6360    0.0000 </r>
       <r>   25.4256    0.0000 </r>
       <r>   28.5925    0.0000 </r>
       <r>   32.7319    0.0000 </r>
       <r>   34.9977    0.0000 </r>
       <r>   39.9198    0.0000 </r>
       <r>   42.1760    0.0000 </r>
       <r>   43.7226    0.0000 </r>
       <r>   46.7408    0.0000 </r>
       <r>   48.8244    0.0000 </r>
       <r>   51.5059    0.0000 </r>
       <r>   52.4708    0.0000 </r>
       <r>   55.8280    0.0000 </r>
       <r>   56.4957    0.0000 </r>
       <r>   57.9809    0.0000 </r>
      </set>
      <set comment="kpoint 11">
       <r>  -40.9387    1.0000 </r>
       <r>  -40.7850    1.0000 </r>
       <r>  -40.7418    1.0000 </r>
       <r>    4.3823    1.0000 </r>
       <r>    7.1427    1.0000 </r>
       <r>    8.3060    1.0000 </r>
       <r>    9.0083    1.0000 </r>
       <r>    9.8567    1.0000 </r>
       <r>   11.3066    1.0000 </r>
       <r>   25.3772    0.0000 </r>
       <r>   28.4483    0.0000 </r>
       <r>   30.5950    0.0000 </r>
       <r>   32.0708    0.0000 </r>
       <r>   36.7568    0.0000 </r>
       <r>   37.2221    0.0000 </r>
       <r>   39.6056    0.0000 </r>
       <r>   42.0737    0.0000 </r>
       <r>   46.9260    0.0000 </r>
       <r>   48.3999    0.0000 </r>
       <r>   49.4275    0.0000 </r>
       <r>   52.4705    0.0000 </r>
       <r>   54.5801    0.0000 </r>
       <r>   57.1960    0.0000 </r>
       <r>   59.8491    0.0000 </r>
      </set>
      <set comment="kpoint 12">
       <r>  -41.0638    1.0000 </r>
       <r>  -40.8530    1.0000 </r>
       <r>  -40.8410    1.0000 </r>
       <r>    5.2196    1.0000 </r>
       <r>    5.7464    1.0000 </r>
       <r>    9.8652    1.0000 </r>
       <r>   10.8923    1.0000 </r>
       <r>   11.8176    0.2340 </r>
       <r>   12.3469    0.0000 </r>
       <r>   23.2749    0.0000 </r>
       <r>   25.2456    0.0000 </r>
       <r>   25.4146    0.0000 </r>
       <r>   31.5608    0.0000 </r>
       <r>   33.8260    0.0000 </r>
       <r>   40.5261    0.0000 </r>
       <r>   42.5382    0.0000 </r>
       <r>   43.8838    0.0000 </r>
       <r>   47.1983    0.0000 </r>
       <r>   48.1547    0.0000 </r>
       <r>   52.4691    0.0000 </r>
       <r>   54.5125    0.0000 </r>
       <r>   55.0245    0.0000 </r>
       <r>   57.0310    0.0000 </r>
       <r>   57.6826    0.0000 </r>
      </set>
      <set comment="kpoint 13">
       <r>  -41.0811    1.0000 </r>
       <r>  -40.9138    1.0000 </r>
       <r>  -40.8581    1.0000 </r>
       <r>    5.4707    1.0000 </r>
       <r>    5.9385    1.0000 </r>
       <r>    9.4659    1.0000 </r>
       <r>   10.9047    1.0000 </r>
       <r>   12.0733    0.0000 </r>
       <r>   16.2190    0.0000 </r>
       <r>   19.5351    0.0000 </r>
       <r>   22.6545    0.0000 </r>
       <r>   24.3594    0.0000 </r>
       <r>   33.2704    0.0000 </r>
       <r>   35.7126    0.0000 </r>
       <r>   39.0857    0.0000 </r>
       <r>   43.4648    0.0000 </r>
       <r>   46.5755    0.0000 </r>
       <r>   47.2792    0.0000 </r>
       <r>   49.6002    0.0000 </r>
       <r>   51.5782    0.0000 </r>
       <r>   52.4708    0.0000 </r>
       <r>   53.6301    0.0000 </r>
       <r>   55.7956    0.0000 </r>
       <r>   57.2687    0.0000 </r>
      </set>
      <set comment="kpoint 14">
       <r>  -41.0380    1.0000 </r>
       <r>  -40.9627    1.0000 </r>
       <r>  -40.8205    1.0000 </r>
       <r>    6.2013    1.0000 </r>
       <r>    6.9209    1.0000 </r>
       <r>    7.9854    1.0000 </r>
       <r>    9.8137    1.0000 </r>
       <r>   11.4452    1.0000 </r>
       <r>   16.4489    0.0000 </r>
       <r>   19.1335    0.0000 </r>
       <r>   22.7520    0.0000 </r>
       <r>   27.0388    0.0000 </r>
       <r>   31.7408    0.0000 </r>
       <r>   37.2892    0.0000 </r>
       <r>   40.4377    0.0000 </r>
       <r>   41.1478    0.0000 </r>
       <r>   45.5158    0.0000 </r>
       <r>   47.4599    0.0000 </r>
       <r>   51.6120    0.0000 </r>
       <r>   52.3709    0.0000 </r>
       <r>   52.4665    0.0000 </r>
       <r>   52.4965    0.0000 </r>
       <r>   54.7075    0.0000 </r>
       <r>   58.9690    0.0000 </r>
      </set>
      <set comment="kpoint 15">
       <r>  -41.0957    1.0000 </r>
       <r>  -40.8200    1.0000 </r>
       <r>  -40.7759    1.0000 </r>
       <r>    5.2166    1.0000 </r>
       <r>    7.6354    1.0000 </r>
       <r>    8.5472    1.0000 </r>
       <r>    8.7819    1.0000 </r>
       <r>   11.4644    1.0000 </r>
       <r>   13.4627    0.0000 </r>
       <r>   19.1628    0.0000 </r>
       <r>   27.0880    0.0000 </r>
       <r>   28.5739    0.0000 </r>
       <r>   31.1919    0.0000 </r>
       <r>   37.5967    0.0000 </r>
       <r>   39.9500    0.0000 </r>
       <r>   41.9361    0.0000 </r>
       <r>   43.3044    0.0000 </r>
       <r>   48.8442    0.0000 </r>
       <r>   49.3509    0.0000 </r>
       <r>   50.0636    0.0000 </r>
       <r>   52.4705    0.0000 </r>
       <r>   54.9597    0.0000 </r>
       <r>   56.8583    0.0000 </r>
       <r>   58.2792    0.0000 </r>
      </set>
      <set comment="kpoint 16">
       <r>  -41.1101    1.0000 </r>
       <r>  -40.8788    1.0000 </r>
       <r>  -40.8621    1.0000 </r>
       <r>    5.0148    1.0000 </r>
       <r>    5.4593    1.0000 </r>
       <r>   11.1093    1.0000 </r>
       <r>   11.5183    1.0000 </r>
       <r>   12.1487    0.0000 </r>
       <r>   14.2935    0.0000 </r>
       <r>   20.6349    0.0000 </r>
       <r>   23.1558    0.0000 </r>
       <r>   23.7585    0.0000 </r>
       <r>   32.1346    0.0000 </r>
       <r>   34.7786    0.0000 </r>
       <r>   40.0862    0.0000 </r>
       <r>   44.8139    0.0000 </r>
       <r>   46.7709    0.0000 </r>
       <r>   47.2332    0.0000 </r>
       <r>   49.4044    0.0000 </r>
       <r>   52.4688    0.0000 </r>
       <r>   52.6955    0.0000 </r>
       <r>   53.4341    0.0000 </r>
       <r>   54.0310    0.0000 </r>
       <r>   55.6697    0.0000 </r>
      </set>
      <set comment="kpoint 17">
       <r>  -41.0592    1.0000 </r>
       <r>  -40.8809    1.0000 </r>
       <r>  -40.8321    1.0000 </r>
       <r>    5.6682    1.0000 </r>
       <r>    6.2125    1.0000 </r>
       <r>    8.5249    1.0000 </r>
       <r>   10.5017    1.0000 </r>
       <r>   11.6393    1.0000 </r>
       <r>   13.9695    0.0000 </r>
       <r>   21.4021    0.0000 </r>
       <r>   24.8175    0.0000 </r>
       <r>   25.9874    0.0000 </r>
       <r>   32.4921    0.0000 </r>
       <r>   35.2307    0.0000 </r>
       <r>   39.3921    0.0000 </r>
       <r>   42.3931    0.0000 </r>
       <r>   44.7542    0.0000 </r>
       <r>   47.1572    0.0000 </r>
       <r>   48.5920    0.0000 </r>
       <r>   51.4625    0.0000 </r>
       <r>   52.4711    0.0000 </r>
       <r>   55.1235    0.0000 </r>
       <r>   58.1096    0.0000 </r>
       <r>   59.4654    0.0000 </r>
      </set>
      <set comment="kpoint 18">
       <r>  -40.9816    1.0000 </r>
       <r>  -40.8089    1.0000 </r>
       <r>  -40.8045    1.0000 </r>
       <r>    5.0525    1.0000 </r>
       <r>    6.2727    1.0000 </r>
       <r>    8.6565    1.0000 </r>
       <r>    9.9777    1.0000 </r>
       <r>   10.7192    1.0000 </r>
       <r>   11.3264    1.0000 </r>
       <r>   25.9064    0.0000 </r>
       <r>   27.6827    0.0000 </r>
       <r>   28.5556    0.0000 </r>
       <r>   31.3818    0.0000 </r>
       <r>   32.7448    0.0000 </r>
       <r>   39.2757    0.0000 </r>
       <r>   39.8812    0.0000 </r>
       <r>   44.2210    0.0000 </r>
       <r>   45.1120    0.0000 </r>
       <r>   49.5188    0.0000 </r>
       <r>   52.4686    0.0000 </r>
       <r>   53.5033    0.0000 </r>
       <r>   54.0228    0.0000 </r>
       <r>   54.9031    0.0000 </r>
       <r>   61.9048    0.0000 </r>
      </set>
      <set comment="kpoint 19">
       <r>  -40.9266    1.0000 </r>
       <r>  -40.7324    1.0000 </r>
       <r>  -40.7324    1.0000 </r>
       <r>    3.7323    1.0000 </r>
       <r>    7.7377    1.0000 </r>
       <r>    8.4485    1.0000 </r>
       <r>    8.4485    1.0000 </r>
       <r>   10.3715    1.0000 </r>
       <r>   10.3715    1.0000 </r>
       <r>   25.0035    0.0000 </r>
       <r>   28.1147    0.0000 </r>
       <r>   34.2427    0.0000 </r>
       <r>   34.2427    0.0000 </r>
       <r>   35.1682    0.0000 </r>
       <r>   36.5419    0.0000 </r>
       <r>   36.5419    0.0000 </r>
       <r>   45.8992    0.0000 </r>
       <r>   46.8899    0.0000 </r>
       <r>   46.8899    0.0000 </r>
       <r>   50.6621    0.0000 </r>
       <r>   52.4719    0.0000 </r>
       <r>   53.5249    0.0000 </r>
       <r>   53.5249    0.0000 </r>
       <r>   61.1136    0.0000 </r>
      </set>
      <set comment="kpoint 20">
       <r>  -40.9988    1.0000 </r>
       <r>  -40.8270    1.0000 </r>
       <r>  -40.7454    1.0000 </r>
       <r>    5.1539    1.0000 </r>
       <r>    7.3513    1.0000 </r>
       <r>    8.0618    1.0000 </r>
       <r>    8.9547    1.0000 </r>
       <r>    9.8883    1.0000 </r>
       <r>   12.3798    0.0000 </r>
       <r>   23.4033    0.0000 </r>
       <r>   27.1371    0.0000 </r>
       <r>   29.5778    0.0000 </r>
       <r>   33.3292    0.0000 </r>
       <r>   34.8877    0.0000 </r>
       <r>   39.3367    0.0000 </r>
       <r>   41.6846    0.0000 </r>
       <r>   41.7557    0.0000 </r>
       <r>   46.1932    0.0000 </r>
       <r>   47.7416    0.0000 </r>
       <r>   52.4704    0.0000 </r>
       <r>   52.9245    0.0000 </r>
       <r>   55.5624    0.0000 </r>
       <r>   56.6789    0.0000 </r>
       <r>   58.1873    0.0000 </r>
      </set>
      <set comment="kpoint 21">
       <r>  -41.0474    1.0000 </r>
       <r>  -40.9266    1.0000 </r>
       <r>  -40.7879    1.0000 </r>
       <r>    6.1443    1.0000 </r>
       <r>    7.2567    1.0000 </r>
       <r>    7.9092    1.0000 </r>
       <r>    9.3549    1.0000 </r>
       <r>   10.8256    1.0000 </r>
       <r>   14.8643    0.0000 </r>
       <r>   20.2996    0.0000 </r>
       <r>   23.8078    0.0000 </r>
       <r>   29.4875    0.0000 </r>
       <r>   30.5291    0.0000 </r>
       <r>   36.5353    0.0000 </r>
       <r>   39.0810    0.0000 </r>
       <r>   42.7480    0.0000 </r>
       <r>   46.9115    0.0000 </r>
       <r>   47.9999    0.0000 </r>
       <r>   49.0562    0.0000 </r>
       <r>   50.2175    0.0000 </r>
       <r>   52.4710    0.0000 </r>
       <r>   53.0229    0.0000 </r>
       <r>   55.8871    0.0000 </r>
       <r>   58.7471    0.0000 </r>
      </set>
      <set comment="kpoint 22">
       <r>  -41.0734    1.0000 </r>
       <r>  -40.8824    1.0000 </r>
       <r>  -40.8173    1.0000 </r>
       <r>    5.6542    1.0000 </r>
       <r>    6.7955    1.0000 </r>
       <r>    8.3301    1.0000 </r>
       <r>    9.6437    1.0000 </r>
       <r>   11.9595    0.0000 </r>
       <r>   14.7965    0.0000 </r>
       <r>   19.1163    0.0000 </r>
       <r>   25.7504    0.0000 </r>
       <r>   27.2797    0.0000 </r>
       <r>   30.5156    0.0000 </r>
       <r>   38.3112    0.0000 </r>
       <r>   39.0620    0.0000 </r>
       <r>   41.1306    0.0000 </r>
       <r>   44.9080    0.0000 </r>
       <r>   47.7532    0.0000 </r>
       <r>   48.4266    0.0000 </r>
       <r>   52.4697    0.0000 </r>
       <r>   52.8192    0.0000 </r>
       <r>   54.4311    0.0000 </r>
       <r>   56.9629    0.0000 </r>
       <r>   60.4559    0.0000 </r>
      </set>
      <set comment="kpoint 23">
       <r>  -41.0556    1.0000 </r>
       <r>  -40.8072    1.0000 </r>
       <r>  -40.7904    1.0000 </r>
       <r>    5.2536    1.0000 </r>
       <r>    7.4310    1.0000 </r>
       <r>    7.9517    1.0000 </r>
       <r>    8.9655    1.0000 </r>
       <r>   11.7698    0.7345 </r>
       <r>   12.3248    0.0000 </r>
       <r>   21.1372    0.0000 </r>
       <r>   27.6875    0.0000 </r>
       <r>   29.0080    0.0000 </r>
       <r>   30.8224    0.0000 </r>
       <r>   38.2260    0.0000 </r>
       <r>   38.4550    0.0000 </r>
       <r>   40.2611    0.0000 </r>
       <r>   42.2938    0.0000 </r>
       <r>   48.0554    0.0000 </r>
       <r>   49.9362    0.0000 </r>
       <r>   52.2189    0.0000 </r>
       <r>   52.4701    0.0000 </r>
       <r>   54.3990    0.0000 </r>
       <r>   55.8287    0.0000 </r>
       <r>   58.8091    0.0000 </r>
      </set>
      <set comment="kpoint 24">
       <r>  -41.0477    1.0000 </r>
       <r>  -40.9256    1.0000 </r>
       <r>  -40.8224    1.0000 </r>
       <r>    6.3985    1.0000 </r>
       <r>    6.8376    1.0000 </r>
       <r>    7.4840    1.0000 </r>
       <r>    9.9662    1.0000 </r>
       <r>   11.4239    1.0000 </r>
       <r>   15.4084    0.0000 </r>
       <r>   20.1280    0.0000 </r>
       <r>   23.7114    0.0000 </r>
       <r>   26.3929    0.0000 </r>
       <r>   32.9375    0.0000 </r>
       <r>   35.9131    0.0000 </r>
       <r>   41.3209    0.0000 </r>
       <r>   41.5339    0.0000 </r>
       <r>   43.7587    0.0000 </r>
       <r>   47.5339    0.0000 </r>
       <r>   49.6757    0.0000 </r>
       <r>   51.2135    0.0000 </r>
       <r>   52.4710    0.0000 </r>
       <r>   53.9120    0.0000 </r>
       <r>   57.1315    0.0000 </r>
       <r>   59.0023    0.0000 </r>
      </set>
      <set comment="kpoint 25">
       <r>  -41.0325    1.0000 </r>
       <r>  -40.9646    1.0000 </r>
       <r>  -40.8582    1.0000 </r>
       <r>    6.1784    1.0000 </r>
       <r>    6.7424    1.0000 </r>
       <r>    7.9284    1.0000 </r>
       <r>   10.0482    1.0000 </r>
       <r>   12.0425    0.0000 </r>
       <r>   17.7417    0.0000 </r>
       <r>   19.1617    0.0000 </r>
       <r>   21.8015    0.0000 </r>
       <r>   24.4316    0.0000 </r>
       <r>   34.3661    0.0000 </r>
       <r>   36.6378    0.0000 </r>
       <r>   39.2420    0.0000 </r>
       <r>   43.4484    0.0000 </r>
       <r>   44.0306    0.0000 </r>
       <r>   45.9315    0.0000 </r>
       <r>   49.5298    0.0000 </r>
       <r>   52.4705    0.0000 </r>
       <r>   53.1063    0.0000 </r>
       <r>   54.5593    0.0000 </r>
       <r>   57.7849    0.0000 </r>
       <r>   58.7559    0.0000 </r>
      </set>
      <set comment="kpoint 26">
       <r>  -41.0586    1.0000 </r>
       <r>  -40.9503    1.0000 </r>
       <r>  -40.8328    1.0000 </r>
       <r>    5.6632    1.0000 </r>
       <r>    6.4679    1.0000 </r>
       <r>    8.8960    1.0000 </r>
       <r>   10.3554    1.0000 </r>
       <r>   11.7173    0.9826 </r>
       <r>   17.4418    0.0000 </r>
       <r>   17.9184    0.0000 </r>
       <r>   22.5925    0.0000 </r>
       <r>   26.4644    0.0000 </r>
       <r>   31.4568    0.0000 </r>
       <r>   38.1887    0.0000 </r>
       <r>   39.1668    0.0000 </r>
       <r>   40.6331    0.0000 </r>
       <r>   47.9529    0.0000 </r>
       <r>   48.3944    0.0000 </r>
       <r>   48.9567    0.0000 </r>
       <r>   52.3306    0.0000 </r>
       <r>   52.4728    0.0000 </r>
       <r>   53.1518    0.0000 </r>
       <r>   56.5275    0.0000 </r>
       <r>   57.6864    0.0000 </r>
      </set>
      <set comment="kpoint 27">
       <r>  -41.1186    1.0000 </r>
       <r>  -40.7607    1.0000 </r>
       <r>  -40.7607    1.0000 </r>
       <r>    4.5830    1.0000 </r>
       <r>    8.0918    1.0000 </r>
       <r>    8.0918    1.0000 </r>
       <r>   10.2479    1.0000 </r>
       <r>   11.5854    1.0000 </r>
       <r>   11.5854    1.0000 </r>
       <r>   19.0509    0.0000 </r>
       <r>   26.3090    0.0000 </r>
       <r>   31.2964    0.0000 </r>
       <r>   31.2964    0.0000 </r>
       <r>   39.0142    0.0000 </r>
       <r>   39.0142    0.0000 </r>
       <r>   39.4356    0.0000 </r>
       <r>   46.9116    0.0000 </r>
       <r>   46.9116    0.0000 </r>
       <r>   48.0890    0.0000 </r>
       <r>   52.4699    0.0000 </r>
       <r>   54.9139    0.0000 </r>
       <r>   54.9139    0.0000 </r>
       <r>   55.8142    0.0000 </r>
       <r>   58.0812    0.0000 </r>
      </set>
      <set comment="kpoint 28">
       <r>  -41.1075    1.0000 </r>
       <r>  -40.8463    1.0000 </r>
       <r>  -40.7822    1.0000 </r>
       <r>    5.3987    1.0000 </r>
       <r>    7.4571    1.0000 </r>
       <r>    8.6913    1.0000 </r>
       <r>    8.9782    1.0000 </r>
       <r>   11.5052    1.0000 </r>
       <r>   14.7936    0.0000 </r>
       <r>   17.7226    0.0000 </r>
       <r>   26.5179    0.0000 </r>
       <r>   28.6215    0.0000 </r>
       <r>   30.1998    0.0000 </r>
       <r>   38.4280    0.0000 </r>
       <r>   39.3434    0.0000 </r>
       <r>   42.8014    0.0000 </r>
       <r>   46.1912    0.0000 </r>
       <r>   47.6146    0.0000 </r>
       <r>   47.6846    0.0000 </r>
       <r>   51.6160    0.0000 </r>
       <r>   52.3631    0.0000 </r>
       <r>   52.4704    0.0000 </r>
       <r>   57.7022    0.0000 </r>
       <r>   58.6057    0.0000 </r>
      </set>
     </set>
    </set>
   </array>
  </eigenvalues>
  <separator name="orbital magnetization" >
   <v name="MAGDIPOLOUT">      0.00000000      0.00000000      0.00000000</v>
  </separator>
  <dos>
   <i name="efermi">     11.79191239 </i>
   <total>
    <array>
     <dimension dim="1">gridpoints</dimension>
     <dimension dim="2">spin</dimension>
     <field>energy</field>
     <field>total</field>
     <field>integrated</field>
     <set>
      <set comment="spin 1">
       <r>   -46.3458     0.0000     0.0000 </r>
       <r>   -45.9637     0.0000     0.0000 </r>
       <r>   -45.5816     0.0000     0.0000 </r>
       <r>   -45.1995     0.0000     0.0000 </r>
       <r>   -44.8174     0.0000     0.0000 </r>
       <r>   -44.4353     0.0000     0.0000 </r>
       <r>   -44.0532     0.0000     0.0000 </r>
       <r>   -43.6711     0.0000     0.0000 </r>
       <r>   -43.2890     0.0000     0.0000 </r>
       <r>   -42.9069     0.0000     0.0000 </r>
       <r>   -42.5248     0.0000     0.0000 </r>
       <r>   -42.1427     0.0000     0.0000 </r>
       <r>   -41.7606     0.0000     0.0000 </r>
       <r>   -41.3785     0.0000     0.0000 </r>
       <r>   -40.9964     4.0423     1.5445 </r>
       <r>   -40.6143    11.4740     5.9995 </r>
       <r>   -40.2323     0.0000     6.0000 </r>
       <r>   -39.8502     0.0000     6.0000 </r>
       <r>   -39.4681     0.0000     6.0000 </r>
       <r>   -39.0860     0.0000     6.0000 </r>
       <r>   -38.7039     0.0000     6.0000 </r>
       <r>   -38.3218     0.0000     6.0000 </r>
       <r>   -37.9397     0.0000     6.0000 </r>
       <r>   -37.5576     0.0000     6.0000 </r>
       <r>   -37.1755     0.0000     6.0000 </r>
       <r>   -36.7934     0.0000     6.0000 </r>
       <r>   -36.4113     0.0000     6.0000 </r>
       <r>   -36.0292     0.0000     6.0000 </r>
       <r>   -35.6471     0.0000     6.0000 </r>
       <r>   -35.2650     0.0000     6.0000 </r>
       <r>   -34.8829     0.0000     6.0000 </r>
       <r>   -34.5008     0.0000     6.0000 </r>
       <r>   -34.1187     0.0000     6.0000 </r>
       <r>   -33.7366     0.0000     6.0000 </r>
       <r>   -33.3545     0.0000     6.0000 </r>
       <r>   -32.9724     0.0000     6.0000 </r>
       <r>   -32.5903     0.0000     6.0000 </r>
       <r>   -32.2082     0.0000     6.0000 </r>
       <r>   -31.8261     0.0000     6.0000 </r>
       <r>   -31.4440     0.0000     6.0000 </r>
       <r>   -31.0619     0.0000     6.0000 </r>
       <r>   -30.6798     0.0000     6.0000 </r>
       <r>   -30.2977     0.0000     6.0000 </r>
       <r>   -29.9156     0.0000     6.0000 </r>
       <r>   -29.5335     0.0000     6.0000 </r>
       <r>   -29.1514     0.0000     6.0000 </r>
       <r>   -28.7693     0.0000     6.0000 </r>
       <r>   -28.3872     0.0000     6.0000 </r>
       <r>   -28.0051     0.0000     6.0000 </r>
       <r>   -27.6230     0.0000     6.0000 </r>
       <r>   -27.2409     0.0000     6.0000 </r>
       <r>   -26.8588     0.0000     6.0000 </r>
       <r>   -26.4767     0.0000     6.0000 </r>
       <r>   -26.0946     0.0000     6.0000 </r>
       <r>   -25.7125     0.0000     6.0000 </r>
       <r>   -25.3304     0.0000     6.0000 </r>
       <r>   -24.9483     0.0000     6.0000 </r>
       <r>   -24.5663     0.0000     6.0000 </r>
       <r>   -24.1842     0.0000     6.0000 </r>
       <r>   -23.8021     0.0000     6.0000 </r>
       <r>   -23.4200     0.0000     6.0000 </r>
       <r>   -23.0379     0.0000     6.0000 </r>
       <r>   -22.6558     0.0000     6.0000 </r>
       <r>   -22.2737     0.0000     6.0000 </r>
       <r>   -21.8916     0.0000     6.0000 </r>
       <r>   -21.5095     0.0000     6.0000 </r>
       <r>   -21.1274     0.0000     6.0000 </r>
       <r>   -20.7453     0.0000     6.0000 </r>
       <r>   -20.3632     0.0000     6.0000 </r>
       <r>   -19.9811     0.0000     6.0000 </r>
       <r>   -19.5990     0.0000     6.0000 </r>
       <r>   -19.2169     0.0000     6.0000 </r>
       <r>   -18.8348     0.0000     6.0000 </r>
       <r>   -18.4527     0.0000     6.0000 </r>
       <r>   -18.0706     0.0000     6.0000 </r>
       <r>   -17.6885     0.0000     6.0000 </r>
       <r>   -17.3064     0.0000     6.0000 </r>
       <r>   -16.9243     0.0000     6.0000 </r>
       <r>   -16.5422     0.0000     6.0000 </r>
       <r>   -16.1601     0.0000     6.0000 </r>
       <r>   -15.7780     0.0000     6.0000 </r>
       <r>   -15.3959     0.0000     6.0000 </r>
       <r>   -15.0138     0.0000     6.0000 </r>
       <r>   -14.6317     0.0000     6.0000 </r>
       <r>   -14.2496     0.0000     6.0000 </r>
       <r>   -13.8675     0.0000     6.0000 </r>
       <r>   -13.4854     0.0000     6.0000 </r>
       <r>   -13.1033     0.0000     6.0000 </r>
       <r>   -12.7212     0.0000     6.0000 </r>
       <r>   -12.3391     0.0000     6.0000 </r>
       <r>   -11.9570     0.0000     6.0000 </r>
       <r>   -11.5749     0.0000     6.0000 </r>
       <r>   -11.1928     0.0000     6.0000 </r>
       <r>   -10.8107     0.0000     6.0000 </r>
       <r>   -10.4286     0.0000     6.0000 </r>
       <r>   -10.0465     0.0000     6.0000 </r>
       <r>    -9.6644     0.0000     6.0000 </r>
       <r>    -9.2823     0.0000     6.0000 </r>
       <r>    -8.9003     0.0000     6.0000 </r>
       <r>    -8.5182     0.0000     6.0000 </r>
       <r>    -8.1361     0.0000     6.0000 </r>
       <r>    -7.7540     0.0000     6.0000 </r>
       <r>    -7.3719     0.0000     6.0000 </r>
       <r>    -6.9898     0.0000     6.0000 </r>
       <r>    -6.6077     0.0000     6.0000 </r>
       <r>    -6.2256     0.0000     6.0000 </r>
       <r>    -5.8435     0.0000     6.0000 </r>
       <r>    -5.4614     0.0000     6.0000 </r>
       <r>    -5.0793     0.0000     6.0000 </r>
       <r>    -4.6972     0.0000     6.0000 </r>
       <r>    -4.3151     0.0000     6.0000 </r>
       <r>    -3.9330     0.0000     6.0000 </r>
       <r>    -3.5509     0.0000     6.0000 </r>
       <r>    -3.1688     0.0000     6.0000 </r>
       <r>    -2.7867     0.0000     6.0000 </r>
       <r>    -2.4046     0.0000     6.0000 </r>
       <r>    -2.0225     0.0000     6.0000 </r>
       <r>    -1.6404     0.0000     6.0000 </r>
       <r>    -1.2583     0.0000     6.0000 </r>
       <r>    -0.8762     0.0000     6.0000 </r>
       <r>    -0.4941     0.0000     6.0000 </r>
       <r>    -0.1120     0.0000     6.0000 </r>
       <r>     0.2701     0.0000     6.0000 </r>
       <r>     0.6522     0.0000     6.0000 </r>
       <r>     1.0343     0.0000     6.0000 </r>
       <r>     1.4164     0.0000     6.0000 </r>
       <r>     1.7985     0.0000     6.0000 </r>
       <r>     2.1806     0.0485     6.0185 </r>
       <r>     2.5627     0.0001     6.0186 </r>
       <r>     2.9448     0.1453     6.0741 </r>
       <r>     3.3269     0.1199     6.1199 </r>
       <r>     3.7090     0.0123     6.1343 </r>
       <r>     4.0911     0.1815     6.2037 </r>
       <r>     4.4732     0.3532     6.3387 </r>
       <r>     4.8553     0.4069     6.4947 </r>
       <r>     5.2374     0.7922     6.8027 </r>
       <r>     5.6195     1.0792     7.2466 </r>
       <r>     6.0016     1.5073     7.8225 </r>
       <r>     6.3837     1.2625     8.3157 </r>
       <r>     6.7658     0.8788     8.6516 </r>
       <r>     7.1478     1.2704     9.1655 </r>
       <r>     7.5299     1.6611     9.8078 </r>
       <r>     7.9120     1.0523    10.2389 </r>
       <r>     8.2941     1.8838    10.9606 </r>
       <r>     8.6762     2.4224    11.8892 </r>
       <r>     9.0583     1.2955    12.4179 </r>
       <r>     9.4404     0.9257    12.7813 </r>
       <r>     9.8225     1.3382    13.2967 </r>
       <r>    10.2046     1.5998    13.9082 </r>
       <r>    10.5867     0.9773    14.2829 </r>
       <r>    10.9688     1.6197    14.9027 </r>
       <r>    11.3509     0.6679    15.1626 </r>
       <r>    11.7330     1.9318    15.9260 </r>
       <r>    12.1151     1.3164    16.4380 </r>
       <r>    12.4972     0.8475    16.7778 </r>
       <r>    12.8793     0.0000    16.7778 </r>
       <r>    13.2614     0.1454    16.8333 </r>
       <r>    13.6435     0.4390    17.0011 </r>
       <r>    14.0256     0.4171    17.1604 </r>
       <r>    14.4077     0.1453    17.2222 </r>
       <r>    14.7898     0.1308    17.2722 </r>
       <r>    15.1719     0.3054    17.3889 </r>
       <r>    15.5540     0.2908    17.5000 </r>
       <r>    15.9361     0.2388    17.5913 </r>
       <r>    16.3182     0.2901    17.7220 </r>
       <r>    16.7003     0.2908    17.8333 </r>
       <r>    17.0824     0.0000    17.8333 </r>
       <r>    17.4645     0.1143    17.8770 </r>
       <r>    17.8466     0.8682    18.2232 </r>
       <r>    18.2287     0.1423    18.2778 </r>
       <r>    18.6108     0.0000    18.2778 </r>
       <r>    18.9929     0.0025    18.2787 </r>
       <r>    19.3750     1.0638    18.6852 </r>
       <r>    19.7571     0.2908    18.7963 </r>
       <r>    20.1392     0.1814    18.8656 </r>
       <r>    20.5213     0.2549    18.9630 </r>
       <r>    20.9034     0.1453    19.0185 </r>
       <r>    21.2855     0.2909    19.1297 </r>
       <r>    21.6676     0.5275    19.3312 </r>
       <r>    22.0497     0.2908    19.4630 </r>
       <r>    22.4318     0.0000    19.4630 </r>
       <r>    22.8138     0.7153    19.7363 </r>
       <r>    23.1959     0.2596    19.8399 </r>
       <r>    23.5780     0.5431    20.0601 </r>
       <r>    23.9601     0.5816    20.2963 </r>
       <r>    24.3422     0.0929    20.3318 </r>
       <r>    24.7243     0.4899    20.5190 </r>
       <r>    25.1064     0.3380    20.6481 </r>
       <r>    25.4885     0.8586    20.9762 </r>
       <r>    25.8706     0.1681    21.0457 </r>
       <r>    26.2527     0.7069    21.3158 </r>
       <r>    26.6348     0.7727    21.6111 </r>
       <r>    27.0169     0.3923    21.7610 </r>
       <r>    27.3990     1.4009    22.2963 </r>
       <r>    27.7811     0.4548    22.4701 </r>
       <r>    28.1632     0.3156    22.5910 </r>
       <r>    28.5453     0.8720    22.9258 </r>
       <r>    28.9274     0.8736    23.2599 </r>
       <r>    29.3095     0.1472    23.3162 </r>
       <r>    29.6916     0.4326    23.4814 </r>
       <r>    30.0737     0.0477    23.4997 </r>
       <r>    30.4558     0.7358    23.7812 </r>
       <r>    30.8379     0.9604    24.1483 </r>
       <r>    31.2200     0.3166    24.2693 </r>
       <r>    31.6021     0.7584    24.5828 </r>
       <r>    31.9842     0.6611    24.8527 </r>
       <r>    32.3663     0.8533    25.1787 </r>
       <r>    32.7484     0.5670    25.4019 </r>
       <r>    33.1305     0.5747    25.6215 </r>
       <r>    33.5126     0.6030    25.8519 </r>
       <r>    33.8947     0.1416    25.9060 </r>
       <r>    34.2768     0.1852    25.9782 </r>
       <r>    34.6589     0.4184    26.1605 </r>
       <r>    35.0410     0.5494    26.3766 </r>
       <r>    35.4231     0.7753    26.6851 </r>
       <r>    35.8052     0.2898    26.7959 </r>
       <r>    36.1873     0.3861    26.9439 </r>
       <r>    36.5694     0.2545    27.0412 </r>
       <r>    36.9515     0.7469    27.3440 </r>
       <r>    37.3336     0.6710    27.6004 </r>
       <r>    37.7157     0.4334    27.7777 </r>
       <r>    38.0978     0.4854    27.9632 </r>
       <r>    38.4798     0.8280    28.2796 </r>
       <r>    38.8619     0.6882    28.5599 </r>
       <r>    39.2440     1.1433    29.0127 </r>
       <r>    39.6261     1.4653    29.5734 </r>
       <r>    40.0082     0.9235    29.9575 </r>
       <r>    40.3903     0.3617    30.1019 </r>
       <r>    40.7724     1.0906    30.5187 </r>
       <r>    41.1545     0.4699    30.6982 </r>
       <r>    41.5366     0.5915    30.9381 </r>
       <r>    41.9187     0.8099    31.2475 </r>
       <r>    42.3008     1.2123    31.7118 </r>
       <r>    42.6829     0.5010    31.9093 </r>
       <r>    43.0650     0.2859    32.0185 </r>
       <r>    43.4471     0.8319    32.3364 </r>
       <r>    43.8292     1.5105    32.9136 </r>
       <r>    44.2113     0.6157    33.1516 </r>
       <r>    44.5934     0.4685    33.3307 </r>
       <r>    44.9755     0.6330    33.5725 </r>
       <r>    45.3576     0.2908    33.6852 </r>
       <r>    45.7397     0.2908    33.7963 </r>
       <r>    46.1218     0.6371    34.0397 </r>
       <r>    46.5039     0.5323    34.2431 </r>
       <r>    46.8860     1.0047    34.6270 </r>
       <r>    47.2681     1.4462    35.1796 </r>
       <r>    47.6502     1.2008    35.6489 </r>
       <r>    48.0323     1.0508    36.0592 </r>
       <r>    48.4144     0.6475    36.3183 </r>
       <r>    48.7965     0.5709    36.5523 </r>
       <r>    49.1786     1.0750    36.9630 </r>
       <r>    49.5607     1.5646    37.5609 </r>
       <r>    49.9428     0.6267    37.8282 </r>
       <r>    50.3249     1.1032    38.2498 </r>
       <r>    50.7070     0.2956    38.3628 </r>
       <r>    51.0891     0.4363    38.5371 </r>
       <r>    51.4712     0.7028    38.8056 </r>
       <r>    51.8533     1.3073    39.3147 </r>
       <r>    52.2354     0.0993    39.3528 </r>
       <r>    52.6175     6.2999    41.7599 </r>
       <r>    52.9996     0.9695    42.1305 </r>
       <r>    53.3817     0.6997    42.4113 </r>
       <r>    53.7638     1.0775    42.8230 </r>
       <r>    54.1459     0.7540    43.1111 </r>
       <r>    54.5279     0.7532    43.3989 </r>
       <r>    54.9100     1.0855    43.8139 </r>
       <r>    55.2921     1.0203    44.2037 </r>
       <r>    55.6742     0.2412    44.2958 </r>
       <r>    56.0563     1.1158    44.7222 </r>
       <r>    56.4384     0.1615    44.7839 </r>
       <r>    56.8205     0.9513    45.1474 </r>
       <r>    57.2026     1.3990    45.6820 </r>
       <r>    57.5847     0.5359    45.8892 </r>
       <r>    57.9668     0.8268    46.2051 </r>
       <r>    58.3489     1.1881    46.6591 </r>
       <r>    58.7310     0.6165    46.8974 </r>
       <r>    59.1131     1.0437    47.2962 </r>
       <r>    59.4952     0.3782    47.4408 </r>
       <r>    59.8773     0.2289    47.5504 </r>
       <r>    60.2594     0.0010    47.5745 </r>
       <r>    60.6415     0.1928    47.6481 </r>
       <r>    61.0236     0.2911    47.7594 </r>
       <r>    61.4057     0.1324    47.8100 </r>
       <r>    61.7878     0.2067    47.8889 </r>
       <r>    62.1699     0.1453    47.9444 </r>
       <r>    62.5520     0.0000    47.9444 </r>
       <r>    62.9341     0.0000    47.9444 </r>
       <r>    63.3162     0.1454    48.0000 </r>
       <r>    63.6983     0.0000    48.0000 </r>
       <r>    64.0804     0.0000    48.0000 </r>
       <r>    64.4625     0.0000    48.0000 </r>
       <r>    64.8446     0.0000    48.0000 </r>
       <r>    65.2267     0.0000    48.0000 </r>
       <r>    65.6088     0.0000    48.0000 </r>
       <r>    65.9909     0.0000    48.0000 </r>
       <r>    66.3730     0.0000    48.0000 </r>
       <r>    66.7551     0.0000    48.0000 </r>
       <r>    67.1372     0.0000    48.0000 </r>
       <r>    67.5193     0.0000    48.0000 </r>
       <r>    67.9014     0.0000    48.0000 </r>
       <r>    68.2835     0.0000    48.0000 </r>
      </set>
     </set>
    </array>
   </total>
  </dos>
 </calculation>
 <structure name="finalpos" >
  <crystal>
   <varray name="basis" >
    <v>       0.00000000       1.97000000       1.97000000 </v>
    <v>       1.97000000       0.00000000       1.97000000 </v>
    <v>       1.97000000       1.97000000       0.00000000 </v>
   </varray>
   <i name="volume">     15.29074600 </i>
   <varray name="rec_basis" >
    <v>      -0.25380711       0.25380711       0.25380711 </v>
    <v>       0.25380711      -0.25380711       0.25380711 </v>
    <v>       0.25380711       0.25380711      -0.25380711 </v>
   </varray>
  </crystal>
  <varray name="positions" >
   <v>       0.00000000       0.00000000       0.00000000 </v>
  </varray>
 </structure>
</modeling>
