 vasp.6.3.2 27Jun22 (build Aug 12 2022 00:53:59) complex                        
  
 executed on               tv2STD date 2024.11.30  15:15:03
 running   24 mpi-ranks, with    1 threads/rank
 distrk:  each k-point on   24 cores,    1 groups
 distr:  one band on NCORE=   6 cores,    4 groups


--------------------------------------------------------------------------------------------------------


 INCAR:
   SYSTEM = Co-fcc
   NWRITE = 2    write-flag
   ISTART = 0    job   : 0-new, 1-cont, 2-samecut
   ICHARG = 2    charge: 0-wave, 1-file, 2-atom, >10-const
   INIWAV = 1    electr: 0-lowe 1-rand  2-diag
   ENCUT = 400.0     energy cutoff in eV
   PREC = Accurate      normal | accurate
   ADDGRID = .FALSE.  (use fine grid)
   NELM = 100     number of ELM steps
   EDIFF = 1E-06    energy stopping-criterion for ELM
   LREAL = .FALSE.      real-space projection (.FALSE., .TRUE., On, Auto)
   ALGO = Normal     Normal, Fast, Very_Fast
   LWAVE = .FALSE.
   LCHARG = .FALSE.
   NSW = 0       max number of geometry steps
   IBRION = -1     ionic relax: 0-MD, 1-quasi-Newton, 2-CG, 3-Damped MD
   EDIFFG = -0.02  force (eV/A) stopping-criterion for geometry steps
   ISIF = 2     (1:force\=y stress\=trace only ions\=y shape\=n volume\=n)
   ISYM = 1     (1-use symmetry, 0-no symmetry)
   ISMEAR = 0     (-1-Fermi, 1-Methfessel/Paxton)
   SIGMA = 0.05   broadening in eV
   NPAR = 4
   ISPIN = 2
   MAGMOM = 1*3

 POTCAR:    PAW_PBE Co 02Aug2007                  
 POTCAR:    PAW_PBE Co 02Aug2007                  
   SHA256 =  0e690c60710354995174544f52f9f2c30879afabeffe3b3fbd4001cb294e56d4 Co/POTCAR             
   COPYR  = (c) Copyright 02Aug2007 Georg Kresse                                                    
   COPYR  = This file is part of the software VASP. Any use, copying, and all other rights are regul
   COPYR  = If you do not have a valid VASP license, you may not use, copy or distribute this file. 
   VRHFIN =Co: d8 s1                                                                                
   LEXCH  = PE                                                                                      
   EATOM  =   813.3670 eV,   59.7808 Ry                                                             
                                                                                                    
   TITEL  = PAW_PBE Co 02Aug2007                                                                    
   LULTRA =        F    use ultrasoft PP ?                                                          
   IUNSCR =        1    unscreen: 0-lin 1-nonlin 2-no                                               
   RPACOR =    2.000    partial core radius                                                         
   POMASS =   58.933; ZVAL   =    9.000    mass and valenz                                          
   RCORE  =    2.300    outmost cutoff radius                                                       
   RWIGS  =    2.460; RWIGS  =    1.302    wigner-seitz radius (au A)                               
   ENMAX  =  267.968; ENMIN  =  200.976 eV                                                          
   RCLOC  =    1.203    cutoff for local pot                                                        
   LCOR   =        T    correct aug charges                                                         
   LPAW   =        T    paw PP                                                                      
   EAUG   =  477.818                                                                                
   DEXC   =    0.000                                                                                
   RMAX   =    2.360    core radius for proj-oper                                                   
   RAUG   =    1.300    factor for augmentation sphere                                              
   RDEP   =    2.393    radius for radial grids                                                     
   RDEPT  =    1.864    core radius for aug-charge                                                  
                                                                                                    
   Atomic configuration                                                                             
    9 entries                                                                                       
     n  l   j            E        occ.                                                              
     1  0  0.50     -7587.6674   2.0000                                                             
     2  0  0.50      -893.6084   2.0000                                                             
     2  1  1.50      -764.5805   6.0000                                                             
     3  0  0.50       -97.5973   2.0000                                                             
     3  1  1.50       -60.9648   6.0000                                                             
     3  2  2.50        -4.2382   8.0000                                                             
     4  0  0.50        -4.3746   1.0000                                                             
     4  1  1.50        -4.0817   0.0000                                                             
     4  3  2.50        -1.3606   0.0000                                                             
   Description                                                                                      
     l       E           TYP  RCUT    TYP  RCUT                                                     
     2     -4.2382362     23  2.300                                                                 
     2     -5.5988188     23  2.300                                                                 
     0     -4.3745797     23  2.300                                                                 
     0      5.7660125     23  2.300                                                                 
     1     -2.7211652     23  2.300                                                                 
     1     16.9860234     23  2.300                                                                 
  local pseudopotential read in
  partial core-charges read in
  partial kinetic energy density read in
  atomic valenz-charges read in
  non local Contribution for L=           2  read in
    real space projection operators read in
  non local Contribution for L=           2  read in
    real space projection operators read in
  non local Contribution for L=           0  read in
    real space projection operators read in
  non local Contribution for L=           0  read in
    real space projection operators read in
  non local Contribution for L=           1  read in
    real space projection operators read in
  non local Contribution for L=           1  read in
    real space projection operators read in
    PAW grid and wavefunctions read in
 
   number of l-projection  operators is LMAX  =           6
   number of lm-projection operators is LMMAX =          18
 
  PAW_PBE Co 02Aug2007                  :
 energy of atom  1       EATOM= -813.3670
 kinetic energy error for atom=    0.0093 (will be added to EATOM!!)
 
 
 POSCAR: Co
  positions in cartesian coordinates
  No initial velocities read in
 exchange correlation table for  LEXCH =        8
   RHO(1)=    0.500       N(1)  =     2000
   RHO(2)=  100.500       N(2)  =     4000
 


--------------------------------------------------------------------------------------------------------


 ion  position               nearest neighbor table
   1  0.000  0.000  0.000-
 
  LATTYP: Found a face centered cubic cell.
 ALAT       =     3.5100000000
  
  Lattice vectors:
  
 A1 = (   0.0000000000,   1.7550000000,   1.7550000000)
 A2 = (   1.7550000000,   0.0000000000,   1.7550000000)
 A3 = (   1.7550000000,   1.7550000000,   0.0000000000)


Analysis of symmetry for initial positions (statically):
=====================================================================
 Subroutine PRICEL returns:
 Original cell was already a primitive cell.
 

 Routine SETGRP: Setting up the symmetry group for a 
 face centered cubic supercell.


 Subroutine GETGRP returns: Found 48 space group operations
 (whereof 48 operations were pure point group operations)
 out of a pool of 48 trial point group operations.


The static configuration has the point symmetry O_h .


Analysis of symmetry for dynamics (positions and initial velocities):
=====================================================================
 Subroutine PRICEL returns:
 Original cell was already a primitive cell.
 

 Routine SETGRP: Setting up the symmetry group for a 
 face centered cubic supercell.


 Subroutine GETGRP returns: Found 48 space group operations
 (whereof 48 operations were pure point group operations)
 out of a pool of 48 trial point group operations.


The dynamic configuration has the point symmetry O_h .


Analysis of structural, dynamic, and magnetic symmetry:
=====================================================================
 Subroutine PRICEL returns:
 Original cell was already a primitive cell.
 

 Routine SETGRP: Setting up the symmetry group for a 
 face centered cubic supercell.


 Subroutine GETGRP returns: Found 48 space group operations
 (whereof 48 operations were pure point group operations)
 out of a pool of 48 trial point group operations.


The overall configuration has the point symmetry O_h .


 Subroutine INISYM returns: Found 48 space group operations
 (whereof 48 operations are pure point group operations),
 and found     1 'primitive' translations


----------------------------------------------------------------------------------------

                                     Primitive cell                                     

  volume of cell :      10.8109

  direct lattice vectors                    reciprocal lattice vectors
     0.000000000  1.755000000  1.755000000    -0.284900285  0.284900285  0.284900285
     1.755000000  0.000000000  1.755000000     0.284900285 -0.284900285  0.284900285
     1.755000000  1.755000000  0.000000000     0.284900285  0.284900285 -0.284900285

  length of vectors
     2.481944802  2.481944802  2.481944802     0.493461769  0.493461769  0.493461769

  position of ions in fractional coordinates (direct lattice)
     0.000000000  0.000000000  0.000000000

  ion indices of the primitive-cell ions
   primitive index   ion index
                 1           1

----------------------------------------------------------------------------------------

 
 
 KPOINTS: Automatic mesh                          

Automatic generation of k-mesh.
 Grid dimensions read from file:
 generate k-points for:   12   12   12

 Generating k-lattice:

  Cartesian coordinates                     Fractional coordinates (reciprocal lattice)
    -0.023741690  0.023741690  0.023741690     0.083333333  0.000000000  0.000000000
     0.023741690 -0.023741690  0.023741690     0.000000000  0.083333333  0.000000000
     0.023741690  0.023741690 -0.023741690     0.000000000  0.000000000  0.083333333

  Length of vectors
     0.041121814  0.041121814  0.041121814

  Shift w.r.t. Gamma in fractional coordinates (k-lattice)
     0.500000000  0.500000000  0.500000000

 
 Subroutine IBZKPT returns following result:
 ===========================================
 
 Found    182 irreducible k-points:
 
 Following reciprocal coordinates:
            Coordinates               Weight
  0.041667  0.041667  0.041667      8.000000
  0.125000  0.041667  0.041667     24.000000
  0.208333  0.041667  0.041667     24.000000
  0.291667  0.041667  0.041667     24.000000
  0.375000  0.041667  0.041667     24.000000
  0.458333  0.041667  0.041667     24.000000
 -0.458333  0.041667  0.041667     24.000000
 -0.375000  0.041667  0.041667     24.000000
 -0.291667  0.041667  0.041667     24.000000
 -0.208333  0.041667  0.041667     24.000000
 -0.125000  0.041667  0.041667     24.000000
 -0.041667  0.041667  0.041667     24.000000
  0.125000  0.125000  0.041667     24.000000
  0.208333  0.125000  0.041667     48.000000
  0.291667  0.125000  0.041667     48.000000
  0.375000  0.125000  0.041667     48.000000
  0.458333  0.125000  0.041667     48.000000
 -0.458333  0.125000  0.041667     48.000000
 -0.375000  0.125000  0.041667     48.000000
 -0.291667  0.125000  0.041667     48.000000
 -0.208333  0.125000  0.041667     48.000000
 -0.125000  0.125000  0.041667     48.000000
 -0.041667  0.125000  0.041667     48.000000
  0.208333  0.208333  0.041667     24.000000
  0.291667  0.208333  0.041667     48.000000
  0.375000  0.208333  0.041667     48.000000
  0.458333  0.208333  0.041667     48.000000
 -0.458333  0.208333  0.041667     48.000000
 -0.375000  0.208333  0.041667     48.000000
 -0.291667  0.208333  0.041667     48.000000
 -0.208333  0.208333  0.041667     48.000000
 -0.125000  0.208333  0.041667     48.000000
 -0.041667  0.208333  0.041667     48.000000
  0.291667  0.291667  0.041667     24.000000
  0.375000  0.291667  0.041667     48.000000
  0.458333  0.291667  0.041667     48.000000
 -0.458333  0.291667  0.041667     48.000000
 -0.375000  0.291667  0.041667     48.000000
 -0.291667  0.291667  0.041667     48.000000
 -0.208333  0.291667  0.041667     48.000000
 -0.125000  0.291667  0.041667     48.000000
 -0.041667  0.291667  0.041667     48.000000
  0.375000  0.375000  0.041667     24.000000
  0.458333  0.375000  0.041667     48.000000
 -0.458333  0.375000  0.041667     48.000000
 -0.375000  0.375000  0.041667     48.000000
 -0.291667  0.375000  0.041667     48.000000
 -0.208333  0.375000  0.041667     48.000000
 -0.125000  0.375000  0.041667     48.000000
 -0.041667  0.375000  0.041667     48.000000
  0.458333  0.458333  0.041667     24.000000
 -0.458333  0.458333  0.041667     48.000000
 -0.375000  0.458333  0.041667     48.000000
 -0.291667  0.458333  0.041667     48.000000
 -0.208333  0.458333  0.041667     48.000000
 -0.125000  0.458333  0.041667     48.000000
 -0.041667  0.458333  0.041667     48.000000
 -0.458333 -0.458333  0.041667     24.000000
 -0.375000 -0.458333  0.041667     48.000000
 -0.291667 -0.458333  0.041667     48.000000
 -0.208333 -0.458333  0.041667     48.000000
 -0.125000 -0.458333  0.041667     48.000000
 -0.375000 -0.375000  0.041667     24.000000
 -0.291667 -0.375000  0.041667     48.000000
 -0.208333 -0.375000  0.041667     48.000000
 -0.125000 -0.375000  0.041667     48.000000
 -0.291667 -0.291667  0.041667     24.000000
 -0.208333 -0.291667  0.041667     48.000000
 -0.125000 -0.291667  0.041667     48.000000
 -0.208333 -0.208333  0.041667     24.000000
 -0.125000 -0.208333  0.041667     48.000000
 -0.125000 -0.125000  0.041667     24.000000
  0.125000  0.125000  0.125000      8.000000
  0.208333  0.125000  0.125000     24.000000
  0.291667  0.125000  0.125000     24.000000
  0.375000  0.125000  0.125000     24.000000
  0.458333  0.125000  0.125000     24.000000
 -0.458333  0.125000  0.125000     24.000000
 -0.375000  0.125000  0.125000     24.000000
 -0.291667  0.125000  0.125000     24.000000
 -0.208333  0.125000  0.125000     24.000000
 -0.125000  0.125000  0.125000     24.000000
  0.208333  0.208333  0.125000     24.000000
  0.291667  0.208333  0.125000     48.000000
  0.375000  0.208333  0.125000     48.000000
  0.458333  0.208333  0.125000     48.000000
 -0.458333  0.208333  0.125000     48.000000
 -0.375000  0.208333  0.125000     48.000000
 -0.291667  0.208333  0.125000     48.000000
 -0.208333  0.208333  0.125000     48.000000
 -0.125000  0.208333  0.125000     48.000000
  0.291667  0.291667  0.125000     24.000000
  0.375000  0.291667  0.125000     48.000000
  0.458333  0.291667  0.125000     48.000000
 -0.458333  0.291667  0.125000     48.000000
 -0.375000  0.291667  0.125000     48.000000
 -0.291667  0.291667  0.125000     48.000000
 -0.208333  0.291667  0.125000     48.000000
 -0.125000  0.291667  0.125000     48.000000
  0.375000  0.375000  0.125000     24.000000
  0.458333  0.375000  0.125000     48.000000
 -0.458333  0.375000  0.125000     48.000000
 -0.375000  0.375000  0.125000     48.000000
 -0.291667  0.375000  0.125000     48.000000
 -0.208333  0.375000  0.125000     48.000000
 -0.125000  0.375000  0.125000     48.000000
  0.458333  0.458333  0.125000     24.000000
 -0.458333  0.458333  0.125000     48.000000
 -0.375000  0.458333  0.125000     48.000000
 -0.291667  0.458333  0.125000     48.000000
 -0.208333  0.458333  0.125000     48.000000
 -0.125000  0.458333  0.125000     48.000000
 -0.458333 -0.458333  0.125000     24.000000
 -0.375000 -0.458333  0.125000     48.000000
 -0.291667 -0.458333  0.125000     48.000000
 -0.208333 -0.458333  0.125000     48.000000
 -0.375000 -0.375000  0.125000     24.000000
 -0.291667 -0.375000  0.125000     48.000000
 -0.208333 -0.375000  0.125000     48.000000
 -0.291667 -0.291667  0.125000     24.000000
 -0.208333 -0.291667  0.125000     48.000000
 -0.208333 -0.208333  0.125000     24.000000
  0.208333  0.208333  0.208333      8.000000
  0.291667  0.208333  0.208333     24.000000
  0.375000  0.208333  0.208333     24.000000
  0.458333  0.208333  0.208333     24.000000
 -0.458333  0.208333  0.208333     24.000000
 -0.375000  0.208333  0.208333     24.000000
 -0.291667  0.208333  0.208333     24.000000
 -0.208333  0.208333  0.208333     24.000000
  0.291667  0.291667  0.208333     24.000000
  0.375000  0.291667  0.208333     48.000000
  0.458333  0.291667  0.208333     48.000000
 -0.458333  0.291667  0.208333     48.000000
 -0.375000  0.291667  0.208333     48.000000
 -0.291667  0.291667  0.208333     48.000000
 -0.208333  0.291667  0.208333     48.000000
  0.375000  0.375000  0.208333     24.000000
  0.458333  0.375000  0.208333     48.000000
 -0.458333  0.375000  0.208333     48.000000
 -0.375000  0.375000  0.208333     48.000000
 -0.291667  0.375000  0.208333     48.000000
 -0.208333  0.375000  0.208333     48.000000
  0.458333  0.458333  0.208333     24.000000
 -0.458333  0.458333  0.208333     48.000000
 -0.375000  0.458333  0.208333     48.000000
 -0.291667  0.458333  0.208333     48.000000
 -0.208333  0.458333  0.208333     48.000000
 -0.458333 -0.458333  0.208333     24.000000
 -0.375000 -0.458333  0.208333     48.000000
 -0.291667 -0.458333  0.208333     48.000000
 -0.375000 -0.375000  0.208333     24.000000
 -0.291667 -0.375000  0.208333     48.000000
 -0.291667 -0.291667  0.208333     24.000000
  0.291667  0.291667  0.291667      8.000000
  0.375000  0.291667  0.291667     24.000000
  0.458333  0.291667  0.291667     24.000000
 -0.458333  0.291667  0.291667     24.000000
 -0.375000  0.291667  0.291667     24.000000
 -0.291667  0.291667  0.291667     24.000000
  0.375000  0.375000  0.291667     24.000000
  0.458333  0.375000  0.291667     48.000000
 -0.458333  0.375000  0.291667     48.000000
 -0.375000  0.375000  0.291667     48.000000
 -0.291667  0.375000  0.291667     48.000000
  0.458333  0.458333  0.291667     24.000000
 -0.458333  0.458333  0.291667     48.000000
 -0.375000  0.458333  0.291667     48.000000
 -0.291667  0.458333  0.291667     48.000000
 -0.458333 -0.458333  0.291667     24.000000
 -0.375000 -0.458333  0.291667     48.000000
 -0.375000 -0.375000  0.291667     24.000000
  0.375000  0.375000  0.375000      8.000000
  0.458333  0.375000  0.375000     24.000000
 -0.458333  0.375000  0.375000     24.000000
 -0.375000  0.375000  0.375000     24.000000
  0.458333  0.458333  0.375000     24.000000
 -0.458333  0.458333  0.375000     48.000000
 -0.375000  0.458333  0.375000     48.000000
 -0.458333 -0.458333  0.375000     24.000000
  0.458333  0.458333  0.458333      8.000000
 -0.458333  0.458333  0.458333     24.000000
 
 Following cartesian coordinates:
            Coordinates               Weight
  0.011871  0.011871  0.011871      8.000000
 -0.011871  0.035613  0.035613     24.000000
 -0.035613  0.059354  0.059354     24.000000
 -0.059354  0.083096  0.083096     24.000000
 -0.083096  0.106838  0.106838     24.000000
 -0.106838  0.130579  0.130579     24.000000
  0.154321 -0.130579 -0.130579     24.000000
  0.130579 -0.106838 -0.106838     24.000000
  0.106838 -0.083096 -0.083096     24.000000
  0.083096 -0.059354 -0.059354     24.000000
  0.059354 -0.035613 -0.035613     24.000000
  0.035613 -0.011871 -0.011871     24.000000
  0.011871  0.011871  0.059354     24.000000
 -0.011871  0.035613  0.083096     48.000000
 -0.035613  0.059354  0.106838     48.000000
 -0.059354  0.083096  0.130579     48.000000
 -0.083096  0.106838  0.154321     48.000000
  0.178063 -0.154321 -0.106838     48.000000
  0.154321 -0.130579 -0.083096     48.000000
  0.130579 -0.106838 -0.059354     48.000000
  0.106838 -0.083096 -0.035613     48.000000
  0.083096 -0.059354 -0.011871     48.000000
  0.059354 -0.035613  0.011871     48.000000
  0.011871  0.011871  0.106838     24.000000
 -0.011871  0.035613  0.130579     48.000000
 -0.035613  0.059354  0.154321     48.000000
 -0.059354  0.083096  0.178063     48.000000
  0.201804 -0.178063 -0.083096     48.000000
  0.178063 -0.154321 -0.059354     48.000000
  0.154321 -0.130579 -0.035613     48.000000
  0.130579 -0.106838 -0.011871     48.000000
  0.106838 -0.083096  0.011871     48.000000
  0.083096 -0.059354  0.035613     48.000000
  0.011871  0.011871  0.154321     24.000000
 -0.011871  0.035613  0.178063     48.000000
 -0.035613  0.059354  0.201804     48.000000
  0.225546 -0.201804 -0.059354     48.000000
  0.201804 -0.178063 -0.035613     48.000000
  0.178063 -0.154321 -0.011871     48.000000
  0.154321 -0.130579  0.011871     48.000000
  0.130579 -0.106838  0.035613     48.000000
  0.106838 -0.083096  0.059354     48.000000
  0.011871  0.011871  0.201804     24.000000
 -0.011871  0.035613  0.225546     48.000000
  0.249288 -0.225546 -0.035613     48.000000
  0.225546 -0.201804 -0.011871     48.000000
  0.201804 -0.178063  0.011871     48.000000
  0.178063 -0.154321  0.035613     48.000000
  0.154321 -0.130579  0.059354     48.000000
  0.130579 -0.106838  0.083096     48.000000
  0.011871  0.011871  0.249288     24.000000
  0.273029 -0.249288 -0.011871     48.000000
  0.249288 -0.225546  0.011871     48.000000
  0.225546 -0.201804  0.035613     48.000000
  0.201804 -0.178063  0.059354     48.000000
  0.178063 -0.154321  0.083096     48.000000
  0.154321 -0.130579  0.106838     48.000000
  0.011871  0.011871 -0.273029     24.000000
 -0.011871  0.035613 -0.249288     48.000000
 -0.035613  0.059354 -0.225546     48.000000
 -0.059354  0.083096 -0.201804     48.000000
 -0.083096  0.106838 -0.178063     48.000000
  0.011871  0.011871 -0.225546     24.000000
 -0.011871  0.035613 -0.201804     48.000000
 -0.035613  0.059354 -0.178063     48.000000
 -0.059354  0.083096 -0.154321     48.000000
  0.011871  0.011871 -0.178063     24.000000
 -0.011871  0.035613 -0.154321     48.000000
 -0.035613  0.059354 -0.130579     48.000000
  0.011871  0.011871 -0.130579     24.000000
 -0.011871  0.035613 -0.106838     48.000000
  0.011871  0.011871 -0.083096     24.000000
  0.035613  0.035613  0.035613      8.000000
  0.011871  0.059354  0.059354     24.000000
 -0.011871  0.083096  0.083096     24.000000
 -0.035613  0.106838  0.106838     24.000000
 -0.059354  0.130579  0.130579     24.000000
  0.201804 -0.130579 -0.130579     24.000000
  0.178063 -0.106838 -0.106838     24.000000
  0.154321 -0.083096 -0.083096     24.000000
  0.130579 -0.059354 -0.059354     24.000000
  0.106838 -0.035613 -0.035613     24.000000
  0.035613  0.035613  0.083096     24.000000
  0.011871  0.059354  0.106838     48.000000
 -0.011871  0.083096  0.130579     48.000000
 -0.035613  0.106838  0.154321     48.000000
  0.225546 -0.154321 -0.106838     48.000000
  0.201804 -0.130579 -0.083096     48.000000
  0.178063 -0.106838 -0.059354     48.000000
  0.154321 -0.083096 -0.035613     48.000000
  0.130579 -0.059354 -0.011871     48.000000
  0.035613  0.035613  0.130579     24.000000
  0.011871  0.059354  0.154321     48.000000
 -0.011871  0.083096  0.178063     48.000000
  0.249288 -0.178063 -0.083096     48.000000
  0.225546 -0.154321 -0.059354     48.000000
  0.201804 -0.130579 -0.035613     48.000000
  0.178063 -0.106838 -0.011871     48.000000
  0.154321 -0.083096  0.011871     48.000000
  0.035613  0.035613  0.178063     24.000000
  0.011871  0.059354  0.201804     48.000000
  0.273029 -0.201804 -0.059354     48.000000
  0.249288 -0.178063 -0.035613     48.000000
  0.225546 -0.154321 -0.011871     48.000000
  0.201804 -0.130579  0.011871     48.000000
  0.178063 -0.106838  0.035613     48.000000
  0.035613  0.035613  0.225546     24.000000
  0.296771 -0.225546 -0.035613     48.000000
  0.273029 -0.201804 -0.011871     48.000000
  0.249288 -0.178063  0.011871     48.000000
  0.225546 -0.154321  0.035613     48.000000
  0.201804 -0.130579  0.059354     48.000000
  0.035613  0.035613 -0.296771     24.000000
  0.011871  0.059354 -0.273029     48.000000
 -0.011871  0.083096 -0.249288     48.000000
 -0.035613  0.106838 -0.225546     48.000000
  0.035613  0.035613 -0.249288     24.000000
  0.011871  0.059354 -0.225546     48.000000
 -0.011871  0.083096 -0.201804     48.000000
  0.035613  0.035613 -0.201804     24.000000
  0.011871  0.059354 -0.178063     48.000000
  0.035613  0.035613 -0.154321     24.000000
  0.059354  0.059354  0.059354      8.000000
  0.035613  0.083096  0.083096     24.000000
  0.011871  0.106838  0.106838     24.000000
 -0.011871  0.130579  0.130579     24.000000
  0.249288 -0.130579 -0.130579     24.000000
  0.225546 -0.106838 -0.106838     24.000000
  0.201804 -0.083096 -0.083096     24.000000
  0.178063 -0.059354 -0.059354     24.000000
  0.059354  0.059354  0.106838     24.000000
  0.035613  0.083096  0.130579     48.000000
  0.011871  0.106838  0.154321     48.000000
  0.273029 -0.154321 -0.106838     48.000000
  0.249288 -0.130579 -0.083096     48.000000
  0.225546 -0.106838 -0.059354     48.000000
  0.201804 -0.083096 -0.035613     48.000000
  0.059354  0.059354  0.154321     24.000000
  0.035613  0.083096  0.178063     48.000000
  0.296771 -0.178063 -0.083096     48.000000
  0.273029 -0.154321 -0.059354     48.000000
  0.249288 -0.130579 -0.035613     48.000000
  0.225546 -0.106838 -0.011871     48.000000
  0.059354  0.059354  0.201804     24.000000
  0.320513 -0.201804 -0.059354     48.000000
  0.296771 -0.178063 -0.035613     48.000000
  0.273029 -0.154321 -0.011871     48.000000
  0.249288 -0.130579  0.011871     48.000000
  0.059354  0.059354 -0.320513     24.000000
  0.035613  0.083096 -0.296771     48.000000
  0.011871  0.106838 -0.273029     48.000000
  0.059354  0.059354 -0.273029     24.000000
  0.035613  0.083096 -0.249288     48.000000
  0.059354  0.059354 -0.225546     24.000000
  0.083096  0.083096  0.083096      8.000000
  0.059354  0.106838  0.106838     24.000000
  0.035613  0.130579  0.130579     24.000000
  0.296771 -0.130579 -0.130579     24.000000
  0.273029 -0.106838 -0.106838     24.000000
  0.249288 -0.083096 -0.083096     24.000000
  0.083096  0.083096  0.130579     24.000000
  0.059354  0.106838  0.154321     48.000000
  0.320513 -0.154321 -0.106838     48.000000
  0.296771 -0.130579 -0.083096     48.000000
  0.273029 -0.106838 -0.059354     48.000000
  0.083096  0.083096  0.178063     24.000000
  0.344255 -0.178063 -0.083096     48.000000
  0.320513 -0.154321 -0.059354     48.000000
  0.296771 -0.130579 -0.035613     48.000000
  0.083096  0.083096 -0.344255     24.000000
  0.059354  0.106838 -0.320513     48.000000
  0.083096  0.083096 -0.296771     24.000000
  0.106838  0.106838  0.106838      8.000000
  0.083096  0.130579  0.130579     24.000000
  0.344255 -0.130579 -0.130579     24.000000
  0.320513 -0.106838 -0.106838     24.000000
  0.106838  0.106838  0.154321     24.000000
  0.367996 -0.154321 -0.106838     48.000000
  0.344255 -0.130579 -0.083096     48.000000
  0.106838  0.106838 -0.367996     24.000000
  0.130579  0.130579  0.130579      8.000000
  0.391738 -0.130579 -0.130579     24.000000
 


--------------------------------------------------------------------------------------------------------




 Dimension of arrays:
   k-points           NKPTS =    182   k-points in BZ     NKDIM =    182   number of bands    NBANDS=     12
   number of dos      NEDOS =    301   number of ions     NIONS =      1
   non local maximal  LDIM  =      6   non local SUM 2l+1 LMDIM =     18
   total plane-waves  NPLWV =   4096
   max r-space proj   IRMAX =      1   max aug-charges    IRDMAX=  15140
   dimension x,y,z NGX =    16 NGY =   16 NGZ =   16
   dimension x,y,z NGXF=    32 NGYF=   32 NGZF=   32
   support grid    NGXF=    32 NGYF=   32 NGZF=   32
   ions per type =               1
   NGX,Y,Z   is equivalent  to a cutoff of  10.72, 10.72, 10.72 a.u.
   NGXF,Y,Z  is equivalent  to a cutoff of  21.43, 21.43, 21.43 a.u.

 SYSTEM =  Co-fcc                                  
 POSCAR =  Co                                      

 Startparameter for this run:
   NWRITE =      2    write-flag & timer
   PREC   = accura    normal or accurate (medium, high low for compatibility)
   ISTART =      0    job   : 0-new  1-cont  2-samecut
   ICHARG =      2    charge: 1-file 2-atom 10-const
   ISPIN  =      2    spin polarized calculation?
   LNONCOLLINEAR =      F non collinear calculations
   LSORBIT =      F    spin-orbit coupling
   INIWAV =      1    electr: 0-lowe 1-rand  2-diag
   LASPH  =      F    aspherical Exc in radial PAW
 Electronic Relaxation 1
   ENCUT  =  400.0 eV  29.40 Ry    5.42 a.u.   4.05  4.05  4.05*2*pi/ulx,y,z
   ENINI  =  400.0     initial cutoff
   ENAUG  =  477.8 eV  augmentation charge cutoff
   NELM   =    100;   NELMIN=  2; NELMDL= -5     # of ELM steps 
   EDIFF  = 0.1E-05   stopping-criterion for ELM
   LREAL  =      F    real-space projection
   NLSPLINE    = F    spline interpolate recip. space projectors
   LCOMPAT=      F    compatible to vasp.4.4
   GGA_COMPAT  = T    GGA compatible to vasp.4.4-vasp.4.6
   LMAXPAW     = -100 max onsite density
   LMAXMIX     =    2 max onsite mixed and CHGCAR
   VOSKOWN=      0    Vosko Wilk Nusair interpolation
   ROPT   =    0.00000
 Ionic relaxation
   EDIFFG = -.2E-01   stopping-criterion for IOM
   NSW    =      0    number of steps for IOM
   NBLOCK =      1;   KBLOCK =      1    inner block; outer block 
   IBRION =     -1    ionic relax: 0-MD 1-quasi-New 2-CG
   NFREE  =      0    steps in history (QN), initial steepest desc. (CG)
   ISIF   =      2    stress and relaxation
   IWAVPR =     10    prediction:  0-non 1-charg 2-wave 3-comb
   ISYM   =      1    0-nonsym 1-usesym 2-fastsym
   LCORR  =      T    Harris-Foulkes like correction to forces

   POTIM  = 0.5000    time-step for ionic-motion
   TEIN   =    0.0    initial temperature
   TEBEG  =    0.0;   TEEND  =   0.0 temperature during run
   SMASS  =  -3.00    Nose mass-parameter (am)
   estimated Nose-frequenzy (Omega)   =  0.10E-29 period in steps = 0.13E+47 mass=  -0.141E-27a.u.
   SCALEE = 1.0000    scale energy and forces
   NPACO  =    256;   APACO  = 10.0  distance and # of slots for P.C.
   PSTRESS=    0.0 pullay stress

  Mass of Ions in am
   POMASS =  58.93
  Ionic Valenz
   ZVAL   =   9.00
  Atomic Wigner-Seitz radii
   RWIGS  =  -1.00
  virtual crystal weights 
   VCA    =   1.00
   NELECT =       9.0000    total number of electrons
   NUPDOWN=      -1.0000    fix difference up-down

 DOS related values:
   EMIN   =  10.00;   EMAX   =-10.00  energy-range for DOS
   EFERMI =   0.00
   ISMEAR =     0;   SIGMA  =   0.05  broadening in eV -4-tet -1-fermi 0-gaus

 Electronic relaxation 2 (details)
   IALGO  =     38    algorithm
   LDIAG  =      T    sub-space diagonalisation (order eigenvalues)
   LSUBROT=      F    optimize rotation matrix (better conditioning)
   TURBO    =      0    0=normal 1=particle mesh
   IRESTART =      0    0=no restart 2=restart with 2 vectors
   NREBOOT  =      0    no. of reboots
   NMIN     =      0    reboot dimension
   EREF     =   0.00    reference energy to select bands
   IMIX   =      4    mixing-type and parameters
     AMIX     =   0.40;   BMIX     =  1.00
     AMIX_MAG =   1.60;   BMIX_MAG =  1.00
     AMIN     =   0.10
     WC   =   100.;   INIMIX=   1;  MIXPRE=   1;  MAXMIX= -45

 Intra band minimization:
   WEIMIN = 0.0000     energy-eigenvalue tresh-hold
   EBREAK =  0.21E-07  absolut break condition
   DEPER  =   0.30     relativ break condition  

   TIME   =   0.40     timestep for ELM

  volume/ion in A,a.u.               =      10.81        72.96
  Fermi-wavevector in a.u.,A,eV,Ry     =   1.540051  2.910275 32.269731  2.371758
  Thomas-Fermi vector in A             =   2.646193
 
 Write flags
   LWAVE        =      F    write WAVECAR
   LDOWNSAMPLE  =      F    k-point downsampling of WAVECAR
   LCHARG       =      F    write CHGCAR
   LVTOT        =      F    write LOCPOT, total local potential
   LVHAR        =      F    write LOCPOT, Hartree potential only
   LELF         =      F    write electronic localiz. function (ELF)
   LORBIT       =      0    0 simple, 1 ext, 2 COOP (PROOUT), +10 PAW based schemes


 Dipole corrections
   LMONO  =      F    monopole corrections only (constant potential shift)
   LDIPOL =      F    correct potential (dipole corrections)
   IDIPOL =      0    1-x, 2-y, 3-z, 4-all directions 
   EPSILON=  1.0000000 bulk dielectric constant

 Exchange correlation treatment:
   GGA     =    --    GGA type
   LEXCH   =     8    internal setting for exchange type
   LIBXC   =     F    Libxc                    
   VOSKOWN =     0    Vosko Wilk Nusair interpolation
   LHFCALC =     F    Hartree Fock is set to
   LHFONE  =     F    Hartree Fock one center treatment
   AEXX    =    0.0000 exact exchange contribution

 Linear response parameters
   LEPSILON=     F    determine dielectric tensor
   LRPA    =     F    only Hartree local field effects (RPA)
   LNABLA  =     F    use nabla operator in PAW spheres
   LVEL    =     F    velocity operator in full k-point grid
   CSHIFT  =0.1000    complex shift for real part using Kramers Kronig
   OMEGAMAX=  -1.0    maximum frequency
   DEG_THRESHOLD= 0.2000000E-02 threshold for treating states as degnerate
   RTIME   =   -0.100 relaxation time in fs
  (WPLASMAI=    0.000 imaginary part of plasma frequency in eV, 0.658/RTIME)
   DFIELD  = 0.0000000 0.0000000 0.0000000 field for delta impulse in time
 
  Optional k-point grid parameters
   LKPOINTS_OPT  =     F    use optional k-point grid
   KPOINTS_OPT_MODE=     1    mode for optional k-point grid
 
 Orbital magnetization related:
   ORBITALMAG=     F  switch on orbital magnetization
   LCHIMAG   =     F  perturbation theory with respect to B field
   DQ        =  0.001000  dq finite difference perturbation B field
   LLRAUG    =     F  two centre corrections for induced B field



--------------------------------------------------------------------------------------------------------


 Static calculation
 charge density and potential will be updated during run
 spin polarized calculation
 Variant of blocked Davidson
 Davidson routine will perform the subspace rotation
 perform sub-space diagonalisation
    after iterative eigenvector-optimisation
 modified Broyden-mixing scheme, WC =      100.0
 initial mixing is a Kerker type mixing with AMIX =  0.4000 and BMIX =      1.0000
 Hartree-type preconditioning will be used
 using additional bands            7
 reciprocal scheme for non local part
 use partial core corrections
 calculate Harris-corrections to forces 
   (improved forces if not selfconsistent)
 use gradient corrections 
 use of overlap-Matrix (Vanderbilt PP)
 Gauss-broadening in eV      SIGMA  =   0.05


--------------------------------------------------------------------------------------------------------


  energy-cutoff  :      400.00
  volume of cell :       10.81
      direct lattice vectors                 reciprocal lattice vectors
     0.000000000  1.755000000  1.755000000    -0.284900285  0.284900285  0.284900285
     1.755000000  0.000000000  1.755000000     0.284900285 -0.284900285  0.284900285
     1.755000000  1.755000000  0.000000000     0.284900285  0.284900285 -0.284900285

  length of vectors
     2.481944802  2.481944802  2.481944802     0.493461769  0.493461769  0.493461769


 
 k-points in units of 2pi/SCALE and weight: Automatic mesh                          
   0.01187085  0.01187085  0.01187085       0.001
  -0.01187085  0.03561254  0.03561254       0.003
  -0.03561254  0.05935423  0.05935423       0.003
  -0.05935423  0.08309592  0.08309592       0.003
  -0.08309592  0.10683761  0.10683761       0.003
  -0.10683761  0.13057930  0.13057930       0.003
   0.15432099 -0.13057930 -0.13057930       0.003
   0.13057930 -0.10683761 -0.10683761       0.003
   0.10683761 -0.08309592 -0.08309592       0.003
   0.08309592 -0.05935423 -0.05935423       0.003
   0.05935423 -0.03561254 -0.03561254       0.003
   0.03561254 -0.01187085 -0.01187085       0.003
   0.01187085  0.01187085  0.05935423       0.003
  -0.01187085  0.03561254  0.08309592       0.007
  -0.03561254  0.05935423  0.10683761       0.007
  -0.05935423  0.08309592  0.13057930       0.007
  -0.08309592  0.10683761  0.15432099       0.007
   0.17806268 -0.15432099 -0.10683761       0.007
   0.15432099 -0.13057930 -0.08309592       0.007
   0.13057930 -0.10683761 -0.05935423       0.007
   0.10683761 -0.08309592 -0.03561254       0.007
   0.08309592 -0.05935423 -0.01187085       0.007
   0.05935423 -0.03561254  0.01187085       0.007
   0.01187085  0.01187085  0.10683761       0.003
  -0.01187085  0.03561254  0.13057930       0.007
  -0.03561254  0.05935423  0.15432099       0.007
  -0.05935423  0.08309592  0.17806268       0.007
   0.20180437 -0.17806268 -0.08309592       0.007
   0.17806268 -0.15432099 -0.05935423       0.007
   0.15432099 -0.13057930 -0.03561254       0.007
   0.13057930 -0.10683761 -0.01187085       0.007
   0.10683761 -0.08309592  0.01187085       0.007
   0.08309592 -0.05935423  0.03561254       0.007
   0.01187085  0.01187085  0.15432099       0.003
  -0.01187085  0.03561254  0.17806268       0.007
  -0.03561254  0.05935423  0.20180437       0.007
   0.22554606 -0.20180437 -0.05935423       0.007
   0.20180437 -0.17806268 -0.03561254       0.007
   0.17806268 -0.15432099 -0.01187085       0.007
   0.15432099 -0.13057930  0.01187085       0.007
   0.13057930 -0.10683761  0.03561254       0.007
   0.10683761 -0.08309592  0.05935423       0.007
   0.01187085  0.01187085  0.20180437       0.003
  -0.01187085  0.03561254  0.22554606       0.007
   0.24928775 -0.22554606 -0.03561254       0.007
   0.22554606 -0.20180437 -0.01187085       0.007
   0.20180437 -0.17806268  0.01187085       0.007
   0.17806268 -0.15432099  0.03561254       0.007
   0.15432099 -0.13057930  0.05935423       0.007
   0.13057930 -0.10683761  0.08309592       0.007
   0.01187085  0.01187085  0.24928775       0.003
   0.27302944 -0.24928775 -0.01187085       0.007
   0.24928775 -0.22554606  0.01187085       0.007
   0.22554606 -0.20180437  0.03561254       0.007
   0.20180437 -0.17806268  0.05935423       0.007
   0.17806268 -0.15432099  0.08309592       0.007
   0.15432099 -0.13057930  0.10683761       0.007
   0.01187085  0.01187085 -0.27302944       0.003
  -0.01187085  0.03561254 -0.24928775       0.007
  -0.03561254  0.05935423 -0.22554606       0.007
  -0.05935423  0.08309592 -0.20180437       0.007
  -0.08309592  0.10683761 -0.17806268       0.007
   0.01187085  0.01187085 -0.22554606       0.003
  -0.01187085  0.03561254 -0.20180437       0.007
  -0.03561254  0.05935423 -0.17806268       0.007
  -0.05935423  0.08309592 -0.15432099       0.007
   0.01187085  0.01187085 -0.17806268       0.003
  -0.01187085  0.03561254 -0.15432099       0.007
  -0.03561254  0.05935423 -0.13057930       0.007
   0.01187085  0.01187085 -0.13057930       0.003
  -0.01187085  0.03561254 -0.10683761       0.007
   0.01187085  0.01187085 -0.08309592       0.003
   0.03561254  0.03561254  0.03561254       0.001
   0.01187085  0.05935423  0.05935423       0.003
  -0.01187085  0.08309592  0.08309592       0.003
  -0.03561254  0.10683761  0.10683761       0.003
  -0.05935423  0.13057930  0.13057930       0.003
   0.20180437 -0.13057930 -0.13057930       0.003
   0.17806268 -0.10683761 -0.10683761       0.003
   0.15432099 -0.08309592 -0.08309592       0.003
   0.13057930 -0.05935423 -0.05935423       0.003
   0.10683761 -0.03561254 -0.03561254       0.003
   0.03561254  0.03561254  0.08309592       0.003
   0.01187085  0.05935423  0.10683761       0.007
  -0.01187085  0.08309592  0.13057930       0.007
  -0.03561254  0.10683761  0.15432099       0.007
   0.22554606 -0.15432099 -0.10683761       0.007
   0.20180437 -0.13057930 -0.08309592       0.007
   0.17806268 -0.10683761 -0.05935423       0.007
   0.15432099 -0.08309592 -0.03561254       0.007
   0.13057930 -0.05935423 -0.01187085       0.007
   0.03561254  0.03561254  0.13057930       0.003
   0.01187085  0.05935423  0.15432099       0.007
  -0.01187085  0.08309592  0.17806268       0.007
   0.24928775 -0.17806268 -0.08309592       0.007
   0.22554606 -0.15432099 -0.05935423       0.007
   0.20180437 -0.13057930 -0.03561254       0.007
   0.17806268 -0.10683761 -0.01187085       0.007
   0.15432099 -0.08309592  0.01187085       0.007
   0.03561254  0.03561254  0.17806268       0.003
   0.01187085  0.05935423  0.20180437       0.007
   0.27302944 -0.20180437 -0.05935423       0.007
   0.24928775 -0.17806268 -0.03561254       0.007
   0.22554606 -0.15432099 -0.01187085       0.007
   0.20180437 -0.13057930  0.01187085       0.007
   0.17806268 -0.10683761  0.03561254       0.007
   0.03561254  0.03561254  0.22554606       0.003
   0.29677113 -0.22554606 -0.03561254       0.007
   0.27302944 -0.20180437 -0.01187085       0.007
   0.24928775 -0.17806268  0.01187085       0.007
   0.22554606 -0.15432099  0.03561254       0.007
   0.20180437 -0.13057930  0.05935423       0.007
   0.03561254  0.03561254 -0.29677113       0.003
   0.01187085  0.05935423 -0.27302944       0.007
  -0.01187085  0.08309592 -0.24928775       0.007
  -0.03561254  0.10683761 -0.22554606       0.007
   0.03561254  0.03561254 -0.24928775       0.003
   0.01187085  0.05935423 -0.22554606       0.007
  -0.01187085  0.08309592 -0.20180437       0.007
   0.03561254  0.03561254 -0.20180437       0.003
   0.01187085  0.05935423 -0.17806268       0.007
   0.03561254  0.03561254 -0.15432099       0.003
   0.05935423  0.05935423  0.05935423       0.001
   0.03561254  0.08309592  0.08309592       0.003
   0.01187085  0.10683761  0.10683761       0.003
  -0.01187085  0.13057930  0.13057930       0.003
   0.24928775 -0.13057930 -0.13057930       0.003
   0.22554606 -0.10683761 -0.10683761       0.003
   0.20180437 -0.08309592 -0.08309592       0.003
   0.17806268 -0.05935423 -0.05935423       0.003
   0.05935423  0.05935423  0.10683761       0.003
   0.03561254  0.08309592  0.13057930       0.007
   0.01187085  0.10683761  0.15432099       0.007
   0.27302944 -0.15432099 -0.10683761       0.007
   0.24928775 -0.13057930 -0.08309592       0.007
   0.22554606 -0.10683761 -0.05935423       0.007
   0.20180437 -0.08309592 -0.03561254       0.007
   0.05935423  0.05935423  0.15432099       0.003
   0.03561254  0.08309592  0.17806268       0.007
   0.29677113 -0.17806268 -0.08309592       0.007
   0.27302944 -0.15432099 -0.05935423       0.007
   0.24928775 -0.13057930 -0.03561254       0.007
   0.22554606 -0.10683761 -0.01187085       0.007
   0.05935423  0.05935423  0.20180437       0.003
   0.32051282 -0.20180437 -0.05935423       0.007
   0.29677113 -0.17806268 -0.03561254       0.007
   0.27302944 -0.15432099 -0.01187085       0.007
   0.24928775 -0.13057930  0.01187085       0.007
   0.05935423  0.05935423 -0.32051282       0.003
   0.03561254  0.08309592 -0.29677113       0.007
   0.01187085  0.10683761 -0.27302944       0.007
   0.05935423  0.05935423 -0.27302944       0.003
   0.03561254  0.08309592 -0.24928775       0.007
   0.05935423  0.05935423 -0.22554606       0.003
   0.08309592  0.08309592  0.08309592       0.001
   0.05935423  0.10683761  0.10683761       0.003
   0.03561254  0.13057930  0.13057930       0.003
   0.29677113 -0.13057930 -0.13057930       0.003
   0.27302944 -0.10683761 -0.10683761       0.003
   0.24928775 -0.08309592 -0.08309592       0.003
   0.08309592  0.08309592  0.13057930       0.003
   0.05935423  0.10683761  0.15432099       0.007
   0.32051282 -0.15432099 -0.10683761       0.007
   0.29677113 -0.13057930 -0.08309592       0.007
   0.27302944 -0.10683761 -0.05935423       0.007
   0.08309592  0.08309592  0.17806268       0.003
   0.34425451 -0.17806268 -0.08309592       0.007
   0.32051282 -0.15432099 -0.05935423       0.007
   0.29677113 -0.13057930 -0.03561254       0.007
   0.08309592  0.08309592 -0.34425451       0.003
   0.05935423  0.10683761 -0.32051282       0.007
   0.08309592  0.08309592 -0.29677113       0.003
   0.10683761  0.10683761  0.10683761       0.001
   0.08309592  0.13057930  0.13057930       0.003
   0.34425451 -0.13057930 -0.13057930       0.003
   0.32051282 -0.10683761 -0.10683761       0.003
   0.10683761  0.10683761  0.15432099       0.003
   0.36799620 -0.15432099 -0.10683761       0.007
   0.34425451 -0.13057930 -0.08309592       0.007
   0.10683761  0.10683761 -0.36799620       0.003
   0.13057930  0.13057930  0.13057930       0.001
   0.39173789 -0.13057930 -0.13057930       0.003
 
 k-points in reciprocal lattice and weights: Automatic mesh                          
   0.04166667  0.04166667  0.04166667       0.001
   0.12500000  0.04166667  0.04166667       0.003
   0.20833333  0.04166667  0.04166667       0.003
   0.29166667  0.04166667  0.04166667       0.003
   0.37500000  0.04166667  0.04166667       0.003
   0.45833333  0.04166667  0.04166667       0.003
  -0.45833333  0.04166667  0.04166667       0.003
  -0.37500000  0.04166667  0.04166667       0.003
  -0.29166667  0.04166667  0.04166667       0.003
  -0.20833333  0.04166667  0.04166667       0.003
  -0.12500000  0.04166667  0.04166667       0.003
  -0.04166667  0.04166667  0.04166667       0.003
   0.12500000  0.12500000  0.04166667       0.003
   0.20833333  0.12500000  0.04166667       0.007
   0.29166667  0.12500000  0.04166667       0.007
   0.37500000  0.12500000  0.04166667       0.007
   0.45833333  0.12500000  0.04166667       0.007
  -0.45833333  0.12500000  0.04166667       0.007
  -0.37500000  0.12500000  0.04166667       0.007
  -0.29166667  0.12500000  0.04166667       0.007
  -0.20833333  0.12500000  0.04166667       0.007
  -0.12500000  0.12500000  0.04166667       0.007
  -0.04166667  0.12500000  0.04166667       0.007
   0.20833333  0.20833333  0.04166667       0.003
   0.29166667  0.20833333  0.04166667       0.007
   0.37500000  0.20833333  0.04166667       0.007
   0.45833333  0.20833333  0.04166667       0.007
  -0.45833333  0.20833333  0.04166667       0.007
  -0.37500000  0.20833333  0.04166667       0.007
  -0.29166667  0.20833333  0.04166667       0.007
  -0.20833333  0.20833333  0.04166667       0.007
  -0.12500000  0.20833333  0.04166667       0.007
  -0.04166667  0.20833333  0.04166667       0.007
   0.29166667  0.29166667  0.04166667       0.003
   0.37500000  0.29166667  0.04166667       0.007
   0.45833333  0.29166667  0.04166667       0.007
  -0.45833333  0.29166667  0.04166667       0.007
  -0.37500000  0.29166667  0.04166667       0.007
  -0.29166667  0.29166667  0.04166667       0.007
  -0.20833333  0.29166667  0.04166667       0.007
  -0.12500000  0.29166667  0.04166667       0.007
  -0.04166667  0.29166667  0.04166667       0.007
   0.37500000  0.37500000  0.04166667       0.003
   0.45833333  0.37500000  0.04166667       0.007
  -0.45833333  0.37500000  0.04166667       0.007
  -0.37500000  0.37500000  0.04166667       0.007
  -0.29166667  0.37500000  0.04166667       0.007
  -0.20833333  0.37500000  0.04166667       0.007
  -0.12500000  0.37500000  0.04166667       0.007
  -0.04166667  0.37500000  0.04166667       0.007
   0.45833333  0.45833333  0.04166667       0.003
  -0.45833333  0.45833333  0.04166667       0.007
  -0.37500000  0.45833333  0.04166667       0.007
  -0.29166667  0.45833333  0.04166667       0.007
  -0.20833333  0.45833333  0.04166667       0.007
  -0.12500000  0.45833333  0.04166667       0.007
  -0.04166667  0.45833333  0.04166667       0.007
  -0.45833333 -0.45833333  0.04166667       0.003
  -0.37500000 -0.45833333  0.04166667       0.007
  -0.29166667 -0.45833333  0.04166667       0.007
  -0.20833333 -0.45833333  0.04166667       0.007
  -0.12500000 -0.45833333  0.04166667       0.007
  -0.37500000 -0.37500000  0.04166667       0.003
  -0.29166667 -0.37500000  0.04166667       0.007
  -0.20833333 -0.37500000  0.04166667       0.007
  -0.12500000 -0.37500000  0.04166667       0.007
  -0.29166667 -0.29166667  0.04166667       0.003
  -0.20833333 -0.29166667  0.04166667       0.007
  -0.12500000 -0.29166667  0.04166667       0.007
  -0.20833333 -0.20833333  0.04166667       0.003
  -0.12500000 -0.20833333  0.04166667       0.007
  -0.12500000 -0.12500000  0.04166667       0.003
   0.12500000  0.12500000  0.12500000       0.001
   0.20833333  0.12500000  0.12500000       0.003
   0.29166667  0.12500000  0.12500000       0.003
   0.37500000  0.12500000  0.12500000       0.003
   0.45833333  0.12500000  0.12500000       0.003
  -0.45833333  0.12500000  0.12500000       0.003
  -0.37500000  0.12500000  0.12500000       0.003
  -0.29166667  0.12500000  0.12500000       0.003
  -0.20833333  0.12500000  0.12500000       0.003
  -0.12500000  0.12500000  0.12500000       0.003
   0.20833333  0.20833333  0.12500000       0.003
   0.29166667  0.20833333  0.12500000       0.007
   0.37500000  0.20833333  0.12500000       0.007
   0.45833333  0.20833333  0.12500000       0.007
  -0.45833333  0.20833333  0.12500000       0.007
  -0.37500000  0.20833333  0.12500000       0.007
  -0.29166667  0.20833333  0.12500000       0.007
  -0.20833333  0.20833333  0.12500000       0.007
  -0.12500000  0.20833333  0.12500000       0.007
   0.29166667  0.29166667  0.12500000       0.003
   0.37500000  0.29166667  0.12500000       0.007
   0.45833333  0.29166667  0.12500000       0.007
  -0.45833333  0.29166667  0.12500000       0.007
  -0.37500000  0.29166667  0.12500000       0.007
  -0.29166667  0.29166667  0.12500000       0.007
  -0.20833333  0.29166667  0.12500000       0.007
  -0.12500000  0.29166667  0.12500000       0.007
   0.37500000  0.37500000  0.12500000       0.003
   0.45833333  0.37500000  0.12500000       0.007
  -0.45833333  0.37500000  0.12500000       0.007
  -0.37500000  0.37500000  0.12500000       0.007
  -0.29166667  0.37500000  0.12500000       0.007
  -0.20833333  0.37500000  0.12500000       0.007
  -0.12500000  0.37500000  0.12500000       0.007
   0.45833333  0.45833333  0.12500000       0.003
  -0.45833333  0.45833333  0.12500000       0.007
  -0.37500000  0.45833333  0.12500000       0.007
  -0.29166667  0.45833333  0.12500000       0.007
  -0.20833333  0.45833333  0.12500000       0.007
  -0.12500000  0.45833333  0.12500000       0.007
  -0.45833333 -0.45833333  0.12500000       0.003
  -0.37500000 -0.45833333  0.12500000       0.007
  -0.29166667 -0.45833333  0.12500000       0.007
  -0.20833333 -0.45833333  0.12500000       0.007
  -0.37500000 -0.37500000  0.12500000       0.003
  -0.29166667 -0.37500000  0.12500000       0.007
  -0.20833333 -0.37500000  0.12500000       0.007
  -0.29166667 -0.29166667  0.12500000       0.003
  -0.20833333 -0.29166667  0.12500000       0.007
  -0.20833333 -0.20833333  0.12500000       0.003
   0.20833333  0.20833333  0.20833333       0.001
   0.29166667  0.20833333  0.20833333       0.003
   0.37500000  0.20833333  0.20833333       0.003
   0.45833333  0.20833333  0.20833333       0.003
  -0.45833333  0.20833333  0.20833333       0.003
  -0.37500000  0.20833333  0.20833333       0.003
  -0.29166667  0.20833333  0.20833333       0.003
  -0.20833333  0.20833333  0.20833333       0.003
   0.29166667  0.29166667  0.20833333       0.003
   0.37500000  0.29166667  0.20833333       0.007
   0.45833333  0.29166667  0.20833333       0.007
  -0.45833333  0.29166667  0.20833333       0.007
  -0.37500000  0.29166667  0.20833333       0.007
  -0.29166667  0.29166667  0.20833333       0.007
  -0.20833333  0.29166667  0.20833333       0.007
   0.37500000  0.37500000  0.20833333       0.003
   0.45833333  0.37500000  0.20833333       0.007
  -0.45833333  0.37500000  0.20833333       0.007
  -0.37500000  0.37500000  0.20833333       0.007
  -0.29166667  0.37500000  0.20833333       0.007
  -0.20833333  0.37500000  0.20833333       0.007
   0.45833333  0.45833333  0.20833333       0.003
  -0.45833333  0.45833333  0.20833333       0.007
  -0.37500000  0.45833333  0.20833333       0.007
  -0.29166667  0.45833333  0.20833333       0.007
  -0.20833333  0.45833333  0.20833333       0.007
  -0.45833333 -0.45833333  0.20833333       0.003
  -0.37500000 -0.45833333  0.20833333       0.007
  -0.29166667 -0.45833333  0.20833333       0.007
  -0.37500000 -0.37500000  0.20833333       0.003
  -0.29166667 -0.37500000  0.20833333       0.007
  -0.29166667 -0.29166667  0.20833333       0.003
   0.29166667  0.29166667  0.29166667       0.001
   0.37500000  0.29166667  0.29166667       0.003
   0.45833333  0.29166667  0.29166667       0.003
  -0.45833333  0.29166667  0.29166667       0.003
  -0.37500000  0.29166667  0.29166667       0.003
  -0.29166667  0.29166667  0.29166667       0.003
   0.37500000  0.37500000  0.29166667       0.003
   0.45833333  0.37500000  0.29166667       0.007
  -0.45833333  0.37500000  0.29166667       0.007
  -0.37500000  0.37500000  0.29166667       0.007
  -0.29166667  0.37500000  0.29166667       0.007
   0.45833333  0.45833333  0.29166667       0.003
  -0.45833333  0.45833333  0.29166667       0.007
  -0.37500000  0.45833333  0.29166667       0.007
  -0.29166667  0.45833333  0.29166667       0.007
  -0.45833333 -0.45833333  0.29166667       0.003
  -0.37500000 -0.45833333  0.29166667       0.007
  -0.37500000 -0.37500000  0.29166667       0.003
   0.37500000  0.37500000  0.37500000       0.001
   0.45833333  0.37500000  0.37500000       0.003
  -0.45833333  0.37500000  0.37500000       0.003
  -0.37500000  0.37500000  0.37500000       0.003
   0.45833333  0.45833333  0.37500000       0.003
  -0.45833333  0.45833333  0.37500000       0.007
  -0.37500000  0.45833333  0.37500000       0.007
  -0.45833333 -0.45833333  0.37500000       0.003
   0.45833333  0.45833333  0.45833333       0.001
  -0.45833333  0.45833333  0.45833333       0.003
 
 position of ions in fractional coordinates (direct lattice) 
   0.00000000  0.00000000  0.00000000
 
 position of ions in cartesian coordinates  (Angst):
   0.00000000  0.00000000  0.00000000
 


--------------------------------------------------------------------------------------------------------


 k-point   1 :   0.0417 0.0417 0.0417  plane waves:     181
 k-point   2 :   0.1250 0.0417 0.0417  plane waves:     178
 k-point   3 :   0.2083 0.0417 0.0417  plane waves:     189
 k-point   4 :   0.2917 0.0417 0.0417  plane waves:     194
 k-point   5 :   0.3750 0.0417 0.0417  plane waves:     197
 k-point   6 :   0.4583 0.0417 0.0417  plane waves:     195
 k-point   7 :  -0.4583 0.0417 0.0417  plane waves:     195
 k-point   8 :  -0.3750 0.0417 0.0417  plane waves:     195
 k-point   9 :  -0.2917 0.0417 0.0417  plane waves:     195
 k-point  10 :  -0.2083 0.0417 0.0417  plane waves:     192
 k-point  11 :  -0.1250 0.0417 0.0417  plane waves:     186
 k-point  12 :  -0.0417 0.0417 0.0417  plane waves:     179
 k-point  13 :   0.1250 0.1250 0.0417  plane waves:     179
 k-point  14 :   0.2083 0.1250 0.0417  plane waves:     186
 k-point  15 :   0.2917 0.1250 0.0417  plane waves:     193
 k-point  16 :   0.3750 0.1250 0.0417  plane waves:     195
 k-point  17 :   0.4583 0.1250 0.0417  plane waves:     194
 k-point  18 :  -0.4583 0.1250 0.0417  plane waves:     196
 k-point  19 :  -0.3750 0.1250 0.0417  plane waves:     196
 k-point  20 :  -0.2917 0.1250 0.0417  plane waves:     195
 k-point  21 :  -0.2083 0.1250 0.0417  plane waves:     194
 k-point  22 :  -0.1250 0.1250 0.0417  plane waves:     189
 k-point  23 :  -0.0417 0.1250 0.0417  plane waves:     182
 k-point  24 :   0.2083 0.2083 0.0417  plane waves:     191
 k-point  25 :   0.2917 0.2083 0.0417  plane waves:     194
 k-point  26 :   0.3750 0.2083 0.0417  plane waves:     194
 k-point  27 :   0.4583 0.2083 0.0417  plane waves:     195
 k-point  28 :  -0.4583 0.2083 0.0417  plane waves:     195
 k-point  29 :  -0.3750 0.2083 0.0417  plane waves:     196
 k-point  30 :  -0.2917 0.2083 0.0417  plane waves:     195
 k-point  31 :  -0.2083 0.2083 0.0417  plane waves:     197
 k-point  32 :  -0.1250 0.2083 0.0417  plane waves:     195
 k-point  33 :  -0.0417 0.2083 0.0417  plane waves:     191
 k-point  34 :   0.2917 0.2917 0.0417  plane waves:     200
 k-point  35 :   0.3750 0.2917 0.0417  plane waves:     198
 k-point  36 :   0.4583 0.2917 0.0417  plane waves:     197
 k-point  37 :  -0.4583 0.2917 0.0417  plane waves:     196
 k-point  38 :  -0.3750 0.2917 0.0417  plane waves:     197
 k-point  39 :  -0.2917 0.2917 0.0417  plane waves:     195
 k-point  40 :  -0.2083 0.2917 0.0417  plane waves:     196
 k-point  41 :  -0.1250 0.2917 0.0417  plane waves:     195
 k-point  42 :  -0.0417 0.2917 0.0417  plane waves:     193
 k-point  43 :   0.3750 0.3750 0.0417  plane waves:     201
 k-point  44 :   0.4583 0.3750 0.0417  plane waves:     200
 k-point  45 :  -0.4583 0.3750 0.0417  plane waves:     201
 k-point  46 :  -0.3750 0.3750 0.0417  plane waves:     198
 k-point  47 :  -0.2917 0.3750 0.0417  plane waves:     194
 k-point  48 :  -0.2083 0.3750 0.0417  plane waves:     198
 k-point  49 :  -0.1250 0.3750 0.0417  plane waves:     196
 k-point  50 :  -0.0417 0.3750 0.0417  plane waves:     195
 k-point  51 :   0.4583 0.4583 0.0417  plane waves:     197
 k-point  52 :  -0.4583 0.4583 0.0417  plane waves:     198
 k-point  53 :  -0.3750 0.4583 0.0417  plane waves:     202
 k-point  54 :  -0.2917 0.4583 0.0417  plane waves:     199
 k-point  55 :  -0.2083 0.4583 0.0417  plane waves:     197
 k-point  56 :  -0.1250 0.4583 0.0417  plane waves:     195
 k-point  57 :  -0.0417 0.4583 0.0417  plane waves:     195
 k-point  58 :  -0.4583-0.4583 0.0417  plane waves:     195
 k-point  59 :  -0.3750-0.4583 0.0417  plane waves:     201
 k-point  60 :  -0.2917-0.4583 0.0417  plane waves:     199
 k-point  61 :  -0.2083-0.4583 0.0417  plane waves:     195
 k-point  62 :  -0.1250-0.4583 0.0417  plane waves:     197
 k-point  63 :  -0.3750-0.3750 0.0417  plane waves:     200
 k-point  64 :  -0.2917-0.3750 0.0417  plane waves:     201
 k-point  65 :  -0.2083-0.3750 0.0417  plane waves:     195
 k-point  66 :  -0.1250-0.3750 0.0417  plane waves:     197
 k-point  67 :  -0.2917-0.2917 0.0417  plane waves:     199
 k-point  68 :  -0.2083-0.2917 0.0417  plane waves:     194
 k-point  69 :  -0.1250-0.2917 0.0417  plane waves:     195
 k-point  70 :  -0.2083-0.2083 0.0417  plane waves:     195
 k-point  71 :  -0.1250-0.2083 0.0417  plane waves:     191
 k-point  72 :  -0.1250-0.1250 0.0417  plane waves:     186
 k-point  73 :   0.1250 0.1250 0.1250  plane waves:     178
 k-point  74 :   0.2083 0.1250 0.1250  plane waves:     183
 k-point  75 :   0.2917 0.1250 0.1250  plane waves:     194
 k-point  76 :   0.3750 0.1250 0.1250  plane waves:     196
 k-point  77 :   0.4583 0.1250 0.1250  plane waves:     195
 k-point  78 :  -0.4583 0.1250 0.1250  plane waves:     197
 k-point  79 :  -0.3750 0.1250 0.1250  plane waves:     196
 k-point  80 :  -0.2917 0.1250 0.1250  plane waves:     194
 k-point  81 :  -0.2083 0.1250 0.1250  plane waves:     196
 k-point  82 :  -0.1250 0.1250 0.1250  plane waves:     196
 k-point  83 :   0.2083 0.2083 0.1250  plane waves:     191
 k-point  84 :   0.2917 0.2083 0.1250  plane waves:     193
 k-point  85 :   0.3750 0.2083 0.1250  plane waves:     198
 k-point  86 :   0.4583 0.2083 0.1250  plane waves:     199
 k-point  87 :  -0.4583 0.2083 0.1250  plane waves:     197
 k-point  88 :  -0.3750 0.2083 0.1250  plane waves:     195
 k-point  89 :  -0.2917 0.2083 0.1250  plane waves:     198
 k-point  90 :  -0.2083 0.2083 0.1250  plane waves:     195
 k-point  91 :  -0.1250 0.2083 0.1250  plane waves:     197
 k-point  92 :   0.2917 0.2917 0.1250  plane waves:     196
 k-point  93 :   0.3750 0.2917 0.1250  plane waves:     196
 k-point  94 :   0.4583 0.2917 0.1250  plane waves:     196
 k-point  95 :  -0.4583 0.2917 0.1250  plane waves:     197
 k-point  96 :  -0.3750 0.2917 0.1250  plane waves:     199
 k-point  97 :  -0.2917 0.2917 0.1250  plane waves:     197
 k-point  98 :  -0.2083 0.2917 0.1250  plane waves:     196
 k-point  99 :  -0.1250 0.2917 0.1250  plane waves:     197
 k-point 100 :   0.3750 0.3750 0.1250  plane waves:     198
 k-point 101 :   0.4583 0.3750 0.1250  plane waves:     200
 k-point 102 :  -0.4583 0.3750 0.1250  plane waves:     200
 k-point 103 :  -0.3750 0.3750 0.1250  plane waves:     199
 k-point 104 :  -0.2917 0.3750 0.1250  plane waves:     199
 k-point 105 :  -0.2083 0.3750 0.1250  plane waves:     198
 k-point 106 :  -0.1250 0.3750 0.1250  plane waves:     196
 k-point 107 :   0.4583 0.4583 0.1250  plane waves:     203
 k-point 108 :  -0.4583 0.4583 0.1250  plane waves:     202
 k-point 109 :  -0.3750 0.4583 0.1250  plane waves:     202
 k-point 110 :  -0.2917 0.4583 0.1250  plane waves:     201
 k-point 111 :  -0.2083 0.4583 0.1250  plane waves:     196
 k-point 112 :  -0.1250 0.4583 0.1250  plane waves:     197
 k-point 113 :  -0.4583-0.4583 0.1250  plane waves:     199
 k-point 114 :  -0.3750-0.4583 0.1250  plane waves:     202
 k-point 115 :  -0.2917-0.4583 0.1250  plane waves:     199
 k-point 116 :  -0.2083-0.4583 0.1250  plane waves:     194
 k-point 117 :  -0.3750-0.3750 0.1250  plane waves:     198
 k-point 118 :  -0.2917-0.3750 0.1250  plane waves:     201
 k-point 119 :  -0.2083-0.3750 0.1250  plane waves:     198
 k-point 120 :  -0.2917-0.2917 0.1250  plane waves:     201
 k-point 121 :  -0.2083-0.2917 0.1250  plane waves:     198
 k-point 122 :  -0.2083-0.2083 0.1250  plane waves:     197
 k-point 123 :   0.2083 0.2083 0.2083  plane waves:     193
 k-point 124 :   0.2917 0.2083 0.2083  plane waves:     194
 k-point 125 :   0.3750 0.2083 0.2083  plane waves:     200
 k-point 126 :   0.4583 0.2083 0.2083  plane waves:     195
 k-point 127 :  -0.4583 0.2083 0.2083  plane waves:     198
 k-point 128 :  -0.3750 0.2083 0.2083  plane waves:     196
 k-point 129 :  -0.2917 0.2083 0.2083  plane waves:     197
 k-point 130 :  -0.2083 0.2083 0.2083  plane waves:     195
 k-point 131 :   0.2917 0.2917 0.2083  plane waves:     196
 k-point 132 :   0.3750 0.2917 0.2083  plane waves:     197
 k-point 133 :   0.4583 0.2917 0.2083  plane waves:     199
 k-point 134 :  -0.4583 0.2917 0.2083  plane waves:     196
 k-point 135 :  -0.3750 0.2917 0.2083  plane waves:     199
 k-point 136 :  -0.2917 0.2917 0.2083  plane waves:     198
 k-point 137 :  -0.2083 0.2917 0.2083  plane waves:     196
 k-point 138 :   0.3750 0.3750 0.2083  plane waves:     192
 k-point 139 :   0.4583 0.3750 0.2083  plane waves:     196
 k-point 140 :  -0.4583 0.3750 0.2083  plane waves:     198
 k-point 141 :  -0.3750 0.3750 0.2083  plane waves:     198
 k-point 142 :  -0.2917 0.3750 0.2083  plane waves:     199
 k-point 143 :  -0.2083 0.3750 0.2083  plane waves:     197
 k-point 144 :   0.4583 0.4583 0.2083  plane waves:     195
 k-point 145 :  -0.4583 0.4583 0.2083  plane waves:     199
 k-point 146 :  -0.3750 0.4583 0.2083  plane waves:     200
 k-point 147 :  -0.2917 0.4583 0.2083  plane waves:     201
 k-point 148 :  -0.2083 0.4583 0.2083  plane waves:     201
 k-point 149 :  -0.4583-0.4583 0.2083  plane waves:     198
 k-point 150 :  -0.3750-0.4583 0.2083  plane waves:     199
 k-point 151 :  -0.2917-0.4583 0.2083  plane waves:     204
 k-point 152 :  -0.3750-0.3750 0.2083  plane waves:     200
 k-point 153 :  -0.2917-0.3750 0.2083  plane waves:     201
 k-point 154 :  -0.2917-0.2917 0.2083  plane waves:     199
 k-point 155 :   0.2917 0.2917 0.2917  plane waves:     199
 k-point 156 :   0.3750 0.2917 0.2917  plane waves:     195
 k-point 157 :   0.4583 0.2917 0.2917  plane waves:     197
 k-point 158 :  -0.4583 0.2917 0.2917  plane waves:     196
 k-point 159 :  -0.3750 0.2917 0.2917  plane waves:     192
 k-point 160 :  -0.2917 0.2917 0.2917  plane waves:     192
 k-point 161 :   0.3750 0.3750 0.2917  plane waves:     194
 k-point 162 :   0.4583 0.3750 0.2917  plane waves:     198
 k-point 163 :  -0.4583 0.3750 0.2917  plane waves:     197
 k-point 164 :  -0.3750 0.3750 0.2917  plane waves:     197
 k-point 165 :  -0.2917 0.3750 0.2917  plane waves:     195
 k-point 166 :   0.4583 0.4583 0.2917  plane waves:     198
 k-point 167 :  -0.4583 0.4583 0.2917  plane waves:     195
 k-point 168 :  -0.3750 0.4583 0.2917  plane waves:     197
 k-point 169 :  -0.2917 0.4583 0.2917  plane waves:     203
 k-point 170 :  -0.4583-0.4583 0.2917  plane waves:     195
 k-point 171 :  -0.3750-0.4583 0.2917  plane waves:     199
 k-point 172 :  -0.3750-0.3750 0.2917  plane waves:     194
 k-point 173 :   0.3750 0.3750 0.3750  plane waves:     198
 k-point 174 :   0.4583 0.3750 0.3750  plane waves:     195
 k-point 175 :  -0.4583 0.3750 0.3750  plane waves:     196
 k-point 176 :  -0.3750 0.3750 0.3750  plane waves:     192
 k-point 177 :   0.4583 0.4583 0.3750  plane waves:     195
 k-point 178 :  -0.4583 0.4583 0.3750  plane waves:     195
 k-point 179 :  -0.3750 0.4583 0.3750  plane waves:     196
 k-point 180 :  -0.4583-0.4583 0.3750  plane waves:     195
 k-point 181 :   0.4583 0.4583 0.4583  plane waves:     195
 k-point 182 :  -0.4583 0.4583 0.4583  plane waves:     195

 maximum and minimum number of plane-waves per node :        43       25

 maximum number of plane-waves:       204
 maximum index in each direction: 
   IXMAX=    4   IYMAX=    4   IZMAX=    4
   IXMIN=   -4   IYMIN=   -4   IZMIN=   -4


 parallel 3D FFT for wavefunctions:
    minimum data exchange during FFTs selected (reduces bandwidth)
 parallel 3D FFT for charge:
    minimum data exchange during FFTs selected (reduces bandwidth)


 total amount of memory used by VASP MPI-rank0    32262. kBytes
=======================================================================

   base      :      30000. kBytes
   nonl-proj :        944. kBytes
   fftplans  :         92. kBytes
   grid      :        217. kBytes
   one-center:         31. kBytes
   wavefun   :        978. kBytes
 
     INWAV:  cpu time      0.0000: real time      0.0003
 Broyden mixing: mesh for mixing (old mesh)
   NGX =  9   NGY =  9   NGZ =  9
  (NGX  = 32   NGY  = 32   NGZ  = 32)
  gives a total of    729 points

 initial charge density was supplied:
 charge density of overlapping atoms calculated
 number of electron       9.0000000 magnetization       3.0000000
 keeping initial charge density in first step


--------------------------------------------------------------------------------------------------------


 Maximum index for augmentation-charges         1165 (set IRDMAX)


--------------------------------------------------------------------------------------------------------


 First call to EWALD:  gamma=   0.802
 Maximum number of real-space cells 3x 3x 3
 Maximum number of reciprocal cells 3x 3x 3

    FEWALD:  cpu time      0.0014: real time      0.0015


--------------------------------------- Iteration      1(   1)  ---------------------------------------


    POTLOK:  cpu time      0.0047: real time      0.0058
    SETDIJ:  cpu time      0.0052: real time      0.0052
     EDDAV:  cpu time      0.8074: real time      0.8121
       DOS:  cpu time      0.0031: real time      0.0031
    --------------------------------------------
      LOOP:  cpu time      0.8205: real time      0.8263

 eigenvalue-minimisations  :  9036
 total energy-change (2. order) : 0.2271853E+02  (-0.3495029E+03)
 number of electron       9.0000000 magnetization       3.0000000
 augmentation part        9.0000000 magnetization       3.0000000

 Free energy of the ion-electron system (eV)
  ---------------------------------------------------
  alpha Z        PSCENC =        39.18058524
  Ewald energy   TEWEN  =      -761.78120824
  -Hartree energ DENC   =      -149.59159932
  -exchange      EXHF   =         0.00000000
  -V(xc)+E(xc)   XCENC  =        17.82600435
  PAW double counting   =       719.99081943     -772.94345096
  entropy T*S    EENTRO =        -0.00093023
  eigenvalues    EBANDS =       116.68057080
  atomic energy  EATOM  =       813.35773410
  Solvation  Ediel_sol  =         0.00000000
  ---------------------------------------------------
  free energy    TOTEN  =        22.71852518 eV

  energy without entropy =       22.71945541  energy(sigma->0) =       22.71899029


--------------------------------------------------------------------------------------------------------




--------------------------------------- Iteration      1(   2)  ---------------------------------------


     EDDAV:  cpu time      0.7979: real time      0.8033
       DOS:  cpu time      0.0024: real time      0.0024
    --------------------------------------------
      LOOP:  cpu time      0.8002: real time      0.8057

 eigenvalue-minimisations  :  9460
 total energy-change (2. order) :-0.2974963E+02  (-0.2748160E+02)
 number of electron       9.0000000 magnetization       3.0000000
 augmentation part        9.0000000 magnetization       3.0000000

 Free energy of the ion-electron system (eV)
  ---------------------------------------------------
  alpha Z        PSCENC =        39.18058524
  Ewald energy   TEWEN  =      -761.78120824
  -Hartree energ DENC   =      -149.59159932
  -exchange      EXHF   =         0.00000000
  -V(xc)+E(xc)   XCENC  =        17.82600435
  PAW double counting   =       719.99081943     -772.94345096
  entropy T*S    EENTRO =        -0.00121624
  eigenvalues    EBANDS =        86.93122741
  atomic energy  EATOM  =       813.35773410
  Solvation  Ediel_sol  =         0.00000000
  ---------------------------------------------------
  free energy    TOTEN  =        -7.03110423 eV

  energy without entropy =       -7.02988799  energy(sigma->0) =       -7.03049611


--------------------------------------------------------------------------------------------------------




--------------------------------------- Iteration      1(   3)  ---------------------------------------


     EDDAV:  cpu time      0.8386: real time      0.8436
       DOS:  cpu time      0.0024: real time      0.0024
    --------------------------------------------
      LOOP:  cpu time      0.8410: real time      0.8461

 eigenvalue-minimisations  : 10220
 total energy-change (2. order) :-0.7661608E+00  (-0.7635756E+00)
 number of electron       9.0000000 magnetization       3.0000000
 augmentation part        9.0000000 magnetization       3.0000000

 Free energy of the ion-electron system (eV)
  ---------------------------------------------------
  alpha Z        PSCENC =        39.18058524
  Ewald energy   TEWEN  =      -761.78120824
  -Hartree energ DENC   =      -149.59159932
  -exchange      EXHF   =         0.00000000
  -V(xc)+E(xc)   XCENC  =        17.82600435
  PAW double counting   =       719.99081943     -772.94345096
  entropy T*S    EENTRO =        -0.00119146
  eigenvalues    EBANDS =        86.16504184
  atomic energy  EATOM  =       813.35773410
  Solvation  Ediel_sol  =         0.00000000
  ---------------------------------------------------
  free energy    TOTEN  =        -7.79726501 eV

  energy without entropy =       -7.79607355  energy(sigma->0) =       -7.79666928


--------------------------------------------------------------------------------------------------------




--------------------------------------- Iteration      1(   4)  ---------------------------------------


     EDDAV:  cpu time      0.8839: real time      0.8893
       DOS:  cpu time      0.0024: real time      0.0024
    --------------------------------------------
      LOOP:  cpu time      0.8864: real time      0.8917

 eigenvalue-minimisations  : 10756
 total energy-change (2. order) :-0.7433428E-02  (-0.7431864E-02)
 number of electron       9.0000000 magnetization       3.0000000
 augmentation part        9.0000000 magnetization       3.0000000

 Free energy of the ion-electron system (eV)
  ---------------------------------------------------
  alpha Z        PSCENC =        39.18058524
  Ewald energy   TEWEN  =      -761.78120824
  -Hartree energ DENC   =      -149.59159932
  -exchange      EXHF   =         0.00000000
  -V(xc)+E(xc)   XCENC  =        17.82600435
  PAW double counting   =       719.99081943     -772.94345096
  entropy T*S    EENTRO =        -0.00119081
  eigenvalues    EBANDS =        86.15760776
  atomic energy  EATOM  =       813.35773410
  Solvation  Ediel_sol  =         0.00000000
  ---------------------------------------------------
  free energy    TOTEN  =        -7.80469844 eV

  energy without entropy =       -7.80350763  energy(sigma->0) =       -7.80410304


--------------------------------------------------------------------------------------------------------




--------------------------------------- Iteration      1(   5)  ---------------------------------------


     EDDAV:  cpu time      0.8994: real time      0.9048
       DOS:  cpu time      0.0024: real time      0.0024
    CHARGE:  cpu time      0.0172: real time      0.0173
    MIXING:  cpu time      0.0002: real time      0.0002
    --------------------------------------------
      LOOP:  cpu time      0.9193: real time      0.9248

 eigenvalue-minimisations  : 11172
 total energy-change (2. order) :-0.1685930E-03  (-0.1685881E-03)
 number of electron       9.0000000 magnetization       1.4492224
 augmentation part        4.5873780 magnetization       1.0421447

 Broyden mixing:
  rms(total) = 0.11380E+01    rms(broyden)= 0.11380E+01
  rms(prec ) = 0.32240E+01
  weight for this iteration     100.00

 Free energy of the ion-electron system (eV)
  ---------------------------------------------------
  alpha Z        PSCENC =        39.18058524
  Ewald energy   TEWEN  =      -761.78120824
  -Hartree energ DENC   =      -149.59159932
  -exchange      EXHF   =         0.00000000
  -V(xc)+E(xc)   XCENC  =        17.82600435
  PAW double counting   =       719.99081943     -772.94345096
  entropy T*S    EENTRO =        -0.00119080
  eigenvalues    EBANDS =        86.15743916
  atomic energy  EATOM  =       813.35773410
  Solvation  Ediel_sol  =         0.00000000
  ---------------------------------------------------
  free energy    TOTEN  =        -7.80486703 eV

  energy without entropy =       -7.80367623  energy(sigma->0) =       -7.80427163


--------------------------------------------------------------------------------------------------------




--------------------------------------- Iteration      1(   6)  ---------------------------------------


    POTLOK:  cpu time      0.0031: real time      0.0033
    SETDIJ:  cpu time      0.0050: real time      0.0050
     EDDAV:  cpu time      0.9077: real time      0.9129
       DOS:  cpu time      0.0025: real time      0.0025
    CHARGE:  cpu time      0.0170: real time      0.0170
    MIXING:  cpu time      0.0002: real time      0.0002
    --------------------------------------------
      LOOP:  cpu time      0.9355: real time      0.9410

 eigenvalue-minimisations  : 11336
 total energy-change (2. order) : 0.6015706E+00  (-0.1166487E+01)
 number of electron       9.0000000 magnetization       1.6044687
 augmentation part        5.3335968 magnetization       1.4656369

 Broyden mixing:
  rms(total) = 0.43680E+00    rms(broyden)= 0.43678E+00
  rms(prec ) = 0.91069E+00
  weight for this iteration     100.00

 eigenvalues of (default mixing * dielectric matrix)
  average eigenvalue GAMMA=   0.8882
  0.8882

 Free energy of the ion-electron system (eV)
  ---------------------------------------------------
  alpha Z        PSCENC =        39.18058524
  Ewald energy   TEWEN  =      -761.78120824
  -Hartree energ DENC   =      -131.20438252
  -exchange      EXHF   =         0.00000000
  -V(xc)+E(xc)   XCENC  =        16.31749544
  PAW double counting   =       794.16476050     -842.08959848
  entropy T*S    EENTRO =        -0.00193511
  eigenvalues    EBANDS =        64.85325262
  atomic energy  EATOM  =       813.35773410
  Solvation  Ediel_sol  =         0.00000000
  ---------------------------------------------------
  free energy    TOTEN  =        -7.20329645 eV

  energy without entropy =       -7.20136134  energy(sigma->0) =       -7.20232890


--------------------------------------------------------------------------------------------------------




--------------------------------------- Iteration      1(   7)  ---------------------------------------


    POTLOK:  cpu time      0.0029: real time      0.0030
    SETDIJ:  cpu time      0.0047: real time      0.0047
     EDDAV:  cpu time      0.8904: real time      0.8956
       DOS:  cpu time      0.0025: real time      0.0025
    CHARGE:  cpu time      0.0178: real time      0.0178
    MIXING:  cpu time      0.0003: real time      0.0003
    --------------------------------------------
      LOOP:  cpu time      0.9184: real time      0.9239

 eigenvalue-minimisations  : 10900
 total energy-change (2. order) : 0.1663133E+00  (-0.1363594E+00)
 number of electron       9.0000000 magnetization       1.6661874
 augmentation part        5.0896966 magnetization       1.4928485

 Broyden mixing:
  rms(total) = 0.24737E+00    rms(broyden)= 0.24737E+00
  rms(prec ) = 0.40969E+00
  weight for this iteration     100.00

 eigenvalues of (default mixing * dielectric matrix)
  average eigenvalue GAMMA=   0.7426
  0.9857  0.4995

 Free energy of the ion-electron system (eV)
  ---------------------------------------------------
  alpha Z        PSCENC =        39.18058524
  Ewald energy   TEWEN  =      -761.78120824
  -Hartree energ DENC   =      -134.97545442
  -exchange      EXHF   =         0.00000000
  -V(xc)+E(xc)   XCENC  =        16.56611440
  PAW double counting   =       828.37854265     -879.61911312
  entropy T*S    EENTRO =        -0.00155493
  eigenvalues    EBANDS =        71.85737111
  atomic energy  EATOM  =       813.35773410
  Solvation  Ediel_sol  =         0.00000000
  ---------------------------------------------------
  free energy    TOTEN  =        -7.03698320 eV

  energy without entropy =       -7.03542827  energy(sigma->0) =       -7.03620574


--------------------------------------------------------------------------------------------------------




--------------------------------------- Iteration      1(   8)  ---------------------------------------


    POTLOK:  cpu time      0.0031: real time      0.0032
    SETDIJ:  cpu time      0.0049: real time      0.0049
     EDDAV:  cpu time      0.9366: real time      0.9420
       DOS:  cpu time      0.0024: real time      0.0024
    CHARGE:  cpu time      0.0169: real time      0.0169
    MIXING:  cpu time      0.0002: real time      0.0002
    --------------------------------------------
      LOOP:  cpu time      0.9640: real time      0.9697

 eigenvalue-minimisations  : 11764
 total energy-change (2. order) : 0.1138509E-01  (-0.1619854E-02)
 number of electron       9.0000000 magnetization       1.6654192
 augmentation part        5.1076601 magnetization       1.4900869

 Broyden mixing:
  rms(total) = 0.11971E+00    rms(broyden)= 0.11971E+00
  rms(prec ) = 0.21583E+00
  weight for this iteration     100.00

 eigenvalues of (default mixing * dielectric matrix)
  average eigenvalue GAMMA=   1.0727
  1.8828  0.7669  0.5684

 Free energy of the ion-electron system (eV)
  ---------------------------------------------------
  alpha Z        PSCENC =        39.18058524
  Ewald energy   TEWEN  =      -761.78120824
[...]
     10      37.7602      0.00000
     11      40.5662      0.00000
     12      46.6237      0.00000

 k-point   169 :      -0.2917    0.4583    0.2917
  band No.  band energies     occupation 
      1       7.4037      1.00000
      2       7.9703      1.00000
      3       8.4977      1.00000
      4      10.5452      0.00002
      5      11.5915      0.00000
      6      17.7854      0.00000
      7      18.4935      0.00000
      8      21.9967      0.00000
      9      24.1959      0.00000
     10      38.2162      0.00000
     11      41.9948      0.00000
     12      45.0767      0.00000

 k-point   170 :      -0.4583   -0.4583    0.2917
  band No.  band energies     occupation 
      1       7.1357      1.00000
      2       7.7653      1.00000
      3       9.0118      1.00000
      4      10.2433      0.99999
      5      11.5358      0.00000
      6      14.7647      0.00000
      7      18.4685      0.00000
      8      25.0207      0.00000
      9      29.5317      0.00000
     10      32.6390      0.00000
     11      44.8472      0.00000
     12      46.0039      0.00000

 k-point   171 :      -0.3750   -0.4583    0.2917
  band No.  band energies     occupation 
      1       7.4075      1.00000
      2       7.6365      1.00000
      3       8.8666      1.00000
      4      10.4944      0.00315
      5      11.4549      0.00000
      6      16.2644      0.00000
      7      18.1893      0.00000
      8      23.2554      0.00000
      9      27.0878      0.00000
     10      34.7886      0.00000
     11      43.7514      0.00000
     12      45.7609      0.00000

 k-point   172 :      -0.3750   -0.3750    0.2917
  band No.  band energies     occupation 
      1       7.3774      1.00000
      2       7.5393      1.00000
      3       9.0580      1.00000
      4      10.6449      0.00000
      5      11.3238      0.00000
      6      17.0896      0.00000
      7      17.8521      0.00000
      8      21.8725      0.00000
      9      28.8666      0.00000
     10      32.5327      0.00000
     11      45.0192      0.00000
     12      47.6542      0.00000

 k-point   173 :       0.3750    0.3750    0.3750
  band No.  band energies     occupation 
      1       5.5213      1.00000
      2       9.0366      1.00000
      3       9.3508      1.00000
      4       9.3508      1.00000
      5      11.2793      0.00000
      6      11.2793      0.00000
      7      20.2575      0.00000
      8      32.2588      0.00000
      9      35.8815      0.00000
     10      35.8815      0.00000
     11      39.1913      0.00000
     12      39.1913      0.00000

 k-point   174 :       0.4583    0.3750    0.3750
  band No.  band energies     occupation 
      1       5.9605      1.00000
      2       8.9851      1.00000
      3       9.2363      1.00000
      4       9.4168      1.00000
      5      11.2162      0.00000
      6      11.9383      0.00000
      7      19.4196      0.00000
      8      30.6340      0.00000
      9      34.0810      0.00000
     10      35.8179      0.00000
     11      39.3669      0.00000
     12      40.5937      0.00000

 k-point   175 :      -0.4583    0.3750    0.3750
  band No.  band energies     occupation 
      1       6.6268      1.00000
      2       8.5379      1.00000
      3       8.9875      1.00000
      4       9.7067      1.00000
      5      11.1877      0.00000
      6      13.2259      0.00000
      7      18.8712      0.00000
      8      27.3182      0.00000
      9      33.3159      0.00000
     10      33.4347      0.00000
     11      42.2371      0.00000
     12      42.3232      0.00000

 k-point   176 :      -0.3750    0.3750    0.3750
  band No.  band energies     occupation 
      1       7.2922      1.00000
      2       7.9747      1.00000
      3       8.7868      1.00000
      4      10.1570      1.00000
      5      11.2153      0.00000
      6      14.9743      0.00000
      7      18.4938      0.00000
      8      24.1014      0.00000
      9      30.9242      0.00000
     10      32.9127      0.00000
     11      44.9913      0.00000
     12      45.1313      0.00000

 k-point   177 :       0.4583    0.4583    0.3750
  band No.  band energies     occupation 
      1       6.1222      1.00000
      2       8.9875      1.00000
      3       9.3581      1.00000
      4       9.4092      1.00000
      5      11.5425      0.00000
      6      11.9331      0.00000
      7      18.5915      0.00000
      8      31.1443      0.00000
      9      33.5319      0.00000
     10      34.5763      0.00000
     11      40.1703      0.00000
     12      40.7675      0.00000

 k-point   178 :      -0.4583    0.4583    0.3750
  band No.  band energies     occupation 
      1       6.5558      1.00000
      2       8.5994      1.00000
      3       9.1887      1.00000
      4       9.6146      1.00000
      5      11.4513      0.00000
      6      13.1013      0.00000
      7      18.0800      0.00000
      8      29.1005      0.00000
      9      31.0687      0.00000
     10      35.1557      0.00000
     11      40.1444      0.00000
     12      43.5853      0.00000

 k-point   179 :      -0.3750    0.4583    0.3750
  band No.  band energies     occupation 
      1       7.1493      1.00000
      2       8.0580      1.00000
      3       8.8842      1.00000
      4      10.0096      1.00000
      5      11.4001      0.00000
      6      14.7402      0.00000
      7      17.8558      0.00000
      8      26.0726      0.00000
      9      28.8724      0.00000
     10      35.3729      0.00000
     11      41.3334      0.00000
     12      46.9531      0.00000

 k-point   180 :      -0.4583   -0.4583    0.3750
  band No.  band energies     occupation 
      1       6.7385      1.00000
      2       8.4044      1.00000
      3       9.1640      1.00000
      4       9.7114      1.00000
      5      11.5063      0.00000
      6      13.6668      0.00000
      7      17.7164      0.00000
      8      27.9849      0.00000
      9      31.8572      0.00000
     10      33.0719      0.00000
     11      42.8573      0.00000
     12      42.9282      0.00000

 k-point   181 :       0.4583    0.4583    0.4583
  band No.  band energies     occupation 
      1       6.0416      1.00000
      2       9.2553      1.00000
      3       9.2553      1.00000
      4       9.8826      1.00000
      5      11.5131      0.00000
      6      11.5131      0.00000
      7      17.9390      0.00000
      8      31.7977      0.00000
      9      35.7035      0.00000
     10      35.7035      0.00000
     11      38.3958      0.00000
     12      38.3958      0.00000

 k-point   182 :      -0.4583    0.4583    0.4583
  band No.  band energies     occupation 
      1       6.2676      1.00000
      2       9.0257      1.00000
      3       9.3621      1.00000
      4       9.6115      1.00000
      5      11.4992      0.00000
      6      12.3127      0.00000
      7      17.6425      0.00000
      8      30.7459      0.00000
      9      33.9404      0.00000
     10      34.3529      0.00000
     11      39.8899      0.00000
     12      40.3580      0.00000


--------------------------------------------------------------------------------------------------------


 soft charge-density along one line, spin component           1
         0         1         2         3         4         5         6         7         8         9
 total charge-density along one line
 
 soft charge-density along one line, spin component           2
         0         1         2         3         4         5         6         7         8         9
 total charge-density along one line
 
 pseudopotential strength for first ion, spin component:           1
 -0.577  -0.000  -0.000  -0.000  -0.000  -1.212  -0.000  -0.000
 -0.000  -0.577   0.000  -0.000  -0.000  -0.000  -1.212   0.000
 -0.000   0.000  -0.643   0.000   0.000  -0.000   0.000  -1.276
 -0.000  -0.000   0.000  -0.577   0.000  -0.000  -0.000   0.000
 -0.000  -0.000   0.000   0.000  -0.643  -0.000  -0.000   0.000
 -1.212  -0.000  -0.000  -0.000  -0.000  -1.788  -0.000  -0.000
 -0.000  -1.212   0.000  -0.000  -0.000  -0.000  -1.788   0.000
 -0.000   0.000  -1.276   0.000   0.000  -0.000   0.000  -1.850
 -0.000  -0.000   0.000  -1.212   0.000  -0.000  -0.000   0.000
 -0.000  -0.000   0.000   0.000  -1.276  -0.000  -0.000   0.000
 -0.000  -0.000   0.000  -0.000   0.000  -0.000  -0.000   0.000
 -0.000  -0.000   0.000  -0.000   0.000  -0.000  -0.000   0.000
 -0.000  -0.000   0.000   0.000   0.000   0.000  -0.000   0.000
  0.000  -0.000  -0.000  -0.000   0.000   0.000  -0.000  -0.000
 -0.000   0.000   0.000  -0.000  -0.000  -0.000   0.000   0.000
 -0.000  -0.000   0.000   0.000   0.000   0.000  -0.000   0.000
  0.000  -0.000  -0.000   0.000   0.000   0.000  -0.000  -0.000
 -0.000   0.000   0.000  -0.000  -0.000  -0.000   0.000   0.000
 pseudopotential strength for first ion, spin component:           2
  0.727   0.000  -0.000   0.000  -0.000   0.036  -0.000  -0.000
  0.000   0.727   0.000   0.000  -0.000  -0.000   0.036   0.000
 -0.000   0.000   0.792   0.000   0.000  -0.000   0.000   0.100
  0.000   0.000   0.000   0.727   0.000  -0.000  -0.000   0.000
 -0.000  -0.000   0.000   0.000   0.792  -0.000  -0.000   0.000
  0.036  -0.000  -0.000  -0.000  -0.000  -0.593  -0.000  -0.000
 -0.000   0.036   0.000  -0.000  -0.000  -0.000  -0.593   0.000
 -0.000   0.000   0.100   0.000   0.000  -0.000   0.000  -0.531
 -0.000  -0.000   0.000   0.036   0.000  -0.000  -0.000   0.000
 -0.000  -0.000   0.000   0.000   0.100  -0.000  -0.000   0.000
 -0.000  -0.000   0.000  -0.000   0.000  -0.000  -0.000   0.000
 -0.000  -0.000   0.000  -0.000   0.000  -0.000  -0.000   0.000
 -0.000  -0.000   0.000   0.000   0.000   0.000   0.000   0.000
  0.000  -0.000  -0.000  -0.000   0.000   0.000   0.000  -0.000
 -0.000   0.000   0.000  -0.000  -0.000  -0.000   0.000   0.000
 -0.000  -0.000   0.000   0.000   0.000  -0.000  -0.000   0.000
  0.000  -0.000  -0.000  -0.000   0.000   0.000  -0.000  -0.000
 -0.000   0.000   0.000  -0.000  -0.000  -0.000   0.000   0.000
 total augmentation occupancy for first ion, spin component:           1
  2.829   0.000   0.000   0.000  -0.000  -1.537  -0.000   0.000   0.000  -0.000   0.000   0.000   0.000   0.000   0.000   0.000
 -0.000   2.829   0.000   0.000  -0.000  -0.000  -1.537  -0.000  -0.000  -0.000   0.000   0.000   0.000   0.000   0.000   0.000
  0.000  -0.000   3.183   0.000   0.000  -0.000   0.000  -1.727  -0.000   0.000   0.000   0.000   0.000   0.000   0.000   0.000
  0.000   0.000   0.000   2.829   0.000  -0.000   0.000   0.000  -1.537   0.000  -0.000   0.000   0.000   0.000   0.000   0.000
  0.000  -0.000  -0.000   0.000   3.183   0.000   0.000   0.000   0.000  -1.727   0.000   0.000   0.000   0.000   0.000   0.000
 -1.537  -0.000   0.000   0.000  -0.000   1.822   0.000   0.000  -0.000   0.000   0.000   0.000   0.000   0.000   0.000   0.000
  0.000  -1.537   0.000  -0.000   0.000  -0.000   1.822   0.000   0.000   0.000   0.000   0.000   0.000   0.000   0.000   0.000
  0.000   0.000  -1.727  -0.000   0.000   0.000   0.000   1.779  -0.000   0.000  -0.000   0.000   0.000   0.000   0.000   0.000
  0.000   0.000   0.000  -1.537  -0.000   0.000   0.000  -0.000   1.822  -0.000   0.000   0.000   0.000   0.000   0.000   0.000
  0.000   0.000   0.000  -0.000  -1.727   0.000   0.000   0.000   0.000   1.779  -0.000  -0.000   0.000   0.000   0.000   0.000
  0.000   0.000   0.000   0.000   0.000   0.000   0.000  -0.000  -0.000  -0.000   2.316  -0.273   0.000   0.000   0.000   0.000
  0.000   0.000  -0.000   0.000  -0.000   0.000   0.000   0.000   0.000  -0.000  -0.273   0.041   0.000   0.000   0.000   0.000
  0.000   0.000   0.000   0.000   0.000   0.000   0.000   0.000   0.000   0.000   0.000   0.000   0.317   0.000   0.000  -0.030
  0.000   0.000   0.000   0.000   0.000   0.000   0.000   0.000   0.000   0.000   0.000   0.000   0.000   0.317  -0.000  -0.000
  0.000   0.000   0.000   0.000   0.000   0.000   0.000   0.000   0.000   0.000   0.000   0.000   0.000  -0.000   0.317   0.000
  0.000   0.000   0.000   0.000   0.000   0.000   0.000   0.000   0.000   0.000   0.000   0.000  -0.030   0.000   0.000   0.003
  0.000   0.000   0.000   0.000   0.000   0.000   0.000   0.000   0.000   0.000   0.000   0.000   0.000  -0.030  -0.000   0.000
  0.000   0.000   0.000   0.000   0.000   0.000   0.000   0.000   0.000   0.000   0.000   0.000   0.000   0.000  -0.030   0.000
 total augmentation occupancy for first ion, spin component:           2
  2.038   0.000   0.000   0.000   0.000  -0.991   0.000   0.000   0.000  -0.000   0.000   0.000   0.000   0.000   0.000   0.000
 -0.000   2.038   0.000   0.000  -0.000   0.000  -0.991   0.000  -0.000   0.000   0.000   0.000   0.000   0.000   0.000   0.000
  0.000   0.000   2.188   0.000  -0.000   0.000   0.000  -1.019   0.000  -0.000  -0.000   0.000   0.000   0.000   0.000   0.000
  0.000  -0.000  -0.000   2.038  -0.000   0.000  -0.000  -0.000  -0.991  -0.000   0.000   0.000   0.000   0.000   0.000   0.000
  0.000   0.000  -0.000  -0.000   2.188   0.000  -0.000   0.000  -0.000  -1.019   0.000   0.000   0.000   0.000   0.000   0.000
 -0.991   0.000  -0.000   0.000  -0.000   0.281   0.000   0.000   0.000   0.000   0.000   0.000   0.000   0.000   0.000   0.000
  0.000  -0.991   0.000  -0.000   0.000   0.000   0.281  -0.000   0.000   0.000   0.000   0.000   0.000   0.000   0.000   0.000
  0.000   0.000  -1.019   0.000   0.000  -0.000   0.000   0.298  -0.000   0.000   0.000  -0.000   0.000   0.000   0.000   0.000
  0.000   0.000  -0.000  -0.991  -0.000   0.000   0.000  -0.000   0.281   0.000  -0.000  -0.000   0.000   0.000   0.000   0.000
  0.000  -0.000   0.000   0.000  -1.019   0.000   0.000  -0.000   0.000   0.298  -0.000  -0.000   0.000   0.000   0.000   0.000
  0.000  -0.000  -0.000   0.000   0.000   0.000  -0.000   0.000   0.000   0.000  -0.299   0.092   0.000   0.000   0.000   0.000
  0.000   0.000   0.000   0.000   0.000   0.000  -0.000  -0.000   0.000  -0.000   0.092  -0.016   0.000   0.000   0.000   0.000
  0.000   0.000   0.000   0.000   0.000   0.000   0.000   0.000   0.000   0.000   0.000   0.000  -0.034   0.000   0.000   0.005
  0.000   0.000   0.000   0.000   0.000   0.000   0.000   0.000   0.000   0.000   0.000   0.000   0.000  -0.034  -0.000   0.000
  0.000   0.000   0.000   0.000   0.000   0.000   0.000   0.000   0.000   0.000   0.000   0.000   0.000  -0.000  -0.034   0.000
  0.000   0.000   0.000   0.000   0.000   0.000   0.000   0.000   0.000   0.000   0.000   0.000   0.005   0.000   0.000  -0.001
  0.000   0.000   0.000   0.000   0.000   0.000   0.000   0.000   0.000   0.000   0.000   0.000   0.000   0.005  -0.000   0.000
  0.000   0.000   0.000   0.000   0.000   0.000   0.000   0.000   0.000   0.000   0.000   0.000   0.000  -0.000   0.005   0.000


------------------------ aborting loop because EDIFF is reached ----------------------------------------


    CHARGE:  cpu time      0.0169: real time      0.0170
    FORLOC:  cpu time      0.0000: real time      0.0000
    FORNL :  cpu time      0.0141: real time      0.0142
    STRESS:  cpu time      0.0608: real time      0.0612
    FORCOR:  cpu time      0.0026: real time      0.0026
    FORHAR:  cpu time      0.0003: real time      0.0003
    MIXING:  cpu time      0.0002: real time      0.0002
    OFIELD:  cpu time      0.0000: real time      0.0000

  FORCE on cell =-STRESS in cart. coord.  units (eV):
  Direction    XX          YY          ZZ          XY          YZ          ZX
  --------------------------------------------------------------------------------------
  Alpha Z    39.18059    39.18059    39.18059
  Ewald    -253.92708  -253.92708  -253.92708     0.00000     0.00000     0.00000
  Hartree    43.96451    43.96451    43.96451     0.00000     0.00000     0.00000
  E(xc)     -46.27958   -46.27958   -46.27958    -0.00000    -0.00000    -0.00000
  Local      -9.67875    -9.67875    -9.67875     0.00006     0.00006     0.00006
  n-local    -4.14830    -3.27984    -6.59174     1.68445    -1.79974    -0.00066
  augment   155.47389   155.47389   155.47389    -0.00005    -0.00005    -0.00005
  Kinetic    74.95282    74.57819    78.46365    -0.81257     0.73991    -0.02970
  Fock        0.00000     0.00000     0.00000     0.00000     0.00000     0.00000
  -------------------------------------------------------------------------------------
  Total       0.05851     0.05851     0.05851     0.00000    -0.00000    -0.00000
  in kB       8.67076     8.67076     8.67076     0.00000    -0.00000    -0.00000
  external pressure =        8.67 kB  Pullay stress =        0.00 kB


 VOLUME and BASIS-vectors are now :
 -----------------------------------------------------------------------------
  energy-cutoff  :      400.00
  volume of cell :       10.81
      direct lattice vectors                 reciprocal lattice vectors
     0.000000000  1.755000000  1.755000000    -0.284900285  0.284900285  0.284900285
     1.755000000  0.000000000  1.755000000     0.284900285 -0.284900285  0.284900285
     1.755000000  1.755000000  0.000000000     0.284900285  0.284900285 -0.284900285

  length of vectors
     2.481944802  2.481944802  2.481944802     0.493461769  0.493461769  0.493461769


 FORCES acting on ions
    electron-ion (+dipol)            ewald-force                    non-local-force                 convergence-correction
 -----------------------------------------------------------------------------------------------
   -.130E-14 -.675E-15 0.217E-15   0.813E-15 0.404E-15 -.279E-14   -.662E-23 0.496E-23 0.000E+00   0.781E-14 0.306E-14 0.243E-14
 -----------------------------------------------------------------------------------------------
   -.130E-14 -.675E-15 0.217E-15   0.813E-15 0.404E-15 -.279E-14   -.662E-23 0.496E-23 0.000E+00   0.781E-14 0.306E-14 0.243E-14
 
 
 POSITION                                       TOTAL-FORCE (eV/Angst)
 -----------------------------------------------------------------------------------
      0.00000      0.00000      0.00000        -0.000000      0.000000      0.000000
 -----------------------------------------------------------------------------------
    total drift:                                0.000000      0.000000     -0.000000


--------------------------------------------------------------------------------------------------------



  FREE ENERGIE OF THE ION-ELECTRON SYSTEM (eV)
  ---------------------------------------------------
  free  energy   TOTEN  =        -7.01887334 eV

  energy  without entropy=       -7.01736382  energy(sigma->0) =       -7.01811858
 


--------------------------------------------------------------------------------------------------------


    POTLOK:  cpu time      0.0080: real time      0.0080


--------------------------------------------------------------------------------------------------------


     LOOP+:  cpu time     11.6790: real time     11.7556
    4ORBIT:  cpu time      0.0000: real time      0.0000

 total amount of memory used by VASP MPI-rank0    32262. kBytes
=======================================================================

   base      :      30000. kBytes
   nonl-proj :        944. kBytes
   fftplans  :         92. kBytes
   grid      :        217. kBytes
   one-center:         31. kBytes
   wavefun   :        978. kBytes
 
  
  
 General timing and accounting informations for this job:
 ========================================================
  
                  Total CPU time used (sec):       13.233
                            User time (sec):       12.754
                          System time (sec):        0.480
                         Elapsed time (sec):       14.541
  
                   Maximum memory used (kb):      220024.
                   Average memory used (kb):          N/A
  
                          Minor page faults:        24068
                          Major page faults:           75
                 Voluntary context switches:         2398
