Co-fcc                                  
   1.00000000000000     
     0.000000    1.929694    1.929694
     1.929694    0.000000    1.929694
     1.929694    1.929694    0.000000
   Co
     1
Direct
  0.000000  0.000000  0.000000
 
   36   36   36
  137.29      134.38      126.02      113.28      97.615      80.613      63.702      48.031      34.430      23.418    
  15.212      9.7146      6.5148      4.9429      4.1931      3.6922      3.3665      3.1883      3.1321      3.1883    
  3.3665      3.6922      4.1931      4.9429      6.5148      9.7146      15.212      23.418      34.430      48.031    
  63.702      80.613      97.615      113.28      126.02      134.38      134.38      128.75      118.21      104.04    
  87.775      70.919      54.752      40.255      28.095      18.640      11.947      7.7595      5.5257      4.4927    
  3.9023      3.4962      3.2509      3.1375      3.1375      3.2509      3.4962      3.9023      4.4927      5.5257    
  7.7596      11.947      18.640      28.095      40.255      54.752      70.919      87.775      104.04      118.21    
  128.75      134.38      126.02      118.21      106.27      91.586      75.615      59.708      44.961      32.177    
  21.861      14.221      9.1496      6.2351      4.8169      4.1148      3.6338      3.3225      3.1526      3.0991    
  3.1526      3.3225      3.6338      4.1148      4.8169      6.2351      9.1496      14.221      21.861      32.177    
  44.961      59.708      75.615      91.586      106.27      118.21      126.02      128.75      113.28      104.04    
  91.586      77.245      62.340      48.024      35.202      24.499      16.258      10.517      7.0045      5.1780    
  4.3165      3.7711      3.3987      3.1752      3.0722      3.0722      3.1752      3.3987      3.7711      4.3165    
  5.1781      7.0045      10.517      16.258      24.499      35.202      48.024      62.340      77.245      91.586    
  104.04      113.28      118.21      118.21      97.615      87.775      75.615      62.340      49.087      36.811    
  26.229      17.793      11.671      7.7289      5.5482      4.4992      3.8988      3.4736      3.2018      3.0544    
  3.0081      3.0544      3.2018      3.4736      3.8988      4.4992      5.5482      7.7289      11.671      17.793    
  26.229      36.811      49.087      62.340      75.615      87.775      97.615      104.04      106.27      104.04    
  80.613      70.919      59.708      48.024      36.811      26.831      18.618      12.443      8.2936      5.8745    
  4.6604      4.0081      3.5416      3.2287      3.0429      2.9578      2.9578      3.0429      3.2287      3.5416    
  4.0081      4.6604      5.8745      8.2936      12.443      18.618      26.831      36.811      48.024      59.708    
  70.919      80.613      87.775      91.586      91.586      87.775      63.702      54.752      44.961      35.202    
  26.229      18.618      12.714      8.6030      6.0996      4.7851      4.0916      3.5974      3.2529      3.0355    
  2.9186      2.8820      2.9186      3.0355      3.2528      3.5974      4.0916      4.7851      6.0996      8.6030    
  12.714      18.618      26.229      35.202      44.961      54.752      63.702      70.919      75.615      77.245    
  75.615      70.919      48.031      40.255      32.177      24.499      17.793      12.443      8.6030      6.1800    
  4.8539      4.1439      3.6369      3.2716      3.0306      2.8887      2.8239      2.8239      2.8887      3.0306    
  3.2716      3.6369      4.1439      4.8539      6.1800      8.6030      12.443      17.793      24.499      32.177    
  40.255      48.031      54.752      59.708      62.340      62.340      59.708      54.752      34.430      28.095    
  21.861      16.258      11.671      8.2936      6.0996      4.8539      4.1617      3.6574      3.2835      3.0275    
  2.8672      2.7812      2.7543      2.7812      2.8672      3.0275      3.2835      3.6574      4.1617      4.8539    
  6.0996      8.2936      11.671      16.258      21.861      28.095      34.430      40.255      44.961      48.024    
  49.087      48.024      44.961      40.255      23.418      18.640      14.221      10.517      7.7289      5.8745    
  4.7851      4.1439      3.6574      3.2875      3.0259      2.8542      2.7529      2.7064      2.7064      2.7529    
  2.8542      3.0259      3.2875      3.6574      4.1439      4.7851      5.8745      7.7289      10.517      14.221    
  18.640      23.418      28.095      32.177      35.202      36.811      36.811      35.202      32.177      28.095    
  15.212      11.947      9.1496      7.0045      5.5482      4.6604      4.0916      3.6369      3.2835      3.0259    
  2.8498      2.7387      2.6783      2.6593      2.6783      2.7387      2.8498      3.0259      3.2835      3.6369    
  4.0916      4.6604      5.5482      7.0045      9.1496      11.947      15.212      18.640      21.861      24.499    
  26.229      26.831      26.229      24.499      21.861      18.640      9.7146      7.7595      6.2351      5.1780    
  4.4992      4.0081      3.5974      3.2716      3.0275      2.8542      2.7387      2.6690      2.6365      2.6365    
  2.6690      2.7387      2.8542      3.0275      3.2716      3.5974      4.0081      4.4992      5.1780      6.2351    
  7.7596      9.7146      11.947      14.221      16.258      17.793      18.618      18.618      17.793      16.258    
  14.221      11.947      6.5148      5.5257      4.8169      4.3165      3.8988      3.5416      3.2529      3.0306    
  2.8672      2.7529      2.6783      2.6365      2.6230      2.6365      2.6783      2.7529      2.8672      3.0306    
  3.2529      3.5416      3.8988      4.3165      4.8169      5.5257      6.5148      7.7596      9.1496      10.517    
  11.671      12.443      12.714      12.443      11.671      10.517      9.1496      7.7596      4.9429      4.4927    
  4.1148      3.7711      3.4736      3.2287      3.0355      2.8887      2.7812      2.7064      2.6593      2.6365    
  2.6365      2.6593      2.7064      2.7812      2.8887      3.0355      3.2287      3.4736      3.7711      4.1148    
  4.4927      4.9429      5.5257      6.2351      7.0045      7.7289      8.2936      8.6030      8.6030      8.2936    
  7.7289      7.0045      6.2351      5.5257      4.1931      3.9023      3.6338      3.3987      3.2018      3.0429    
  2.9186      2.8239      2.7543      2.7064      2.6783      2.6690      2.6783      2.7064      2.7543      2.8239    
  2.9186      3.0429      3.2018      3.3987      3.6338      3.9023      4.1931      4.4927      4.8169      5.1780    
  5.5482      5.8745      6.0996      6.1800      6.0996      5.8745      5.5482      5.1781      4.8169      4.4927    
  3.6922      3.4962      3.3225      3.1752      3.0544      2.9578      2.8820      2.8239      2.7812      2.7529    
  2.7387      2.7387      2.7529      2.7812      2.8239      2.8820      2.9578      3.0544      3.1752      3.3225    
  3.4962      3.6922      3.9023      4.1148      4.3165      4.4992      4.6604      4.7851      4.8539      4.8539    
  4.7851      4.6604      4.4992      4.3165      4.1148      3.9023      3.3665      3.2509      3.1526      3.0722    
  3.0081      2.9578      2.9186      2.8887      2.8672      2.8542      2.8498      2.8542      2.8672      2.8887    
  2.9186      2.9578      3.0081      3.0722      3.1526      3.2509      3.3665      3.4962      3.6338      3.7711    
  3.8988      4.0081      4.0916      4.1439      4.1617      4.1439      4.0916      4.0081      3.8988      3.7711    
  3.6338      3.4962      3.1883      3.1375      3.0991      3.0722      3.0544      3.0429      3.0355      3.0306    
  3.0275      3.0259      3.0259      3.0275      3.0306      3.0355      3.0429      3.0544      3.0722      3.0991    
  3.1375      3.1883      3.2509      3.3225      3.3987      3.4736      3.5416      3.5974      3.6369      3.6574    
  3.6574      3.6369      3.5974      3.5416      3.4736      3.3987      3.3225      3.2509      3.1321      3.1375    
  3.1526      3.1752      3.2018      3.2287      3.2528      3.2716      3.2835      3.2875      3.2835      3.2716    
  3.2529      3.2287      3.2018      3.1752      3.1526      3.1375      3.1321      3.1375      3.1526      3.1752    
  3.2018      3.2287      3.2529      3.2716      3.2835      3.2875      3.2835      3.2716      3.2528      3.2287    
  3.2018      3.1752      3.1526      3.1375      3.1883      3.2509      3.3225      3.3987      3.4736      3.5416    
  3.5974      3.6369      3.6574      3.6574      3.6369      3.5974      3.5416      3.4736      3.3987      3.3225    
  3.2509      3.1883      3.1375      3.0991      3.0722      3.0544      3.0429      3.0355      3.0306      3.0275    
  3.0259      3.0259      3.0275      3.0306      3.0355      3.0429      3.0544      3.0722      3.0991      3.1375    
  3.3665      3.4962      3.6338      3.7711      3.8988      4.0081      4.0916      4.1439      4.1617      4.1439    
  4.0916      4.0081      3.8988      3.7711      3.6338      3.4962      3.3665      3.2509      3.1526      3.0722    
  3.0081      2.9578      2.9186      2.8887      2.8672      2.8542      2.8498      2.8542      2.8672      2.8887    
  2.9186      2.9578      3.0081      3.0722      3.1526      3.2509      3.6922      3.9023      4.1148      4.3165    
  4.4992      4.6604      4.7851      4.8539      4.8539      4.7851      4.6604      4.4992      4.3165      4.1148    
  3.9023      3.6922      3.4962      3.3225      3.1752      3.0544      2.9578      2.8820      2.8239      2.7812    
  2.7529      2.7387      2.7387      2.7529      2.7812      2.8239      2.8820      2.9578      3.0544      3.1752    
  3.3225      3.4962      4.1931      4.4927      4.8169      5.1781      5.5482      5.8745      6.0996      6.1800    
  6.0996      5.8745      5.5482      5.1780      4.8169      4.4927      4.1931      3.9023      3.6338      3.3987    
  3.2018      3.0429      2.9186      2.8239      2.7543      2.7064      2.6783      2.6690      2.6783      2.7064    
  2.7543      2.8239      2.9186      3.0429      3.2018      3.3987      3.6338      3.9023      4.9429      5.5257    
  6.2351      7.0045      7.7289      8.2936      8.6030      8.6030      8.2936      7.7289      7.0045      6.2351    
  5.5257      4.9429      4.4927      4.1148      3.7711      3.4736      3.2287      3.0355      2.8887      2.7812    
  2.7064      2.6593      2.6365      2.6365      2.6593      2.7064      2.7812      2.8887      3.0355      3.2287    
  3.4736      3.7711      4.1148      4.4927      6.5148      7.7596      9.1496      10.517      11.671      12.443    
  12.714      12.443      11.671      10.517      9.1496      7.7596      6.5148      5.5257      4.8169      4.3165    
  3.8988      3.5416      3.2529      3.0306      2.8672      2.7529      2.6783      2.6365      2.6230      2.6365    
  2.6783      2.7529      2.8672      3.0306      3.2529      3.5416      3.8988      4.3165      4.8169      5.5257    
  9.7146      11.947      14.221      16.258      17.793      18.618      18.618      17.793      16.258      14.221    
  11.947      9.7146      7.7596      6.2351      5.1780      4.4992      4.0081      3.5974      3.2716      3.0275    
  2.8542      2.7387      2.6690      2.6365      2.6365      2.6690      2.7387      2.8542      3.0275      3.2716    
  3.5974      4.0081      4.4992      5.1780      6.2351      7.7595      15.212      18.640      21.861      24.499    
  26.229      26.831      26.229      24.499      21.861      18.640      15.212      11.947      9.1496      7.0045    
  5.5482      4.6604      4.0916      3.6369      3.2835      3.0259      2.8498      2.7387      2.6783      2.6593    
  2.6783      2.7387      2.8498      3.0259      3.2835      3.6369      4.0916      4.6604      5.5482      7.0045    
  9.1496      11.947      23.418      28.095      32.177      35.202      36.811      36.811      35.202      32.177    
  28.095      23.418      18.640      14.221      10.517      7.7289      5.8745      4.7851      4.1439      3.6574    
  3.2875      3.0259      2.8542      2.7529      2.7064      2.7064      2.7529      2.8542      3.0259      3.2875    
  3.6574      4.1439      4.7851      5.8745      7.7289      10.517      14.221      18.640      34.430      40.255    
  44.961      48.024      49.087      48.024      44.961      40.255      34.430      28.095      21.861      16.258    
  11.671      8.2936      6.0996      4.8539      4.1617      3.6574      3.2835      3.0275      2.8672      2.7812    
  2.7543      2.7812      2.8672      3.0275      3.2835      3.6574      4.1617      4.8539      6.0996      8.2936    
  11.671      16.258      21.861      28.095      48.031      54.752      59.708      62.340      62.340      59.708    
  54.752      48.031      40.255      32.177      24.499      17.793      12.443      8.6030      6.1800      4.8539    
  4.1439      3.6369      3.2716      3.0306      2.8887      2.8239      2.8239      2.8887      3.0306      3.2716    
  3.6369      4.1439      4.8539      6.1800      8.6030      12.443      17.793      24.499      32.177      40.255    
  63.702      70.919      75.615      77.245      75.615      70.919      63.702      54.752      44.961      35.202    
  26.229      18.618      12.714      8.6030      6.0996      4.7851      4.0916      3.5974      3.2528      3.0355    
  2.9186      2.8820      2.9186      3.0355      3.2529      3.5974      4.0916      4.7851      6.0996      8.6030    
  12.714      18.618      26.229      35.202      44.961      54.752      80.613      87.775      91.586      91.586    
  87.775      80.613      70.919      59.708      48.024      36.811      26.831      18.618      12.443      8.2936    
  5.8745      4.6604      4.0081      3.5416      3.2287      3.0429      2.9578      2.9578      3.0429      3.2287    
  3.5416      4.0081      4.6604      5.8745      8.2936      12.443      18.618      26.831      36.811      48.024    
  59.708      70.919      97.615      104.04      106.27      104.04      97.615      87.775      75.615      62.340    
  49.087      36.811      26.229      17.793      11.671      7.7289      5.5482      4.4992      3.8988      3.4736    
  3.2018      3.0544      3.0081      3.0544      3.2018      3.4736      3.8988      4.4992      5.5482      7.7289    
  11.671      17.793      26.229      36.811      49.087      62.340      75.615      87.775      113.28      118.21    
  118.21      113.28      104.04      91.586      77.245      62.340      48.024      35.202      24.499      16.258    
  10.517      7.0045      5.1781      4.3165      3.7711      3.3987      3.1752      3.0722      3.0722      3.1752    
  3.3987      3.7711      4.3165      5.1780      7.0045      10.517      16.258      24.499      35.202      48.024    
  62.340      77.245      91.586      104.04      126.02      128.75      126.02      118.21      106.27      91.586    
  75.615      59.708      44.961      32.177      21.861      14.221      9.1496      6.2351      4.8169      4.1148    
  3.6338      3.3225      3.1526      3.0991      3.1526      3.3225      3.6338      4.1148      4.8169      6.2351    
  9.1496      14.221      21.861      32.177      44.961      59.708      75.615      91.586      106.27      118.21    
  134.38      134.38      128.75      118.21      104.04      87.775      70.919      54.752      40.255      28.095    
  18.640      11.947      7.7596      5.5257      4.4927      3.9023      3.4962      3.2509      3.1375      3.1375    
  3.2509      3.4962      3.9023      4.4927      5.5257      7.7595      11.947      18.640      28.095      40.255    
  54.752      70.919      87.775      104.04      118.21      128.75      134.38      128.75      118.21      104.04    
  87.775      70.919      54.752      40.255      28.095      18.640      11.947      7.7595      5.5257      4.4927    
  3.9023      3.4962      3.2509      3.1375      3.1375      3.2509      3.4962      3.9023      4.4927      5.5257    
  7.7596      11.947      18.640      28.095      40.255      54.752      70.919      87.775      104.04      118.21    
  128.75      134.38      128.75      120.77      108.60      93.625      77.334      61.103      46.047      32.979    
  22.416      14.573      9.3509      6.3366      4.8656      4.1469      3.6584      3.3418      3.1688      3.1143    
  3.1688      3.3418      3.6584      4.1469      4.8656      6.3366      9.3509      14.573      22.416      32.979    
  46.047      61.103      77.334      93.625      108.60      120.77      128.75      131.52      118.21      108.60    
  95.660      80.749      65.243      50.333      36.951      25.747      17.083      11.010      7.2664      5.3035    
  4.3866      3.8247      3.4399      3.2086      3.1019      3.1019      3.2086      3.4399      3.8247      4.3866    
  5.3035      7.2665      11.010      17.083      25.747      36.951      50.333      65.243      80.749      95.660    
  108.60      118.21      123.33      123.33      104.04      93.625      80.749      66.682      52.614      39.547    
  28.234      19.162      12.525      8.2031      5.7820      4.6173      3.9849      3.5393      3.2535      3.0982    
  3.0494      3.0982      3.2534      3.5393      3.9849      4.6173      5.7820      8.2031      12.525      19.162    
  28.234      39.547      52.614      66.682      80.749      93.625      104.04      110.84      113.20      110.84    
  87.775      77.334      65.243      52.614      40.449      29.563      20.536      13.680      9.0089      6.2404    
  4.8393      4.1281      3.6329      3.2991      3.1004      3.0092      3.0092      3.1004      3.2991      3.6329    
  4.1281      4.8393      6.2404      9.0089      13.680      20.536      29.563      40.449      52.614      65.243    
  77.334      87.775      95.484      99.586      99.586      95.484      70.919      61.103      50.333      39.547    
  29.563      21.017      14.305      9.5541      6.6032      5.0317      4.2446      3.7138      3.3414      3.1056    
  2.9786      2.9388      2.9786      3.1056      3.3414      3.7138      4.2446      5.0317      6.6032      9.5541    
  14.305      21.017      29.563      39.547      50.333      61.103      70.919      78.819      83.954      85.737    
  83.954      78.819      54.752      46.047      36.951      28.234      20.536      14.305      9.7469      6.8040    
  5.1642      4.3268      3.7761      3.3763      3.1115      2.9553      2.8840      2.8840      2.9553      3.1115    
  3.3763      3.7761      4.3268      5.1642      6.8040      9.7469      14.305      20.536      28.234      36.951    
  46.047      54.752      62.247      67.760      70.684      70.684      67.760      62.247      40.255      32.979    
  25.747      19.162      13.680      9.5541      6.8040      5.2117      4.3698      3.8153      3.4012      3.1165    
  2.9382      2.8425      2.8125      2.8425      2.9382      3.1165      3.4012      3.8153      4.3698      5.2116    
  6.8040      9.5541      13.680      19.162      25.747      32.979      40.255      46.900      52.242      55.708    
  56.910      55.708      52.242      46.900      28.095      22.416      17.083      12.525      9.0089      6.6032    
  5.1642      4.3698      3.8287      3.4141      3.1197      2.9266      2.8129      2.7610      2.7610      2.8129    
  2.9266      3.1197      3.4141      3.8287      4.3698      5.1642      6.6032      9.0089      12.525      17.083    
  22.416      28.095      33.593      38.350      41.856      43.716      43.716      41.856      38.350      33.593    
  18.640      14.573      11.010      8.2031      6.2404      5.0317      4.3268      3.8153      3.4141      3.1208    
  2.9207      2.7951      2.7273      2.7059      2.7273      2.7951      2.9207      3.1208      3.4141      3.8153    
  4.3268      5.0317      6.2404      8.2031      11.010      14.573      18.640      22.837      26.730      29.889    
  31.948      32.663      31.948      29.889      26.730      22.837      11.947      9.3509      7.2664      5.7820    
  4.8393      4.2446      3.7761      3.4012      3.1197      2.9207      2.7892      2.7105      2.6741      2.6741    
  2.7106      2.7892      2.9207      3.1197      3.4012      3.7761      4.2446      4.8393      5.7820      7.2665    
  9.3509      11.947      14.841      17.731      20.284      22.188      23.206      23.206      22.188      20.284    
  17.731      14.841      7.7595      6.3366      5.3035      4.6173      4.1281      3.7138      3.3763      3.1165    
  2.9266      2.7951      2.7105      2.6637      2.6487      2.6637      2.7106      2.7951      2.9266      3.1165    
  3.3764      3.7138      4.1281      4.6173      5.3035      6.3366      7.7596      9.5015      11.397      13.222    
  14.741      15.746      16.097      15.746      14.741      13.222      11.397      9.5015      5.5257      4.8656    
  4.3866      3.9849      3.6329      3.3414      3.1115      2.9382      2.8129      2.7273      2.6741      2.6487    
  2.6487      2.6741      2.7273      2.8129      2.9382      3.1115      3.3414      3.6329      3.9849      4.3866    
  4.8656      5.5257      6.4067      7.4634      8.5833      9.6162      10.409      10.840      10.840      10.409    
  9.6162      8.5833      7.4634      6.4067      4.4927      4.1469      3.8247      3.5393      3.2991      3.1056    
  2.9553      2.8425      2.7610      2.7059      2.6741      2.6637      2.6741      2.7059      2.7610      2.8425    
  2.9553      3.1056      3.2991      3.5393      3.8247      4.1469      4.4927      4.8914      5.3833      5.9512    
  6.5315      7.0369      7.3816      7.5039      7.3816      7.0369      6.5315      5.9512      5.3833      4.8914    
  3.9023      3.6584      3.4399      3.2535      3.1004      2.9786      2.8840      2.8125      2.7610      2.7273    
  2.7106      2.7106      2.7273      2.7610      2.8125      2.8840      2.9786      3.1004      3.2534      3.4399    
  3.6584      3.9023      4.1602      4.4177      4.6794      4.9510      5.2089      5.4137      5.5276      5.5276    
  5.4137      5.2089      4.9510      4.6794      4.4177      4.1602      3.4962      3.3418      3.2086      3.0982    
  3.0092      2.9388      2.8840      2.8425      2.8129      2.7951      2.7892      2.7951      2.8129      2.8425    
  2.8840      2.9388      3.0092      3.0982      3.2086      3.3418      3.4962      3.6670      3.8456      4.0214    
  4.1827      4.3196      4.4271      4.4980      4.5229      4.4980      4.4271      4.3196      4.1827      4.0214    
  3.8456      3.6670      3.2509      3.1688      3.1019      3.0494      3.0092      2.9786      2.9553      2.9382    
  2.9266      2.9207      2.9207      2.9266      2.9382      2.9553      2.9786      3.0092      3.0494      3.1019    
  3.1688      3.2509      3.3468      3.4526      3.5623      3.6686      3.7637      3.8412      3.8956      3.9237    
  3.9237      3.8956      3.8412      3.7637      3.6685      3.5623      3.4526      3.3468      3.1375      3.1143    
  3.1019      3.0982      3.1004      3.1056      3.1115      3.1165      3.1197      3.1208      3.1197      3.1165    
  3.1115      3.1056      3.1004      3.0982      3.1019      3.1143      3.1375      3.1717      3.2157      3.2664    
  3.3196      3.3705      3.4147      3.4487      3.4701      3.4774      3.4701      3.4487      3.4147      3.3705    
  3.3196      3.2664      3.2157      3.1717      3.1375      3.1688      3.2086      3.2534      3.2991      3.3414    
  3.3763      3.4012      3.4141      3.4141      3.4012      3.3764      3.3414      3.2991      3.2534      3.2086    
  3.1688      3.1375      3.1165      3.1063      3.1053      3.1109      3.1203      3.1305      3.1395      3.1459    
  3.1493      3.1493      3.1459      3.1395      3.1305      3.1202      3.1109      3.1053      3.1063      3.1165    
  3.2509      3.3418      3.4399      3.5393      3.6329      3.7138      3.7761      3.8153      3.8287      3.8153    
  3.7761      3.7138      3.6329      3.5393      3.4399      3.3418      3.2509      3.1717      3.1063      3.0546    
  3.0150      2.9850      2.9623      2.9451      2.9329      2.9253      2.9228      2.9253      2.9329      2.9451    
  2.9623      2.9850      3.0150      3.0546      3.1063      3.1717      3.4962      3.6584      3.8247      3.9849    
  4.1281      4.2446      4.3268      4.3698      4.3698      4.3268      4.2446      4.1281      3.9849      3.8247    
  3.6584      3.4962      3.3468      3.2157      3.1053      3.0150      2.9426      2.8853      2.8407      2.8075    
  2.7851      2.7737      2.7737      2.7851      2.8075      2.8407      2.8853      2.9426      3.0150      3.1053    
  3.2157      3.3468      3.9023      4.1469      4.3866      4.6173      4.8393      5.0317      5.1642      5.2116    
  5.1642      5.0317      4.8393      4.6173      4.3866      4.1469      3.9023      3.6670      3.4526      3.2664    
  3.1109      2.9850      2.8853      2.8081      2.7502      2.7095      2.6853      2.6772      2.6853      2.7095    
  2.7502      2.8081      2.8853      2.9850      3.1109      3.2664      3.4526      3.6670      4.4927      4.8656    
  5.3035      5.7820      6.2404      6.6032      6.8040      6.8040      6.6032      6.2404      5.7820      5.3035    
  4.8656      4.4927      4.1602      3.8456      3.5623      3.3196      3.1203      2.9623      2.8407      2.7502    
  2.6859      2.6445      2.6243      2.6243      2.6445      2.6859      2.7502      2.8407      2.9623      3.1203    
  3.3196      3.5623      3.8456      4.1602      5.5257      6.3366      7.2665      8.2031      9.0089      9.5541    
  9.7469      9.5541      9.0089      8.2031      7.2665      6.3366      5.5257      4.8914      4.4177      4.0214    
  3.6686      3.3705      3.1305      2.9451      2.8075      2.7095      2.6445      2.6075      2.5954      2.6075    
  2.6445      2.7095      2.8075      2.9451      3.1305      3.3705      3.6685      4.0214      4.4177      4.8914    
  7.7596      9.3509      11.010      12.525      13.680      14.305      14.305      13.680      12.525      11.010    
  9.3509      7.7596      6.4067      5.3833      4.6794      4.1827      3.7637      3.4147      3.1395      2.9329    
  2.7851      2.6853      2.6243      2.5954      2.5954      2.6243      2.6853      2.7851      2.9328      3.1395    
  3.4147      3.7637      4.1827      4.6794      5.3833      6.4067      11.947      14.573      17.083      19.162    
  20.536      21.017      20.536      19.162      17.083      14.573      11.947      9.5015      7.4634      5.9512    
  4.9510      4.3196      3.8412      3.4487      3.1459      2.9253      2.7737      2.6772      2.6243      2.6075    
  2.6243      2.6772      2.7737      2.9253      3.1459      3.4487      3.8412      4.3196      4.9510      5.9512    
  7.4634      9.5015      18.640      22.416      25.747      28.234      29.563      29.563      28.234      25.747    
  22.416      18.640      14.841      11.397      8.5833      6.5315      5.2089      4.4271      3.8956      3.4701    
  3.1493      2.9228      2.7737      2.6853      2.6445      2.6445      2.6853      2.7737      2.9228      3.1493    
  3.4701      3.8956      4.4271      5.2089      6.5315      8.5833      11.397      14.841      28.095      32.979    
  36.951      39.547      40.449      39.547      36.951      32.979      28.095      22.837      17.731      13.222    
  9.6162      7.0369      5.4137      4.4980      3.9237      3.4774      3.1493      2.9253      2.7851      2.7095    
  2.6859      2.7095      2.7851      2.9253      3.1493      3.4774      3.9237      4.4980      5.4137      7.0369    
  9.6162      13.222      17.731      22.837      40.255      46.047      50.333      52.614      52.614      50.333    
  46.047      40.255      33.593      26.730      20.284      14.741      10.409      7.3816      5.5276      4.5229    
  3.9237      3.4701      3.1459      2.9329      2.8075      2.7502      2.7502      2.8075      2.9328      3.1459    
  3.4701      3.9237      4.5229      5.5276      7.3816      10.409      14.741      20.284      26.730      33.593    
  54.752      61.103      65.243      66.682      65.243      61.103      54.752      46.900      38.350      29.889    
  22.188      15.746      10.840      7.5039      5.5276      4.4980      3.8956      3.4487      3.1395      2.9451    
  2.8407      2.8081      2.8407      2.9451      3.1395      3.4487      3.8956      4.4980      5.5276      7.5040    
  10.840      15.746      22.188      29.889      38.350      46.900      70.919      77.334      80.749      80.749    
  77.334      70.919      62.247      52.242      41.856      31.948      23.206      16.097      10.840      7.3816    
  5.4137      4.4271      3.8412      3.4147      3.1305      2.9623      2.8853      2.8853      2.9623      3.1305    
  3.4147      3.8412      4.4271      5.4137      7.3816      10.840      16.097      23.206      31.948      41.856    
  52.242      62.247      87.775      93.625      95.660      93.625      87.775      78.819      67.760      55.708    
  43.716      32.663      23.206      15.746      10.409      7.0369      5.2089      4.3196      3.7637      3.3705    
  3.1202      2.9850      2.9426      2.9850      3.1203      3.3705      3.7637      4.3196      5.2089      7.0369    
  10.409      15.746      23.206      32.663      43.716      55.708      67.760      78.819      104.04      108.60    