Co-fcc                                  
   1.00000000000000     
     0.000000    1.929694    1.929694
     1.929694    0.000000    1.929694
     1.929694    1.929694    0.000000
   Co
     1
Direct
  0.000000  0.000000  0.000000
 
   36   36   36
 0.13729451153E+03 0.13438011189E+03 0.12602221452E+03 0.11327692840E+03 0.97614832979E+02
 0.80612766431E+02 0.63702163283E+02 0.48031338503E+02 0.34429614398E+02 0.23417513583E+02
 0.15211834396E+02 0.97145604740E+01 0.65147908036E+01 0.49429038999E+01 0.41930961725E+01
 0.36922019029E+01 0.33665457865E+01 0.31882823083E+01 0.31321080018E+01 0.31882823083E+01
 0.33665457865E+01 0.36922019029E+01 0.41930961725E+01 0.49429038999E+01 0.65147908036E+01
 0.97145604740E+01 0.15211834396E+02 0.23417513583E+02 0.34429614398E+02 0.48031338503E+02
 0.63702163283E+02 0.80612766431E+02 0.97614832979E+02 0.11327692840E+03 0.12602221452E+03
 0.13438011189E+03 0.13438011189E+03 0.12874569757E+03 0.11820669897E+03 0.10403905340E+03
 0.87775007160E+02 0.70918640962E+02 0.54752278777E+02 0.40255034525E+02 0.28095299971E+02
 0.18639795857E+02 0.11947384659E+02 0.77595483605E+01 0.55257203263E+01 0.44926593263E+01
 0.39022770022E+01 0.34962290615E+01 0.32509028946E+01 0.31374517479E+01 0.31374504467E+01
 0.32508997595E+01 0.34962259918E+01 0.39022760156E+01 0.44926614601E+01 0.55257250268E+01
 0.77595537016E+01 0.11947388322E+02 0.18639796408E+02 0.28095297804E+02 0.40255031950E+02
 0.54752279135E+02 0.70918647111E+02 0.87775019985E+02 0.10403907105E+03 0.11820671726E+03
 0.12874571137E+03 0.13438011702E+03 0.12602221452E+03 0.11820669897E+03 0.10627385680E+03
 0.91586258058E+02 0.75614725417E+02 0.59707841800E+02 0.44961453920E+02 0.32177204158E+02
 0.21861341854E+02 0.14220744915E+02 0.91496085930E+01 0.62351282205E+01 0.48169395833E+01
 0.41148379458E+01 0.36338262935E+01 0.33225422565E+01 0.31526090513E+01 0.30991269117E+01
 0.31526049381E+01 0.33225364509E+01 0.36338223677E+01 0.41148387280E+01 0.48169456035E+01
 0.62351373161E+01 0.91496169271E+01 0.14220748958E+02 0.21861340373E+02 0.32177199198E+02
 0.44961450205E+02 0.59707844718E+02 0.75614738440E+02 0.91586280771E+02 0.10627388449E+03
 0.11820672410E+03 0.12602222946E+03 0.12874571137E+03 0.11327692840E+03 0.10403905340E+03
 0.91586258058E+02 0.77245245308E+02 0.62339888980E+02 0.48024279561E+02 0.35201579523E+02
 0.24499161434E+02 0.16257958302E+02 0.10516506524E+02 0.70045015779E+01 0.51780447177E+01
 0.43165158902E+01 0.37710832619E+01 0.33986593596E+01 0.31751709313E+01 0.30722008634E+01
 0.30721983553E+01 0.31751648342E+01 0.33986532253E+01 0.37710809367E+01 0.43165194984E+01
 0.51780534740E+01 0.70045120562E+01 0.10516514299E+02 0.16257960204E+02 0.24499157308E+02
 0.35201572612E+02 0.48024275224E+02 0.62339892265E+02 0.77245258465E+02 0.91586279150E+02
 0.10403907671E+03 0.11327694654E+03 0.11820672410E+03 0.11820671726E+03 0.97614832979E+02
 0.87775007160E+02 0.75614725417E+02 0.62339888980E+02 0.49087333659E+02 0.36811279191E+02
 0.26228769505E+02 0.17793033792E+02 0.11671106179E+02 0.77288577354E+01 0.55481612241E+01
 0.44991657713E+01 0.38987979788E+01 0.34736331950E+01 0.32017567548E+01 0.30543620978E+01
 0.30081232662E+01 0.30543582006E+01 0.32017510803E+01 0.34736289386E+01 0.38987978239E+01
 0.44991705221E+01 0.55481693228E+01 0.77288659127E+01 0.11671110948E+02 0.17793033090E+02
 0.26228763705E+02 0.36811270998E+02 0.49087326914E+02 0.62339886912E+02 0.75614729147E+02
 0.87775015167E+02 0.97614841759E+02 0.10403907671E+03 0.10627388449E+03 0.10403907105E+03
 0.80612766431E+02 0.70918640962E+02 0.59707841800E+02 0.48024279561E+02 0.36811279191E+02
 0.26831092363E+02 0.18617651100E+02 0.12442915641E+02 0.82935745959E+01 0.58745379755E+01
 0.46604006642E+01 0.40081256980E+01 0.35416384168E+01 0.32287327511E+01 0.30429185111E+01
 0.29577814702E+01 0.29577803166E+01 0.30429155842E+01 0.32287294206E+01 0.35416362903E+01
 0.40081259108E+01 0.46604033556E+01 0.58745421673E+01 0.82935785181E+01 0.12442917365E+02
 0.18617649214E+02 0.26831086438E+02 0.36811269867E+02 0.48024268270E+02 0.59707830275E+02
 0.70918630758E+02 0.80612758632E+02 0.87775015167E+02 0.91586279150E+02 0.91586280771E+02
 0.87775019985E+02 0.63702163283E+02 0.54752278777E+02 0.44961453920E+02 0.35201579523E+02
 0.26228769505E+02 0.18617651100E+02 0.12714175213E+02 0.86029707196E+01 0.60996366205E+01
 0.47851222250E+01 0.40916302840E+01 0.35974408226E+01 0.32528508378E+01 0.30355269634E+01
 0.29185844785E+01 0.28820197378E+01 0.29185844051E+01 0.30355265683E+01 0.32528498367E+01
 0.35974391806E+01 0.40916283780E+01 0.47851207348E+01 0.60996361491E+01 0.86029713041E+01
 0.12714175989E+02 0.18617650343E+02 0.26228765144E+02 0.35201569969E+02 0.44961438906E+02
 0.54752259835E+02 0.63702143605E+02 0.70918630758E+02 0.75614729147E+02 0.77245258465E+02
 0.75614738440E+02 0.70918647111E+02 0.48031338503E+02 0.40255034525E+02 0.32177204158E+02
 0.24499161434E+02 0.17793033792E+02 0.12442915641E+02 0.86029707196E+01 0.61800238615E+01
 0.48539071074E+01 0.41438845353E+01 0.36369299117E+01 0.32716347638E+01 0.30306208494E+01
 0.28886869403E+01 0.28238895161E+01 0.28238904643E+01 0.28886891344E+01 0.30306227013E+01
 0.32716346465E+01 0.36369271185E+01 0.41438797781E+01 0.48539022512E+01 0.61800209803E+01
 0.86029709118E+01 0.12442918209E+02 0.17793036245E+02 0.24499160411E+02 0.32177196933E+02
 0.40255020428E+02 0.48031319610E+02 0.54752259835E+02 0.59707830275E+02 0.62339886912E+02
 0.62339892265E+02 0.59707844718E+02 0.54752279135E+02 0.34429614398E+02 0.28095299971E+02
 0.21861341854E+02 0.16257958302E+02 0.11671106179E+02 0.82935745959E+01 0.60996366205E+01
 0.48539071074E+01 0.41616573587E+01 0.36573543663E+01 0.32834726279E+01 0.30274557131E+01
 0.28672382146E+01 0.27811922952E+01 0.27542855698E+01 0.27811950581E+01 0.28672421537E+01
 0.30274584798E+01 0.32834723518E+01 0.36573506860E+01 0.41616517165E+01 0.48539021253E+01
 0.60996348359E+01 0.82935771462E+01 0.11671112092E+02 0.16257964764E+02 0.21861345386E+02
 0.28095298018E+02 0.34429606582E+02 0.40255020428E+02 0.44961438906E+02 0.48024268270E+02
 0.49087326914E+02 0.48024275224E+02 0.44961450205E+02 0.40255031950E+02 0.23417513583E+02
 0.18639795857E+02 0.14220744915E+02 0.10516506524E+02 0.77288577354E+01 0.58745379755E+01
 0.47851222250E+01 0.41438845353E+01 0.36573543663E+01 0.32875061569E+01 0.30258555229E+01
 0.28541787662E+01 0.27528701406E+01 0.27064196259E+01 0.27064211600E+01 0.27528740127E+01
 0.28541831418E+01 0.30258583614E+01 0.32875062263E+01 0.36573518851E+01 0.41438811346E+01
 0.47851202288E+01 0.58745393379E+01 0.77288631131E+01 0.10516514929E+02 0.14220754111E+02
 0.18639803306E+02 0.23417517540E+02 0.28095298018E+02 0.32177196933E+02 0.35201569969E+02
 0.36811269867E+02 0.36811270998E+02 0.35201572612E+02 0.32177199198E+02 0.28095297804E+02
 0.15211834396E+02 0.11947384659E+02 0.91496085930E+01 0.70045015779E+01 0.55481612241E+01
 0.46604006642E+01 0.40916302840E+01 0.36369299117E+01 0.32834726279E+01 0.30258555229E+01
 0.28497758579E+01 0.27386789503E+01 0.26783037655E+01 0.26592641853E+01 0.26783059587E+01
 0.27386825778E+01 0.28497797353E+01 0.30258585581E+01 0.32834742991E+01 0.36369304904E+01
 0.40916307188E+01 0.46604021681E+01 0.55481647632E+01 0.70045074693E+01 0.91496163785E+01
 0.11947393300E+02 0.15211842665E+02 0.18639803306E+02 0.21861345386E+02 0.24499160411E+02
 0.26228765144E+02 0.26831086438E+02 0.26228763705E+02 0.24499157308E+02 0.21861340373E+02
 0.18639796408E+02 0.97145604740E+01 0.77595483605E+01 0.62351282205E+01 0.51780447177E+01
 0.44991657713E+01 0.40081256980E+01 0.35974408226E+01 0.32716347638E+01 0.30274557131E+01
 0.28541787662E+01 0.27386789503E+01 0.26690150880E+01 0.26364583169E+01 0.26364587957E+01
 0.26690165003E+01 0.27386812098E+01 0.28541817063E+01 0.30274590762E+01 0.32716382383E+01
 0.35974441144E+01 0.40081286351E+01 0.44991683798E+01 0.51780472361E+01 0.62351310304E+01
 0.77595518257E+01 0.97145647712E+01 0.11947393300E+02 0.14220754111E+02 0.16257964764E+02
 0.17793036245E+02 0.18617650343E+02 0.18617649214E+02 0.17793033090E+02 0.16257960204E+02
 0.14220748958E+02 0.11947388322E+02 0.65147908036E+01 0.55257203263E+01 0.48169395833E+01
 0.43165158902E+01 0.38987979788E+01 0.35416384168E+01 0.32528508378E+01 0.30306208494E+01
 0.28672382146E+01 0.27528701406E+01 0.26783037655E+01 0.26364583169E+01 0.26229932509E+01
 0.26364577706E+01 0.26783031854E+01 0.27528702829E+01 0.28672396727E+01 0.30306237045E+01
 0.32528545417E+01 0.35416419687E+01 0.38988003238E+01 0.43165163675E+01 0.48169381980E+01
 0.55257177567E+01 0.65147880964E+01 0.77595518257E+01 0.91496163785E+01 0.10516514929E+02
 0.11671112092E+02 0.12442918209E+02 0.12714175989E+02 0.12442917365E+02 0.11671110948E+02
 0.10516514299E+02 0.91496169271E+01 0.77595537016E+01 0.49429038999E+01 0.44926593263E+01
 0.41148379458E+01 0.37710832619E+01 0.34736331950E+01 0.32287327511E+01 0.30355269634E+01
 0.28886869403E+01 0.27811922952E+01 0.27064196259E+01 0.26592641853E+01 0.26364587957E+01
 0.26364577706E+01 0.26592615474E+01 0.27064164896E+01 0.27811899441E+01 0.28886862402E+01
 0.30355279556E+01 0.32287346087E+01 0.34736345605E+01 0.37710828051E+01 0.41148349167E+01
 0.44926538392E+01 0.49428968611E+01 0.55257177567E+01 0.62351310304E+01 0.70045074693E+01
 0.77288631131E+01 0.82935771462E+01 0.86029709118E+01 0.86029713041E+01 0.82935785181E+01
 0.77288659127E+01 0.70045120562E+01 0.62351373161E+01 0.55257250268E+01 0.41930961725E+01
 0.39022770022E+01 0.36338262935E+01 0.33986593596E+01 0.32017567548E+01 0.30429185111E+01
 0.29185844785E+01 0.28238895161E+01 0.27542855698E+01 0.27064211600E+01 0.26783059587E+01
 0.26690165003E+01 0.26783031854E+01 0.27064164896E+01 0.27542803950E+01 0.28238851793E+01
 0.29185817417E+01 0.30429172814E+01 0.32017561719E+01 0.33986582000E+01 0.36338234954E+01
 0.39022721003E+01 0.41930894631E+01 0.44926538392E+01 0.48169381980E+01 0.51780472361E+01
 0.55481647632E+01 0.58745393379E+01 0.60996348359E+01 0.61800209803E+01 0.60996361491E+01
 0.58745421673E+01 0.55481693228E+01 0.51780534740E+01 0.48169456035E+01 0.44926614601E+01
 0.36922019029E+01 0.34962290615E+01 0.33225422565E+01 0.31751709313E+01 0.30543620978E+01
 0.29577814702E+01 0.28820197378E+01 0.28238904643E+01 0.27811950581E+01 0.27528740127E+01
 0.27386825778E+01 0.27386812098E+01 0.27528702829E+01 0.27811899441E+01 0.28238851793E+01
 0.28820152885E+01 0.29577783249E+01 0.30543600920E+01 0.31751694320E+01 0.33225405044E+01
 0.34962265258E+01 0.36921984968E+01 0.39022721003E+01 0.41148349167E+01 0.43165163675E+01
 0.44991683798E+01 0.46604021681E+01 0.47851202288E+01 0.48539021253E+01 0.48539022512E+01
 0.47851207348E+01 0.46604033556E+01 0.44991705221E+01 0.43165194984E+01 0.41148387280E+01
 0.39022760156E+01 0.33665457865E+01 0.32509028946E+01 0.31526090513E+01 0.30722008634E+01
 0.30081232662E+01 0.29577803166E+01 0.29185844051E+01 0.28886891344E+01 0.28672421537E+01
 0.28541831418E+01 0.28497797353E+01 0.28541817063E+01 0.28672396727E+01 0.28886862402E+01
 0.29185817417E+01 0.29577783249E+01 0.30081220749E+01 0.30722003281E+01 0.31526089022E+01
 0.32509029246E+01 0.33665459795E+01 0.34962265258E+01 0.36338234954E+01 0.37710828051E+01
 0.38988003238E+01 0.40081286351E+01 0.40916307188E+01 0.41438811346E+01 0.41616517165E+01
 0.41438797781E+01 0.40916283780E+01 0.40081259108E+01 0.38987978239E+01 0.37710809367E+01
 0.36338223677E+01 0.34962259918E+01 0.31882823083E+01 0.31374517479E+01 0.30991269117E+01
 0.30721983553E+01 0.30543582006E+01 0.30429155842E+01 0.30355265683E+01 0.30306227013E+01
 0.30274584798E+01 0.30258583614E+01 0.30258585581E+01 0.30274590762E+01 0.30306237045E+01
 0.30355279556E+01 0.30429172814E+01 0.30543600920E+01 0.30722003281E+01 0.30991289281E+01
 0.31374538996E+01 0.31882848201E+01 0.32509029246E+01 0.33225405044E+01 0.33986582000E+01
 0.34736345605E+01 0.35416419687E+01 0.35974441144E+01 0.36369304904E+01 0.36573518851E+01
 0.36573506860E+01 0.36369271185E+01 0.35974391806E+01 0.35416362903E+01 0.34736289386E+01
 0.33986532253E+01 0.33225364509E+01 0.32508997595E+01 0.31321080018E+01 0.31374504467E+01
 0.31526049381E+01 0.31751648342E+01 0.32017510803E+01 0.32287294206E+01 0.32528498367E+01
 0.32716346465E+01 0.32834723518E+01 0.32875062263E+01 0.32834742991E+01 0.32716382383E+01
 0.32528545417E+01 0.32287346087E+01 0.32017561719E+01 0.31751694320E+01 0.31526089022E+01
 0.31374538996E+01 0.31321112604E+01 0.31374538996E+01 0.31526089022E+01 0.31751694320E+01
 0.32017561719E+01 0.32287346087E+01 0.32528545417E+01 0.32716382383E+01 0.32834742991E+01
 0.32875062263E+01 0.32834723518E+01 0.32716346465E+01 0.32528498367E+01 0.32287294206E+01
 0.32017510803E+01 0.31751648342E+01 0.31526049381E+01 0.31374504467E+01 0.31882823083E+01
 0.32508997595E+01 0.33225364509E+01 0.33986532253E+01 0.34736289386E+01 0.35416362903E+01
 0.35974391806E+01 0.36369271185E+01 0.36573506860E+01 0.36573518851E+01 0.36369304904E+01
 0.35974441144E+01 0.35416419687E+01 0.34736345605E+01 0.33986582000E+01 0.33225405044E+01
 0.32509029246E+01 0.31882848201E+01 0.31374538996E+01 0.30991289281E+01 0.30722003281E+01
 0.30543600920E+01 0.30429172814E+01 0.30355279556E+01 0.30306237045E+01 0.30274590762E+01
 0.30258585581E+01 0.30258583614E+01 0.30274584798E+01 0.30306227013E+01 0.30355265683E+01
 0.30429155842E+01 0.30543582006E+01 0.30721983553E+01 0.30991269117E+01 0.31374517479E+01
 0.33665457865E+01 0.34962259918E+01 0.36338223677E+01 0.37710809367E+01 0.38987978239E+01
 0.40081259108E+01 0.40916283780E+01 0.41438797781E+01 0.41616517165E+01 0.41438811346E+01
 0.40916307188E+01 0.40081286351E+01 0.38988003238E+01 0.37710828051E+01 0.36338234954E+01
 0.34962265258E+01 0.33665459795E+01 0.32509029246E+01 0.31526089022E+01 0.30722003281E+01
 0.30081220749E+01 0.29577783249E+01 0.29185817417E+01 0.28886862402E+01 0.28672396727E+01
 0.28541817063E+01 0.28497797353E+01 0.28541831418E+01 0.28672421537E+01 0.28886891344E+01
 0.29185844051E+01 0.29577803166E+01 0.30081232662E+01 0.30722008634E+01 0.31526090513E+01
 0.32509028946E+01 0.36922019029E+01 0.39022760156E+01 0.41148387280E+01 0.43165194984E+01
 0.44991705221E+01 0.46604033556E+01 0.47851207348E+01 0.48539022512E+01 0.48539021253E+01
 0.47851202288E+01 0.46604021681E+01 0.44991683798E+01 0.43165163675E+01 0.41148349167E+01
 0.39022721003E+01 0.36921984968E+01 0.34962265258E+01 0.33225405044E+01 0.31751694320E+01
 0.30543600920E+01 0.29577783249E+01 0.28820152885E+01 0.28238851793E+01 0.27811899441E+01
 0.27528702829E+01 0.27386812098E+01 0.27386825778E+01 0.27528740127E+01 0.27811950581E+01
 0.28238904643E+01 0.28820197378E+01 0.29577814702E+01 0.30543620978E+01 0.31751709313E+01
 0.33225422565E+01 0.34962290615E+01 0.41930961725E+01 0.44926614601E+01 0.48169456035E+01
 0.51780534740E+01 0.55481693228E+01 0.58745421673E+01 0.60996361491E+01 0.61800209803E+01
 0.60996348359E+01 0.58745393379E+01 0.55481647632E+01 0.51780472361E+01 0.48169381980E+01
 0.44926538392E+01 0.41930894631E+01 0.39022721003E+01 0.36338234954E+01 0.33986582000E+01
 0.32017561719E+01 0.30429172814E+01 0.29185817417E+01 0.28238851793E+01 0.27542803950E+01
 0.27064164896E+01 0.26783031854E+01 0.26690165003E+01 0.26783059587E+01 0.27064211600E+01
 0.27542855698E+01 0.28238895161E+01 0.29185844785E+01 0.30429185111E+01 0.32017567548E+01
 0.33986593596E+01 0.36338262935E+01 0.39022770022E+01 0.49429038999E+01 0.55257250268E+01
 0.62351373161E+01 0.70045120562E+01 0.77288659127E+01 0.82935785181E+01 0.86029713041E+01
 0.86029709118E+01 0.82935771462E+01 0.77288631131E+01 0.70045074693E+01 0.62351310304E+01
 0.55257177567E+01 0.49428968611E+01 0.44926538392E+01 0.41148349167E+01 0.37710828051E+01
 0.34736345605E+01 0.32287346087E+01 0.30355279556E+01 0.28886862402E+01 0.27811899441E+01
 0.27064164896E+01 0.26592615474E+01 0.26364577706E+01 0.26364587957E+01 0.26592641853E+01
 0.27064196259E+01 0.27811922952E+01 0.28886869403E+01 0.30355269634E+01 0.32287327511E+01
 0.34736331950E+01 0.37710832619E+01 0.41148379458E+01 0.44926593263E+01 0.65147908036E+01
 0.77595537016E+01 0.91496169271E+01 0.10516514299E+02 0.11671110948E+02 0.12442917365E+02
 0.12714175989E+02 0.12442918209E+02 0.11671112092E+02 0.10516514929E+02 0.91496163785E+01
 0.77595518257E+01 0.65147880964E+01 0.55257177567E+01 0.48169381980E+01 0.43165163675E+01
 0.38988003238E+01 0.35416419687E+01 0.32528545417E+01 0.30306237045E+01 0.28672396727E+01
 0.27528702829E+01 0.26783031854E+01 0.26364577706E+01 0.26229932509E+01 0.26364583169E+01
 0.26783037655E+01 0.27528701406E+01 0.28672382146E+01 0.30306208494E+01 0.32528508378E+01
 0.35416384168E+01 0.38987979788E+01 0.43165158902E+01 0.48169395833E+01 0.55257203263E+01
 0.97145604740E+01 0.11947388322E+02 0.14220748958E+02 0.16257960204E+02 0.17793033090E+02
 0.18617649214E+02 0.18617650343E+02 0.17793036245E+02 0.16257964764E+02 0.14220754111E+02
 0.11947393300E+02 0.97145647712E+01 0.77595518257E+01 0.62351310304E+01 0.51780472361E+01
 0.44991683798E+01 0.40081286351E+01 0.35974441144E+01 0.32716382383E+01 0.30274590762E+01
 0.28541817063E+01 0.27386812098E+01 0.26690165003E+01 0.26364587957E+01 0.26364583169E+01
 0.26690150880E+01 0.27386789503E+01 0.28541787662E+01 0.30274557131E+01 0.32716347638E+01
 0.35974408226E+01 0.40081256980E+01 0.44991657713E+01 0.51780447177E+01 0.62351282205E+01
 0.77595483605E+01 0.15211834396E+02 0.18639796408E+02 0.21861340373E+02 0.24499157308E+02
 0.26228763705E+02 0.26831086438E+02 0.26228765144E+02 0.24499160411E+02 0.21861345386E+02
 0.18639803306E+02 0.15211842665E+02 0.11947393300E+02 0.91496163785E+01 0.70045074693E+01
 0.55481647632E+01 0.46604021681E+01 0.40916307188E+01 0.36369304904E+01 0.32834742991E+01
 0.30258585581E+01 0.28497797353E+01 0.27386825778E+01 0.26783059587E+01 0.26592641853E+01
 0.26783037655E+01 0.27386789503E+01 0.28497758579E+01 0.30258555229E+01 0.32834726279E+01
 0.36369299117E+01 0.40916302840E+01 0.46604006642E+01 0.55481612241E+01 0.70045015779E+01
 0.91496085930E+01 0.11947384659E+02 0.23417513583E+02 0.28095297804E+02 0.32177199198E+02
 0.35201572612E+02 0.36811270998E+02 0.36811269867E+02 0.35201569969E+02 0.32177196933E+02
 0.28095298018E+02 0.23417517540E+02 0.18639803306E+02 0.14220754111E+02 0.10516514929E+02
 0.77288631131E+01 0.58745393379E+01 0.47851202288E+01 0.41438811346E+01 0.36573518851E+01
 0.32875062263E+01 0.30258583614E+01 0.28541831418E+01 0.27528740127E+01 0.27064211600E+01
 0.27064196259E+01 0.27528701406E+01 0.28541787662E+01 0.30258555229E+01 0.32875061569E+01
 0.36573543663E+01 0.41438845353E+01 0.47851222250E+01 0.58745379755E+01 0.77288577354E+01
 0.10516506524E+02 0.14220744915E+02 0.18639795857E+02 0.34429614398E+02 0.40255031950E+02
 0.44961450205E+02 0.48024275224E+02 0.49087326914E+02 0.48024268270E+02 0.44961438906E+02
 0.40255020428E+02 0.34429606582E+02 0.28095298018E+02 0.21861345386E+02 0.16257964764E+02
 0.11671112092E+02 0.82935771462E+01 0.60996348359E+01 0.48539021253E+01 0.41616517165E+01
 0.36573506860E+01 0.32834723518E+01 0.30274584798E+01 0.28672421537E+01 0.27811950581E+01
 0.27542855698E+01 0.27811922952E+01 0.28672382146E+01 0.30274557131E+01 0.32834726279E+01
 0.36573543663E+01 0.41616573587E+01 0.48539071074E+01 0.60996366205E+01 0.82935745959E+01
 0.11671106179E+02 0.16257958302E+02 0.21861341854E+02 0.28095299971E+02 0.48031338503E+02
 0.54752279135E+02 0.59707844718E+02 0.62339892265E+02 0.62339886912E+02 0.59707830275E+02
 0.54752259835E+02 0.48031319610E+02 0.40255020428E+02 0.32177196933E+02 0.24499160411E+02
 0.17793036245E+02 0.12442918209E+02 0.86029709118E+01 0.61800209803E+01 0.48539022512E+01
 0.41438797781E+01 0.36369271185E+01 0.32716346465E+01 0.30306227013E+01 0.28886891344E+01
 0.28238904643E+01 0.28238895161E+01 0.28886869403E+01 0.30306208494E+01 0.32716347638E+01
 0.36369299117E+01 0.41438845353E+01 0.48539071074E+01 0.61800238615E+01 0.86029707196E+01
 0.12442915641E+02 0.17793033792E+02 0.24499161434E+02 0.32177204158E+02 0.40255034525E+02
 0.63702163283E+02 0.70918647111E+02 0.75614738440E+02 0.77245258465E+02 0.75614729147E+02
 0.70918630758E+02 0.63702143605E+02 0.54752259835E+02 0.44961438906E+02 0.35201569969E+02
 0.26228765144E+02 0.18617650343E+02 0.12714175989E+02 0.86029713041E+01 0.60996361491E+01
 0.47851207348E+01 0.40916283780E+01 0.35974391806E+01 0.32528498367E+01 0.30355265683E+01
 0.29185844051E+01 0.28820197378E+01 0.29185844785E+01 0.30355269634E+01 0.32528508378E+01
 0.35974408226E+01 0.40916302840E+01 0.47851222250E+01 0.60996366205E+01 0.86029707196E+01
 0.12714175213E+02 0.18617651100E+02 0.26228769505E+02 0.35201579523E+02 0.44961453920E+02
 0.54752278777E+02 0.80612766431E+02 0.87775019985E+02 0.91586280771E+02 0.91586279150E+02
 0.87775015167E+02 0.80612758632E+02 0.70918630758E+02 0.59707830275E+02 0.48024268270E+02
 0.36811269867E+02 0.26831086438E+02 0.18617649214E+02 0.12442917365E+02 0.82935785181E+01
 0.58745421673E+01 0.46604033556E+01 0.40081259108E+01 0.35416362903E+01 0.32287294206E+01
 0.30429155842E+01 0.29577803166E+01 0.29577814702E+01 0.30429185111E+01 0.32287327511E+01
 0.35416384168E+01 0.40081256980E+01 0.46604006642E+01 0.58745379755E+01 0.82935745959E+01
 0.12442915641E+02 0.18617651100E+02 0.26831092363E+02 0.36811279191E+02 0.48024279561E+02
 0.59707841800E+02 0.70918640962E+02 0.97614832979E+02 0.10403907105E+03 0.10627388449E+03
 0.10403907671E+03 0.97614841759E+02 0.87775015167E+02 0.75614729147E+02 0.62339886912E+02
 0.49087326914E+02 0.36811270998E+02 0.26228763705E+02 0.17793033090E+02 0.11671110948E+02
 0.77288659127E+01 0.55481693228E+01 0.44991705221E+01 0.38987978239E+01 0.34736289386E+01
 0.32017510803E+01 0.30543582006E+01 0.30081232662E+01 0.30543620978E+01 0.32017567548E+01
 0.34736331950E+01 0.38987979788E+01 0.44991657713E+01 0.55481612241E+01 0.77288577354E+01
 0.11671106179E+02 0.17793033792E+02 0.26228769505E+02 0.36811279191E+02 0.49087333659E+02
 0.62339888980E+02 0.75614725417E+02 0.87775007160E+02 0.11327692840E+03 0.11820671726E+03
 0.11820672410E+03 0.11327694654E+03 0.10403907671E+03 0.91586279150E+02 0.77245258465E+02
 0.62339892265E+02 0.48024275224E+02 0.35201572612E+02 0.24499157308E+02 0.16257960204E+02
 0.10516514299E+02 0.70045120562E+01 0.51780534740E+01 0.43165194984E+01 0.37710809367E+01
 0.33986532253E+01 0.31751648342E+01 0.30721983553E+01 0.30722008634E+01 0.31751709313E+01
 0.33986593596E+01 0.37710832619E+01 0.43165158902E+01 0.51780447177E+01 0.70045015779E+01
 0.10516506524E+02 0.16257958302E+02 0.24499161434E+02 0.35201579523E+02 0.48024279561E+02
 0.62339888980E+02 0.77245245308E+02 0.91586258058E+02 0.10403905340E+03 0.12602221452E+03
 0.12874571137E+03 0.12602222946E+03 0.11820672410E+03 0.10627388449E+03 0.91586280771E+02
 0.75614738440E+02 0.59707844718E+02 0.44961450205E+02 0.32177199198E+02 0.21861340373E+02
 0.14220748958E+02 0.91496169271E+01 0.62351373161E+01 0.48169456035E+01 0.41148387280E+01
 0.36338223677E+01 0.33225364509E+01 0.31526049381E+01 0.30991269117E+01 0.31526090513E+01
 0.33225422565E+01 0.36338262935E+01 0.41148379458E+01 0.48169395833E+01 0.62351282205E+01
 0.91496085930E+01 0.14220744915E+02 0.21861341854E+02 0.32177204158E+02 0.44961453920E+02
 0.59707841800E+02 0.75614725417E+02 0.91586258058E+02 0.10627385680E+03 0.11820669897E+03
 0.13438011189E+03 0.13438011702E+03 0.12874571137E+03 0.11820671726E+03 0.10403907105E+03
 0.87775019985E+02 0.70918647111E+02 0.54752279135E+02 0.40255031950E+02 0.28095297804E+02
 0.18639796408E+02 0.11947388322E+02 0.77595537016E+01 0.55257250268E+01 0.44926614601E+01
 0.39022760156E+01 0.34962259918E+01 0.32508997595E+01 0.31374504467E+01 0.31374517479E+01
 0.32509028946E+01 0.34962290615E+01 0.39022770022E+01 0.44926593263E+01 0.55257203263E+01
 0.77595483605E+01 0.11947384659E+02 0.18639795857E+02 0.28095299971E+02 0.40255034525E+02
 0.54752278777E+02 0.70918640962E+02 0.87775007160E+02 0.10403905340E+03 0.11820669897E+03
 0.12874569757E+03 0.13438011189E+03 0.12874569757E+03 0.11820669897E+03 0.10403905340E+03
 0.87775007160E+02 0.70918640962E+02 0.54752278777E+02 0.40255034525E+02 0.28095299971E+02
 0.18639795857E+02 0.11947384659E+02 0.77595483605E+01 0.55257203263E+01 0.44926593263E+01
 0.39022770022E+01 0.34962290615E+01 0.32509028946E+01 0.31374517479E+01 0.31374504467E+01
 0.32508997595E+01 0.34962259918E+01 0.39022760156E+01 0.44926614601E+01 0.55257250268E+01
 0.77595537016E+01 0.11947388322E+02 0.18639796408E+02 0.28095297804E+02 0.40255031950E+02
 0.54752279135E+02 0.70918647111E+02 0.87775019985E+02 0.10403907105E+03 0.11820671726E+03
 0.12874571137E+03 0.13438011702E+03 0.12874569757E+03 0.12077438660E+03 0.10860422675E+03
 0.93624598802E+02 0.77333647348E+02 0.61103172564E+02 0.46046629828E+02 0.32978706672E+02
 0.22415922853E+02 0.14573434106E+02 0.93509085778E+01 0.63365712609E+01 0.48655676755E+01
 0.41469230332E+01 0.36583692783E+01 0.33417723497E+01 0.31688003028E+01 0.31143411153E+01
 0.31687957869E+01 0.33417659870E+01 0.36583650004E+01 0.41469239370E+01 0.48655743123E+01
 0.63365812193E+01 0.93509176362E+01 0.14573438446E+02 0.22415921258E+02 0.32978701587E+02
 0.46046626642E+02 0.61103177314E+02 0.77333663807E+02 0.93624626284E+02 0.10860425969E+03
 0.12077441624E+03 0.12874571512E+03 0.13152358283E+03 0.11820669897E+03 0.10860422675E+03
 0.95659729329E+02 0.80749332495E+02 0.65243101057E+02 0.50332815156E+02 0.36950738006E+02
 0.25747404202E+02 0.17082952645E+02 0.11010438692E+02 0.72664458032E+01 0.53035041100E+01
 0.43865706775E+01 0.38247079221E+01 0.34399456392E+01 0.32086028620E+01 0.31019010128E+01
 0.31018979272E+01 0.32085953810E+01 0.34399381715E+01 0.38247052101E+01 0.43865752809E+01
 0.53035149576E+01 0.72664585972E+01 0.11010448035E+02 0.17082954895E+02 0.25747399648E+02
 0.36950731223E+02 0.50332813215E+02 0.65243110310E+02 0.80749355347E+02 0.95659762506E+02
 0.10860426198E+03 0.11820672586E+03 0.12333128119E+03 0.12333127113E+03 0.10403905340E+03
 0.93624598802E+02 0.80749332495E+02 0.66681623621E+02 0.52613980227E+02 0.39546516005E+02
 0.28234152886E+02 0.19162400657E+02 0.12524573729E+02 0.82030875669E+01 0.57820201542E+01
 0.46173355170E+01 0.39848661606E+01 0.35393186226E+01 0.32534519164E+01 0.30981756994E+01
 0.30494207692E+01 0.30981700659E+01 0.32534438058E+01 0.35393127514E+01 0.39848663988E+01
 0.46173428644E+01 0.57820321190E+01 0.82030992985E+01 0.12524580397E+02 0.19162399944E+02
 0.28234146371E+02 0.39546508700E+02 0.52613978387E+02 0.66681631788E+02 0.80749351132E+02
 0.93624623636E+02 0.10403907687E+03 0.11083769565E+03 0.11320269967E+03 0.11083768143E+03
 0.87775007160E+02 0.77333647348E+02 0.65243101057E+02 0.52613980227E+02 0.40449275691E+02
 0.29563377990E+02 0.20536363355E+02 0.13679758321E+02 0.90089067607E+01 0.62403540053E+01
 0.48393222712E+01 0.41280715975E+01 0.36329057943E+01 0.32991343756E+01 0.31003762791E+01
 0.30091780693E+01 0.30091757575E+01 0.31003705421E+01 0.32991282320E+01 0.36329026293E+01
 0.41280735164E+01 0.48393290434E+01 0.62403631021E+01 0.90089144816E+01 0.13679761486E+02
 0.20536360777E+02 0.29563371034E+02 0.40449267656E+02 0.52613974835E+02 0.65243100741E+02
 0.77333652148E+02 0.87775014726E+02 0.95484322649E+02 0.99585543537E+02 0.99585540881E+02
 0.95484315942E+02 0.70918640962E+02 0.61103172564E+02 0.50332815156E+02 0.39546516005E+02
 0.29563377990E+02 0.21016628968E+02 0.14304832407E+02 0.95541446037E+01 0.66032100665E+01
 0.50317133041E+01 0.42445621091E+01 0.37138213681E+01 0.33413561642E+01 0.31056233571E+01
 0.29785537715E+01 0.29387940974E+01 0.29785515932E+01 0.31056199010E+01 0.33413528710E+01
 0.37138196404E+01 0.42445627428E+01 0.50317161476E+01 0.66032140322E+01 0.95541480196E+01
 0.14304833565E+02 0.21016626662E+02 0.29563371871E+02 0.39546506640E+02 0.50332803830E+02
 0.61103160925E+02 0.70918630644E+02 0.78818523064E+02 0.83954185509E+02 0.85736561592E+02
 0.83954189561E+02 0.78818530710E+02 0.54752278777E+02 0.46046629828E+02 0.36950738006E+02
 0.28234152886E+02 0.20536363355E+02 0.14304832407E+02 0.97469280556E+01 0.68039897821E+01
 0.51642421918E+01 0.43267787636E+01 0.37761142518E+01 0.33763496533E+01 0.31115385369E+01
 0.29553363250E+01 0.28839934023E+01 0.28839934932E+01 0.29553363592E+01 0.31115379716E+01
 0.33763480539E+01 0.37761116960E+01 0.43267759701E+01 0.51642402438E+01 0.68039895301E+01
 0.97469294823E+01 0.14304834300E+02 0.20536363525E+02 0.28234148936E+02 0.36950728381E+02
 0.46046614706E+02 0.54752260394E+02 0.62246975803E+02 0.67759543060E+02 0.70683568686E+02
 0.70683573425E+02 0.67759556012E+02 0.62246993618E+02 0.40255034525E+02 0.32978706672E+02
 0.25747404202E+02 0.19162400657E+02 0.13679758321E+02 0.95541446037E+01 0.68039897821E+01
 0.52116522487E+01 0.43697683109E+01 0.38153125880E+01 0.34012346208E+01 0.31165270996E+01
 0.29381800897E+01 0.28424540625E+01 0.28125424028E+01 0.28424560066E+01 0.29381826407E+01
 0.31165283260E+01 0.34012330972E+01 0.38153082760E+01 0.43697627360E+01 0.52116478336E+01
 0.68039886221E+01 0.95541472701E+01 0.13679763311E+02 0.19162404816E+02 0.25747404018E+02
 0.32978699900E+02 0.40255021398E+02 0.46899655007E+02 0.52242059755E+02 0.55708427974E+02
 0.56909848197E+02 0.55708437064E+02 0.52242074957E+02 0.46899671540E+02 0.28095299971E+02
 0.22415922853E+02 0.17082952645E+02 0.12524573729E+02 0.90089067607E+01 0.66032100665E+01
 0.51642421918E+01 0.43697683109E+01 0.38286835575E+01 0.34141324583E+01 0.31197399011E+01
 0.29266199490E+01 0.28129371748E+01 0.27609546755E+01 0.27609562377E+01 0.28129409996E+01
 0.29266238926E+01 0.31197416507E+01 0.34141307617E+01 0.38286789595E+01 0.43697630077E+01
 0.51642390456E+01 0.66032112289E+01 0.90089125546E+01 0.12524582350E+02 0.17082960846E+02
 0.22415927342E+02 0.28095298897E+02 0.33592781392E+02 0.38350408405E+02 0.41855820256E+02
 0.43715568893E+02 0.43715571747E+02 0.41855827577E+02 0.38350417012E+02 0.33592787561E+02
 0.18639795857E+02 0.14573434106E+02 0.11010438692E+02 0.82030875669E+01 0.62403540053E+01
 0.50317133041E+01 0.43267787636E+01 0.38153125880E+01 0.34141324583E+01 0.31208371417E+01