   1   1   1   0
  0.1437128E+02  0.2729000E-09  0.2729000E-09  0.2729000E-09  0.5000000E-15
  1.000000000000000E-004
  CAR 
 Co-fcc                                  
     46.18520375     -2.70323349  301      6.94698737      1.00000000
     -2.703  0.0000E+00  0.0000E+00  0.0000E+00  0.0000E+00
     -2.540  0.0000E+00  0.0000E+00  0.0000E+00  0.0000E+00
     -2.377  0.0000E+00  0.0000E+00  0.0000E+00  0.0000E+00
     -2.214  0.0000E+00  0.0000E+00  0.0000E+00  0.0000E+00
     -2.051  0.0000E+00  0.0000E+00  0.0000E+00  0.0000E+00
     -1.888  0.0000E+00  0.0000E+00  0.0000E+00  0.0000E+00
     -1.725  0.0000E+00  0.0000E+00  0.0000E+00  0.0000E+00
     -1.563  0.0000E+00  0.0000E+00  0.0000E+00  0.0000E+00
     -1.400  0.0000E+00  0.0000E+00  0.0000E+00  0.0000E+00
     -1.237  0.0000E+00  0.0000E+00  0.0000E+00  0.0000E+00
     -1.074  0.0000E+00  0.0000E+00  0.0000E+00  0.0000E+00
     -0.911  0.0000E+00  0.0000E+00  0.0000E+00  0.0000E+00
     -0.748  0.0000E+00  0.5535E-17  0.0000E+00  0.9021E-18
     -0.585  0.1327E-08  0.4021E-06  0.2162E-09  0.6553E-07
     -0.422  0.1402E-03  0.2281E-03  0.2284E-04  0.3723E-04
     -0.259  0.9954E-04  0.1185E-04  0.3906E-04  0.3916E-04
     -0.096  0.3760E-03  0.6679E-03  0.1003E-03  0.1480E-03
      0.067  0.3431E-03  0.5118E-04  0.1563E-03  0.1563E-03
      0.230  0.4007E-03  0.6661E-03  0.2215E-03  0.2649E-03
      0.393  0.3184E-03  0.5361E-04  0.2734E-03  0.2736E-03
      0.556  0.6457E-03  0.9029E-03  0.3787E-03  0.4208E-03
      0.719  0.3133E-03  0.5994E-04  0.4297E-03  0.4305E-03
      0.882  0.1222E-02  0.1394E-02  0.6288E-03  0.6577E-03
      1.045  0.2236E-03  0.5711E-04  0.6653E-03  0.6670E-03
      1.208  0.7039E-03  0.6982E-03  0.7800E-03  0.7808E-03
      1.371  0.1331E-03  0.1191E-03  0.8017E-03  0.8002E-03
      1.534  0.1313E-02  0.1321E-02  0.1016E-02  0.1015E-02
      1.697  0.1535E-02  0.8874E-03  0.1266E-02  0.1160E-02
      1.860  0.6684E-03  0.1271E-02  0.1375E-02  0.1367E-02
      2.023  0.7399E-03  0.6315E-03  0.1495E-02  0.1470E-02
      2.186  0.9815E-03  0.1793E-03  0.1655E-02  0.1499E-02
      2.349  0.2559E-02  0.1574E-02  0.2072E-02  0.1756E-02
      2.512  0.1155E-02  0.1501E-02  0.2260E-02  0.2000E-02
      2.674  0.1746E-02  0.6766E-03  0.2545E-02  0.2111E-02
      2.837  0.4489E-02  0.1471E-02  0.3277E-02  0.2350E-02
      3.000  0.9176E-02  0.1391E-02  0.4772E-02  0.2577E-02
      3.163  0.5989E-02  0.1221E-02  0.5748E-02  0.2776E-02
      3.326  0.1143E-01  0.1824E-02  0.7611E-02  0.3073E-02
      3.489  0.1172E-01  0.2298E-02  0.9522E-02  0.3448E-02
      3.652  0.1398E-01  0.1322E-02  0.1180E-01  0.3663E-02
      3.815  0.1209E-01  0.2964E-02  0.1377E-01  0.4146E-02
      3.978  0.1317E-01  0.4329E-02  0.1592E-01  0.4852E-02
      4.141  0.1352E-01  0.2872E-02  0.1812E-01  0.5320E-02
      4.304  0.1794E-01  0.6265E-02  0.2104E-01  0.6341E-02
      4.467  0.2127E-01  0.4277E-02  0.2451E-01  0.7038E-02
      4.630  0.2600E-01  0.5609E-02  0.2875E-01  0.7952E-02
      4.793  0.2095E-01  0.6273E-02  0.3216E-01  0.8974E-02
      4.956  0.1689E-01  0.1107E-01  0.3491E-01  0.1078E-01
      5.119  0.2327E-01  0.1037E-01  0.3871E-01  0.1247E-01
      5.282  0.1541E-01  0.9288E-02  0.4122E-01  0.1398E-01
      5.445  0.1676E-01  0.1080E-01  0.4395E-01  0.1574E-01
      5.608  0.1879E-01  0.1108E-01  0.4701E-01  0.1755E-01
      5.771  0.2413E-01  0.1488E-01  0.5094E-01  0.1997E-01
      5.934  0.9409E-02  0.1261E-01  0.5248E-01  0.2203E-01
      6.097  0.1322E-02  0.1493E-01  0.5269E-01  0.2446E-01
      6.260  0.1281E-02  0.1534E-01  0.5290E-01  0.2696E-01
      6.423  0.2672E-02  0.1733E-01  0.5334E-01  0.2979E-01
      6.586  0.1407E-02  0.1466E-01  0.5357E-01  0.3217E-01
      6.749  0.2051E-02  0.1000E-01  0.5390E-01  0.3380E-01
      6.911  0.4054E-04  0.1067E-01  0.5391E-01  0.3554E-01
      7.074  0.7141E-03  0.1547E-01  0.5402E-01  0.3806E-01
      7.237  0.4992E-02  0.1705E-01  0.5484E-01  0.4084E-01
      7.400  0.1438E-03  0.1406E-01  0.5486E-01  0.4313E-01
      7.563  0.2056E-02  0.1851E-01  0.5519E-01  0.4615E-01
      7.726  0.1349E-02  0.2722E-01  0.5541E-01  0.5059E-01
      7.889  0.1297E-03  0.1383E-01  0.5544E-01  0.5284E-01
      8.052  0.9233E-03  0.1770E-02  0.5559E-01  0.5313E-01
      8.215  0.3264E-02  0.5827E-02  0.5612E-01  0.5408E-01
      8.378  0.6161E-03  0.2200E-02  0.5622E-01  0.5444E-01
      8.541  0.3292E-02  0.9119E-03  0.5675E-01  0.5458E-01
      8.704  0.1217E-02  0.2351E-02  0.5695E-01  0.5497E-01
      8.867  0.3187E-05  0.2884E-02  0.5695E-01  0.5544E-01
      9.030  0.1644E-02  0.2076E-02  0.5722E-01  0.5578E-01
      9.193  0.5102E-03  0.1552E-02  0.5730E-01  0.5603E-01
      9.356  0.7217E-03  0.2445E-02  0.5742E-01  0.5643E-01
      9.519  0.2274E-02  0.3285E-02  0.5779E-01  0.5696E-01
      9.682  0.2558E-02  0.6591E-03  0.5821E-01  0.5707E-01
      9.845  0.7800E-03  0.4699E-03  0.5834E-01  0.5715E-01
     10.008  0.1591E-03  0.1271E-02  0.5836E-01  0.5735E-01
     10.171  0.1570E-02  0.2173E-02  0.5862E-01  0.5771E-01
     10.334  0.2003E-02  0.1882E-02  0.5895E-01  0.5801E-01
     10.497  0.1651E-05  0.1606E-02  0.5895E-01  0.5828E-01
     10.660  0.1612E-03  0.6516E-03  0.5897E-01  0.5838E-01
     10.823  0.1277E-02  0.1169E-02  0.5918E-01  0.5857E-01
     10.986  0.4886E-03  0.2267E-02  0.5926E-01  0.5894E-01
     11.148  0.1703E-02  0.2567E-03  0.5954E-01  0.5898E-01
     11.311  0.3252E-02  0.1197E-02  0.6007E-01  0.5918E-01
     11.474  0.1029E-02  0.8052E-06  0.6023E-01  0.5918E-01
     11.637  0.1167E-02  0.9054E-03  0.6042E-01  0.5933E-01
     11.800  0.9330E-03  0.1254E-02  0.6058E-01  0.5953E-01
     11.963  0.1719E-02  0.1455E-02  0.6086E-01  0.5977E-01
     12.126  0.3046E-02  0.1717E-02  0.6135E-01  0.6005E-01
     12.289  0.5698E-03  0.1167E-02  0.6145E-01  0.6024E-01
     12.452  0.1780E-02  0.2571E-02  0.6174E-01  0.6066E-01
     12.615  0.1701E-02  0.1491E-02  0.6201E-01  0.6090E-01
     12.778  0.8305E-03  0.2986E-02  0.6215E-01  0.6139E-01
     12.941  0.1269E-02  0.5408E-03  0.6236E-01  0.6148E-01
     13.104  0.4527E-03  0.2486E-02  0.6243E-01  0.6188E-01
     13.267  0.1782E-02  0.1300E-02  0.6272E-01  0.6209E-01
     13.430  0.3455E-02  0.1735E-02  0.6328E-01  0.6238E-01
     13.593  0.1015E-02  0.4635E-04  0.6345E-01  0.6238E-01
     13.756  0.7786E-03  0.1438E-02  0.6357E-01  0.6262E-01
     13.919  0.1315E-02  0.3819E-02  0.6379E-01  0.6324E-01
     14.082  0.1125E-02  0.5161E-03  0.6397E-01  0.6332E-01
     14.245  0.4647E-03  0.1967E-02  0.6405E-01  0.6364E-01
     14.408  0.1426E-02  0.8898E-03  0.6428E-01  0.6379E-01
     14.571  0.3356E-02  0.1150E-02  0.6483E-01  0.6398E-01
     14.734  0.1222E-02  0.3716E-03  0.6503E-01  0.6404E-01
     14.897  0.2449E-02  0.6973E-03  0.6543E-01  0.6415E-01
     15.060  0.3358E-02  0.2435E-02  0.6597E-01  0.6455E-01
     15.223  0.1702E-02  0.2691E-02  0.6625E-01  0.6499E-01
     15.385  0.1544E-02  0.2679E-02  0.6650E-01  0.6542E-01
     15.548  0.2230E-02  0.3015E-02  0.6687E-01  0.6591E-01
     15.711  0.2326E-02  0.2912E-02  0.6724E-01  0.6639E-01
     15.874  0.1081E-02  0.6307E-03  0.6742E-01  0.6649E-01
     16.037  0.2223E-03  0.2831E-02  0.6746E-01  0.6695E-01
     16.200  0.1914E-02  0.2307E-02  0.6777E-01  0.6733E-01
     16.363  0.3030E-02  0.5791E-03  0.6826E-01  0.6742E-01
     16.526  0.1557E-02  0.1486E-02  0.6852E-01  0.6767E-01
     16.689  0.3885E-02  0.1478E-02  0.6915E-01  0.6791E-01
     16.852  0.1130E-02  0.3319E-02  0.6933E-01  0.6845E-01
     17.015  0.2057E-02  0.2456E-02  0.6967E-01  0.6885E-01
     17.178  0.4134E-02  0.2160E-02  0.7034E-01  0.6920E-01
     17.341  0.1764E-02  0.2562E-02  0.7063E-01  0.6962E-01
     17.504  0.2006E-02  0.2889E-02  0.7096E-01  0.7009E-01
     17.667  0.8430E-03  0.3204E-02  0.7109E-01  0.7061E-01
     17.830  0.1477E-02  0.2022E-02  0.7133E-01  0.7094E-01
     17.993  0.4214E-02  0.9542E-03  0.7202E-01  0.7109E-01
     18.156  0.1623E-02  0.1851E-02  0.7229E-01  0.7140E-01
     18.319  0.2495E-02  0.3324E-02  0.7269E-01  0.7194E-01
     18.482  0.1707E-02  0.1991E-02  0.7297E-01  0.7226E-01
     18.645  0.1424E-02  0.2898E-02  0.7320E-01  0.7273E-01
     18.808  0.3417E-02  0.1578E-02  0.7376E-01  0.7299E-01
     18.971  0.3022E-02  0.2772E-02  0.7425E-01  0.7344E-01
     19.134  0.1128E-03  0.2381E-02  0.7427E-01  0.7383E-01
     19.297  0.3395E-02  0.2606E-02  0.7482E-01  0.7426E-01
     19.460  0.1586E-02  0.1806E-02  0.7508E-01  0.7455E-01
     19.622  0.3789E-02  0.2475E-02  0.7570E-01  0.7495E-01
     19.785  0.1695E-02  0.9210E-03  0.7598E-01  0.7510E-01
     19.948  0.3195E-02  0.4412E-02  0.7650E-01  0.7582E-01
     20.111  0.3888E-02  0.2423E-02  0.7713E-01  0.7622E-01
     20.274  0.2334E-02  0.3323E-02  0.7751E-01  0.7676E-01
     20.437  0.3044E-02  0.2944E-02  0.7801E-01  0.7724E-01
     20.600  0.8894E-05  0.3620E-02  0.7801E-01  0.7783E-01
     20.763  0.2899E-02  0.1096E-02  0.7848E-01  0.7801E-01
     20.926  0.4236E-02  0.8046E-03  0.7917E-01  0.7814E-01
     21.089  0.1592E-02  0.4072E-02  0.7943E-01  0.7880E-01
     21.252  0.2777E-02  0.2334E-02  0.7988E-01  0.7918E-01
     21.415  0.5470E-04  0.3400E-02  0.7989E-01  0.7974E-01
     21.578  0.5317E-03  0.8960E-03  0.7998E-01  0.7988E-01
     21.741  0.3221E-02  0.2466E-03  0.8050E-01  0.7992E-01
     21.904  0.1677E-02  0.2349E-02  0.8078E-01  0.8031E-01
     22.067  0.2987E-02  0.2212E-02  0.8126E-01  0.8067E-01
     22.230  0.2560E-02  0.1686E-02  0.8168E-01  0.8094E-01
     22.393  0.1086E-02  0.4292E-02  0.8186E-01  0.8164E-01
     22.556  0.3212E-02  0.7228E-03  0.8238E-01  0.8176E-01
     22.719  0.7406E-03  0.3448E-02  0.8250E-01  0.8232E-01
     22.882  0.2814E-02  0.3883E-03  0.8296E-01  0.8238E-01
     23.045  0.7698E-03  0.2624E-02  0.8309E-01  0.8281E-01
     23.208  0.6619E-03  0.1686E-02  0.8319E-01  0.8309E-01
     23.371  0.2716E-02  0.7649E-04  0.8364E-01  0.8310E-01
     23.534  0.2615E-02  0.2370E-02  0.8406E-01  0.8348E-01
     23.697  0.2377E-02  0.3366E-02  0.8445E-01  0.8403E-01
     23.859  0.7771E-03  0.1876E-02  0.8458E-01  0.8434E-01
     24.022  0.2196E-02  0.1632E-02  0.8493E-01  0.8460E-01
     24.185  0.2327E-02  0.1036E-02  0.8531E-01  0.8477E-01
     24.348  0.2732E-02  0.3275E-02  0.8576E-01  0.8531E-01
     24.511  0.1867E-02  0.1482E-02  0.8606E-01  0.8555E-01
     24.674  0.1792E-02  0.2229E-02  0.8635E-01  0.8591E-01
     24.837  0.2820E-02  0.2281E-02  0.8681E-01  0.8628E-01
     25.000  0.1501E-02  0.3167E-02  0.8706E-01  0.8680E-01
     25.163  0.9535E-03  0.2751E-02  0.8721E-01  0.8725E-01
     25.326  0.4565E-02  0.1714E-02  0.8796E-01  0.8753E-01
     25.489  0.2586E-02  0.2926E-02  0.8838E-01  0.8800E-01
     25.652  0.2058E-02  0.2776E-02  0.8872E-01  0.8846E-01
     25.815  0.1674E-02  0.1761E-02  0.8899E-01  0.8874E-01
     25.978  0.2473E-02  0.2069E-02  0.8939E-01  0.8908E-01
     26.141  0.6235E-02  0.6485E-02  0.9041E-01  0.9014E-01
     26.304  0.3499E-02  0.3292E-02  0.9098E-01  0.9067E-01
     26.467  0.2300E-02  0.1179E-02  0.9135E-01  0.9087E-01
     26.630  0.2917E-02  0.5265E-02  0.9183E-01  0.9172E-01
     26.793  0.4016E-02  0.3725E-02  0.9248E-01  0.9233E-01
     26.956  0.1055E-02  0.1572E-02  0.9265E-01  0.9259E-01
     27.119  0.5839E-02  0.3487E-02  0.9361E-01  0.9316E-01
     27.282  0.2984E-02  0.3934E-02  0.9409E-01  0.9380E-01
     27.445  0.2624E-02  0.2858E-02  0.9452E-01  0.9426E-01
     27.608  0.4864E-02  0.1874E-02  0.9531E-01  0.9457E-01
     27.771  0.2159E-02  0.3508E-02  0.9566E-01  0.9514E-01
     27.934  0.1542E-02  0.3440E-02  0.9591E-01  0.9570E-01
     28.096  0.2190E-02  0.2676E-02  0.9627E-01  0.9614E-01
     28.259  0.3522E-02  0.2773E-02  0.9685E-01  0.9659E-01
     28.422  0.5098E-02  0.3416E-02  0.9768E-01  0.9714E-01
     28.585  0.3782E-02  0.4824E-02  0.9829E-01  0.9793E-01
     28.748  0.3729E-02  0.3777E-02  0.9890E-01  0.9855E-01
     28.911  0.7857E-03  0.5393E-03  0.9903E-01  0.9863E-01
     29.074  0.1173E-02  0.3977E-02  0.9922E-01  0.9928E-01
     29.237  0.7031E-03  0.3368E-03  0.9933E-01  0.9934E-01
     29.400  0.1085E-02  0.7039E-03  0.9951E-01  0.9945E-01
     29.563  0.2313E-02  0.9347E-05  0.9989E-01  0.9945E-01
     29.726  0.3442E-02  0.3648E-02  0.1004E+00  0.1000E+00
     29.889  0.1566E-02  0.4020E-02  0.1007E+00  0.1007E+00
     30.052  0.7367E-03  0.1088E-05  0.1008E+00  0.1007E+00
     30.215  0.4605E-03  0.2216E-03  0.1009E+00  0.1007E+00
     30.378  0.2501E-02  0.9731E-03  0.1013E+00  0.1009E+00
     30.541  0.3829E-02  0.2331E-02  0.1019E+00  0.1013E+00
     30.704  0.1494E-02  0.2763E-02  0.1022E+00  0.1017E+00
     30.867  0.2096E-02  0.2149E-02  0.1025E+00  0.1021E+00
     31.030  0.2393E-02  0.1226E-02  0.1029E+00  0.1023E+00
     31.193  0.5612E-02  0.4411E-02  0.1038E+00  0.1030E+00
     31.356  0.5355E-02  0.6408E-02  0.1047E+00  0.1040E+00
     31.519  0.4505E-03  0.3007E-02  0.1048E+00  0.1045E+00
     31.682  0.2056E-02  0.1357E-04  0.1051E+00  0.1045E+00
     31.845  0.4147E-02  0.4224E-02  0.1058E+00  0.1052E+00
     32.008  0.3716E-02  0.4930E-02  0.1064E+00  0.1060E+00
     32.171  0.2353E-02  0.3413E-02  0.1068E+00  0.1066E+00
     32.333  0.1298E-02  0.2222E-02  0.1070E+00  0.1069E+00
     32.496  0.3364E-02  0.2284E-02  0.1075E+00  0.1073E+00
     32.659  0.8023E-03  0.1887E-02  0.1077E+00  0.1076E+00
     32.822  0.1263E-02  0.9336E-03  0.1079E+00  0.1078E+00
     32.985  0.2723E-02  0.2466E-02  0.1083E+00  0.1082E+00
     33.148  0.3730E-02  0.3440E-02  0.1089E+00  0.1087E+00
     33.311  0.4192E-02  0.2364E-02  0.1096E+00  0.1091E+00
     33.474  0.6037E-02  0.3815E-02  0.1106E+00  0.1097E+00
     33.637  0.2622E-02  0.7005E-02  0.1110E+00  0.1109E+00
     33.800  0.1007E-02  0.1027E-02  0.1112E+00  0.1111E+00
     33.963  0.6664E-03  0.7273E-03  0.1113E+00  0.1112E+00
     34.126  0.1558E-02  0.1016E-02  0.1115E+00  0.1113E+00
     34.289  0.3088E-02  0.2555E-02  0.1120E+00  0.1118E+00
     34.452  0.1245E-02  0.2633E-02  0.1122E+00  0.1122E+00
     34.615  0.1587E-02  0.1119E-02  0.1125E+00  0.1124E+00
     34.778  0.2016E-02  0.1668E-02  0.1128E+00  0.1126E+00
     34.941  0.1052E-02  0.1746E-02  0.1130E+00  0.1129E+00
     35.104  0.4305E-02  0.3330E-02  0.1137E+00  0.1135E+00
     35.267  0.3418E-02  0.3460E-02  0.1143E+00  0.1140E+00
     35.430  0.1607E-02  0.2147E-02  0.1145E+00  0.1144E+00
     35.593  0.1965E-02  0.1798E-02  0.1148E+00  0.1147E+00
     35.756  0.2934E-02  0.1582E-02  0.1153E+00  0.1149E+00
     35.919  0.6947E-03  0.1397E-02  0.1154E+00  0.1152E+00
     36.082  0.1136E-02  0.2012E-02  0.1156E+00  0.1155E+00
     36.245  0.1990E-02  0.6837E-03  0.1159E+00  0.1156E+00
     36.408  0.1188E-02  0.3691E-02  0.1161E+00  0.1162E+00
     36.570  0.2640E-02  0.9768E-03  0.1166E+00  0.1164E+00
     36.733  0.1036E-02  0.2507E-02  0.1167E+00  0.1168E+00
     36.896  0.1519E-02  0.4335E-03  0.1170E+00  0.1168E+00
     37.059  0.5515E-03  0.2030E-03  0.1171E+00  0.1169E+00
     37.222  0.1202E-05  0.1235E-02  0.1171E+00  0.1171E+00
     37.385  0.1337E-02  0.2341E-04  0.1173E+00  0.1171E+00
     37.548  0.2715E-02  0.3674E-02  0.1177E+00  0.1177E+00
     37.711  0.1190E-02  0.1927E-02  0.1179E+00  0.1180E+00
     37.874  0.1229E-02  0.8474E-03  0.1181E+00  0.1181E+00
     38.037  0.6024E-03  0.5075E-03  0.1182E+00  0.1182E+00
     38.200  0.8299E-03  0.3631E-03  0.1184E+00  0.1183E+00
     38.363  0.1445E-02  0.2000E-02  0.1186E+00  0.1186E+00
     38.526  0.1354E-02  0.5613E-05  0.1188E+00  0.1186E+00
     38.689  0.8316E-04  0.6541E-03  0.1188E+00  0.1187E+00
     38.852  0.4534E-12  0.7841E-03  0.1188E+00  0.1188E+00
     39.015  0.0000E+00  0.4985E-08  0.1188E+00  0.1188E+00
     39.178  0.0000E+00  0.0000E+00  0.1188E+00  0.1188E+00
     39.341  0.7784E-17  0.0000E+00  0.1188E+00  0.1188E+00
     39.504  0.8760E-06  0.7212E-08  0.1188E+00  0.1188E+00
     39.667  0.6776E-03  0.4567E-03  0.1189E+00  0.1189E+00
     39.830  0.1324E-02  0.1382E-02  0.1192E+00  0.1191E+00
     39.993  0.1623E-03  0.9886E-03  0.1192E+00  0.1193E+00
     40.156  0.7039E-03  0.4923E-04  0.1193E+00  0.1193E+00
     40.319  0.7432E-05  0.3894E-12  0.1193E+00  0.1193E+00
     40.482  0.0000E+00  0.0000E+00  0.1193E+00  0.1193E+00
     40.645  0.7446E-10  0.1425E-08  0.1193E+00  0.1193E+00
     40.807  0.2012E-03  0.3584E-03  0.1193E+00  0.1194E+00
     40.970  0.5202E-03  0.3978E-03  0.1194E+00  0.1194E+00
     41.133  0.1367E-02  0.1396E-02  0.1196E+00  0.1196E+00
     41.296  0.6909E-04  0.5579E-05  0.1196E+00  0.1196E+00
     41.459  0.2540E-12  0.7984E-18  0.1196E+00  0.1196E+00
     41.622  0.4407E-06  0.3268E-06  0.1196E+00  0.1196E+00
     41.785  0.6580E-03  0.6482E-03  0.1198E+00  0.1198E+00
     41.948  0.6066E-04  0.7061E-04  0.1198E+00  0.1198E+00
     42.111  0.7749E-12  0.1298E-11  0.1198E+00  0.1198E+00
     42.274  0.0000E+00  0.0000E+00  0.1198E+00  0.1198E+00
     42.437  0.0000E+00  0.0000E+00  0.1198E+00  0.1198E+00
     42.600  0.0000E+00  0.0000E+00  0.1198E+00  0.1198E+00
     42.763  0.0000E+00  0.1437E-17  0.1198E+00  0.1198E+00
     42.926  0.0000E+00  0.4190E-06  0.1198E+00  0.1198E+00
     43.089  0.0000E+00  0.6564E-03  0.1198E+00  0.1199E+00
     43.252  0.0000E+00  0.6228E-04  0.1198E+00  0.1199E+00
     43.415  0.0000E+00  0.8466E-12  0.1198E+00  0.1199E+00
     43.578  0.1793E-09  0.1108E-12  0.1198E+00  0.1199E+00
     43.741  0.2431E-03  0.3305E-04  0.1198E+00  0.1199E+00
     43.904  0.5097E-03  0.6848E-03  0.1199E+00  0.1200E+00
     44.067  0.6842E-03  0.1243E-05  0.1200E+00  0.1200E+00
     44.230  0.1206E-05  0.0000E+00  0.1200E+00  0.1200E+00
     44.393  0.0000E+00  0.0000E+00  0.1200E+00  0.1200E+00
     44.556  0.0000E+00  0.0000E+00  0.1200E+00  0.1200E+00
     44.719  0.0000E+00  0.0000E+00  0.1200E+00  0.1200E+00
     44.882  0.0000E+00  0.0000E+00  0.1200E+00  0.1200E+00
     45.044  0.0000E+00  0.0000E+00  0.1200E+00  0.1200E+00
     45.207  0.0000E+00  0.0000E+00  0.1200E+00  0.1200E+00
     45.370  0.0000E+00  0.0000E+00  0.1200E+00  0.1200E+00
     45.533  0.0000E+00  0.0000E+00  0.1200E+00  0.1200E+00
     45.696  0.0000E+00  0.0000E+00  0.1200E+00  0.1200E+00
     45.859  0.0000E+00  0.0000E+00  0.1200E+00  0.1200E+00
     46.022  0.0000E+00  0.0000E+00  0.1200E+00  0.1200E+00
     46.185  0.0000E+00  0.0000E+00  0.1200E+00  0.1200E+00
     46.18520375     -2.70323349  301      6.94698737      1.00000000
     -2.703  0.0000E+00  0.0000E+00  0.0000E+00  0.0000E+00  0.0000E+00  0.0000E+00  0.0000E+00  0.0000E+00  0.0000E+00  0.0000E+00  0.0000E+00  0.0000E+00  0.0000E+00  0.0000E+00  0.0000E+00  0.0000E+00  0.0000E+00  0.0000E+00
     -2.540  0.0000E+00  0.0000E+00  0.0000E+00  0.0000E+00  0.0000E+00  0.0000E+00  0.0000E+00  0.0000E+00  0.0000E+00  0.0000E+00  0.0000E+00  0.0000E+00  0.0000E+00  0.0000E+00  0.0000E+00  0.0000E+00  0.0000E+00  0.0000E+00
     -2.377  0.0000E+00  0.0000E+00  0.0000E+00  0.0000E+00  0.0000E+00  0.0000E+00  0.0000E+00  0.0000E+00  0.0000E+00  0.0000E+00  0.0000E+00  0.0000E+00  0.0000E+00  0.0000E+00  0.0000E+00  0.0000E+00  0.0000E+00  0.0000E+00
     -2.214  0.0000E+00  0.0000E+00  0.0000E+00  0.0000E+00  0.0000E+00  0.0000E+00  0.0000E+00  0.0000E+00  0.0000E+00  0.0000E+00  0.0000E+00  0.0000E+00  0.0000E+00  0.0000E+00  0.0000E+00  0.0000E+00  0.0000E+00  0.0000E+00
     -2.051  0.0000E+00  0.0000E+00  0.0000E+00  0.0000E+00  0.0000E+00  0.0000E+00  0.0000E+00  0.0000E+00  0.0000E+00  0.0000E+00  0.0000E+00  0.0000E+00  0.0000E+00  0.0000E+00  0.0000E+00  0.0000E+00  0.0000E+00  0.0000E+00
     -1.888  0.0000E+00  0.0000E+00  0.0000E+00  0.0000E+00  0.0000E+00  0.0000E+00  0.0000E+00  0.0000E+00  0.0000E+00  0.0000E+00  0.0000E+00  0.0000E+00  0.0000E+00  0.0000E+00  0.0000E+00  0.0000E+00  0.0000E+00  0.0000E+00
     -1.725  0.0000E+00  0.0000E+00  0.0000E+00  0.0000E+00  0.0000E+00  0.0000E+00  0.0000E+00  0.0000E+00  0.0000E+00  0.0000E+00  0.0000E+00  0.0000E+00  0.0000E+00  0.0000E+00  0.0000E+00  0.0000E+00  0.0000E+00  0.0000E+00
     -1.563  0.0000E+00  0.0000E+00  0.0000E+00  0.0000E+00  0.0000E+00  0.0000E+00  0.0000E+00  0.0000E+00  0.0000E+00  0.0000E+00  0.0000E+00  0.0000E+00  0.0000E+00  0.0000E+00  0.0000E+00  0.0000E+00  0.0000E+00  0.0000E+00
     -1.400  0.0000E+00  0.0000E+00  0.0000E+00  0.0000E+00  0.0000E+00  0.0000E+00  0.0000E+00  0.0000E+00  0.0000E+00  0.0000E+00  0.0000E+00  0.0000E+00  0.0000E+00  0.0000E+00  0.0000E+00  0.0000E+00  0.0000E+00  0.0000E+00
     -1.237  0.0000E+00  0.0000E+00  0.0000E+00  0.0000E+00  0.0000E+00  0.0000E+00  0.0000E+00  0.0000E+00  0.0000E+00  0.0000E+00  0.0000E+00  0.0000E+00  0.0000E+00  0.0000E+00  0.0000E+00  0.0000E+00  0.0000E+00  0.0000E+00
     -1.074  0.0000E+00  0.0000E+00  0.0000E+00  0.0000E+00  0.0000E+00  0.0000E+00  0.0000E+00  0.0000E+00  0.0000E+00  0.0000E+00  0.0000E+00  0.0000E+00  0.0000E+00  0.0000E+00  0.0000E+00  0.0000E+00  0.0000E+00  0.0000E+00
     -0.911  0.0000E+00  0.0000E+00  0.0000E+00  0.0000E+00  0.0000E+00  0.0000E+00  0.0000E+00  0.0000E+00  0.0000E+00  0.0000E+00  0.0000E+00  0.0000E+00  0.0000E+00  0.0000E+00  0.0000E+00  0.0000E+00  0.0000E+00  0.0000E+00
     -0.748  0.0000E+00  0.2892E-15  0.0000E+00  0.1187E-17  0.0000E+00  0.1187E-17  0.0000E+00  0.1187E-17  0.0000E+00  0.1385E-19  0.0000E+00  0.1385E-19  0.0000E+00  0.3541E-33  0.0000E+00  0.1385E-19  0.0000E+00  0.3541E-33
     -0.585  0.7045E-07  0.2101E-04  0.2846E-09  0.8626E-07  0.2846E-09  0.8626E-07  0.2846E-09  0.8626E-07  0.5195E-11  0.1006E-08  0.5195E-11  0.1006E-08  0.2110E-25  0.2573E-22  0.5195E-11  0.1006E-08  0.2110E-25  0.2573E-22
     -0.422  0.7444E-02  0.1192E-01  0.3007E-04  0.4892E-04  0.3007E-04  0.4892E-04  0.3007E-04  0.4892E-04  0.5489E-06  0.5707E-06  0.5489E-06  0.5707E-06  0.2230E-20  0.8921E-19  0.5489E-06  0.5707E-06  0.2230E-20  0.8921E-19
     -0.259  0.5286E-02  0.6179E-03  0.2135E-04  0.2884E-05  0.2135E-04  0.2884E-05  0.2135E-04  0.2884E-05  0.3898E-06  0.3822E-07  0.3898E-06  0.3822E-07  0.6800E-10  0.1338E-07  0.3898E-06  0.3822E-07  0.6800E-10  0.1338E-07
     -0.096  0.1931E-01  0.3374E-01  0.2896E-03  0.5152E-03  0.2896E-03  0.5152E-03  0.2896E-03  0.5152E-03  0.9967E-05  0.1098E-04  0.9967E-05  0.1098E-04  0.1337E-04  0.1452E-04  0.9967E-05  0.1098E-04  0.1337E-04  0.1452E-04
      0.067  0.1762E-01  0.2584E-02  0.2642E-03  0.3978E-04  0.2642E-03  0.3978E-04  0.2642E-03  0.3978E-04  0.9094E-05  0.8837E-06  0.9094E-05  0.8837E-06  0.1220E-04  0.1112E-05  0.9094E-05  0.8837E-06  0.1220E-04  0.1112E-05
      0.230  0.1987E-01  0.3250E-01  0.5149E-03  0.8627E-03  0.5149E-03  0.8627E-03  0.5149E-03  0.8627E-03  0.6034E-04  0.5998E-04  0.6034E-04  0.5998E-04  0.1394E-04  0.1410E-04  0.6034E-04  0.5998E-04  0.1394E-04  0.1410E-04
      0.393  0.1580E-01  0.2614E-02  0.4093E-03  0.7005E-04  0.4093E-03  0.7005E-04  0.4093E-03  0.7005E-04  0.4796E-04  0.4857E-05  0.4796E-04  0.4857E-05  0.1108E-04  0.1291E-05  0.4796E-04  0.4857E-05  0.1108E-04  0.1291E-05
      0.556  0.3079E-01  0.4245E-01  0.1153E-02  0.1631E-02  0.1153E-02  0.1631E-02  0.1153E-02  0.1631E-02  0.1156E-03  0.8901E-04  0.1156E-03  0.8901E-04  0.1919E-03  0.1519E-03  0.1156E-03  0.8901E-04  0.1919E-03  0.1519E-03
      0.719  0.1494E-01  0.2808E-02  0.5606E-03  0.1109E-03  0.5606E-03  0.1109E-03  0.5606E-03  0.1109E-03  0.5009E-04  0.6214E-05  0.5009E-04  0.6214E-05  0.9977E-04  0.1067E-04  0.5009E-04  0.6214E-05  0.9977E-04  0.1067E-04
      0.882  0.5597E-01  0.6312E-01  0.2729E-02  0.3175E-02  0.2729E-02  0.3175E-02  0.2729E-02  0.3175E-02  0.5517E-03  0.3536E-03  0.5517E-03  0.3536E-03  0.3846E-03  0.2409E-03  0.5517E-03  0.3536E-03  0.3846E-03  0.2409E-03
      1.045  0.1023E-01  0.2555E-02  0.5016E-03  0.1367E-03  0.5016E-03  0.1367E-03  0.5016E-03  0.1367E-03  0.1066E-03  0.2108E-04  0.1066E-03  0.2108E-04  0.6948E-04  0.8606E-05  0.1066E-03  0.2108E-04  0.6948E-04  0.8606E-05
      1.208  0.3079E-01  0.3042E-01  0.1771E-02  0.1848E-02  0.1771E-02  0.1848E-02  0.1771E-02  0.1848E-02  0.8501E-03  0.4320E-03  0.8501E-03  0.4320E-03  0.1353E-03  0.7180E-04  0.8501E-03  0.4320E-03  0.1353E-03  0.7180E-04
      1.371  0.5521E-02  0.4961E-02  0.3972E-03  0.3735E-03  0.3972E-03  0.3735E-03  0.3972E-03  0.3735E-03  0.9903E-04  0.5257E-04  0.9903E-04  0.5257E-04  0.1912E-03  0.7455E-04  0.9903E-04  0.5257E-04  0.1912E-03  0.7455E-04
      1.534  0.5434E-01  0.5493E-01  0.3953E-02  0.4160E-02  0.3953E-02  0.4160E-02  0.3953E-02  0.4160E-02  0.1036E-02  0.5420E-03  0.1036E-02  0.5420E-03  0.1823E-02  0.8963E-03  0.1036E-02  0.5420E-03  0.1823E-02  0.8963E-03
      1.697  0.5992E-01  0.3535E-01  0.4837E-02  0.3040E-02  0.4837E-02  0.3040E-02  0.4837E-02  0.3040E-02  0.2964E-02  0.8570E-03  0.2964E-02  0.8570E-03  0.1984E-02  0.5127E-03  0.2964E-02  0.8570E-03  0.1984E-02  0.5127E-03
      1.860  0.2596E-01  0.5055E-01  0.2199E-02  0.4422E-02  0.2199E-02  0.4422E-02  0.2199E-02  0.4422E-02  0.8967E-03  0.9776E-03  0.8967E-03  0.9776E-03  0.1289E-02  0.9743E-03  0.8967E-03  0.9776E-03  0.1289E-02  0.9743E-03
      2.023  0.2675E-01  0.2397E-01  0.2398E-02  0.2360E-02  0.2398E-02  0.2360E-02  0.2398E-02  0.2360E-02  0.2356E-02  0.8168E-03  0.2356E-02  0.8168E-03  0.1160E-02  0.5069E-03  0.2356E-02  0.8168E-03  0.1160E-02  0.5069E-03
      2.186  0.3358E-01  0.6650E-02  0.3465E-02  0.6600E-03  0.3465E-02  0.6600E-03  0.3465E-02  0.6600E-03  0.3870E-02  0.3779E-03  0.3870E-02  0.3779E-03  0.1312E-02  0.8470E-04  0.3870E-02  0.3779E-03  0.1312E-02  0.8470E-04
      2.349  0.7949E-01  0.5680E-01  0.8427E-02  0.6452E-02  0.8427E-02  0.6452E-02  0.8427E-02  0.6452E-02  0.1126E-01  0.2772E-02  0.1126E-01  0.2772E-02  0.9477E-02  0.1107E-02  0.1126E-01  0.2772E-02  0.9477E-02  0.1107E-02
      2.512  0.3023E-01  0.5094E-01  0.3197E-02  0.6108E-02  0.3197E-02  0.6108E-02  0.3197E-02  0.6108E-02  0.8215E-02  0.3460E-02  0.8215E-02  0.3460E-02  0.5799E-02  0.2400E-02  0.8215E-02  0.3460E-02  0.5799E-02  0.2400E-02
      2.674  0.4322E-01  0.2277E-01  0.5255E-02  0.2804E-02  0.5255E-02  0.2804E-02  0.5255E-02  0.2804E-02  0.9743E-02  0.1125E-02  0.9743E-02  0.1125E-02  0.1348E-01  0.1691E-02  0.9743E-02  0.1125E-02  0.1348E-01  0.1691E-02
      2.837  0.7469E-01  0.4601E-01  0.7855E-02  0.6653E-02  0.7855E-02  0.6653E-02  0.7855E-02  0.6653E-02  0.4334E-01  0.1769E-02  0.4334E-01  0.1769E-02  0.5193E-01  0.5825E-02  0.4334E-01  0.1769E-02  0.5193E-01  0.5825E-02
      3.000  0.1158E+00  0.4186E-01  0.1389E-01  0.5682E-02  0.1389E-01  0.5682E-02  0.1389E-01  0.5682E-02  0.8274E-01  0.6206E-02  0.8274E-01  0.6206E-02  0.1501E+00  0.2140E-02  0.8274E-01  0.6206E-02  0.1501E+00  0.2140E-02
      3.163  0.4796E-01  0.3569E-01  0.5870E-02  0.5423E-02  0.5870E-02  0.5423E-02  0.5870E-02  0.5423E-02  0.6024E-01  0.5394E-02  0.6024E-01  0.5394E-02  0.1200E+00  0.1720E-02  0.6024E-01  0.5394E-02  0.1200E+00  0.1720E-02
      3.326  0.7174E-01  0.5010E-01  0.1324E-01  0.8516E-02  0.1324E-01  0.8516E-02  0.1324E-01  0.8516E-02  0.1326E+00  0.7215E-02  0.1326E+00  0.7215E-02  0.2167E+00  0.5088E-02  0.1326E+00  0.7215E-02  0.2167E+00  0.5088E-02
      3.489  0.3362E-01  0.5700E-01  0.8261E-02  0.8515E-02  0.8261E-02  0.8515E-02  0.8261E-02  0.8515E-02  0.2171E+00  0.1515E-01  0.2171E+00  0.1515E-01  0.1523E+00  0.8027E-02  0.2171E+00  0.1515E-01  0.1523E+00  0.8027E-02
      3.652  0.2363E-01  0.2824E-01  0.1346E-01  0.3795E-02  0.1346E-01  0.3795E-02  0.1346E-01  0.3795E-02  0.2637E+00  0.1108E-01  0.2637E+00  0.1108E-01  0.1814E+00  0.7454E-02  0.2637E+00  0.1108E-01  0.1814E+00  0.7454E-02
      3.815  0.8530E-02  0.5764E-01  0.1333E-01  0.1018E-01  0.1333E-01  0.1018E-01  0.1333E-01  0.1018E-01  0.2411E+00  0.2166E-01  0.2411E+00  0.2166E-01  0.1462E+00  0.2142E-01  0.2411E+00  0.2166E-01  0.1462E+00  0.2142E-01
      3.978  0.4007E-02  0.8252E-01  0.1246E-01  0.1308E-01  0.1246E-01  0.1308E-01  0.1246E-01  0.1308E-01  0.2337E+00  0.4867E-01  0.2337E+00  0.4867E-01  0.2159E+00  0.1400E-01  0.2337E+00  0.4867E-01  0.2159E+00  0.1400E-01
      4.141  0.6026E-02  0.3982E-01  0.1153E-01  0.7620E-02  0.1153E-01  0.7620E-02  0.1153E-01  0.7620E-02  0.2557E+00  0.2053E-01  0.2557E+00  0.2053E-01  0.2064E+00  0.3923E-01  0.2557E+00  0.2053E-01  0.2064E+00  0.3923E-01
      4.304  0.1137E-01  0.7375E-01  0.1595E-01  0.1229E-01  0.1595E-01  0.1229E-01  0.1595E-01  0.1229E-01  0.3797E+00  0.6281E-01  0.3797E+00  0.6281E-01  0.2173E+00  0.8237E-01  0.3797E+00  0.6281E-01  0.2173E+00  0.8237E-01
      4.467  0.1973E-01  0.3910E-01  0.1739E-01  0.8663E-02  0.1739E-01  0.8663E-02  0.1739E-01  0.8663E-02  0.4018E+00  0.3550E-01  0.4018E+00  0.3550E-01  0.3379E+00  0.7474E-01  0.4018E+00  0.3550E-01  0.3379E+00  0.7474E-01
      4.630  0.1775E-01  0.4387E-01  0.1892E-01  0.1328E-01  0.1892E-01  0.1328E-01  0.1892E-01  0.1328E-01  0.5063E+00  0.4947E-01  0.5063E+00  0.4947E-01  0.4110E+00  0.9580E-01  0.5063E+00  0.4947E-01  0.4110E+00  0.9580E-01
      4.793  0.1811E-01  0.2386E-01  0.1727E-01  0.7093E-02  0.1727E-01  0.7093E-02  0.1727E-01  0.7093E-02  0.3542E+00  0.9792E-01  0.3542E+00  0.9792E-01  0.4080E+00  0.8693E-01  0.3542E+00  0.9792E-01  0.4080E+00  0.8693E-01
      4.956  0.4708E-02  0.2438E-01  0.7138E-02  0.1633E-01  0.7138E-02  0.1633E-01  0.7138E-02  0.1633E-01  0.1796E+00  0.1981E+00  0.1796E+00  0.1981E+00  0.5203E+00  0.1235E+00  0.1796E+00  0.1981E+00  0.5203E+00  0.1235E+00
      5.119  0.1095E-01  0.3428E-02  0.1355E-01  0.1533E-01  0.1355E-01  0.1533E-01  0.1355E-01  0.1533E-01  0.2539E+00  0.2075E+00  0.2539E+00  0.2075E+00  0.6976E+00  0.1013E+00  0.2539E+00  0.2075E+00  0.6976E+00  0.1013E+00
      5.282  0.6617E-02  0.3675E-02  0.5194E-02  0.1646E-01  0.5194E-02  0.1646E-01  0.5194E-02  0.1646E-01  0.1639E+00  0.1802E+00  0.1639E+00  0.1802E+00  0.4846E+00  0.9412E-01  0.1639E+00  0.1802E+00  0.4846E+00  0.9412E-01
      5.445  0.7859E-02  0.1446E-02  0.6373E-02  0.2205E-01  0.6373E-02  0.2205E-01  0.6373E-02  0.2205E-01  0.2773E+00  0.1837E+00  0.2773E+00  0.1837E+00  0.3785E+00  0.1425E+00  0.2773E+00  0.1837E+00  0.3785E+00  0.1425E+00