    1    1  100    2
  0.1437128E+02  0.2729000E-09  0.2729000E-09  0.2729000E-09  0.5000000E-15
  1.000000000000000E-004
  CAR 
 Co-fcc                                  
      9     60     12
 
  0.6250000E-01  0.6250000E-01  0.6250000E-01  0.3906250E-02
      1         -0.429342       -0.481032   1.000000   1.000000
      2          4.437644        6.150823   1.000000   1.000000
      3          4.487605        6.215668   1.000000   1.000000
      4          4.487605        6.215668   1.000000   1.000000
      5          5.049744        7.189580   1.000000   0.000000
      6          5.049744        7.189580   1.000000   0.000000
      7         26.848869       26.613607   0.000000   0.000000
      8         28.539492       28.561963   0.000000   0.000000
      9         29.475618       29.708286   0.000000   0.000000
     10         29.475618       29.708286   0.000000   0.000000
     11         32.808040       32.975674   0.000000   0.000000
     12         32.808040       32.975678   0.000000   0.000000
 
  0.1875000E+00  0.6250000E-01  0.6250000E-01  0.1171875E-01
      1          0.224987        0.178644   1.000000   1.000000
      2          4.310806        5.969567   1.000000   1.000000
      3          4.583640        6.339337   1.000000   1.000000
      4          4.591465        6.342289   1.000000   1.000000
      5          4.959671        7.068155   1.000000   0.000305
      6          5.119089        7.238927   1.000000   0.000000
      7         23.421094       23.596530   0.000000   0.000000
      8         25.753491       25.877405   0.000000   0.000000
      9         29.160760       29.052513   0.000000   0.000000
     10         30.324743       30.577231   0.000000   0.000000
     11         32.432092       32.245896   0.000000   0.000000
     12         33.118228       33.211634   0.000000   0.000000
 
  0.3125000E+00  0.6250000E-01  0.6250000E-01  0.1171875E-01
      1          1.648207        1.690936   1.000000   1.000000
      2          4.268526        5.733917   1.000000   1.000000
      3          4.524599        6.354278   1.000000   1.000000
      4          4.566112        6.422821   1.000000   1.000000
      5          5.139547        7.152004   1.000000   0.000000
      6          5.417205        7.452075   1.000000   0.000000
      7         17.884580       18.254112   0.000000   0.000000
      8         24.821880       24.961976   0.000000   0.000000
      9         28.283303       28.111142   0.000000   0.000000
     10         29.402278       29.772683   0.000000   0.000000
     11         31.083644       31.214486   0.000000   0.000000
     12         32.131427       32.134494   0.000000   0.000000
 
  0.4375000E+00  0.6250000E-01  0.6250000E-01  0.1171875E-01
      1          2.703084        3.365751   1.000000   1.000000
      2          4.367927        5.967662   1.000000   1.000000
      3          4.424774        6.223689   1.000000   1.000000
      4          5.082298        6.303909   1.000000   1.000000
      5          5.503433        7.523525   1.000000   0.000000
      6          6.123184        7.839429   1.000000   0.000000
      7         13.113578       13.757760   0.000000   0.000000
      8         24.637948       24.710991   0.000000   0.000000
      9         26.994929       26.866102   0.000000   0.000000
     10         27.581842       27.896109   0.000000   0.000000
     11         30.311448       30.498261   0.000000   0.000000
     12         31.716898       31.834800   0.000000   0.000000
 
 -0.4375000E+00  0.6250000E-01  0.6250000E-01  0.1171875E-01
      1          2.831350        3.824021   1.000000   1.000000
      2          4.304320        6.133590   1.000000   1.000000
      3          4.391034        6.263504   1.000000   1.000000
      4          5.382616        6.456956   1.000000   1.000000
      5          5.679186        7.730693   1.000000   0.000000
      6          7.169264        8.064580   0.000000   0.000000
      7         11.041533       12.007465   0.000000   0.000000
      8         25.255654       25.114546   0.000000   0.000000
      9         26.143892       26.424865   0.000000   0.000000
     10         26.484497       26.597035   0.000000   0.000000
     11         30.943274       31.137063   0.000000   0.000000
     12         31.184394       31.282910   0.000000   0.000000
 
 -0.3125000E+00  0.6250000E-01  0.6250000E-01  0.1171875E-01
      1          2.494072        2.883576   1.000000   1.000000
      2          4.392720        5.775021   1.000000   1.000000
      3          4.487217        6.260829   1.000000   1.000000
      4          4.687468        6.351621   1.000000   1.000000
      5          5.542087        7.520081   1.000000   0.000000
      6          5.664099        7.597867   1.000000   0.000000
      7         14.575314       15.101820   0.000000   0.000000
      8         25.716811       25.796725   0.000000   0.000000
      9         26.075283       26.010109   0.000000   0.000000
     10         27.505266       27.834531   0.000000   0.000000
     11         31.185198       31.241398   0.000000   0.000000
     12         32.479936       32.634857   0.000000   0.000000
 
 -0.1875000E+00  0.6250000E-01  0.6250000E-01  0.1171875E-01
      1          1.126718        1.114104   1.000000   1.000000
      2          4.223316        5.783716   1.000000   1.000000
      3          4.566858        6.394702   1.000000   1.000000
      4          4.611298        6.422208   1.000000   1.000000
      5          5.091235        7.098981   1.000000   0.000009
      6          5.238783        7.327801   1.000000   0.000000
      7         19.671920       19.979626   0.000000   0.000000
      8         26.227959       26.529097   0.000000   0.000000
      9         26.757327       26.580723   0.000000   0.000000
     10         29.974875       30.233508   0.000000   0.000000
     11         31.173696       31.160641   0.000000   0.000000
     12         34.231984       34.341200   0.000000   0.000000
 
 -0.6250000E-01  0.6250000E-01  0.6250000E-01  0.1171875E-01
      1         -0.097881       -0.147930   1.000000   1.000000
      2          4.350480        6.037644   1.000000   1.000000
      3          4.558718        6.295938   1.000000   1.000000
      4          4.561063        6.299363   1.000000   1.000000
      5          4.969256        7.083924   1.000000   0.000054
      6          5.093726        7.237650   1.000000   0.000000
      7         25.300430       25.352159   0.000000   0.000000
      8         27.522685       27.421346   0.000000   0.000000
      9         27.537302       27.814730   0.000000   0.000000
     10         29.665730       29.749013   0.000000   0.000000
     11         32.830363       32.906020   0.000000   0.000000
     12         34.273399       34.468499   0.000000   0.000000
 
  0.1875000E+00  0.1875000E+00  0.6250000E-01  0.1171875E-01
      1          0.541594        0.501118   1.000000   1.000000
      2          4.179564        5.821182   1.000000   1.000000
      3          4.672313        6.452495   1.000000   1.000000
      4          4.703116        6.463576   1.000000   1.000000
      5          4.876249        6.909817   1.000000   0.853446
      6          5.175791        7.326200   1.000000   0.000000
      7         23.656850       23.842787   0.000000   0.000000
      8         25.523651       25.811177   0.000000   0.000000
      9         26.365475       26.285551   0.000000   0.000000
     10         28.265296       28.212591   0.000000   0.000000
     11         30.803375       31.383187   0.000000   0.000000
     12         35.208926       35.178881   0.000000   0.000000
 
  0.3125000E+00  0.1875000E+00  0.6250000E-01  0.2343750E-01
      1          1.686895        1.711906   1.000000   1.000000
      2          3.994332        5.557930   1.000000   1.000000
      3          4.506714        6.367493   1.000000   1.000000
      4          4.849928        6.683172   1.000000   1.000000
      5          5.084105        6.996732   1.000000   0.079717
      6          5.464477        7.521546   1.000000   0.000000
      7         20.165855       20.455661   0.000000   0.000000
      8         22.464851       22.694061   0.000000   0.000000
      9         26.066608       26.109709   0.000000   0.000000
     10         27.526285       27.654766   0.000000   0.000000
     11         30.352276       30.733727   0.000000   0.000000
     12         35.145890       35.081202   0.000000   0.000000
 
  0.4375000E+00  0.1875000E+00  0.6250000E-01  0.2343750E-01
      1          2.900526        3.383480   1.000000   1.000000
      2          4.076541        5.460511   1.000000   1.000000
      3          4.343517        6.074351   1.000000   1.000000
      4          4.729308        6.627534   1.000000   1.000000
      5          5.535367        7.528003   1.000000   0.000000
      6          6.435167        8.064120   1.000000   0.000000
      7         15.070598       15.538487   0.000000   0.000000
      8         22.048258       22.258813   0.000000   0.000000
      9         23.548134       23.753808   0.000000   0.000000
     10         27.082096       27.197070   0.000000   0.000000
     11         33.001270       33.057724   0.000000   0.000000
     12         34.720512       34.911956   0.000000   0.000000
 
 -0.4375000E+00  0.1875000E+00  0.6250000E-01  0.2343750E-01
      1          3.176725        4.257926   1.000000   1.000000
      2          4.056631        5.633612   1.000000   1.000000
      3          4.609449        6.075313   1.000000   1.000000
      4          4.730157        6.531898   1.000000   1.000000
      5          5.662650        7.691473   1.000000   0.000000
      6          8.513459        9.311616   0.000000   0.000000
      7         11.293411       12.150224   0.000000   0.000000
      8         21.630270       21.827881   0.000000   0.000000
      9         22.720268       22.981078   0.000000   0.000000
     10         27.137881       27.162562   0.000000   0.000000
     11         32.144697       32.279473   0.000000   0.000000
     12         35.621644       35.614673   0.000000   0.000000
 
 -0.3125000E+00  0.1875000E+00  0.6250000E-01  0.2343750E-01
      1          3.103205        3.842518   1.000000   1.000000
      2          4.152641        5.614585   1.000000   1.000000
      3          4.453371        5.986592   1.000000   1.000000
      4          4.657226        6.567506   1.000000   1.000000
      5          5.467435        7.442366   1.000000   0.000000
      6          7.144398        8.550763   0.000000   0.000000
      7         13.589001       14.159671   0.000000   0.000000
      8         20.736791       20.986070   0.000000   0.000000
      9         24.294180       24.487220   0.000000   0.000000
     10         28.058421       28.080119   0.000000   0.000000
     11         31.633316       31.767221   0.000000   0.000000
     12         34.995294       35.028575   0.000000   0.000000
 
 -0.1875000E+00  0.1875000E+00  0.6250000E-01  0.2343750E-01
      1          2.180150        2.264502   1.000000   1.000000
      2          4.047768        5.568111   1.000000   1.000000
      3          4.403042        6.228612   1.000000   1.000000
      4          4.779853        6.689239   1.000000   1.000000
      5          5.050569        6.976513   1.000000   0.201826
      6          5.826430        7.773081   1.000000   0.000000
      7         18.403259       18.749279   0.000000   0.000000
      8         20.813056       21.074461   0.000000   0.000000
      9         26.705374       26.798407   0.000000   0.000000
     10         29.685143       29.772107   0.000000   0.000000
     11         31.290075       31.327451   0.000000   0.000000
     12         33.357570       33.590361   0.000000   0.000000
 
 -0.6250000E-01  0.1875000E+00  0.6250000E-01  0.2343750E-01
      1          0.845323        0.813878   1.000000   1.000000
      2          4.182419        5.797651   1.000000   1.000000
      3          4.596651        6.400797   1.000000   1.000000
      4          4.698302        6.478915   1.000000   1.000000
      5          4.927072        6.965116   1.000000   0.304059
      6          5.254511        7.352448   1.000000   0.000000
      7         21.694174       21.939625   0.000000   0.000000
      8         24.029957       24.218118   0.000000   0.000000
      9         28.277462       28.227739   0.000000   0.000000
     10         29.780341       29.743118   0.000000   0.000000
     11         31.333537       31.813874   0.000000   0.000000
     12         33.577652       33.594507   0.000000   0.000000
 
  0.3125000E+00  0.3125000E+00  0.6250000E-01  0.1171875E-01
      1          2.306217        2.507205   1.000000   1.000000
      2          3.725616        5.254429   1.000000   1.000000
      3          4.734275        6.441609   1.000000   1.000000
      4          5.128280        6.987749   1.000000   0.124472
      5          5.375623        7.149937   1.000000   0.000000
      6          5.418461        7.567999   1.000000   0.000000
      7         20.724736       20.973578   0.000000   0.000000
      8         22.058748       22.295933   0.000000   0.000000
      9         22.460313       22.649918   0.000000   0.000000
     10         24.864949       25.010930   0.000000   0.000000
     11         27.321612       27.700813   0.000000   0.000000
     12         40.073819       39.940080   0.000000   0.000000
 
  0.4375000E+00  0.3125000E+00  0.6250000E-01  0.2343750E-01
      1          2.966478        3.719724   1.000000   1.000000
      2          3.593680        5.061813   1.000000   1.000000
      3          4.736369        6.247119   1.000000   1.000000
      4          5.255204        7.219430   1.000000   0.000000
      5          5.568397        7.571315   1.000000   0.000000
      6          6.680865        8.125467   1.000000   0.000000
      7         17.788894       18.088950   0.000000   0.000000
      8         19.539375       19.854621   0.000000   0.000000
      9         20.024944       20.293466   0.000000   0.000000
     10         25.844331       25.993220   0.000000   0.000000
     11         28.735110       29.009727   0.000000   0.000000
     12         38.250662       38.268754   0.000000   0.000000
 
 -0.4375000E+00  0.3125000E+00  0.6250000E-01  0.2343750E-01
      1          3.340568        4.655704   1.000000   1.000000
      2          3.678736        5.061885   1.000000   1.000000
      3          4.563221        6.000088   1.000000   1.000000
      4          5.061666        7.078318   1.000000   0.000102
      5          5.715340        7.715372   1.000000   0.000000
      6          9.355817       10.164463   0.000000   0.000000
      7         13.326193       13.808177   0.000000   0.000000
      8         17.411366       17.827218   0.000000   0.000000
      9         20.347751       20.594357   0.000000   0.000000
     10         26.133971       26.265652   0.000000   0.000000
     11         33.351205       33.530685   0.000000   0.000000
     12         36.505960       36.575466   0.000000   0.000000
 
 -0.3125000E+00  0.3125000E+00  0.6250000E-01  0.2343750E-01
      1          3.661214        4.803874   1.000000   1.000000
      2          3.779147        5.321760   1.000000   1.000000
      3          4.274654        5.697694   1.000000   1.000000
      4          4.923400        6.969483   1.000000   0.262295
      5          5.530082        7.445431   1.000000   0.000000
      6          9.553966       10.400232   0.000000   0.000000
      7         13.226171       13.739931   0.000000   0.000000
      8         16.217605       16.660785   0.000000   0.000000
      9         21.792327       22.051539   0.000000   0.000000
     10         26.965229       27.044468   0.000000   0.000000
     11         34.782343       34.770219   0.000000   0.000000
     12         38.470389       38.692989   0.000000   0.000000
 
 -0.1875000E+00  0.3125000E+00  0.6250000E-01  0.2343750E-01
      1          3.299257        3.829030   1.000000   1.000000
      2          4.062485        5.489487   1.000000   1.000000
      3          4.116931        5.855088   1.000000   1.000000
      4          4.817584        6.813707   1.000000   0.999918
      5          5.289653        7.180711   1.000000   0.000000
      6          7.134835        8.639050   0.000000   0.000000
      7         15.584834       16.024131   0.000000   0.000000
      8         18.157544       18.491717   0.000000   0.000000
      9         24.063764       24.276669   0.000000   0.000000
     10         28.474848       28.524984   0.000000   0.000000
     11         32.402009       32.402496   0.000000   0.000000
     12         35.753566       36.006033   0.000000   0.000000
 
 -0.6250000E-01  0.3125000E+00  0.6250000E-01  0.2343750E-01
      1          2.303534        2.486517   1.000000   1.000000
      2          4.249396        5.627051   1.000000   1.000000
      3          4.408061        6.252125   1.000000   1.000000
      4          4.605952        6.481314   1.000000   1.000000
      5          5.304876        7.263947   1.000000   0.000000
      6          5.748310        7.693307   1.000000   0.000000
      7         16.350320       16.776370   0.000000   0.000000
      8         23.332869       23.521584   0.000000   0.000000
      9         26.684053       26.662816   0.000000   0.000000
     10         28.096564       28.347886   0.000000   0.000000
     11         31.944121       31.999185   0.000000   0.000000
     12         33.035295       33.122103   0.000000   0.000000
 
  0.4375000E+00  0.4375000E+00  0.6250000E-01  0.1171875E-01
      1          2.851722        4.033049   1.000000   1.000000
      2          3.355229        4.799617   1.000000   1.000000
      3          5.464836        7.134907   1.000000   0.000000
      4          5.555311        7.557946   1.000000   0.000000
      5          5.734027        7.769941   1.000000   0.000000
      6          7.474699        8.215200   0.000000   0.000000
      7         16.434627       16.964610   0.000000   0.000000
      8         18.751502       18.944663   0.000000   0.000000
      9         19.827648       19.970494   0.000000   0.000000
     10         24.004189       24.242561   0.000000   0.000000
     11         26.322672       26.652795   0.000000   0.000000
     12         43.755546       43.040783   0.000000   0.000000
 
 -0.4375000E+00  0.4375000E+00  0.6250000E-01  0.2343750E-01
      1          2.968080        4.358465   1.000000   1.000000
      2          3.370766        4.788940   1.000000   1.000000
      3          5.298503        6.855740   1.000000   0.995072
      4          5.432583        7.593125   1.000000   0.000000
      5          5.834207        7.789611   1.000000   0.000000
      6          9.643390       10.036232   0.000000   0.000000
      7         14.454126       15.176039   0.000000   0.000000
      8         16.623214       16.879116   0.000000   0.000000
      9         18.770499       18.958002   0.000000   0.000000
     10         25.243831       25.435836   0.000000   0.000000
     11         28.149237       28.429991   0.000000   0.000000
     12         41.074561       41.039267   0.000000   0.000000
 
 -0.3125000E+00  0.4375000E+00  0.6250000E-01  0.2343750E-01
      1          3.312134        4.797843   1.000000   1.000000
      2          3.620557        4.967846   1.000000   1.000000
      3          4.687704        6.116547   1.000000   1.000000
      4          5.157516        7.257252   1.000000   0.000000
      5          5.723001        7.666124   1.000000   0.000000
      6         11.161832       11.671783   0.000000   0.000000
      7         12.899113       13.364571   0.000000   0.000000
      8         15.044458       15.637260   0.000000   0.000000
      9         19.977408       20.217870   0.000000   0.000000
     10         25.971148       26.118575   0.000000   0.000000
     11         33.238364       33.440734   0.000000   0.000000
     12         37.745372       37.719172   0.000000   0.000000
 
 -0.1875000E+00  0.4375000E+00  0.6250000E-01  0.2343750E-01
      1          3.443272        4.605541   1.000000   1.000000
      2          3.876266        5.386481   1.000000   1.000000
      3          4.484022        5.897311   1.000000   1.000000
      4          4.781820        6.753124   1.000000   1.000000
      5          5.610625        7.597650   1.000000   0.000000
      6          9.468734       10.207212   0.000000   0.000000
      7         11.606139       12.362754   0.000000   0.000000
      8         18.750159       19.073812   0.000000   0.000000
      9         22.096442       22.348001   0.000000   0.000000
     10         27.025506       27.080412   0.000000   0.000000
     11         33.437713       33.514681   0.000000   0.000000
     12         37.509553       37.491186   0.000000   0.000000
 
 -0.6250000E-01  0.4375000E+00  0.6250000E-01  0.2343750E-01
      1          2.927178        3.838647   1.000000   1.000000
      2          4.240881        5.914581   1.000000   1.000000
      3          4.480635        6.169173   1.000000   1.000000
      4          4.966962        6.371708   1.000000   1.000000
      5          5.624913        7.653275   1.000000   0.000000
      6          7.158558        8.337525   0.000000   0.000000
      7         11.987931       12.753340   0.000000   0.000000
      8         23.500467       23.615115   0.000000   0.000000
      9         24.773146       24.964581   0.000000   0.000000
     10         27.261472       27.304549   0.000000   0.000000
     11         31.185824       31.356155   0.000000   0.000000
     12         33.288399       33.342718   0.000000   0.000000
 
 -0.4375000E+00 -0.4375000E+00  0.6250000E-01  0.1171875E-01
      1          2.823442        4.181416   1.000000   1.000000
      2          3.270215        4.696048   1.000000   1.000000
      3          5.525244        7.486800   1.000000   0.000000
      4          5.724576        7.723642   1.000000   0.000000
      5          5.841583        7.808356   1.000000   0.000000
      6          8.961052        9.137696   0.000000   0.000000
      7         14.292997       15.060354   0.000000   0.000000
      8         18.307592       18.471041   0.000000   0.000000
      9         19.343020       19.455062   0.000000   0.000000
     10         23.848525       24.110159   0.000000   0.000000
     11         26.169794       26.505779   0.000000   0.000000
     12         43.963002       43.800369   0.000000   0.000000
 
 -0.3125000E+00 -0.4375000E+00  0.6250000E-01  0.2343750E-01
      1          3.008638        4.229025   1.000000   1.000000
      2          3.448130        4.883606   1.000000   1.000000
      3          5.075858        6.554848   1.000000   1.000000
      4          5.402030        7.469329   1.000000   0.000000
      5          5.731117        7.721723   1.000000   0.000000
      6          8.109927        8.972559   0.000000   0.000000
      7         16.659667       17.142198   0.000000   0.000000
      8         17.035177       17.328022   0.000000   0.000000
      9         19.193423       19.402819   0.000000   0.000000
     10         25.437835       25.613735   0.000000   0.000000
     11         28.333797       28.609009   0.000000   0.000000
     12         39.785851       39.802649   0.000000   0.000000
 
 -0.1875000E+00 -0.4375000E+00  0.6250000E-01  0.2343750E-01
      1          3.251789        4.179579   1.000000   1.000000
      2          3.840668        5.252791   1.000000   1.000000
      3          4.411789        5.956812   1.000000   1.000000
      4          4.899044        6.842529   1.000000   0.998434
      5          5.666153        7.694736   1.000000   0.000000
      6          7.672817        8.862486   0.000000   0.000000
      7         14.054267       14.540953   0.000000   0.000000
      8         20.314370       20.584533   0.000000   0.000000
      9         21.085862       21.359471   0.000000   0.000000
     10         26.485837       26.596779   0.000000   0.000000
     11         33.437658       33.555695   0.000000   0.000000
     12         35.333349       35.495373   0.000000   0.000000
 
 -0.3125000E+00 -0.3125000E+00  0.6250000E-01  0.1171875E-01
      1          2.782536        3.496145   1.000000   1.000000
      2          3.514060        4.993895   1.000000   1.000000
      3          5.193000        6.603295   1.000000   1.000000
      4          5.332719        7.291707   1.000000   0.000000
      5          5.571571        7.564647   1.000000   0.000000
      6          6.073269        7.683758   1.000000   0.000000
      7         19.276622       19.597640   0.000000   0.000000
      8         19.612655       19.879911   0.000000   0.000000
      9         20.754628       20.944826   0.000000   0.000000
     10         24.329181       24.524471   0.000000   0.000000
     11         26.674720       27.007669   0.000000   0.000000
     12         41.736581       41.739568   0.000000   0.000000
 
 -0.1875000E+00 -0.3125000E+00  0.6250000E-01  0.2343750E-01
      1          2.530127        2.765042   1.000000   1.000000
      2          3.786300        5.298314   1.000000   1.000000
      3          4.480853        6.232325   1.000000   1.000000
      4          5.046005        6.936302   1.000000   0.618763
      5          5.349782        7.266634   1.000000   0.000000
      6          5.838600        7.732496   1.000000   0.000000
      7         18.853887       19.161800   0.000000   0.000000
      8         21.093289       21.330859   0.000000   0.000000
      9         22.789145       23.017340   0.000000   0.000000
     10         26.503081       26.626796   0.000000   0.000000
     11         29.400162       29.699074   0.000000   0.000000
     12         36.728065       36.714813   0.000000   0.000000
 
 -0.1875000E+00 -0.1875000E+00  0.6250000E-01  0.1171875E-01
      1          1.416785        1.421821   1.000000   1.000000
      2          3.959272        5.544768   1.000000   1.000000
      3          4.638436        6.532049   1.000000   1.000000
      4          4.901188        6.699476   1.000000   1.000000
      5          5.031437        6.865835   1.000000   0.989143
      6          5.286879        7.442328   1.000000   0.000000
      7         22.109841       22.352379   0.000000   0.000000
      8         23.670731       23.942750   0.000000   0.000000
      9         25.196297       25.141110   0.000000   0.000000
     10         26.038621       26.132606   0.000000   0.000000
     11         28.484658       29.011161   0.000000   0.000000
     12         37.650610       37.514725   0.000000   0.000000
 
  0.1875000E+00  0.1875000E+00  0.1875000E+00  0.3906250E-02
      1          0.535428        0.496909   1.000000   1.000000
      2          4.300343        5.917378   1.000000   1.000000
      3          4.582349        6.360469   1.000000   1.000000
      4          4.582349        6.360469   1.000000   1.000000
      5          5.072097        7.167055   1.000000   0.000000
      6          5.072097        7.167055   1.000000   0.000000
      7         21.441895       21.691027   0.000000   0.000000
      8         27.863284       27.538362   0.000000   0.000000
      9         28.264347       28.562802   0.000000   0.000000
     10         28.264347       28.562802   0.000000   0.000000
     11         33.702885       33.485186   0.000000   0.000000
     12         34.038657       34.055093   0.000000   0.000000
 
  0.3125000E+00  0.1875000E+00  0.1875000E+00  0.1171875E-01
      1          1.421094        1.418835   1.000000   1.000000
      2          4.146576        5.716602   1.000000   1.000000
      3          4.536134        6.345065   1.000000   1.000000
      4          4.715023        6.553232   1.000000   1.000000
      5          4.914953        6.933690   1.000000   0.646580
      6          5.483086        7.514114   1.000000   0.000000
      7         19.933827       20.234484   0.000000   0.000000
      8         22.317397       22.542576   0.000000   0.000000
      9         29.490116       29.318617   0.000000   0.000000
     10         30.559910       30.837467   0.000000   0.000000
     11         31.149404       31.026790   0.000000   0.000000
     12         31.842091       32.107025   0.000000   0.000000
 
  0.4375000E+00  0.1875000E+00  0.1875000E+00  0.1171875E-01
      1          2.779133        3.012717   1.000000   1.000000
      2          4.085780        5.550601   1.000000   1.000000
      3          4.301316        6.082508   1.000000   1.000000
      4          4.717479        6.706080   1.000000   1.000000
      5          5.114991        7.003068   1.000000   0.056345
      6          6.335264        8.133540   1.000000   0.000000
      7         16.873244       17.272569   0.000000   0.000000
      8         19.353950       19.653673   0.000000   0.000000
      9         27.264705       27.539211   0.000000   0.000000
     10         27.635002       27.574495   0.000000   0.000000
     11         32.884982       32.756298   0.000000   0.000000
     12         33.660926       33.842447   0.000000   0.000000
 
 -0.4375000E+00  0.1875000E+00  0.1875000E+00  0.1171875E-01
      1          3.275298        4.259464   1.000000   1.000000
      2          4.055784        5.615910   1.000000   1.000000
      3          4.562585        5.936927   1.000000   1.000000
      4          4.654126        6.602195   1.000000   1.000000
      5          5.507772        7.487664   1.000000   0.000000
      6          8.165760        9.225974   0.000000   0.000000
      7         12.406607       13.081249   0.000000   0.000000
      8         19.606866       19.894010   0.000000   0.000000
      9         24.689073       24.974827   0.000000   0.000000
     10         26.116760       26.089011   0.000000   0.000000