       N       E                     dE             d eps       ncg     rms          rms(c)
DAV:   1     0.238777717343E+02    0.23878E+02   -0.35449E+03  2920   0.732E+02
DAV:   2    -0.663183448183E+01   -0.30510E+02   -0.28285E+02  3064   0.131E+02
DAV:   3    -0.752080135427E+01   -0.88897E+00   -0.87883E+00  3408   0.263E+01
DAV:   4    -0.752984824670E+01   -0.90469E-02   -0.90445E-02  3444   0.237E+00
DAV:   5    -0.753011379991E+01   -0.26555E-03   -0.26555E-03  3744   0.382E-01    0.907E+00
DAV:   6    -0.709560117581E+01    0.43451E+00   -0.17542E+01  3596   0.521E+01    0.755E+00
DAV:   7    -0.660214526693E+01    0.49346E+00   -0.34666E+00  3572   0.209E+01    0.251E+00
DAV:   8    -0.659793404751E+01    0.42112E-02   -0.97867E-03  3472   0.762E-01    0.836E-01
DAV:   9    -0.659346394522E+01    0.44701E-02   -0.51005E-03  4040   0.540E-01    0.256E-01
DAV:  10    -0.659262403611E+01    0.83991E-03   -0.20264E-03  4468   0.307E-01    0.525E-02
DAV:  11    -0.659264554719E+01   -0.21511E-04   -0.68027E-05  3176   0.858E-02    0.490E-02
DAV:  12    -0.659264935780E+01   -0.38106E-05   -0.60700E-06  3404   0.218E-02    0.138E-02
DAV:  13    -0.659264901485E+01    0.34295E-06   -0.35029E-06  2072   0.132E-02
   1 F= -.65926490E+01 E0= -.65914967E+01  d E =-.659265E+01  mag=     1.7812
