PROCAR lm decomposed
# of k-points:   60         # of bands:   12         # of ions:    1

 k-point     1 :    0.06250000 0.06250000 0.06250000     weight = 0.00390625

band     1 # energy   -0.42934178 # occ.  1.00000000
 
ion      s     py     pz     px    dxy    dyz    dz2    dxz  x2-y2    tot
    1  0.531  0.002  0.002  0.002  0.000  0.000  0.000  0.000  0.000  0.538
 
band     2 # energy    4.43764363 # occ.  1.00000000
 
ion      s     py     pz     px    dxy    dyz    dz2    dxz  x2-y2    tot
    1  0.000  0.000  0.000  0.000  0.317  0.317  0.000  0.317  0.000  0.952
 
band     3 # energy    4.48760479 # occ.  1.00000000
 
ion      s     py     pz     px    dxy    dyz    dz2    dxz  x2-y2    tot
    1  0.000  0.000  0.000  0.000  0.527  0.409  0.001  0.017  0.000  0.955
 
band     4 # energy    4.48760479 # occ.  1.00000000
 
ion      s     py     pz     px    dxy    dyz    dz2    dxz  x2-y2    tot
    1  0.000  0.000  0.000  0.000  0.108  0.226  0.000  0.618  0.001  0.955
 
band     5 # energy    5.04974412 # occ.  1.00000000
 
ion      s     py     pz     px    dxy    dyz    dz2    dxz  x2-y2    tot
    1  0.000  0.000  0.000  0.000  0.001  0.000  0.678  0.001  0.296  0.976
 
band     6 # energy    5.04974412 # occ.  1.00000000
 
ion      s     py     pz     px    dxy    dyz    dz2    dxz  x2-y2    tot
    1  0.000  0.000  0.000  0.000  0.000  0.001  0.296  0.000  0.678  0.976
 
band     7 # energy   26.84886850 # occ.  0.00000000
 
ion      s     py     pz     px    dxy    dyz    dz2    dxz  x2-y2    tot
    1  0.004  0.029  0.029  0.029  0.058  0.058  0.000  0.058  0.000  0.267
 
band     8 # energy   28.53949182 # occ.  0.00000000
 
ion      s     py     pz     px    dxy    dyz    dz2    dxz  x2-y2    tot
    1  0.017  0.087  0.087  0.087  0.010  0.010  0.000  0.010  0.000  0.309
 
band     9 # energy   29.47561805 # occ.  0.00000000
 
ion      s     py     pz     px    dxy    dyz    dz2    dxz  x2-y2    tot
    1  0.000  0.172  0.207  0.006  0.063  0.002  0.005  0.053  0.001  0.509
 
band    10 # energy   29.47561805 # occ.  0.00000000
 
ion      s     py     pz     px    dxy    dyz    dz2    dxz  x2-y2    tot
    1  0.000  0.085  0.049  0.251  0.015  0.077  0.001  0.026  0.005  0.509
 
band    11 # energy   32.80804000 # occ.  0.00000000
 
ion      s     py     pz     px    dxy    dyz    dz2    dxz  x2-y2    tot
    1  0.000  0.016  0.014  0.000  0.346  0.005  0.002  0.407  0.001  0.792
 
band    12 # energy   32.80804017 # occ.  0.00000000
 
ion      s     py     pz     px    dxy    dyz    dz2    dxz  x2-y2    tot
    1  0.000  0.004  0.006  0.020  0.160  0.500  0.001  0.098  0.002  0.792
 

 k-point     2 :    0.18750000 0.06250000 0.06250000     weight = 0.01171875

band     1 # energy    0.22498736 # occ.  1.00000000
 
ion      s     py     pz     px    dxy    dyz    dz2    dxz  x2-y2    tot
    1  0.496  0.018  0.018  0.002  0.000  0.004  0.000  0.000  0.001  0.540
 
band     2 # energy    4.31080554 # occ.  1.00000000
 
ion      s     py     pz     px    dxy    dyz    dz2    dxz  x2-y2    tot
    1  0.000  0.001  0.001  0.003  0.452  0.032  0.000  0.452  0.000  0.941
 
band     3 # energy    4.58363987 # occ.  1.00000000
 
ion      s     py     pz     px    dxy    dyz    dz2    dxz  x2-y2    tot
    1  0.000  0.001  0.001  0.000  0.015  0.806  0.029  0.015  0.087  0.955
 
band     4 # energy    4.59146467 # occ.  1.00000000
 
ion      s     py     pz     px    dxy    dyz    dz2    dxz  x2-y2    tot
    1  0.000  0.000  0.000  0.000  0.462  0.000  0.025  0.462  0.008  0.957
 
band     5 # energy    4.95967135 # occ.  1.00000000
 
ion      s     py     pz     px    dxy    dyz    dz2    dxz  x2-y2    tot
    1  0.000  0.000  0.000  0.000  0.016  0.000  0.703  0.016  0.234  0.971
 
band     6 # energy    5.11908900 # occ.  1.00000000
 
ion      s     py     pz     px    dxy    dyz    dz2    dxz  x2-y2    tot
    1  0.001  0.000  0.000  0.000  0.002  0.111  0.214  0.002  0.643  0.975
 
band     7 # energy   23.42109448 # occ.  0.00000000
 
ion      s     py     pz     px    dxy    dyz    dz2    dxz  x2-y2    tot
    1  0.034  0.061  0.061  0.129  0.105  0.063  0.000  0.105  0.001  0.559
 
band     8 # energy   25.75349081 # occ.  0.00000000
 
ion      s     py     pz     px    dxy    dyz    dz2    dxz  x2-y2    tot
    1  0.034  0.090  0.090  0.080  0.057  0.095  0.003  0.057  0.009  0.517
 
band     9 # energy   29.16076019 # occ.  0.00000000
 
ion      s     py     pz     px    dxy    dyz    dz2    dxz  x2-y2    tot
    1  0.004  0.002  0.002  0.194  0.000  0.032  0.000  0.000  0.000  0.235
 
band    10 # energy   30.32474296 # occ.  0.00000000
 
ion      s     py     pz     px    dxy    dyz    dz2    dxz  x2-y2    tot
    1  0.000  0.179  0.179  0.000  0.079  0.000  0.038  0.079  0.013  0.566
 
band    11 # energy   32.43209195 # occ.  0.00000000
 
ion      s     py     pz     px    dxy    dyz    dz2    dxz  x2-y2    tot
    1  0.001  0.049  0.049  0.014  0.000  0.126  0.013  0.000  0.038  0.289
 
band    12 # energy   33.11822761 # occ.  0.00000000
 
ion      s     py     pz     px    dxy    dyz    dz2    dxz  x2-y2    tot
    1  0.000  0.002  0.002  0.000  0.292  0.000  0.069  0.292  0.023  0.678
 

 k-point     3 :    0.31250000 0.06250000 0.06250000     weight = 0.01171875

band     1 # energy    1.64820724 # occ.  1.00000000
 
ion      s     py     pz     px    dxy    dyz    dz2    dxz  x2-y2    tot
    1  0.391  0.038  0.038  0.011  0.024  0.046  0.001  0.024  0.003  0.576
 
band     2 # energy    4.26852603 # occ.  1.00000000
 
ion      s     py     pz     px    dxy    dyz    dz2    dxz  x2-y2    tot
    1  0.017  0.012  0.012  0.017  0.391  0.049  0.000  0.391  0.001  0.890
 
band     3 # energy    4.52459873 # occ.  1.00000000
 
ion      s     py     pz     px    dxy    dyz    dz2    dxz  x2-y2    tot
    1  0.000  0.002  0.002  0.000  0.025  0.433  0.116  0.025  0.348  0.951
 
band     4 # energy    4.56611218 # occ.  1.00000000
 
ion      s     py     pz     px    dxy    dyz    dz2    dxz  x2-y2    tot
    1  0.000  0.000  0.000  0.000  0.230  0.000  0.371  0.230  0.124  0.956
 
band     5 # energy    5.13954705 # occ.  1.00000000
 
ion      s     py     pz     px    dxy    dyz    dz2    dxz  x2-y2    tot
    1  0.000  0.000  0.000  0.000  0.251  0.000  0.351  0.251  0.117  0.971
 
band     6 # energy    5.41720494 # occ.  1.00000000
 
ion      s     py     pz     px    dxy    dyz    dz2    dxz  x2-y2    tot
    1  0.008  0.003  0.003  0.000  0.017  0.421  0.125  0.017  0.375  0.970
 
band     7 # energy   17.88458046 # occ.  0.00000000
 
ion      s     py     pz     px    dxy    dyz    dz2    dxz  x2-y2    tot
    1  0.118  0.076  0.076  0.121  0.085  0.066  0.001  0.085  0.002  0.629
 
band     8 # energy   24.82188004 # occ.  0.00000000
 
ion      s     py     pz     px    dxy    dyz    dz2    dxz  x2-y2    tot
    1  0.030  0.055  0.055  0.170  0.068  0.058  0.009  0.068  0.028  0.543
 
band     9 # energy   28.28330320 # occ.  0.00000000
 
ion      s     py     pz     px    dxy    dyz    dz2    dxz  x2-y2    tot
    1  0.001  0.043  0.043  0.085  0.001  0.044  0.001  0.001  0.002  0.221
 
band    10 # energy   29.40227793 # occ.  0.00000000
 
ion      s     py     pz     px    dxy    dyz    dz2    dxz  x2-y2    tot
    1  0.000  0.248  0.248  0.000  0.105  0.000  0.001  0.105  0.000  0.708
 
band    11 # energy   31.08364367 # occ.  0.00000000
 
ion      s     py     pz     px    dxy    dyz    dz2    dxz  x2-y2    tot
    1  0.000  0.031  0.031  0.000  0.034  0.000  0.373  0.034  0.124  0.629
 
band    12 # energy   32.13142676 # occ.  0.00000000
 
ion      s     py     pz     px    dxy    dyz    dz2    dxz  x2-y2    tot
    1  0.054  0.051  0.051  0.013  0.011  0.045  0.049  0.011  0.148  0.432
 

 k-point     4 :    0.43750000 0.06250000 0.06250000     weight = 0.01171875

band     1 # energy    2.70308444 # occ.  1.00000000
 
ion      s     py     pz     px    dxy    dyz    dz2    dxz  x2-y2    tot
    1  0.175  0.014  0.014  0.002  0.178  0.202  0.000  0.178  0.001  0.764
 
band     2 # energy    4.36792661 # occ.  1.00000000
 
ion      s     py     pz     px    dxy    dyz    dz2    dxz  x2-y2    tot
    1  0.000  0.001  0.001  0.000  0.044  0.259  0.149  0.044  0.447  0.946
 
band     3 # energy    4.42477377 # occ.  1.00000000
 
ion      s     py     pz     px    dxy    dyz    dz2    dxz  x2-y2    tot
    1  0.000  0.000  0.000  0.000  0.165  0.000  0.465  0.165  0.155  0.950
 
band     4 # energy    5.08229787 # occ.  1.00000000
 
ion      s     py     pz     px    dxy    dyz    dz2    dxz  x2-y2    tot
    1  0.039  0.044  0.044  0.045  0.208  0.070  0.037  0.208  0.111  0.806
 
band     5 # energy    5.50343340 # occ.  1.00000000
 
ion      s     py     pz     px    dxy    dyz    dz2    dxz  x2-y2    tot
    1  0.000  0.000  0.000  0.000  0.320  0.000  0.255  0.320  0.085  0.981
 
band     6 # energy    6.12318431 # occ.  1.00000000
 
ion      s     py     pz     px    dxy    dyz    dz2    dxz  x2-y2    tot
    1  0.063  0.050  0.050  0.033  0.000  0.404  0.054  0.000  0.162  0.817
 
band     7 # energy   13.11357805 # occ.  0.00000000
 
ion      s     py     pz     px    dxy    dyz    dz2    dxz  x2-y2    tot
    1  0.254  0.046  0.046  0.086  0.093  0.071  0.001  0.093  0.002  0.692
 
band     8 # energy   24.63794782 # occ.  0.00000000
 
ion      s     py     pz     px    dxy    dyz    dz2    dxz  x2-y2    tot
    1  0.024  0.036  0.036  0.215  0.044  0.031  0.018  0.044  0.055  0.503
 
band     9 # energy   26.99492860 # occ.  0.00000000
 
ion      s     py     pz     px    dxy    dyz    dz2    dxz  x2-y2    tot
    1  0.006  0.073  0.073  0.086  0.000  0.001  0.001  0.000  0.004  0.243
 
band    10 # energy   27.58184160 # occ.  0.00000000
 
ion      s     py     pz     px    dxy    dyz    dz2    dxz  x2-y2    tot
    1  0.000  0.281  0.281  0.000  0.002  0.000  0.056  0.002  0.019  0.639
 
band    11 # energy   30.31144839 # occ.  0.00000000
 
ion      s     py     pz     px    dxy    dyz    dz2    dxz  x2-y2    tot
    1  0.000  0.016  0.016  0.000  0.134  0.000  0.315  0.134  0.105  0.719
 
band    12 # energy   31.71689773 # occ.  0.00000000
 
ion      s     py     pz     px    dxy    dyz    dz2    dxz  x2-y2    tot
    1  0.047  0.011  0.011  0.008  0.000  0.186  0.089  0.000  0.266  0.619
 

 k-point     5 :   -0.43750000 0.06250000 0.06250000     weight = 0.01171875

band     1 # energy    2.83135013 # occ.  1.00000000
 
ion      s     py     pz     px    dxy    dyz    dz2    dxz  x2-y2    tot
    1  0.119  0.000  0.000  0.004  0.226  0.245  0.000  0.226  0.000  0.821
 
band     2 # energy    4.30431991 # occ.  1.00000000
 
ion      s     py     pz     px    dxy    dyz    dz2    dxz  x2-y2    tot
    1  0.000  0.001  0.001  0.000  0.058  0.183  0.160  0.058  0.481  0.943
 
band     3 # energy    4.39103446 # occ.  1.00000000
 
ion      s     py     pz     px    dxy    dyz    dz2    dxz  x2-y2    tot
    1  0.000  0.000  0.000  0.000  0.165  0.000  0.463  0.165  0.154  0.949
 
band     4 # energy    5.38261556 # occ.  1.00000000
 
ion      s     py     pz     px    dxy    dyz    dz2    dxz  x2-y2    tot
    1  0.001  0.022  0.022  0.021  0.086  0.427  0.061  0.086  0.184  0.909
 
band     5 # energy    5.67918601 # occ.  1.00000000
 
ion      s     py     pz     px    dxy    dyz    dz2    dxz  x2-y2    tot
    1  0.000  0.000  0.000  0.000  0.321  0.000  0.258  0.321  0.086  0.987
 
band     6 # energy    7.16926389 # occ.  0.00000000
 
ion      s     py     pz     px    dxy    dyz    dz2    dxz  x2-y2    tot
    1  0.012  0.128  0.128  0.142  0.035  0.023  0.018  0.035  0.055  0.576
 
band     7 # energy   11.04153347 # occ.  0.00000000
 
ion      s     py     pz     px    dxy    dyz    dz2    dxz  x2-y2    tot
    1  0.398  0.011  0.011  0.000  0.113  0.128  0.000  0.113  0.000  0.775
 
band     8 # energy   25.25565427 # occ.  0.00000000
 
ion      s     py     pz     px    dxy    dyz    dz2    dxz  x2-y2    tot
    1  0.008  0.009  0.009  0.162  0.014  0.021  0.029  0.014  0.086  0.351
 
band     9 # energy   26.14389177 # occ.  0.00000000
 
ion      s     py     pz     px    dxy    dyz    dz2    dxz  x2-y2    tot
    1  0.000  0.257  0.257  0.000  0.019  0.000  0.058  0.019  0.019  0.629
 
band    10 # energy   26.48449719 # occ.  0.00000000
 
ion      s     py     pz     px    dxy    dyz    dz2    dxz  x2-y2    tot
    1  0.031  0.084  0.084  0.194  0.003  0.023  0.000  0.003  0.000  0.422
 
band    11 # energy   30.94327446 # occ.  0.00000000
 
ion      s     py     pz     px    dxy    dyz    dz2    dxz  x2-y2    tot
    1  0.000  0.045  0.045  0.000  0.104  0.000  0.310  0.104  0.103  0.711
 
band    12 # energy   31.18439432 # occ.  0.00000000
 
ion      s     py     pz     px    dxy    dyz    dz2    dxz  x2-y2    tot
    1  0.009  0.001  0.001  0.021  0.016  0.176  0.094  0.016  0.283  0.617
 

 k-point     6 :   -0.31250000 0.06250000 0.06250000     weight = 0.01171875

band     1 # energy    2.49407229 # occ.  1.00000000
 
ion      s     py     pz     px    dxy    dyz    dz2    dxz  x2-y2    tot
    1  0.242  0.011  0.011  0.035  0.133  0.126  0.002  0.133  0.005  0.698
 
band     2 # energy    4.39272029 # occ.  1.00000000
 
ion      s     py     pz     px    dxy    dyz    dz2    dxz  x2-y2    tot
    1  0.000  0.001  0.001  0.001  0.094  0.121  0.158  0.094  0.474  0.945
 
band     3 # energy    4.48721748 # occ.  1.00000000
 
ion      s     py     pz     px    dxy    dyz    dz2    dxz  x2-y2    tot
    1  0.000  0.000  0.000  0.000  0.203  0.000  0.410  0.203  0.137  0.952
 
band     4 # energy    4.68746797 # occ.  1.00000000
 
ion      s     py     pz     px    dxy    dyz    dz2    dxz  x2-y2    tot
    1  0.052  0.039  0.039  0.040  0.012  0.574  0.009  0.012  0.027  0.804
 
band     5 # energy    5.54208678 # occ.  1.00000000
 
ion      s     py     pz     px    dxy    dyz    dz2    dxz  x2-y2    tot
    1  0.000  0.000  0.000  0.000  0.281  0.000  0.315  0.281  0.105  0.983
 
band     6 # energy    5.66409929 # occ.  1.00000000
 
ion      s     py     pz     px    dxy    dyz    dz2    dxz  x2-y2    tot
    1  0.038  0.014  0.014  0.027  0.215  0.098  0.071  0.215  0.213  0.905
 
band     7 # energy   14.57531384 # occ.  0.00000000
 
ion      s     py     pz     px    dxy    dyz    dz2    dxz  x2-y2    tot
    1  0.200  0.088  0.088  0.050  0.072  0.094  0.000  0.072  0.001  0.665
 
band     8 # energy   25.71681114 # occ.  0.00000000
 
ion      s     py     pz     px    dxy    dyz    dz2    dxz  x2-y2    tot
    1  0.000  0.232  0.232  0.000  0.067  0.000  0.038  0.067  0.013  0.650
 
band     9 # energy   26.07528337 # occ.  0.00000000
 
ion      s     py     pz     px    dxy    dyz    dz2    dxz  x2-y2    tot
    1  0.011  0.007  0.007  0.000  0.000  0.092  0.020  0.000  0.059  0.196
 
band    10 # energy   27.50526593 # occ.  0.00000000
 
ion      s     py     pz     px    dxy    dyz    dz2    dxz  x2-y2    tot
    1  0.042  0.051  0.051  0.405  0.001  0.042  0.015  0.001  0.045  0.652
 
band    11 # energy   31.18519830 # occ.  0.00000000
 
ion      s     py     pz     px    dxy    dyz    dz2    dxz  x2-y2    tot
    1  0.001  0.002  0.002  0.010  0.051  0.092  0.088  0.051  0.264  0.561
 
band    12 # energy   32.47993639 # occ.  0.00000000
 
ion      s     py     pz     px    dxy    dyz    dz2    dxz  x2-y2    tot
    1  0.000  0.061  0.061  0.000  0.046  0.000  0.326  0.046  0.109  0.648
 

 k-point     7 :   -0.18750000 0.06250000 0.06250000     weight = 0.01171875

band     1 # energy    1.12671752 # occ.  1.00000000
 
ion      s     py     pz     px    dxy    dyz    dz2    dxz  x2-y2    tot
    1  0.437  0.015  0.015  0.045  0.014  0.007  0.001  0.014  0.003  0.553
 
band     2 # energy    4.22331597 # occ.  1.00000000
 
ion      s     py     pz     px    dxy    dyz    dz2    dxz  x2-y2    tot
    1  0.006  0.007  0.007  0.005  0.130  0.629  0.000  0.130  0.001  0.917
 
band     3 # energy    4.56685816 # occ.  1.00000000
 
ion      s     py     pz     px    dxy    dyz    dz2    dxz  x2-y2    tot
    1  0.000  0.000  0.000  0.000  0.172  0.179  0.108  0.172  0.323  0.954
 
band     4 # energy    4.61129750 # occ.  1.00000000
 
ion      s     py     pz     px    dxy    dyz    dz2    dxz  x2-y2    tot
    1  0.000  0.001  0.001  0.000  0.323  0.000  0.231  0.323  0.077  0.957
 
band     5 # energy    5.09123523 # occ.  1.00000000
 
ion      s     py     pz     px    dxy    dyz    dz2    dxz  x2-y2    tot
    1  0.005  0.001  0.001  0.003  0.153  0.123  0.132  0.153  0.396  0.965
 
band     6 # energy    5.23878341 # occ.  1.00000000
 
ion      s     py     pz     px    dxy    dyz    dz2    dxz  x2-y2    tot
    1  0.000  0.000  0.000  0.000  0.156  0.000  0.498  0.156  0.166  0.976
 
band     7 # energy   19.67191963 # occ.  0.00000000
 
ion      s     py     pz     px    dxy    dyz    dz2    dxz  x2-y2    tot
    1  0.087  0.107  0.107  0.064  0.075  0.095  0.000  0.075  0.001  0.611
 
band     8 # energy   26.22795949 # occ.  0.00000000
 
ion      s     py     pz     px    dxy    dyz    dz2    dxz  x2-y2    tot
    1  0.000  0.206  0.206  0.000  0.110  0.000  0.018  0.110  0.006  0.658
 
band     9 # energy   26.75732749 # occ.  0.00000000
 
ion      s     py     pz     px    dxy    dyz    dz2    dxz  x2-y2    tot
    1  0.035  0.002  0.002  0.045  0.000  0.164  0.009  0.000  0.028  0.286
 
band    10 # energy   29.97487492 # occ.  0.00000000
 
ion      s     py     pz     px    dxy    dyz    dz2    dxz  x2-y2    tot
    1  0.016  0.024  0.024  0.383  0.016  0.064  0.016  0.016  0.048  0.605
 
band    11 # energy   31.17369629 # occ.  0.00000000
 
ion      s     py     pz     px    dxy    dyz    dz2    dxz  x2-y2    tot
    1  0.008  0.043  0.043  0.000  0.020  0.003  0.063  0.020  0.189  0.390
 
band    12 # energy   34.23198363 # occ.  0.00000000
 
ion      s     py     pz     px    dxy    dyz    dz2    dxz  x2-y2    tot
    1  0.002  0.103  0.103  0.046  0.041  0.139  0.026  0.041  0.079  0.579
 

 k-point     8 :   -0.06250000 0.06250000 0.06250000     weight = 0.01171875

band     1 # energy   -0.09788088 # occ.  1.00000000
 
ion      s     py     pz     px    dxy    dyz    dz2    dxz  x2-y2    tot
    1  0.514  0.002  0.002  0.019  0.000  0.000  0.000  0.000  0.001  0.538
 
band     2 # energy    4.35047957 # occ.  1.00000000
 
ion      s     py     pz     px    dxy    dyz    dz2    dxz  x2-y2    tot
    1  0.000  0.001  0.001  0.000  0.055  0.835  0.000  0.055  0.000  0.947
 
band     3 # energy    4.55871831 # occ.  1.00000000
 
ion      s     py     pz     px    dxy    dyz    dz2    dxz  x2-y2    tot
    1  0.000  0.000  0.000  0.000  0.415  0.112  0.003  0.415  0.010  0.955
 
band     4 # energy    4.56106312 # occ.  1.00000000
 
ion      s     py     pz     px    dxy    dyz    dz2    dxz  x2-y2    tot
    1  0.000  0.001  0.001  0.000  0.469  0.000  0.012  0.469  0.004  0.956
 
band     5 # energy    4.96925605 # occ.  1.00000000
 
ion      s     py     pz     px    dxy    dyz    dz2    dxz  x2-y2    tot
    1  0.000  0.000  0.000  0.000  0.006  0.002  0.239  0.006  0.718  0.971
 
band     6 # energy    5.09372597 # occ.  1.00000000
 
ion      s     py     pz     px    dxy    dyz    dz2    dxz  x2-y2    tot
    1  0.000  0.000  0.000  0.000  0.008  0.000  0.720  0.008  0.240  0.977
 
band     7 # energy   25.30043043 # occ.  0.00000000
 
ion      s     py     pz     px    dxy    dyz    dz2    dxz  x2-y2    tot
    1  0.015  0.085  0.085  0.033  0.071  0.128  0.000  0.071  0.001  0.489
 
band     8 # energy   27.52268464 # occ.  0.00000000
 
ion      s     py     pz     px    dxy    dyz    dz2    dxz  x2-y2    tot
    1  0.029  0.026  0.026  0.085  0.013  0.093  0.002  0.013  0.007  0.294
 
band     9 # energy   27.53730156 # occ.  0.00000000
 
ion      s     py     pz     px    dxy    dyz    dz2    dxz  x2-y2    tot
    1  0.000  0.188  0.188  0.000  0.120  0.000  0.003  0.120  0.001  0.621
 
band    10 # energy   29.66573024 # occ.  0.00000000
 
ion      s     py     pz     px    dxy    dyz    dz2    dxz  x2-y2    tot
    1  0.014  0.086  0.086  0.130  0.011  0.000  0.011  0.011  0.033  0.382
 
band    11 # energy   32.83036276 # occ.  0.00000000
 
ion      s     py     pz     px    dxy    dyz    dz2    dxz  x2-y2    tot
    1  0.001  0.003  0.003  0.086  0.132  0.254  0.006  0.132  0.018  0.635
 
band    12 # energy   34.27339940 # occ.  0.00000000
 
ion      s     py     pz     px    dxy    dyz    dz2    dxz  x2-y2    tot
    1  0.007  0.001  0.001  0.292  0.006  0.267  0.023  0.006  0.070  0.673
 

 k-point     9 :    0.18750000 0.18750000 0.06250000     weight = 0.01171875

band     1 # energy    0.54159425 # occ.  1.00000000
 
ion      s     py     pz     px    dxy    dyz    dz2    dxz  x2-y2    tot
    1  0.477  0.002  0.050  0.002  0.000  0.001  0.008  0.001  0.000  0.541
 
band     2 # energy    4.17956409 # occ.  1.00000000
 
ion      s     py     pz     px    dxy    dyz    dz2    dxz  x2-y2    tot
    1  0.000  0.001  0.000  0.001  0.901  0.018  0.000  0.018  0.000  0.938
 
band     3 # energy    4.67231258 # occ.  1.00000000
 
ion      s     py     pz     px    dxy    dyz    dz2    dxz  x2-y2    tot
    1  0.000  0.001  0.000  0.001  0.029  0.339  0.246  0.339  0.000  0.957
 
band     4 # energy    4.70311561 # occ.  1.00000000
 
ion      s     py     pz     px    dxy    dyz    dz2    dxz  x2-y2    tot
    1  0.000  0.002  0.000  0.002  0.000  0.453  0.000  0.453  0.049  0.958
 
band     5 # energy    4.87624936 # occ.  1.00000000
 
ion      s     py     pz     px    dxy    dyz    dz2    dxz  x2-y2    tot
    1  0.005  0.000  0.002  0.000  0.009  0.118  0.708  0.118  0.000  0.961
 
band     6 # energy    5.17579100 # occ.  1.00000000
 
ion      s     py     pz     px    dxy    dyz    dz2    dxz  x2-y2    tot
    1  0.000  0.000  0.000  0.000  0.000  0.025  0.000  0.025  0.929  0.978
 
band     7 # energy   23.65684998 # occ.  0.00000000
 
ion      s     py     pz     px    dxy    dyz    dz2    dxz  x2-y2    tot
    1  0.025  0.123  0.025  0.123  0.123  0.074  0.005  0.074  0.000  0.571
 
band     8 # energy   25.52365123 # occ.  0.00000000
 
ion      s     py     pz     px    dxy    dyz    dz2    dxz  x2-y2    tot
    1  0.000  0.205  0.000  0.205  0.000  0.113  0.000  0.113  0.003  0.639
 
band     9 # energy   26.36547492 # occ.  0.00000000
 
ion      s     py     pz     px    dxy    dyz    dz2    dxz  x2-y2    tot
    1  0.032  0.013  0.035  0.013  0.226  0.008  0.034  0.008  0.000  0.370
 
band    10 # energy   28.26529635 # occ.  0.00000000
 
ion      s     py     pz     px    dxy    dyz    dz2    dxz  x2-y2    tot
    1  0.012  0.057  0.005  0.057  0.037  0.022  0.148  0.022  0.000  0.362
 
band    11 # energy   30.80337478 # occ.  0.00000000
 
ion      s     py     pz     px    dxy    dyz    dz2    dxz  x2-y2    tot
    1  0.098  0.018  0.543  0.018  0.000  0.002  0.116  0.002  0.000  0.797
 
band    12 # energy   35.20892601 # occ.  0.00000000
 
ion      s     py     pz     px    dxy    dyz    dz2    dxz  x2-y2    tot
    1  0.006  0.002  0.000  0.002  0.270  0.103  0.031  0.103  0.000  0.517
 

 k-point    10 :    0.31250000 0.18750000 0.06250000     weight = 0.02343750

band     1 # energy    1.68689521 # occ.  1.00000000
 
ion      s     py     pz     px    dxy    dyz    dz2    dxz  x2-y2    tot
    1  0.390  0.015  0.084  0.001  0.002  0.026  0.042  0.003  0.000  0.564
 
band     2 # energy    3.99433196 # occ.  1.00000000
 
ion      s     py     pz     px    dxy    dyz    dz2    dxz  x2-y2    tot
    1  0.001  0.001  0.001  0.006  0.832  0.006  0.003  0.073  0.000  0.922
 
band     3 # energy    4.50671450 # occ.  1.00000000
 
ion      s     py     pz     px    dxy    dyz    dz2    dxz  x2-y2    tot
    1  0.005  0.002  0.001  0.000  0.016  0.294  0.580  0.014  0.033  0.946
 
band     4 # energy    4.84992830 # occ.  1.00000000
 
ion      s     py     pz     px    dxy    dyz    dz2    dxz  x2-y2    tot
    1  0.002  0.001  0.001  0.002  0.033  0.136  0.062  0.451  0.271  0.959
 
band     5 # energy    5.08410479 # occ.  1.00000000
 
ion      s     py     pz     px    dxy    dyz    dz2    dxz  x2-y2    tot
    1  0.009  0.001  0.006  0.002  0.043  0.076  0.183  0.408  0.228  0.957
 
band     6 # energy    5.46447746 # occ.  1.00000000
 
ion      s     py     pz     px    dxy    dyz    dz2    dxz  x2-y2    tot
    1  0.013  0.003  0.006  0.000  0.001  0.418  0.081  0.001  0.443  0.967
 
band     7 # energy   20.16585550 # occ.  0.00000000
 
ion      s     py     pz     px    dxy    dyz    dz2    dxz  x2-y2    tot
    1  0.062  0.101  0.028  0.176  0.112  0.049  0.008  0.074  0.002  0.612
 
band     8 # energy   22.46485083 # occ.  0.00000000
 
ion      s     py     pz     px    dxy    dyz    dz2    dxz  x2-y2    tot
    1  0.046  0.156  0.023  0.146  0.062  0.072  0.018  0.053  0.011  0.586
 
band     9 # energy   26.06660801 # occ.  0.00000000
 
ion      s     py     pz     px    dxy    dyz    dz2    dxz  x2-y2    tot
    1  0.016  0.014  0.141  0.011  0.013  0.002  0.271  0.005  0.001  0.474
 
band    10 # energy   27.52628481 # occ.  0.00000000
 
ion      s     py     pz     px    dxy    dyz    dz2    dxz  x2-y2    tot
    1  0.043  0.027  0.103  0.079  0.245  0.006  0.010  0.031  0.001  0.545
 
band    11 # energy   30.35227551 # occ.  0.00000000
 
ion      s     py     pz     px    dxy    dyz    dz2    dxz  x2-y2    tot
    1  0.089  0.182  0.220  0.040  0.044  0.030  0.007  0.008  0.000  0.620
 
band    12 # energy   35.14589033 # occ.  0.00000000
 
ion      s     py     pz     px    dxy    dyz    dz2    dxz  x2-y2    tot
    1  0.009  0.030  0.014  0.003  0.032  0.001  0.125  0.022  0.143  0.379
 

 k-point    11 :    0.43750000 0.18750000 0.06250000     weight = 0.02343750

band     1 # energy    2.90052616 # occ.  1.00000000
 
ion      s     py     pz     px    dxy    dyz    dz2    dxz  x2-y2    tot
    1  0.189  0.012  0.059  0.001  0.139  0.144  0.092  0.082  0.001  0.720
 
band     2 # energy    4.07654097 # occ.  1.00000000
 
ion      s     py     pz     px    dxy    dyz    dz2    dxz  x2-y2    tot
    1  0.007  0.019  0.009  0.018  0.283  0.040  0.425  0.064  0.015  0.878
 
band     3 # energy    4.34351677 # occ.  1.00000000
 
ion      s     py     pz     px    dxy    dyz    dz2    dxz  x2-y2    tot
    1  0.021  0.002  0.015  0.006  0.398  0.252  0.175  0.002  0.042  0.913
 
band     4 # energy    4.72930761 # occ.  1.00000000
 
ion      s     py     pz     px    dxy    dyz    dz2    dxz  x2-y2    tot
    1  0.002  0.002  0.003  0.000  0.044  0.059  0.049  0.261  0.532  0.953
 
band     5 # energy    5.53536661 # occ.  1.00000000
 
ion      s     py     pz     px    dxy    dyz    dz2    dxz  x2-y2    tot
    1  0.002  0.000  0.003  0.002  0.032  0.087  0.037  0.490  0.324  0.977
 
band     6 # energy    6.43516712 # occ.  1.00000000
 
ion      s     py     pz     px    dxy    dyz    dz2    dxz  x2-y2    tot
    1  0.091  0.024  0.063  0.012  0.010  0.377  0.168  0.049  0.055  0.847
 
band     7 # energy   15.07059840 # occ.  0.00000000
 
ion      s     py     pz     px    dxy    dyz    dz2    dxz  x2-y2    tot
    1  0.171  0.090  0.025  0.144  0.108  0.044  0.009  0.058  0.002  0.652
 
band     8 # energy   22.04825784 # occ.  0.00000000
 
ion      s     py     pz     px    dxy    dyz    dz2    dxz  x2-y2    tot
    1  0.034  0.125  0.005  0.203  0.057  0.039  0.035  0.037  0.042  0.577
 
band     9 # energy   23.54813391 # occ.  0.00000000
 
ion      s     py     pz     px    dxy    dyz    dz2    dxz  x2-y2    tot
    1  0.068  0.001  0.251  0.027  0.001  0.006  0.204  0.012  0.002  0.570
 
band    10 # energy   27.08209606 # occ.  0.00000000
 
ion      s     py     pz     px    dxy    dyz    dz2    dxz  x2-y2    tot
    1  0.053  0.149  0.075  0.023  0.170  0.010  0.007  0.009  0.004  0.499
 
band    11 # energy   33.00127005 # occ.  0.00000000
 
ion      s     py     pz     px    dxy    dyz    dz2    dxz  x2-y2    tot
    1  0.008  0.136  0.007  0.006  0.145  0.024  0.029  0.024  0.153  0.534
 
band    12 # energy   34.72051248 # occ.  0.00000000
 
ion      s     py     pz     px    dxy    dyz    dz2    dxz  x2-y2    tot
    1  0.043  0.060  0.079  0.076  0.024  0.010  0.188  0.005  0.040  0.524
 

 k-point    12 :   -0.43750000 0.18750000 0.06250000     weight = 0.02343750

band     1 # energy    3.17672510 # occ.  1.00000000
 
ion      s     py     pz     px    dxy    dyz    dz2    dxz  x2-y2    tot
    1  0.085  0.000  0.014  0.005  0.325  0.233  0.011  0.164  0.000  0.838
 
band     2 # energy    4.05663119 # occ.  1.00000000
 
ion      s     py     pz     px    dxy    dyz    dz2    dxz  x2-y2    tot
    1  0.000  0.012  0.001  0.005  0.034  0.082  0.684  0.012  0.076  0.906
 
band     3 # energy    4.60944933 # occ.  1.00000000
 
ion      s     py     pz     px    dxy    dyz    dz2    dxz  x2-y2    tot
    1  0.000  0.000  0.000  0.005  0.001  0.101  0.087  0.186  0.571  0.951
 
band     4 # energy    4.73015731 # occ.  1.00000000
 
ion      s     py     pz     px    dxy    dyz    dz2    dxz  x2-y2    tot
    1  0.002  0.023  0.033  0.022  0.441  0.229  0.035  0.050  0.043  0.879
 
band     5 # energy    5.66264959 # occ.  1.00000000
 
ion      s     py     pz     px    dxy    dyz    dz2    dxz  x2-y2    tot
    1  0.000  0.000  0.000  0.000  0.037  0.180  0.026  0.485  0.257  0.985
 
band     6 # energy    8.51345887 # occ.  0.00000000
 
ion      s     py     pz     px    dxy    dyz    dz2    dxz  x2-y2    tot
    1  0.020  0.104  0.149  0.099  0.031  0.091  0.112  0.017  0.013  0.637
 
band     7 # energy   11.29341058 # occ.  0.00000000
 
ion      s     py     pz     px    dxy    dyz    dz2    dxz  x2-y2    tot
    1  0.373  0.015  0.003  0.048  0.134  0.085  0.001  0.086  0.001  0.748
 
band     8 # energy   21.63027035 # occ.  0.00000000
 
ion      s     py     pz     px    dxy    dyz    dz2    dxz  x2-y2    tot