<?xml version="1.0" encoding="ISO-8859-1"?>
<modeling>
 <generator>
  <i name="program" type="string">vasp </i>
  <i name="version" type="string">6.3.2  </i>
  <i name="subversion" type="string">27Jun22 (build Aug 12 2022 00:53:59) complex                          parallel </i>
  <i name="platform" type="string">tv2STD </i>
  <i name="date" type="string">2024 12 03 </i>
  <i name="time" type="string">01:41:45 </i>
 </generator>
 <incar>
  <i type="string" name="SYSTEM">Co-fcc</i>
  <i type="int" name="ISTART">     0</i>
  <i type="string" name="PREC">Accurate      normal | accurate</i>
  <i type="string" name="ALGO">Normal     Normal, Fast, Very_Fast</i>
  <i type="logical" name="ADDGRID"> F  </i>
  <i type="int" name="ISPIN">     2</i>
  <i type="int" name="ICHARG">     2</i>
  <i type="int" name="INIWAV">     1</i>
  <i type="int" name="NELM">   100</i>
  <i type="int" name="IBRION">     2</i>
  <i name="EDIFF">      0.00000100</i>
  <i name="EDIFFG">     -0.02000000</i>
  <i type="int" name="NSW">   100</i>
  <i type="int" name="ISIF">     2</i>
  <i type="int" name="ISYM">     1</i>
  <i name="ENCUT">    400.00000000</i>
  <v name="MAGMOM">      3.00000000</v>
  <i type="logical" name="LREAL"> F  </i>
  <i type="int" name="ISMEAR">     0</i>
  <i name="SIGMA">      0.05000000</i>
  <i type="int" name="NWRITE">     2</i>
  <i type="logical" name="LWAVE"> T  </i>
  <i type="logical" name="LCHARG"> T  </i>
  <i type="int" name="LORBIT">    11</i>
 </incar>
 <primitive_cell>
  <structure name="primitive_cell" >
   <crystal>
    <varray name="basis" >
     <v>       0.00000000       1.92969431       1.92969431 </v>
     <v>       1.92969431       0.00000000       1.92969431 </v>
     <v>       1.92969431       1.92969431       0.00000000 </v>
    </varray>
    <i name="volume">     14.37128315 </i>
    <varray name="rec_basis" >
     <v>      -0.25910840       0.25910840       0.25910840 </v>
     <v>       0.25910840      -0.25910840       0.25910840 </v>
     <v>       0.25910840       0.25910840      -0.25910840 </v>
    </varray>
   </crystal>
   <varray name="positions" >
    <v>       0.00000000       0.00000000       0.00000000 </v>
   </varray>
  </structure>
  <varray name="primitive_index" >
   <v type="int" >        1 </v>
  </varray>
 </primitive_cell>
 <kpoints>
  <generation param="Monkhorst-Pack">
   <v type="int" name="divisions">       8        8        8 </v>
   <v name="usershift">      0.00000000       0.00000000       0.00000000 </v>
   <v name="genvec1">      0.12500000       0.00000000       0.00000000 </v>
   <v name="genvec2">      0.00000000       0.12500000       0.00000000 </v>
   <v name="genvec3">      0.00000000       0.00000000       0.12500000 </v>
   <v name="shift">      0.50000000       0.50000000       0.50000000 </v>
  </generation>
  <varray name="kpointlist" >
   <v>       0.06250000       0.06250000       0.06250000 </v>
   <v>       0.18750000       0.06250000       0.06250000 </v>
   <v>       0.31250000       0.06250000       0.06250000 </v>
   <v>       0.43750000       0.06250000       0.06250000 </v>
   <v>      -0.43750000       0.06250000       0.06250000 </v>
   <v>      -0.31250000       0.06250000       0.06250000 </v>
   <v>      -0.18750000       0.06250000       0.06250000 </v>
   <v>      -0.06250000       0.06250000       0.06250000 </v>
   <v>       0.18750000       0.18750000       0.06250000 </v>
   <v>       0.31250000       0.18750000       0.06250000 </v>
   <v>       0.43750000       0.18750000       0.06250000 </v>
   <v>      -0.43750000       0.18750000       0.06250000 </v>
   <v>      -0.31250000       0.18750000       0.06250000 </v>
   <v>      -0.18750000       0.18750000       0.06250000 </v>
   <v>      -0.06250000       0.18750000       0.06250000 </v>
   <v>       0.31250000       0.31250000       0.06250000 </v>
   <v>       0.43750000       0.31250000       0.06250000 </v>
   <v>      -0.43750000       0.31250000       0.06250000 </v>
   <v>      -0.31250000       0.31250000       0.06250000 </v>
   <v>      -0.18750000       0.31250000       0.06250000 </v>
   <v>      -0.06250000       0.31250000       0.06250000 </v>
   <v>       0.43750000       0.43750000       0.06250000 </v>
   <v>      -0.43750000       0.43750000       0.06250000 </v>
   <v>      -0.31250000       0.43750000       0.06250000 </v>
   <v>      -0.18750000       0.43750000       0.06250000 </v>
   <v>      -0.06250000       0.43750000       0.06250000 </v>
   <v>      -0.43750000      -0.43750000       0.06250000 </v>
   <v>      -0.31250000      -0.43750000       0.06250000 </v>
   <v>      -0.18750000      -0.43750000       0.06250000 </v>
   <v>      -0.31250000      -0.31250000       0.06250000 </v>
   <v>      -0.18750000      -0.31250000       0.06250000 </v>
   <v>      -0.18750000      -0.18750000       0.06250000 </v>
   <v>       0.18750000       0.18750000       0.18750000 </v>
   <v>       0.31250000       0.18750000       0.18750000 </v>
   <v>       0.43750000       0.18750000       0.18750000 </v>
   <v>      -0.43750000       0.18750000       0.18750000 </v>
   <v>      -0.31250000       0.18750000       0.18750000 </v>
   <v>      -0.18750000       0.18750000       0.18750000 </v>
   <v>       0.31250000       0.31250000       0.18750000 </v>
   <v>       0.43750000       0.31250000       0.18750000 </v>
   <v>      -0.43750000       0.31250000       0.18750000 </v>
   <v>      -0.31250000       0.31250000       0.18750000 </v>
   <v>      -0.18750000       0.31250000       0.18750000 </v>
   <v>       0.43750000       0.43750000       0.18750000 </v>
   <v>      -0.43750000       0.43750000       0.18750000 </v>
   <v>      -0.31250000       0.43750000       0.18750000 </v>
   <v>      -0.18750000       0.43750000       0.18750000 </v>
   <v>      -0.43750000      -0.43750000       0.18750000 </v>
   <v>      -0.31250000      -0.43750000       0.18750000 </v>
   <v>      -0.31250000      -0.31250000       0.18750000 </v>
   <v>       0.31250000       0.31250000       0.31250000 </v>
   <v>       0.43750000       0.31250000       0.31250000 </v>
   <v>      -0.43750000       0.31250000       0.31250000 </v>
   <v>      -0.31250000       0.31250000       0.31250000 </v>
   <v>       0.43750000       0.43750000       0.31250000 </v>
   <v>      -0.43750000       0.43750000       0.31250000 </v>
   <v>      -0.31250000       0.43750000       0.31250000 </v>
   <v>      -0.43750000      -0.43750000       0.31250000 </v>
   <v>       0.43750000       0.43750000       0.43750000 </v>
   <v>      -0.43750000       0.43750000       0.43750000 </v>
  </varray>
  <varray name="weights" >
   <v>       0.00390625 </v>
   <v>       0.01171875 </v>
   <v>       0.01171875 </v>
   <v>       0.01171875 </v>
   <v>       0.01171875 </v>
   <v>       0.01171875 </v>
   <v>       0.01171875 </v>
   <v>       0.01171875 </v>
   <v>       0.01171875 </v>
   <v>       0.02343750 </v>
   <v>       0.02343750 </v>
   <v>       0.02343750 </v>
   <v>       0.02343750 </v>
   <v>       0.02343750 </v>
   <v>       0.02343750 </v>
   <v>       0.01171875 </v>
   <v>       0.02343750 </v>
   <v>       0.02343750 </v>
   <v>       0.02343750 </v>
   <v>       0.02343750 </v>
   <v>       0.02343750 </v>
   <v>       0.01171875 </v>
   <v>       0.02343750 </v>
   <v>       0.02343750 </v>
   <v>       0.02343750 </v>
   <v>       0.02343750 </v>
   <v>       0.01171875 </v>
   <v>       0.02343750 </v>
   <v>       0.02343750 </v>
   <v>       0.01171875 </v>
   <v>       0.02343750 </v>
   <v>       0.01171875 </v>
   <v>       0.00390625 </v>
   <v>       0.01171875 </v>
   <v>       0.01171875 </v>
   <v>       0.01171875 </v>
   <v>       0.01171875 </v>
   <v>       0.01171875 </v>
   <v>       0.01171875 </v>
   <v>       0.02343750 </v>
   <v>       0.02343750 </v>
   <v>       0.02343750 </v>
   <v>       0.02343750 </v>
   <v>       0.01171875 </v>
   <v>       0.02343750 </v>
   <v>       0.02343750 </v>
   <v>       0.02343750 </v>
   <v>       0.01171875 </v>
   <v>       0.02343750 </v>
   <v>       0.01171875 </v>
   <v>       0.00390625 </v>
   <v>       0.01171875 </v>
   <v>       0.01171875 </v>
   <v>       0.01171875 </v>
   <v>       0.01171875 </v>
   <v>       0.02343750 </v>
   <v>       0.02343750 </v>
   <v>       0.01171875 </v>
   <v>       0.00390625 </v>
   <v>       0.01171875 </v>
  </varray>
 </kpoints>
 <parameters>
  <separator name="general" >
   <i type="string" name="SYSTEM">Co-fcc</i>
   <i type="logical" name="LCOMPAT"> F  </i>
  </separator>
  <separator name="electronic" >
   <i type="string" name="PREC">accura</i>
   <i name="ENMAX">    400.00000000</i>
   <i name="ENAUG">    477.81800000</i>
   <i name="EDIFF">      0.00000100</i>
   <i type="int" name="IALGO">    38</i>
   <i type="int" name="IWAVPR">    11</i>
   <i type="int" name="NBANDS">    12</i>
   <i type="int" name="NBANDSLOW">    -1</i>
   <i type="int" name="NBANDSHIGH">    -1</i>
   <i name="NELECT">      9.00000000</i>
   <i type="int" name="TURBO">     0</i>
   <i type="int" name="IRESTART">     0</i>
   <i type="int" name="NREBOOT">     0</i>
   <i type="int" name="NMIN">     0</i>
   <i name="EREF">      0.00000000</i>
   <separator name="electronic smearing" >
    <i type="int" name="ISMEAR">     0</i>
    <i name="SIGMA">      0.05000000</i>
    <i name="KSPACING">      0.50000000</i>
    <i type="logical" name="KGAMMA"> T  </i>
    <i type="logical" name="KBLOWUP"> T  </i>
   </separator>
   <separator name="electronic projectors" >
    <i type="logical" name="LREAL"> F  </i>
    <v name="ROPT">      0.00000000</v>
    <i type="int" name="LMAXPAW">  -100</i>
    <i type="int" name="LMAXMIX">     2</i>
    <i type="logical" name="NLSPLINE"> F  </i>
   </separator>
   <separator name="electronic startup" >
    <i type="int" name="ISTART">     0</i>
    <i type="int" name="ICHARG">     2</i>
    <i type="int" name="INIWAV">     1</i>
   </separator>
   <separator name="electronic spin" >
    <i type="int" name="ISPIN">     2</i>
    <i type="logical" name="LNONCOLLINEAR"> F  </i>
    <v name="MAGMOM">      3.00000000</v>
    <i name="NUPDOWN">     -1.00000000</i>
    <i type="logical" name="LSORBIT"> F  </i>
    <v name="SAXIS">      0.00000000      0.00000000      1.00000000</v>
    <i type="logical" name="LSPIRAL"> F  </i>
    <v name="QSPIRAL">      0.00000000      0.00000000      0.00000000</v>
    <i type="logical" name="LZEROZ"> F  </i>
   </separator>
   <separator name="electronic exchange-correlation" >
    <i type="logical" name="LASPH"> F  </i>
    <i type="logical" name="LMETAGGA"> F  </i>
   </separator>
   <separator name="electronic convergence" >
    <i type="int" name="NELM">   100</i>
    <i type="int" name="NELMDL">    -5</i>
    <i type="int" name="NELMIN">     2</i>
    <i name="ENINI">    400.00000000</i>
    <separator name="electronic convergence detail" >
     <i type="logical" name="LDIAG"> T  </i>
     <i type="logical" name="LSUBROT"> F  </i>
     <i name="WEIMIN">      0.00100000</i>
     <i name="EBREAK">      0.00000002</i>
     <i name="DEPER">      0.30000000</i>
     <i type="int" name="NRMM">     4</i>
     <i name="TIME">      0.40000000</i>
    </separator>
   </separator>
   <separator name="electronic mixer" >
    <i name="AMIX">      0.40000000</i>
    <i name="BMIX">      1.00000000</i>
    <i name="AMIN">      0.10000000</i>
    <i name="AMIX_MAG">      1.60000000</i>
    <i name="BMIX_MAG">      1.00000000</i>
    <separator name="electronic mixer details" >
     <i type="int" name="IMIX">     4</i>
     <i type="logical" name="MIXFIRST"> F  </i>
     <i type="int" name="MAXMIX">   -45</i>
     <i name="WC">    100.00000000</i>
     <i type="int" name="INIMIX">     1</i>
     <i type="int" name="MIXPRE">     1</i>
     <i type="int" name="MREMOVE">     5</i>
    </separator>
   </separator>
   <separator name="electronic dipolcorrection" >
    <i type="logical" name="LDIPOL"> F  </i>
    <i type="logical" name="LMONO"> F  </i>
    <i type="int" name="IDIPOL">     0</i>
    <i name="EPSILON">      1.00000000</i>
    <v name="DIPOL">   -100.00000000   -100.00000000   -100.00000000</v>
    <i name="EFIELD">      0.00000000</i>
   </separator>
  </separator>
  <separator name="grids" >
   <i type="int" name="NGX">    18</i>
   <i type="int" name="NGY">    18</i>
   <i type="int" name="NGZ">    18</i>
   <i type="int" name="NGXF">    36</i>
   <i type="int" name="NGYF">    36</i>
   <i type="int" name="NGZF">    36</i>
   <i type="logical" name="ADDGRID"> F  </i>
  </separator>
  <separator name="ionic" >
   <i type="int" name="NSW">   100</i>
   <i type="int" name="IBRION">     2</i>
   <i type="int" name="MDALGO">     0</i>
   <i type="int" name="ISIF">     2</i>
   <i name="PSTRESS">      0.00000000</i>
   <i name="EDIFFG">     -0.02000000</i>
   <i type="int" name="NFREE">     1</i>
   <i name="POTIM">      0.50000000</i>
   <i name="SMASS">     -3.00000000</i>
   <i name="SCALEE">      1.00000000</i>
  </separator>
  <separator name="ionic md" >
   <i name="TEBEG">      0.00010000</i>
   <i name="TEEND">      0.00010000</i>
   <i type="int" name="NBLOCK">     1</i>
   <i type="int" name="KBLOCK">   100</i>
   <i type="int" name="NPACO">   256</i>
   <i name="APACO">     10.00000000</i>
  </separator>
  <separator name="symmetry" >
   <i type="int" name="ISYM">     1</i>
   <i name="SYMPREC">      0.00001000</i>
  </separator>
  <separator name="dos" >
   <i type="int" name="LORBIT">    11</i>
   <v name="RWIGS">     -1.00000000</v>
   <i type="int" name="NEDOS">   301</i>
   <i name="EMIN">     10.00000000</i>
   <i name="EMAX">    -10.00000000</i>
   <i name="EFERMI">      0.00000000</i>
  </separator>
  <separator name="writing" >
   <i type="int" name="NWRITE">     2</i>
   <i type="logical" name="LWAVE"> T  </i>
   <i type="logical" name="LDOWNSAMPLE"> F  </i>
   <i type="logical" name="LCHARG"> T  </i>
   <i type="logical" name="LPARD"> F  </i>
   <i type="logical" name="LVTOT"> F  </i>
   <i type="logical" name="LVHAR"> F  </i>
   <i type="logical" name="LELF"> F  </i>
   <i type="logical" name="LOPTICS"> F  </i>
   <v name="STM">      0.00000000      0.00000000      0.00000000      0.00000000      0.00000000      0.00000000      0.00000000</v>
  </separator>
  <separator name="performance" >
   <i type="int" name="NPAR">     4</i>
   <i type="int" name="NSIM">     4</i>
   <i type="int" name="NBLK">    -1</i>
   <i type="logical" name="LPLANE"> T  </i>
   <i type="logical" name="LSCALAPACK"> T  </i>
   <i type="logical" name="LSCAAWARE"> F  </i>
   <i type="logical" name="LSCALU"> F  </i>
   <i type="logical" name="LASYNC"> F  </i>
   <i type="logical" name="LORBITALREAL"> F  </i>
  </separator>
  <separator name="miscellaneous" >
   <i type="int" name="IDIOT">     3</i>
   <i type="int" name="PHON_NSTRUCT">    -1</i>
   <i type="logical" name="LMUSIC"> F  </i>
   <v name="POMASS">     58.93300000</v>
   <v name="DARWINR">      0.00000000</v>
   <v name="DARWINV">      1.00000000</v>
   <i type="logical" name="LCORR"> T  </i>
  </separator>
  <i type="logical" name="GGA_COMPAT"> T  </i>
  <i type="logical" name="LBERRY"> F  </i>
  <i type="int" name="ICORELEVEL">     0</i>
  <i type="logical" name="LDAU"> F  </i>
  <i type="int" name="I_CONSTRAINED_M">     0</i>
  <separator name="electronic exchange-correlation" >
   <i type="string" name="GGA">--</i>
   <i type="int" name="VOSKOWN">     0</i>
   <i type="logical" name="LHFCALC"> F  </i>
   <i type="string" name="PRECFOCK"></i>
   <i type="logical" name="LSYMGRAD"> F  </i>
   <i type="logical" name="LHFONE"> F  </i>
   <i type="logical" name="LRHFCALC"> F  </i>
   <i type="logical" name="LTHOMAS"> F  </i>
   <i type="logical" name="LMODELHF"> F  </i>
   <i type="logical" name="LFOCKACE"> F  </i>
   <i name="ENCUT4O">     -1.00000000</i>
   <i type="int" name="EXXOEP">     0</i>
   <i type="int" name="FOURORBIT">     0</i>
   <i name="AEXX">      0.00000000</i>
   <i name="HFALPHA">      0.00000000</i>
   <i name="MCALPHA">      0.00000000</i>
   <i name="ALDAX">      1.00000000</i>
   <i name="AGGAX">      1.00000000</i>
   <i name="ALDAC">      1.00000000</i>
   <i name="AGGAC">      1.00000000</i>
   <i type="int" name="NKREDX">     1</i>
   <i type="int" name="NKREDY">     1</i>
   <i type="int" name="NKREDZ">     1</i>
   <i type="logical" name="SHIFTRED"> F  </i>
   <i type="logical" name="ODDONLY"> F  </i>
   <i type="logical" name="EVENONLY"> F  </i>
   <i type="int" name="LMAXFOCK">     0</i>
   <i type="int" name="NMAXFOCKAE">     0</i>
   <i type="logical" name="LFOCKAEDFT"> F  </i>
   <i name="HFSCREEN">      0.00000000</i>
   <i name="HFSCREENC">      0.00000000</i>
   <i type="int" name="NBANDSGWLOW">     0</i>
  </separator>
  <separator name="vdW DFT" >
   <i type="logical" name="LUSE_VDW"> F  </i>
   <i name="Zab_VDW">     -0.84910000</i>
   <i name="PARAM1">      0.12340000</i>
   <i name="PARAM2">      1.00000000</i>
   <i name="PARAM3">      0.00000000</i>
  </separator>
  <separator name="model GW" >
   <i type="int" name="MODEL_GW">     0</i>
   <i name="MODEL_EPS0">      8.62276989</i>
   <i name="MODEL_ALPHA">      1.00000000</i>
  </separator>
  <separator name="linear response parameters" >
   <i type="logical" name="LEPSILON"> F  </i>
   <i type="logical" name="LRPA"> F  </i>
   <i type="logical" name="LNABLA"> F  </i>
   <i type="logical" name="LVEL"> F  </i>
   <i name="CSHIFT">      0.10000000</i>
   <i name="OMEGAMAX">     -1.00000000</i>
   <i name="DEG_THRESHOLD">      0.00200000</i>
   <i name="RTIME">     -0.10000000</i>
   <i name="WPLASMAI">      0.00000000</i>
   <v name="DFIELD">      0.00000000      0.00000000      0.00000000</v>
   <v name="WPLASMA">      0.00000000      0.00000000      0.00000000      0.00000000      0.00000000      0.00000000      0.00000000      0.00000000      0.00000000</v>
  </separator>
  <separator name="orbital magnetization" >
   <i type="logical" name="NUCIND"> F  </i>
   <v name="MAGPOS">      0.00000000      0.00000000      0.00000000</v>
   <i type="logical" name="LNICSALL"> T  </i>
   <i type="logical" name="ORBITALMAG"> F  </i>
   <i type="logical" name="LMAGBLOCH"> F  </i>
   <i type="logical" name="LCHIMAG"> F  </i>
   <i type="logical" name="LGAUGE"> T  </i>
   <i type="int" name="MAGATOM">     0</i>
   <v name="MAGDIPOL">      0.00000000      0.00000000      0.00000000</v>
   <v name="AVECCONST">      0.00000000      0.00000000      0.00000000</v>
  </separator>
  <separator name="response functions" >
   <i type="logical" name="LFINITE_TEMPERATURE"> F  </i>
   <i type="logical" name="LADDER"> F  </i>
   <i type="logical" name="LRPAFORCE"> F  </i>
   <i type="logical" name="LFXC"> F  </i>
   <i type="logical" name="LHARTREE"> T  </i>
   <i type="int" name="IBSE">     0</i>
   <v type="int" name="KPOINT">    -1     0     0     0</v>
   <i type="logical" name="LTCTC"> F  </i>
   <i type="logical" name="LTCTE"> F  </i>
   <i type="logical" name="LTETE"> F  </i>
   <i type="logical" name="LTRIPLET"> F  </i>
   <i type="logical" name="LFXCEPS"> F  </i>
   <i type="logical" name="LFXHEG"> F  </i>
   <i type="int" name="NATURALO">     2</i>
   <i type="logical" name="LHOLEGF"> F  </i>
   <i type="logical" name="L2ORDER"> F  </i>
   <i type="logical" name="LDMP1"> F  </i>
   <i type="logical" name="LMP2LT"> F  </i>
   <i type="logical" name="LSMP2LT"> F  </i>
   <i type="logical" name="LGWLF"> F  </i>
   <i name="ENCUTGW">     -2.00000000</i>
   <i name="ENCUTGWSOFT">     -2.00000000</i>
   <i name="ENCUTLF">     -1.00000000</i>
   <i type="logical" name="LESF_SPLINES"> F  </i>
   <i type="int" name="LMAXMP2">    -1</i>
   <i name="SCISSOR">      0.00000000</i>
   <i type="int" name="NOMEGA">     0</i>
   <i type="int" name="NOMEGAR">     0</i>
   <i type="int" name="NBANDSGW">    -1</i>
   <i type="int" name="NBANDSO">    -1</i>
   <i type="int" name="NBANDSV">    -1</i>
   <i type="int" name="NELMGW">     1</i>
   <i type="int" name="NELMHF">     1</i>
   <i type="int" name="DIM">     3</i>
   <i type="int" name="IESPILON">     4</i>
   <i type="int" name="ANTIRES">     0</i>
   <i name="OMEGAMAX">    -30.00000000</i>
   <i name="OMEGAMIN">    -30.00000000</i>
   <i name="OMEGATL">   -200.00000000</i>
   <i type="int" name="OMEGAGRID">     0</i>
   <i name="CSHIFT">     -0.10000000</i>
   <i type="logical" name="LSELFENERGY"> F  </i>
   <i type="logical" name="LSPECTRAL"> F  </i>
   <i type="logical" name="LSPECTRALGW"> F  </i>
   <i type="logical" name="LSINGLES"> F  </i>
   <i type="logical" name="LFERMIGW"> F  </i>
   <i type="logical" name="ODDONLYGW"> F  </i>
   <i type="logical" name="EVENONLYGW"> F  </i>
   <i type="int" name="NKREDLFX">     1</i>
   <i type="int" name="NKREDLFY">     1</i>
   <i type="int" name="NKREDLFZ">     1</i>
   <i type="int" name="MAXMEM">  2800</i>
   <i type="int" name="TELESCOPE">     0</i>
   <i type="int" name="NTAUPAR">    -1</i>
   <i type="int" name="NOMEGAPAR">    -1</i>
   <i name="DAMP_NEWTON">      0.80000001</i>
   <i name="LAMBDA">      1.00000000</i>
  </separator>
  <separator name="External order field" >
   <i name="OFIELD_KAPPA">      0.00000000</i>
   <v name="OFIELD_K">      0.00000000      0.00000000      0.00000000</v>
   <i name="OFIELD_Q6_NEAR">      0.00000000</i>
   <i name="OFIELD_Q6_FAR">      0.00000000</i>
   <i name="OFIELD_A">      0.00000000</i>
  </separator>
  <separator name="optional k-points parameters" >
   <i type="int" name="KPOINTS_OPT_MODE">     1</i>
   <i type="logical" name="LKPOINTS_OPT"> F  </i>
  </separator>
 </parameters>
 <atominfo>
  <atoms>       1 </atoms>
  <types>       1 </types>
  <array name="atoms" >
   <dimension dim="1">ion</dimension>
   <field type="string">element</field>
   <field type="int">atomtype</field>
   <set>
    <rc><c>Co</c><c>   1</c></rc>
   </set>
  </array>
  <array name="atomtypes" >
   <dimension dim="1">type</dimension>
   <field type="int">atomspertype</field>
   <field type="string">element</field>
   <field>mass</field>
   <field>valence</field>
   <field type="string">pseudopotential</field>
   <set>
    <rc><c>   1</c><c>Co</c><c>     58.93300000</c><c>      9.00000000</c><c>  PAW_PBE Co 02Aug2007                  </c></rc>
   </set>
  </array>
 </atominfo>
 <structure name="initialpos" >
  <crystal>
   <varray name="basis" >
    <v>       0.00000000       1.92969431       1.92969431 </v>
    <v>       1.92969431       0.00000000       1.92969431 </v>
    <v>       1.92969431       1.92969431       0.00000000 </v>
   </varray>
   <i name="volume">     14.37128315 </i>
   <varray name="rec_basis" >
    <v>      -0.25910840       0.25910840       0.25910840 </v>
    <v>       0.25910840      -0.25910840       0.25910840 </v>
    <v>       0.25910840       0.25910840      -0.25910840 </v>
   </varray>
  </crystal>
  <varray name="positions" >
   <v>       0.00000000       0.00000000       0.00000000 </v>
  </varray>
 </structure>
 <calculation>
  <scstep>
   <time name="dav">    0.27    0.28</time>
   <time name="total">    0.29    0.29</time>
   <energy>
    <i name="alphaZ">     29.47384062 </i>
    <i name="ewald">   -692.81751616 </i>
    <i name="hartreedc">   -180.56655852 </i>
    <i name="XCdc">     17.01481124 </i>
    <i name="pawpsdc">    719.99081943 </i>
    <i name="pawaedc">   -772.94345096 </i>
    <i name="eentropy">     -0.00153888 </i>
    <i name="bandstr">     90.36963088 </i>
    <i name="atom">    813.35773410 </i>
    <i name="e_fr_energy">     23.87777173 </i>
    <i name="e_wo_entrp">     23.87931062 </i>
    <i name="e_0_energy">     23.87854118 </i>
   </energy>
  </scstep>
  <scstep>
   <time name="dav">    0.27    0.27</time>
   <time name="total">    0.27    0.27</time>
   <energy>
    <i name="e_fr_energy">     -6.63183448 </i>
    <i name="e_wo_entrp">     -6.63040644 </i>
    <i name="e_0_energy">     -6.63112046 </i>
   </energy>
  </scstep>
  <scstep>
   <time name="dav">    0.29    0.29</time>
   <time name="total">    0.29    0.29</time>
   <energy>
    <i name="e_fr_energy">     -7.52080135 </i>
    <i name="e_wo_entrp">     -7.51906538 </i>
    <i name="e_0_energy">     -7.51993337 </i>
   </energy>
  </scstep>
  <scstep>
   <time name="dav">    0.29    0.29</time>
   <time name="total">    0.29    0.29</time>
   <energy>
    <i name="e_fr_energy">     -7.52984825 </i>
    <i name="e_wo_entrp">     -7.52809760 </i>
    <i name="e_0_energy">     -7.52897292 </i>
   </energy>
  </scstep>
  <scstep>
   <time name="dav">    0.32    0.32</time>
   <time name="total">    0.33    0.34</time>
   <energy>
    <i name="e_fr_energy">     -7.53011380 </i>
    <i name="e_wo_entrp">     -7.52836222 </i>
    <i name="e_0_energy">     -7.52923801 </i>
   </energy>
  </scstep>
  <scstep>
   <time name="dav">    0.30    0.30</time>
   <time name="total">    0.32    0.32</time>
   <energy>
    <i name="e_fr_energy">     -7.09560118 </i>
    <i name="e_wo_entrp">     -7.09305442 </i>
    <i name="e_0_energy">     -7.09432780 </i>
   </energy>
  </scstep>
  <scstep>
   <time name="dav">    0.30    0.30</time>
   <time name="total">    0.32    0.32</time>
   <energy>
    <i name="e_fr_energy">     -6.60214527 </i>
    <i name="e_wo_entrp">     -6.59984998 </i>
    <i name="e_0_energy">     -6.60099762 </i>
   </energy>
  </scstep>
  <scstep>
   <time name="dav">    0.29    0.29</time>
   <time name="total">    0.31    0.31</time>
   <energy>
    <i name="e_fr_energy">     -6.59793405 </i>
    <i name="e_wo_entrp">     -6.59561966 </i>
    <i name="e_0_energy">     -6.59677685 </i>
   </energy>
  </scstep>
  <scstep>
   <time name="dav">    0.32    0.33</time>
   <time name="total">    0.35    0.35</time>
   <energy>
    <i name="e_fr_energy">     -6.59346395 </i>
    <i name="e_wo_entrp">     -6.59114989 </i>
    <i name="e_0_energy">     -6.59230692 </i>
   </energy>
  </scstep>
  <scstep>
   <time name="dav">    0.35    0.35</time>
   <time name="total">    0.37    0.37</time>
   <energy>
    <i name="e_fr_energy">     -6.59262404 </i>
    <i name="e_wo_entrp">     -6.59031572 </i>
    <i name="e_0_energy">     -6.59146988 </i>
   </energy>
  </scstep>
  <scstep>
   <time name="dav">    0.27    0.27</time>
   <time name="total">    0.29    0.29</time>
   <energy>
    <i name="e_fr_energy">     -6.59264555 </i>
    <i name="e_wo_entrp">     -6.59033712 </i>
    <i name="e_0_energy">     -6.59149133 </i>
   </energy>
  </scstep>
  <scstep>
   <time name="dav">    0.29    0.30</time>
   <time name="total">    0.32    0.32</time>
   <energy>
    <i name="e_fr_energy">     -6.59264936 </i>
    <i name="e_wo_entrp">     -6.59034392 </i>
    <i name="e_0_energy">     -6.59149664 </i>
   </energy>
  </scstep>
  <scstep>
   <time name="dav">    0.22    0.22</time>
   <time name="total">    0.22    0.23</time>
   <energy>
    <i name="alphaZ">     29.47384062 </i>
    <i name="ewald">   -692.81751616 </i>
    <i name="hartreedc">   -163.16189131 </i>
    <i name="XCdc">     15.81048616 </i>
    <i name="pawpsdc">    791.48811622 </i>
    <i name="pawaedc">   -843.81911564 </i>
    <i name="eentropy">     -0.00230461 </i>
    <i name="bandstr">     43.07800161 </i>
    <i name="atom">    813.35773410 </i>
    <i name="e_fr_energy">     -6.59264901 </i>
    <i name="e_wo_entrp">     -6.59034440 </i>
    <i name="e_0_energy">     -6.59149671 </i>
   </energy>
  </scstep>
  <structure>
   <crystal>
    <varray name="basis" >
     <v>       0.00000000       1.92969431       1.92969431 </v>
     <v>       1.92969431       0.00000000       1.92969431 </v>
     <v>       1.92969431       1.92969431       0.00000000 </v>
    </varray>
    <i name="volume">     14.37128315 </i>
    <varray name="rec_basis" >
     <v>      -0.25910840       0.25910840       0.25910840 </v>
     <v>       0.25910840      -0.25910840       0.25910840 </v>
     <v>       0.25910840       0.25910840      -0.25910840 </v>
    </varray>
   </crystal>
   <varray name="positions" >
    <v>       0.00000000       0.00000000       0.00000000 </v>
   </varray>
  </structure>
  <varray name="forces" >
   <v>       0.00000000       0.00000000       0.00000000 </v>
  </varray>
  <varray name="stress" >
   <v>    -305.22474757       0.00000000       0.00000000 </v>
   <v>       0.00000000    -305.22474757       0.00000000 </v>
   <v>       0.00000000      -0.00000000    -305.22474757 </v>
  </varray>
  <energy>
   <i name="e_fr_energy">     -6.59264901 </i>
   <i name="e_wo_entrp">     -6.59034440 </i>
   <i name="e_0_energy">     -6.59149671 </i>
  </energy>
  <time name="totalsc">    4.11    4.38</time>
  <eigenvalues>
   <array>
    <dimension dim="1">band</dimension>
    <dimension dim="2">kpoint</dimension>
    <dimension dim="3">spin</dimension>
    <field>eigene</field>
    <field>occ</field>
    <set>
     <set comment="spin 1">
      <set comment="kpoint 1">
       <r>   -0.4293    1.0000 </r>
       <r>    4.4376    1.0000 </r>
       <r>    4.4876    1.0000 </r>
       <r>    4.4876    1.0000 </r>
       <r>    5.0497    1.0000 </r>
       <r>    5.0497    1.0000 </r>
       <r>   26.8489    0.0000 </r>
       <r>   28.5395    0.0000 </r>
       <r>   29.4756    0.0000 </r>
       <r>   29.4756    0.0000 </r>
       <r>   32.8080    0.0000 </r>
       <r>   32.8080    0.0000 </r>
      </set>
      <set comment="kpoint 2">
       <r>    0.2250    1.0000 </r>
       <r>    4.3108    1.0000 </r>
       <r>    4.5836    1.0000 </r>
       <r>    4.5915    1.0000 </r>
       <r>    4.9597    1.0000 </r>
       <r>    5.1191    1.0000 </r>
       <r>   23.4211    0.0000 </r>
       <r>   25.7535    0.0000 </r>
       <r>   29.1608    0.0000 </r>
       <r>   30.3247    0.0000 </r>
       <r>   32.4321    0.0000 </r>
       <r>   33.1182    0.0000 </r>
      </set>
      <set comment="kpoint 3">
       <r>    1.6482    1.0000 </r>
       <r>    4.2685    1.0000 </r>
       <r>    4.5246    1.0000 </r>
       <r>    4.5661    1.0000 </r>
       <r>    5.1395    1.0000 </r>
       <r>    5.4172    1.0000 </r>
       <r>   17.8846    0.0000 </r>
       <r>   24.8219    0.0000 </r>
       <r>   28.2833    0.0000 </r>
       <r>   29.4023    0.0000 </r>
       <r>   31.0836    0.0000 </r>
       <r>   32.1314    0.0000 </r>
      </set>
      <set comment="kpoint 4">
       <r>    2.7031    1.0000 </r>
       <r>    4.3679    1.0000 </r>
       <r>    4.4248    1.0000 </r>
       <r>    5.0823    1.0000 </r>
       <r>    5.5034    1.0000 </r>
       <r>    6.1232    1.0000 </r>
       <r>   13.1136    0.0000 </r>
       <r>   24.6379    0.0000 </r>
       <r>   26.9949    0.0000 </r>
       <r>   27.5818    0.0000 </r>
       <r>   30.3114    0.0000 </r>
       <r>   31.7169    0.0000 </r>
      </set>
      <set comment="kpoint 5">
       <r>    2.8314    1.0000 </r>
       <r>    4.3043    1.0000 </r>
       <r>    4.3910    1.0000 </r>
       <r>    5.3826    1.0000 </r>
       <r>    5.6792    1.0000 </r>
       <r>    7.1693    0.0000 </r>
       <r>   11.0415    0.0000 </r>
       <r>   25.2557    0.0000 </r>
       <r>   26.1439    0.0000 </r>
       <r>   26.4845    0.0000 </r>
       <r>   30.9433    0.0000 </r>
       <r>   31.1844    0.0000 </r>
      </set>
      <set comment="kpoint 6">
       <r>    2.4941    1.0000 </r>
       <r>    4.3927    1.0000 </r>
       <r>    4.4872    1.0000 </r>
       <r>    4.6875    1.0000 </r>
       <r>    5.5421    1.0000 </r>
       <r>    5.6641    1.0000 </r>
       <r>   14.5753    0.0000 </r>
       <r>   25.7168    0.0000 </r>
       <r>   26.0753    0.0000 </r>
       <r>   27.5053    0.0000 </r>
       <r>   31.1852    0.0000 </r>
       <r>   32.4799    0.0000 </r>
      </set>
      <set comment="kpoint 7">
       <r>    1.1267    1.0000 </r>
       <r>    4.2233    1.0000 </r>
       <r>    4.5669    1.0000 </r>
       <r>    4.6113    1.0000 </r>
       <r>    5.0912    1.0000 </r>
       <r>    5.2388    1.0000 </r>
       <r>   19.6719    0.0000 </r>
       <r>   26.2280    0.0000 </r>
       <r>   26.7573    0.0000 </r>
       <r>   29.9749    0.0000 </r>
       <r>   31.1737    0.0000 </r>
       <r>   34.2320    0.0000 </r>
      </set>
      <set comment="kpoint 8">
       <r>   -0.0979    1.0000 </r>
       <r>    4.3505    1.0000 </r>
       <r>    4.5587    1.0000 </r>
       <r>    4.5611    1.0000 </r>
       <r>    4.9693    1.0000 </r>
       <r>    5.0937    1.0000 </r>
       <r>   25.3004    0.0000 </r>
       <r>   27.5227    0.0000 </r>
       <r>   27.5373    0.0000 </r>
       <r>   29.6657    0.0000 </r>
       <r>   32.8304    0.0000 </r>
       <r>   34.2734    0.0000 </r>
      </set>
      <set comment="kpoint 9">
       <r>    0.5416    1.0000 </r>
       <r>    4.1796    1.0000 </r>
       <r>    4.6723    1.0000 </r>
       <r>    4.7031    1.0000 </r>
       <r>    4.8762    1.0000 </r>
       <r>    5.1758    1.0000 </r>
       <r>   23.6568    0.0000 </r>
       <r>   25.5237    0.0000 </r>
       <r>   26.3655    0.0000 </r>
       <r>   28.2653    0.0000 </r>
       <r>   30.8034    0.0000 </r>
       <r>   35.2089    0.0000 </r>
      </set>
      <set comment="kpoint 10">
       <r>    1.6869    1.0000 </r>
       <r>    3.9943    1.0000 </r>
       <r>    4.5067    1.0000 </r>
       <r>    4.8499    1.0000 </r>
       <r>    5.0841    1.0000 </r>
       <r>    5.4645    1.0000 </r>
       <r>   20.1659    0.0000 </r>
       <r>   22.4649    0.0000 </r>
       <r>   26.0666    0.0000 </r>
       <r>   27.5263    0.0000 </r>
       <r>   30.3523    0.0000 </r>
       <r>   35.1459    0.0000 </r>
      </set>
      <set comment="kpoint 11">
       <r>    2.9005    1.0000 </r>
       <r>    4.0765    1.0000 </r>
       <r>    4.3435    1.0000 </r>
       <r>    4.7293    1.0000 </r>
       <r>    5.5354    1.0000 </r>
       <r>    6.4352    1.0000 </r>
       <r>   15.0706    0.0000 </r>
       <r>   22.0483    0.0000 </r>
       <r>   23.5481    0.0000 </r>
       <r>   27.0821    0.0000 </r>
       <r>   33.0013    0.0000 </r>
       <r>   34.7205    0.0000 </r>
      </set>
      <set comment="kpoint 12">
       <r>    3.1767    1.0000 </r>
       <r>    4.0566    1.0000 </r>
       <r>    4.6094    1.0000 </r>
       <r>    4.7302    1.0000 </r>
       <r>    5.6626    1.0000 </r>
       <r>    8.5135    0.0000 </r>
       <r>   11.2934    0.0000 </r>
       <r>   21.6303    0.0000 </r>
       <r>   22.7203    0.0000 </r>
       <r>   27.1379    0.0000 </r>
       <r>   32.1447    0.0000 </r>
       <r>   35.6216    0.0000 </r>
      </set>
      <set comment="kpoint 13">
       <r>    3.1032    1.0000 </r>
       <r>    4.1526    1.0000 </r>
       <r>    4.4534    1.0000 </r>
       <r>    4.6572    1.0000 </r>
       <r>    5.4674    1.0000 </r>
       <r>    7.1444    0.0000 </r>
       <r>   13.5890    0.0000 </r>
       <r>   20.7368    0.0000 </r>
       <r>   24.2942    0.0000 </r>
       <r>   28.0584    0.0000 </r>
       <r>   31.6333    0.0000 </r>
       <r>   34.9953    0.0000 </r>
      </set>
      <set comment="kpoint 14">
       <r>    2.1802    1.0000 </r>
       <r>    4.0478    1.0000 </r>
       <r>    4.4030    1.0000 </r>
       <r>    4.7799    1.0000 </r>
       <r>    5.0506    1.0000 </r>
       <r>    5.8264    1.0000 </r>
       <r>   18.4033    0.0000 </r>
       <r>   20.8131    0.0000 </r>
       <r>   26.7054    0.0000 </r>
       <r>   29.6851    0.0000 </r>
       <r>   31.2901    0.0000 </r>
       <r>   33.3576    0.0000 </r>
      </set>
      <set comment="kpoint 15">
       <r>    0.8453    1.0000 </r>
       <r>    4.1824    1.0000 </r>
       <r>    4.5967    1.0000 </r>
       <r>    4.6983    1.0000 </r>
       <r>    4.9271    1.0000 </r>
       <r>    5.2545    1.0000 </r>
       <r>   21.6942    0.0000 </r>
       <r>   24.0300    0.0000 </r>
       <r>   28.2775    0.0000 </r>
       <r>   29.7803    0.0000 </r>
       <r>   31.3335    0.0000 </r>
       <r>   33.5777    0.0000 </r>
      </set>
      <set comment="kpoint 16">
       <r>    2.3062    1.0000 </r>
       <r>    3.7256    1.0000 </r>
       <r>    4.7343    1.0000 </r>
       <r>    5.1283    1.0000 </r>
       <r>    5.3756    1.0000 </r>
       <r>    5.4185    1.0000 </r>
       <r>   20.7247    0.0000 </r>
       <r>   22.0587    0.0000 </r>
       <r>   22.4603    0.0000 </r>
       <r>   24.8649    0.0000 </r>
       <r>   27.3216    0.0000 </r>
       <r>   40.0738    0.0000 </r>
      </set>
      <set comment="kpoint 17">
       <r>    2.9665    1.0000 </r>
       <r>    3.5937    1.0000 </r>
       <r>    4.7364    1.0000 </r>
       <r>    5.2552    1.0000 </r>
       <r>    5.5684    1.0000 </r>
       <r>    6.6809    1.0000 </r>
       <r>   17.7889    0.0000 </r>
       <r>   19.5394    0.0000 </r>
       <r>   20.0249    0.0000 </r>
       <r>   25.8443    0.0000 </r>
       <r>   28.7351    0.0000 </r>
       <r>   38.2507    0.0000 </r>
      </set>
      <set comment="kpoint 18">
       <r>    3.3406    1.0000 </r>
       <r>    3.6787    1.0000 </r>
       <r>    4.5632    1.0000 </r>
       <r>    5.0617    1.0000 </r>
       <r>    5.7153    1.0000 </r>
       <r>    9.3558    0.0000 </r>
       <r>   13.3262    0.0000 </r>
       <r>   17.4114    0.0000 </r>
       <r>   20.3478    0.0000 </r>
       <r>   26.1340    0.0000 </r>
       <r>   33.3512    0.0000 </r>
       <r>   36.5060    0.0000 </r>
      </set>
      <set comment="kpoint 19">
       <r>    3.6612    1.0000 </r>
       <r>    3.7791    1.0000 </r>
       <r>    4.2747    1.0000 </r>
       <r>    4.9234    1.0000 </r>
       <r>    5.5301    1.0000 </r>
       <r>    9.5540    0.0000 </r>
       <r>   13.2262    0.0000 </r>
       <r>   16.2176    0.0000 </r>
       <r>   21.7923    0.0000 </r>
       <r>   26.9652    0.0000 </r>
       <r>   34.7823    0.0000 </r>
       <r>   38.4704    0.0000 </r>
      </set>
      <set comment="kpoint 20">
       <r>    3.2993    1.0000 </r>
       <r>    4.0625    1.0000 </r>
       <r>    4.1169    1.0000 </r>
       <r>    4.8176    1.0000 </r>
       <r>    5.2897    1.0000 </r>
       <r>    7.1348    0.0000 </r>
       <r>   15.5848    0.0000 </r>
       <r>   18.1575    0.0000 </r>
       <r>   24.0638    0.0000 </r>
       <r>   28.4748    0.0000 </r>
       <r>   32.4020    0.0000 </r>
       <r>   35.7536    0.0000 </r>
      </set>
      <set comment="kpoint 21">
       <r>    2.3035    1.0000 </r>
       <r>    4.2494    1.0000 </r>
       <r>    4.4081    1.0000 </r>
       <r>    4.6060    1.0000 </r>
       <r>    5.3049    1.0000 </r>
       <r>    5.7483    1.0000 </r>
       <r>   16.3503    0.0000 </r>
       <r>   23.3329    0.0000 </r>
       <r>   26.6841    0.0000 </r>
       <r>   28.0966    0.0000 </r>
       <r>   31.9441    0.0000 </r>
       <r>   33.0353    0.0000 </r>
      </set>
      <set comment="kpoint 22">
       <r>    2.8517    1.0000 </r>
       <r>    3.3552    1.0000 </r>
       <r>    5.4648    1.0000 </r>
       <r>    5.5553    1.0000 </r>
       <r>    5.7340    1.0000 </r>
       <r>    7.4747    0.0000 </r>
       <r>   16.4346    0.0000 </r>
       <r>   18.7515    0.0000 </r>
       <r>   19.8276    0.0000 </r>
       <r>   24.0042    0.0000 </r>
       <r>   26.3227    0.0000 </r>
       <r>   43.7555    0.0000 </r>
      </set>
      <set comment="kpoint 23">
       <r>    2.9681    1.0000 </r>
       <r>    3.3708    1.0000 </r>
       <r>    5.2985    1.0000 </r>
       <r>    5.4326    1.0000 </r>
       <r>    5.8342    1.0000 </r>
       <r>    9.6434    0.0000 </r>
       <r>   14.4541    0.0000 </r>
       <r>   16.6232    0.0000 </r>
       <r>   18.7705    0.0000 </r>
       <r>   25.2438    0.0000 </r>
       <r>   28.1492    0.0000 </r>
       <r>   41.0746    0.0000 </r>
      </set>
      <set comment="kpoint 24">
       <r>    3.3121    1.0000 </r>
       <r>    3.6206    1.0000 </r>
       <r>    4.6877    1.0000 </r>
       <r>    5.1575    1.0000 </r>
       <r>    5.7230    1.0000 </r>
       <r>   11.1618    0.0000 </r>
       <r>   12.8991    0.0000 </r>
       <r>   15.0445    0.0000 </r>
       <r>   19.9774    0.0000 </r>
       <r>   25.9711    0.0000 </r>
       <r>   33.2384    0.0000 </r>
       <r>   37.7454    0.0000 </r>
      </set>
      <set comment="kpoint 25">
       <r>    3.4433    1.0000 </r>
       <r>    3.8763    1.0000 </r>
       <r>    4.4840    1.0000 </r>
       <r>    4.7818    1.0000 </r>
       <r>    5.6106    1.0000 </r>
       <r>    9.4687    0.0000 </r>
       <r>   11.6061    0.0000 </r>
       <r>   18.7502    0.0000 </r>
       <r>   22.0964    0.0000 </r>
       <r>   27.0255    0.0000 </r>
       <r>   33.4377    0.0000 </r>
       <r>   37.5096    0.0000 </r>
      </set>
      <set comment="kpoint 26">
       <r>    2.9272    1.0000 </r>
       <r>    4.2409    1.0000 </r>
       <r>    4.4806    1.0000 </r>
       <r>    4.9670    1.0000 </r>
       <r>    5.6249    1.0000 </r>
       <r>    7.1586    0.0000 </r>
       <r>   11.9879    0.0000 </r>
       <r>   23.5005    0.0000 </r>
       <r>   24.7731    0.0000 </r>
       <r>   27.2615    0.0000 </r>
       <r>   31.1858    0.0000 </r>
       <r>   33.2884    0.0000 </r>
      </set>
      <set comment="kpoint 27">
       <r>    2.8234    1.0000 </r>
       <r>    3.2702    1.0000 </r>
       <r>    5.5252    1.0000 </r>
       <r>    5.7246    1.0000 </r>
       <r>    5.8416    1.0000 </r>
       <r>    8.9611    0.0000 </r>
       <r>   14.2930    0.0000 </r>
       <r>   18.3076    0.0000 </r>
       <r>   19.3430    0.0000 </r>
       <r>   23.8485    0.0000 </r>
       <r>   26.1698    0.0000 </r>
       <r>   43.9630    0.0000 </r>
      </set>
      <set comment="kpoint 28">
       <r>    3.0086    1.0000 </r>
       <r>    3.4481    1.0000 </r>
       <r>    5.0759    1.0000 </r>
       <r>    5.4020    1.0000 </r>
       <r>    5.7311    1.0000 </r>
       <r>    8.1099    0.0000 </r>
       <r>   16.6597    0.0000 </r>
       <r>   17.0352    0.0000 </r>
       <r>   19.1934    0.0000 </r>
       <r>   25.4378    0.0000 </r>
       <r>   28.3338    0.0000 </r>
       <r>   39.7859    0.0000 </r>
      </set>
      <set comment="kpoint 29">
       <r>    3.2518    1.0000 </r>
       <r>    3.8407    1.0000 </r>
       <r>    4.4118    1.0000 </r>
       <r>    4.8990    1.0000 </r>
       <r>    5.6662    1.0000 </r>
       <r>    7.6728    0.0000 </r>
       <r>   14.0543    0.0000 </r>
       <r>   20.3144    0.0000 </r>
       <r>   21.0859    0.0000 </r>
       <r>   26.4858    0.0000 </r>
       <r>   33.4377    0.0000 </r>
       <r>   35.3333    0.0000 </r>
      </set>
      <set comment="kpoint 30">
       <r>    2.7825    1.0000 </r>
       <r>    3.5141    1.0000 </r>
       <r>    5.1930    1.0000 </r>
       <r>    5.3327    1.0000 </r>
       <r>    5.5716    1.0000 </r>
       <r>    6.0733    1.0000 </r>
       <r>   19.2766    0.0000 </r>
       <r>   19.6127    0.0000 </r>
       <r>   20.7546    0.0000 </r>
       <r>   24.3292    0.0000 </r>
       <r>   26.6747    0.0000 </r>
       <r>   41.7366    0.0000 </r>
      </set>
      <set comment="kpoint 31">
       <r>    2.5301    1.0000 </r>
       <r>    3.7863    1.0000 </r>
       <r>    4.4809    1.0000 </r>
       <r>    5.0460    1.0000 </r>
       <r>    5.3498    1.0000 </r>
       <r>    5.8386    1.0000 </r>
       <r>   18.8539    0.0000 </r>
       <r>   21.0933    0.0000 </r>
       <r>   22.7891    0.0000 </r>
       <r>   26.5031    0.0000 </r>
       <r>   29.4002    0.0000 </r>
       <r>   36.7281    0.0000 </r>
      </set>
      <set comment="kpoint 32">
       <r>    1.4168    1.0000 </r>
       <r>    3.9593    1.0000 </r>
       <r>    4.6384    1.0000 </r>
       <r>    4.9012    1.0000 </r>
       <r>    5.0314    1.0000 </r>
       <r>    5.2869    1.0000 </r>
       <r>   22.1098    0.0000 </r>
       <r>   23.6707    0.0000 </r>
       <r>   25.1963    0.0000 </r>
       <r>   26.0386    0.0000 </r>
       <r>   28.4847    0.0000 </r>
       <r>   37.6506    0.0000 </r>
      </set>
      <set comment="kpoint 33">
       <r>    0.5354    1.0000 </r>
       <r>    4.3003    1.0000 </r>
       <r>    4.5823    1.0000 </r>
       <r>    4.5823    1.0000 </r>
       <r>    5.0721    1.0000 </r>
       <r>    5.0721    1.0000 </r>
       <r>   21.4419    0.0000 </r>
       <r>   27.8633    0.0000 </r>
       <r>   28.2643    0.0000 </r>
       <r>   28.2643    0.0000 </r>
       <r>   33.7029    0.0000 </r>
       <r>   34.0387    0.0000 </r>
      </set>
      <set comment="kpoint 34">
       <r>    1.4211    1.0000 </r>
       <r>    4.1466    1.0000 </r>
       <r>    4.5361    1.0000 </r>
       <r>    4.7150    1.0000 </r>
       <r>    4.9150    1.0000 </r>
       <r>    5.4831    1.0000 </r>
       <r>   19.9338    0.0000 </r>
       <r>   22.3174    0.0000 </r>
       <r>   29.4901    0.0000 </r>
       <r>   30.5599    0.0000 </r>
       <r>   31.1494    0.0000 </r>
       <r>   31.8421    0.0000 </r>
      </set>
      <set comment="kpoint 35">
       <r>    2.7791    1.0000 </r>
       <r>    4.0858    1.0000 </r>
       <r>    4.3013    1.0000 </r>
       <r>    4.7175    1.0000 </r>
       <r>    5.1150    1.0000 </r>
       <r>    6.3353    1.0000 </r>
       <r>   16.8732    0.0000 </r>
       <r>   19.3539    0.0000 </r>
       <r>   27.2647    0.0000 </r>
       <r>   27.6350    0.0000 </r>
       <r>   32.8850    0.0000 </r>
       <r>   33.6609    0.0000 </r>
      </set>
      <set comment="kpoint 36">
       <r>    3.2753    1.0000 </r>
       <r>    4.0558    1.0000 </r>
       <r>    4.5626    1.0000 </r>
       <r>    4.6541    1.0000 </r>
       <r>    5.5078    1.0000 </r>
       <r>    8.1658    0.0000 </r>
       <r>   12.4066    0.0000 </r>
       <r>   19.6069    0.0000 </r>
       <r>   24.6891    0.0000 </r>
       <r>   26.1168    0.0000 </r>
       <r>   33.9132    0.0000 </r>
       <r>   34.4285    0.0000 </r>
      </set>
      <set comment="kpoint 37">
       <r>    3.2085    1.0000 </r>
       <r>    3.9765    1.0000 </r>
       <r>    4.5664    1.0000 </r>
       <r>    4.7097    1.0000 </r>
       <r>    5.7033    1.0000 </r>
       <r>    8.0783    0.0000 </r>
       <r>   12.3820    0.0000 </r>
       <r>   20.8526    0.0000 </r>
       <r>   23.1596    0.0000 </r>
       <r>   25.4625    0.0000 </r>
       <r>   34.9871    0.0000 </r>
       <r>   35.1846    0.0000 </r>
      </set>
      <set comment="kpoint 38">
       <r>    2.6799    1.0000 </r>
       <r>    3.8850    1.0000 </r>
       <r>    4.4148    1.0000 </r>
       <r>    4.8417    1.0000 </r>
       <r>    5.5755    1.0000 </r>
       <r>    5.9688    1.0000 </r>
       <r>   16.8376    0.0000 </r>
       <r>   22.8339    0.0000 </r>
       <r>   22.9526    0.0000 </r>
       <r>   25.5090    0.0000 </r>
       <r>   31.7411    0.0000 </r>
       <r>   36.5003    0.0000 </r>
      </set>
      <set comment="kpoint 39">
       <r>    1.9136    1.0000 </r>
       <r>    4.0773    1.0000 </r>
       <r>    4.4639    1.0000 </r>
       <r>    4.6989    1.0000 </r>
       <r>    5.3631    1.0000 </r>
       <r>    5.4167    1.0000 </r>
       <r>   18.1352    0.0000 </r>
       <r>   24.3967    0.0000 </r>
       <r>   25.5354    0.0000 </r>
       <r>   27.0457    0.0000 </r>
       <r>   32.3634    0.0000 </r>
       <r>   34.2945    0.0000 </r>
      </set>
      <set comment="kpoint 40">
       <r>    2.9113    1.0000 </r>
       <r>    3.9055    1.0000 </r>
       <r>    4.2559    1.0000 </r>
       <r>    4.9456    1.0000 </r>
       <r>    5.2899    1.0000 </r>
       <r>    6.4030    1.0000 </r>
       <r>   17.1112    0.0000 </r>
       <r>   19.5502    0.0000 </r>
       <r>   23.3119    0.0000 </r>
       <r>   28.9426    0.0000 </r>
       <r>   31.2791    0.0000 </r>
       <r>   34.0969    0.0000 </r>
      </set>
      <set comment="kpoint 41">
       <r>    3.5886    1.0000 </r>
       <r>    3.8786    1.0000 </r>
       <r>    4.0908    1.0000 </r>
       <r>    4.9745    1.0000 </r>
       <r>    5.5080    1.0000 </r>
       <r>    8.3904    0.0000 </r>
       <r>   14.5503    0.0000 </r>
       <r>   17.2478    0.0000 </r>
       <r>   20.8589    0.0000 </r>
       <r>   29.6287    0.0000 </r>
       <r>   31.8155    0.0000 </r>
       <r>   35.5687    0.0000 </r>
      </set>
      <set comment="kpoint 42">
       <r>    3.5745    1.0000 </r>
       <r>    3.7447    1.0000 </r>
       <r>    4.3365    1.0000 </r>
       <r>    4.9428    1.0000 </r>
       <r>    5.6805    1.0000 </r>
       <r>   10.2228    0.0000 </r>
       <r>   11.9916    0.0000 </r>
       <r>   18.1802    0.0000 </r>
       <r>   19.2198    0.0000 </r>
       <r>   28.6482    0.0000 </r>
       <r>   32.8282    0.0000 </r>
       <r>   36.8859    0.0000 </r>
      </set>
      <set comment="kpoint 43">
       <r>    3.2760    1.0000 </r>
       <r>    3.7493    1.0000 </r>
       <r>    4.3206    1.0000 </r>
       <r>    5.1316    1.0000 </r>
       <r>    5.5251    1.0000 </r>
       <r>    7.4557    0.0000 </r>
       <r>   16.0759    0.0000 </r>
       <r>   18.5541    0.0000 </r>
       <r>   20.0928    0.0000 </r>
       <r>   28.3137    0.0000 </r>
       <r>   31.1078    0.0000 </r>
       <r>   35.0138    0.0000 </r>
      </set>
      <set comment="kpoint 44">
       <r>    3.0840    1.0000 </r>
       <r>    3.6830    1.0000 </r>
       <r>    4.6046    1.0000 </r>
       <r>    5.0191    1.0000 </r>
       <r>    5.6914    1.0000 </r>
       <r>    7.0398    0.0043 </r>
       <r>   15.7964    0.0000 </r>
       <r>   19.8133    0.0000 </r>
       <r>   21.5926    0.0000 </r>
       <r>   24.9546    0.0000 </r>
       <r>   31.0895    0.0000 </r>
       <r>   38.1651    0.0000 </r>
      </set>
      <set comment="kpoint 45">
       <r>    3.2716    1.0000 </r>
       <r>    3.6315    1.0000 </r>
       <r>    4.5714    1.0000 </r>
       <r>    5.2339    1.0000 </r>
       <r>    5.7154    1.0000 </r>
       <r>    9.0156    0.0000 </r>
       <r>   15.3344    0.0000 </r>
       <r>   17.1486    0.0000 </r>
       <r>   17.8743    0.0000 </r>
       <r>   27.8867    0.0000 </r>
       <r>   30.9273    0.0000 </r>
       <r>   36.2649    0.0000 </r>
      </set>
      <set comment="kpoint 46">
       <r>    3.4182    1.0000 </r>
       <r>    3.8688    1.0000 </r>
       <r>    4.2781    1.0000 </r>
       <r>    5.0659    1.0000 </r>
       <r>    5.8318    1.0000 </r>
       <r>   11.9603    0.0000 </r>
       <r>   13.3945    0.0000 </r>
       <r>   15.4225    0.0000 </r>
       <r>   16.3377    0.0000 </r>
       <r>   30.5152    0.0000 </r>
       <r>   33.1888    0.0000 </r>
       <r>   34.5251    0.0000 </r>
      </set>
      <set comment="kpoint 47">
       <r>    3.5231    1.0000 </r>
       <r>    3.8675    1.0000 </r>
       <r>    4.1687    1.0000 </r>
       <r>    5.0573    1.0000 </r>
       <r>    5.7070    1.0000 </r>
       <r>   10.0851    0.0000 </r>
       <r>   13.8043    0.0000 </r>
       <r>   16.6355    0.0000 </r>
       <r>   17.9068    0.0000 </r>
       <r>   30.4538    0.0000 </r>
       <r>   31.9985    0.0000 </r>
       <r>   35.1033    0.0000 </r>
      </set>
      <set comment="kpoint 48">
       <r>    3.0956    1.0000 </r>
       <r>    3.4581    1.0000 </r>
       <r>    5.0856    1.0000 </r>
       <r>    5.3126    1.0000 </r>
       <r>    5.7649    1.0000 </r>
       <r>   10.2189    0.0000 </r>
       <r>   14.4996    0.0000 </r>
       <r>   14.7855    0.0000 </r>
       <r>   20.2777    0.0000 </r>
       <r>   24.5200    0.0000 </r>
       <r>   30.4568    0.0000 </r>
       <r>   40.8281    0.0000 </r>
      </set>
      <set comment="kpoint 49">
       <r>    3.2068    1.0000 </r>
       <r>    3.5718    1.0000 </r>
       <r>    4.7704    1.0000 </r>
       <r>    5.2383    1.0000 </r>
       <r>    5.8323    1.0000 </r>
       <r>   10.7026    0.0000 </r>
       <r>   14.7583    0.0000 </r>
       <r>   14.9973    0.0000 </r>
       <r>   17.5113    0.0000 </r>
       <r>   27.6735    0.0000 </r>
       <r>   30.8276    0.0000 </r>
       <r>   37.4887    0.0000 </r>
      </set>
      <set comment="kpoint 50">
       <r>    3.1337    1.0000 </r>
       <r>    3.5322    1.0000 </r>
       <r>    4.9015    1.0000 </r>
       <r>    5.1943    1.0000 </r>
       <r>    5.7515    1.0000 </r>
       <r>    8.5876    0.0000 </r>
       <r>   15.0481    0.0000 </r>
       <r>   16.9135    0.0000 </r>
       <r>   20.7253    0.0000 </r>
       <r>   24.6554    0.0000 </r>
       <r>   30.6623    0.0000 </r>
       <r>   39.6110    0.0000 </r>
      </set>
      <set comment="kpoint 51">
       <r>    2.0432    1.0000 </r>
       <r>    4.4869    1.0000 </r>
       <r>    4.4869    1.0000 </r>
       <r>    4.5166    1.0000 </r>
       <r>    5.3591    1.0000 </r>
       <r>    5.3591    1.0000 </r>
       <r>   16.0919    0.0000 </r>
       <r>   27.0430    0.0000 </r>
       <r>   27.4483    0.0000 </r>
       <r>   27.4483    0.0000 </r>
       <r>   31.6216    0.0000 </r>
       <r>   31.6216    0.0000 </r>
      </set>
      <set comment="kpoint 52">
       <r>    2.7349    1.0000 </r>
       <r>    4.3334    1.0000 </r>
       <r>    4.4397    1.0000 </r>
       <r>    4.5566    1.0000 </r>
       <r>    5.3108    1.0000 </r>
       <r>    6.2623    1.0000 </r>
       <r>   14.8342    0.0000 </r>
       <r>   21.9233    0.0000 </r>
       <r>   27.3836    0.0000 </r>
       <r>   27.4401    0.0000 </r>
       <r>   31.7126    0.0000 </r>
       <r>   32.5207    0.0000 </r>
      </set>
      <set comment="kpoint 53">
       <r>    3.5446    1.0000 </r>
       <r>    3.9673    1.0000 </r>
       <r>    4.2132    1.0000 </r>
       <r>    4.8055    1.0000 </r>
       <r>    5.3737    1.0000 </r>
       <r>    8.1546    0.0000 </r>
       <r>   14.2856    0.0000 </r>
       <r>   17.0377    0.0000 </r>
       <r>   24.3838    0.0000 </r>
       <r>   26.0933    0.0000 </r>
       <r>   35.4548    0.0000 </r>
       <r>   35.6505    0.0000 </r>
      </set>
      <set comment="kpoint 54">
       <r>    3.4780    1.0000 </r>
       <r>    3.7185    1.0000 </r>
       <r>    4.5067    1.0000 </r>
       <r>    5.0269    1.0000 </r>
       <r>    5.6028    1.0000 </r>
       <r>   10.9745    0.0000 </r>
       <r>   12.1545    0.0000 </r>
       <r>   15.4917    0.0000 </r>
       <r>   22.0129    0.0000 </r>
       <r>   25.1061    0.0000 </r>
       <r>   36.0726    0.0000 </r>
       <r>   38.0023    0.0000 </r>
      </set>
      <set comment="kpoint 55">
       <r>    2.8959    1.0000 </r>
       <r>    4.2104    1.0000 </r>
       <r>    4.5664    1.0000 </r>
       <r>    4.6358    1.0000 </r>
       <r>    5.6624    1.0000 </r>
       <r>    6.6340    1.0000 </r>
       <r>   13.3359    0.0000 </r>
       <r>   23.9058    0.0000 </r>
       <r>   24.2752    0.0000 </r>
       <r>   25.9699    0.0000 </r>
       <r>   33.4313    0.0000 </r>
       <r>   33.6118    0.0000 </r>
      </set>
      <set comment="kpoint 56">
       <r>    3.3907    1.0000 </r>
       <r>    3.9139    1.0000 </r>
       <r>    4.3999    1.0000 </r>
       <r>    4.8046    1.0000 </r>
       <r>    5.6094    1.0000 </r>
       <r>    8.5083    0.0000 </r>
       <r>   12.6220    0.0000 </r>
       <r>   19.8200    0.0000 </r>
       <r>   21.1392    0.0000 </r>
       <r>   28.5141    0.0000 </r>
       <r>   31.8517    0.0000 </r>
       <r>   37.3335    0.0000 </r>
      </set>
      <set comment="kpoint 57">
       <r>    3.5356    1.0000 </r>
       <r>    3.8027    1.0000 </r>
       <r>    4.2874    1.0000 </r>
       <r>    5.0236    1.0000 </r>
       <r>    5.7078    1.0000 </r>
       <r>   11.3035    0.0000 </r>
       <r>   12.4706    0.0000 </r>
       <r>   15.6889    0.0000 </r>
       <r>   18.9015    0.0000 </r>
       <r>   28.6431    0.0000 </r>
       <r>   34.1746    0.0000 </r>
       <r>   36.2000    0.0000 </r>
      </set>
      <set comment="kpoint 58">
       <r>    3.4129    1.0000 </r>
       <r>    3.7861    1.0000 </r>
       <r>    4.5238    1.0000 </r>
       <r>    4.8849    1.0000 </r>
       <r>    5.6689    1.0000 </r>
       <r>    9.8141    0.0000 </r>
       <r>   11.7742    0.0000 </r>
       <r>   17.9403    0.0000 </r>
       <r>   22.3987    0.0000 </r>
       <r>   25.2127    0.0000 </r>
       <r>   35.9985    0.0000 </r>
       <r>   36.5441    0.0000 </r>
      </set>
      <set comment="kpoint 59">
       <r>    2.7279    1.0000 </r>
       <r>    4.3658    1.0000 </r>
       <r>    4.3658    1.0000 </r>
       <r>    5.6348    1.0000 </r>
       <r>    5.6348    1.0000 </r>
       <r>    6.2295    1.0000 </r>
       <r>   11.8046    0.0000 </r>
       <r>   26.3604    0.0000 </r>
       <r>   27.0930    0.0000 </r>
       <r>   27.0930    0.0000 </r>
       <r>   30.1051    0.0000 </r>
       <r>   30.1051    0.0000 </r>
      </set>
      <set comment="kpoint 60">
       <r>    3.0181    1.0000 </r>
       <r>    4.1881    1.0000 </r>
       <r>    4.4951    1.0000 </r>
       <r>    4.9795    1.0000 </r>
       <r>    5.6306    1.0000 </r>
       <r>    7.9474    0.0000 </r>
       <r>   11.1629    0.0000 </r>
       <r>   22.4602    0.0000 </r>
       <r>   25.2891    0.0000 </r>
       <r>   26.2024    0.0000 </r>
       <r>   32.2742    0.0000 </r>
       <r>   33.0378    0.0000 </r>
      </set>
     </set>
     <set comment="spin 2">
      <set comment="kpoint 1">
       <r>   -0.4810    1.0000 </r>
       <r>    6.1508    1.0000 </r>
       <r>    6.2157    1.0000 </r>
       <r>    6.2157    1.0000 </r>
       <r>    7.1896    0.0000 </r>
       <r>    7.1896    0.0000 </r>
       <r>   26.6136    0.0000 </r>
       <r>   28.5620    0.0000 </r>
       <r>   29.7083    0.0000 </r>
       <r>   29.7083    0.0000 </r>
       <r>   32.9757    0.0000 </r>
       <r>   32.9757    0.0000 </r>
      </set>
      <set comment="kpoint 2">
       <r>    0.1786    1.0000 </r>
       <r>    5.9696    1.0000 </r>
       <r>    6.3393    1.0000 </r>
       <r>    6.3423    1.0000 </r>
       <r>    7.0682    0.0003 </r>
       <r>    7.2389    0.0000 </r>
       <r>   23.5965    0.0000 </r>
       <r>   25.8774    0.0000 </r>
       <r>   29.0525    0.0000 </r>
       <r>   30.5772    0.0000 </r>
       <r>   32.2459    0.0000 </r>
       <r>   33.2116    0.0000 </r>
      </set>
      <set comment="kpoint 3">
       <r>    1.6909    1.0000 </r>
       <r>    5.7339    1.0000 </r>
       <r>    6.3543    1.0000 </r>
       <r>    6.4228    1.0000 </r>
       <r>    7.1520    0.0000 </r>
       <r>    7.4521    0.0000 </r>
       <r>   18.2541    0.0000 </r>
       <r>   24.9620    0.0000 </r>
       <r>   28.1111    0.0000 </r>
       <r>   29.7727    0.0000 </r>
       <r>   31.2145    0.0000 </r>
       <r>   32.1345    0.0000 </r>
      </set>
      <set comment="kpoint 4">
       <r>    3.3658    1.0000 </r>
       <r>    5.9677    1.0000 </r>
       <r>    6.2237    1.0000 </r>
       <r>    6.3039    1.0000 </r>
       <r>    7.5235    0.0000 </r>
       <r>    7.8394    0.0000 </r>
       <r>   13.7578    0.0000 </r>
       <r>   24.7110    0.0000 </r>
       <r>   26.8661    0.0000 </r>
       <r>   27.8961    0.0000 </r>
       <r>   30.4983    0.0000 </r>
       <r>   31.8348    0.0000 </r>
      </set>
      <set comment="kpoint 5">
       <r>    3.8240    1.0000 </r>
       <r>    6.1336    1.0000 </r>
       <r>    6.2635    1.0000 </r>
       <r>    6.4570    1.0000 </r>
       <r>    7.7307    0.0000 </r>
       <r>    8.0646    0.0000 </r>
       <r>   12.0075    0.0000 </r>
       <r>   25.1145    0.0000 </r>
       <r>   26.4249    0.0000 </r>
       <r>   26.5970    0.0000 </r>
       <r>   31.1371    0.0000 </r>
       <r>   31.2829    0.0000 </r>
      </set>
      <set comment="kpoint 6">
       <r>    2.8836    1.0000 </r>
       <r>    5.7750    1.0000 </r>
       <r>    6.2608    1.0000 </r>
       <r>    6.3516    1.0000 </r>
       <r>    7.5201    0.0000 </r>
       <r>    7.5979    0.0000 </r>
       <r>   15.1018    0.0000 </r>
       <r>   25.7967    0.0000 </r>
       <r>   26.0101    0.0000 </r>
       <r>   27.8345    0.0000 </r>
       <r>   31.2414    0.0000 </r>
       <r>   32.6349    0.0000 </r>
      </set>
      <set comment="kpoint 7">
       <r>    1.1141    1.0000 </r>
       <r>    5.7837    1.0000 </r>
       <r>    6.3947    1.0000 </r>
       <r>    6.4222    1.0000 </r>
       <r>    7.0990    0.0000 </r>
       <r>    7.3278    0.0000 </r>
       <r>   19.9796    0.0000 </r>
       <r>   26.5291    0.0000 </r>
       <r>   26.5807    0.0000 </r>
       <r>   30.2335    0.0000 </r>
       <r>   31.1606    0.0000 </r>
       <r>   34.3412    0.0000 </r>
      </set>
      <set comment="kpoint 8">
       <r>   -0.1479    1.0000 </r>
       <r>    6.0376    1.0000 </r>
       <r>    6.2959    1.0000 </r>
       <r>    6.2994    1.0000 </r>
       <r>    7.0839    0.0001 </r>
       <r>    7.2377    0.0000 </r>
       <r>   25.3522    0.0000 </r>
       <r>   27.4213    0.0000 </r>
       <r>   27.8147    0.0000 </r>
       <r>   29.7490    0.0000 </r>
       <r>   32.9060    0.0000 </r>
       <r>   34.4685    0.0000 </r>
      </set>
      <set comment="kpoint 9">
       <r>    0.5011    1.0000 </r>
       <r>    5.8212    1.0000 </r>
       <r>    6.4525    1.0000 </r>
       <r>    6.4636    1.0000 </r>
       <r>    6.9098    0.8534 </r>
       <r>    7.3262    0.0000 </r>
       <r>   23.8428    0.0000 </r>
       <r>   25.8112    0.0000 </r>
       <r>   26.2856    0.0000 </r>
       <r>   28.2126    0.0000 </r>
       <r>   31.3832    0.0000 </r>
       <r>   35.1789    0.0000 </r>
      </set>
      <set comment="kpoint 10">
       <r>    1.7119    1.0000 </r>
       <r>    5.5579    1.0000 </r>
       <r>    6.3675    1.0000 </r>
       <r>    6.6832    1.0000 </r>
       <r>    6.9967    0.0797 </r>
       <r>    7.5215    0.0000 </r>
       <r>   20.4557    0.0000 </r>
       <r>   22.6941    0.0000 </r>
       <r>   26.1097    0.0000 </r>
       <r>   27.6548    0.0000 </r>
       <r>   30.7337    0.0000 </r>
       <r>   35.0812    0.0000 </r>
      </set>
      <set comment="kpoint 11">
       <r>    3.3835    1.0000 </r>
       <r>    5.4605    1.0000 </r>
       <r>    6.0744    1.0000 </r>
       <r>    6.6275    1.0000 </r>
       <r>    7.5280    0.0000 </r>
       <r>    8.0641    0.0000 </r>
       <r>   15.5385    0.0000 </r>
       <r>   22.2588    0.0000 </r>
       <r>   23.7538    0.0000 </r>
       <r>   27.1971    0.0000 </r>
       <r>   33.0577    0.0000 </r>
       <r>   34.9120    0.0000 </r>
      </set>
      <set comment="kpoint 12">
       <r>    4.2579    1.0000 </r>
       <r>    5.6336    1.0000 </r>
       <r>    6.0753    1.0000 </r>
       <r>    6.5319    1.0000 </r>
       <r>    7.6915    0.0000 </r>
       <r>    9.3116    0.0000 </r>
       <r>   12.1502    0.0000 </r>
       <r>   21.8279    0.0000 </r>
       <r>   22.9811    0.0000 </r>
       <r>   27.1626    0.0000 </r>
       <r>   32.2795    0.0000 </r>
       <r>   35.6147    0.0000 </r>
      </set>
      <set comment="kpoint 13">
       <r>    3.8425    1.0000 </r>
       <r>    5.6146    1.0000 </r>
       <r>    5.9866    1.0000 </r>
       <r>    6.5675    1.0000 </r>
       <r>    7.4424    0.0000 </r>
       <r>    8.5508    0.0000 </r>
       <r>   14.1597    0.0000 </r>
       <r>   20.9861    0.0000 </r>
       <r>   24.4872    0.0000 </r>
       <r>   28.0801    0.0000 </r>
       <r>   31.7672    0.0000 </r>
       <r>   35.0286    0.0000 </r>
      </set>
      <set comment="kpoint 14">
       <r>    2.2645    1.0000 </r>
       <r>    5.5681    1.0000 </r>
       <r>    6.2286    1.0000 </r>
       <r>    6.6892    1.0000 </r>
       <r>    6.9765    0.2018 </r>
       <r>    7.7731    0.0000 </r>
       <r>   18.7493    0.0000 </r>
       <r>   21.0745    0.0000 </r>
       <r>   26.7984    0.0000 </r>
       <r>   29.7721    0.0000 </r>
       <r>   31.3275    0.0000 </r>
       <r>   33.5904    0.0000 </r>
      </set>
      <set comment="kpoint 15">
       <r>    0.8139    1.0000 </r>
       <r>    5.7977    1.0000 </r>
       <r>    6.4008    1.0000 </r>
       <r>    6.4789    1.0000 </r>
       <r>    6.9651    0.3041 </r>
       <r>    7.3524    0.0000 </r>
       <r>   21.9396    0.0000 </r>
       <r>   24.2181    0.0000 </r>
       <r>   28.2277    0.0000 </r>
       <r>   29.7431    0.0000 </r>
       <r>   31.8139    0.0000 </r>
       <r>   33.5945    0.0000 </r>
      </set>
      <set comment="kpoint 16">
       <r>    2.5072    1.0000 </r>
       <r>    5.2544    1.0000 </r>
       <r>    6.4416    1.0000 </r>
       <r>    6.9877    0.1245 </r>
       <r>    7.1499    0.0000 </r>
       <r>    7.5680    0.0000 </r>
       <r>   20.9736    0.0000 </r>
       <r>   22.2959    0.0000 </r>
       <r>   22.6499    0.0000 </r>
       <r>   25.0109    0.0000 </r>
       <r>   27.7008    0.0000 </r>
       <r>   39.9401    0.0000 </r>
      </set>
      <set comment="kpoint 17">
       <r>    3.7197    1.0000 </r>
       <r>    5.0618    1.0000 </r>
       <r>    6.2471    1.0000 </r>
       <r>    7.2194    0.0000 </r>
       <r>    7.5713    0.0000 </r>
       <r>    8.1255    0.0000 </r>
       <r>   18.0889    0.0000 </r>
       <r>   19.8546    0.0000 </r>
       <r>   20.2935    0.0000 </r>
       <r>   25.9932    0.0000 </r>
       <r>   29.0097    0.0000 </r>
       <r>   38.2688    0.0000 </r>
      </set>
      <set comment="kpoint 18">
       <r>    4.6557    1.0000 </r>
       <r>    5.0619    1.0000 </r>
       <r>    6.0001    1.0000 </r>
       <r>    7.0783    0.0001 </r>
       <r>    7.7154    0.0000 </r>
       <r>   10.1645    0.0000 </r>
       <r>   13.8082    0.0000 </r>
       <r>   17.8272    0.0000 </r>
       <r>   20.5944    0.0000 </r>
       <r>   26.2657    0.0000 </r>
       <r>   33.5307    0.0000 </r>
       <r>   36.5755    0.0000 </r>
      </set>
      <set comment="kpoint 19">
       <r>    4.8039    1.0000 </r>
       <r>    5.3218    1.0000 </r>
       <r>    5.6977    1.0000 </r>
       <r>    6.9695    0.2623 </r>
       <r>    7.4454    0.0000 </r>
       <r>   10.4002    0.0000 </r>
       <r>   13.7399    0.0000 </r>
       <r>   16.6608    0.0000 </r>
       <r>   22.0515    0.0000 </r>
       <r>   27.0445    0.0000 </r>
       <r>   34.7702    0.0000 </r>
       <r>   38.6930    0.0000 </r>
      </set>
      <set comment="kpoint 20">
       <r>    3.8290    1.0000 </r>
       <r>    5.4895    1.0000 </r>
       <r>    5.8551    1.0000 </r>
       <r>    6.8137    0.9999 </r>
       <r>    7.1807    0.0000 </r>
       <r>    8.6391    0.0000 </r>
       <r>   16.0241    0.0000 </r>
       <r>   18.4917    0.0000 </r>
       <r>   24.2767    0.0000 </r>
       <r>   28.5250    0.0000 </r>
       <r>   32.4025    0.0000 </r>
       <r>   36.0060    0.0000 </r>
      </set>
      <set comment="kpoint 21">
       <r>    2.4865    1.0000 </r>
       <r>    5.6271    1.0000 </r>
       <r>    6.2521    1.0000 </r>
       <r>    6.4813    1.0000 </r>
       <r>    7.2639    0.0000 </r>
       <r>    7.6933    0.0000 </r>
       <r>   16.7764    0.0000 </r>
       <r>   23.5216    0.0000 </r>
       <r>   26.6628    0.0000 </r>
       <r>   28.3479    0.0000 </r>
       <r>   31.9992    0.0000 </r>
       <r>   33.1221    0.0000 </r>
      </set>
      <set comment="kpoint 22">
       <r>    4.0330    1.0000 </r>
       <r>    4.7996    1.0000 </r>
       <r>    7.1349    0.0000 </r>
       <r>    7.5579    0.0000 </r>
       <r>    7.7699    0.0000 </r>
       <r>    8.2152    0.0000 </r>
       <r>   16.9646    0.0000 </r>
       <r>   18.9447    0.0000 </r>
       <r>   19.9705    0.0000 </r>
       <r>   24.2426    0.0000 </r>
       <r>   26.6528    0.0000 </r>
       <r>   43.0408    0.0000 </r>
      </set>
      <set comment="kpoint 23">
       <r>    4.3585    1.0000 </r>
       <r>    4.7889    1.0000 </r>
       <r>    6.8557    0.9951 </r>
       <r>    7.5931    0.0000 </r>
       <r>    7.7896    0.0000 </r>
       <r>   10.0362    0.0000 </r>
       <r>   15.1760    0.0000 </r>
       <r>   16.8791    0.0000 </r>
       <r>   18.9580    0.0000 </r>
       <r>   25.4358    0.0000 </r>
       <r>   28.4300    0.0000 </r>
       <r>   41.0393    0.0000 </r>
      </set>
      <set comment="kpoint 24">
       <r>    4.7978    1.0000 </r>
       <r>    4.9678    1.0000 </r>
       <r>    6.1165    1.0000 </r>
       <r>    7.2573    0.0000 </r>
       <r>    7.6661    0.0000 </r>
       <r>   11.6718    0.0000 </r>
       <r>   13.3646    0.0000 </r>
       <r>   15.6373    0.0000 </r>
       <r>   20.2179    0.0000 </r>
       <r>   26.1186    0.0000 </r>
       <r>   33.4407    0.0000 </r>
       <r>   37.7192    0.0000 </r>
      </set>
      <set comment="kpoint 25">
       <r>    4.6055    1.0000 </r>
       <r>    5.3865    1.0000 </r>
       <r>    5.8973    1.0000 </r>
       <r>    6.7531    1.0000 </r>
       <r>    7.5977    0.0000 </r>
       <r>   10.2072    0.0000 </r>
       <r>   12.3628    0.0000 </r>
       <r>   19.0738    0.0000 </r>
       <r>   22.3480    0.0000 </r>
       <r>   27.0804    0.0000 </r>
       <r>   33.5147    0.0000 </r>
       <r>   37.4912    0.0000 </r>
      </set>
      <set comment="kpoint 26">
       <r>    3.8386    1.0000 </r>
       <r>    5.9146    1.0000 </r>
       <r>    6.1692    1.0000 </r>
       <r>    6.3717    1.0000 </r>
       <r>    7.6533    0.0000 </r>
       <r>    8.3375    0.0000 </r>
       <r>   12.7533    0.0000 </r>
       <r>   23.6151    0.0000 </r>
       <r>   24.9646    0.0000 </r>
       <r>   27.3045    0.0000 </r>
       <r>   31.3562    0.0000 </r>
       <r>   33.3427    0.0000 </r>
      </set>
      <set comment="kpoint 27">
       <r>    4.1814    1.0000 </r>
       <r>    4.6960    1.0000 </r>
       <r>    7.4868    0.0000 </r>
       <r>    7.7236    0.0000 </r>
       <r>    7.8084    0.0000 </r>
       <r>    9.1377    0.0000 </r>
       <r>   15.0604    0.0000 </r>
       <r>   18.4710    0.0000 </r>
       <r>   19.4551    0.0000 </r>
       <r>   24.1102    0.0000 </r>
       <r>   26.5058    0.0000 </r>
       <r>   43.8004    0.0000 </r>
      </set>
      <set comment="kpoint 28">
       <r>    4.2290    1.0000 </r>
       <r>    4.8836    1.0000 </r>
       <r>    6.5548    1.0000 </r>
       <r>    7.4693    0.0000 </r>
       <r>    7.7217    0.0000 </r>
       <r>    8.9726    0.0000 </r>
       <r>   17.1422    0.0000 </r>
       <r>   17.3280    0.0000 </r>
       <r>   19.4028    0.0000 </r>
       <r>   25.6137    0.0000 </r>
       <r>   28.6090    0.0000 </r>
       <r>   39.8026    0.0000 </r>
      </set>
      <set comment="kpoint 29">
       <r>    4.1796    1.0000 </r>
       <r>    5.2528    1.0000 </r>
       <r>    5.9568    1.0000 </r>
       <r>    6.8425    0.9984 </r>
       <r>    7.6947    0.0000 </r>
       <r>    8.8625    0.0000 </r>
       <r>   14.5410    0.0000 </r>
       <r>   20.5845    0.0000 </r>
       <r>   21.3595    0.0000 </r>
       <r>   26.5968    0.0000 </r>
       <r>   33.5557    0.0000 </r>
       <r>   35.4954    0.0000 </r>
      </set>
      <set comment="kpoint 30">
       <r>    3.4961    1.0000 </r>
       <r>    4.9939    1.0000 </r>
       <r>    6.6033    1.0000 </r>
       <r>    7.2917    0.0000 </r>
       <r>    7.5646    0.0000 </r>
       <r>    7.6838    0.0000 </r>
       <r>   19.5976    0.0000 </r>
       <r>   19.8799    0.0000 </r>
       <r>   20.9448    0.0000 </r>
       <r>   24.5245    0.0000 </r>
       <r>   27.0077    0.0000 </r>
       <r>   41.7396    0.0000 </r>
      </set>
      <set comment="kpoint 31">
       <r>    2.7650    1.0000 </r>
       <r>    5.2983    1.0000 </r>
       <r>    6.2323    1.0000 </r>
       <r>    6.9363    0.6188 </r>
       <r>    7.2666    0.0000 </r>
       <r>    7.7325    0.0000 </r>
       <r>   19.1618    0.0000 </r>
       <r>   21.3309    0.0000 </r>
       <r>   23.0173    0.0000 </r>
       <r>   26.6268    0.0000 </r>
       <r>   29.6991    0.0000 </r>
       <r>   36.7148    0.0000 </r>
      </set>
      <set comment="kpoint 32">
       <r>    1.4218    1.0000 </r>
       <r>    5.5448    1.0000 </r>
       <r>    6.5320    1.0000 </r>
       <r>    6.6995    1.0000 </r>
       <r>    6.8658    0.9891 </r>
       <r>    7.4423    0.0000 </r>
       <r>   22.3524    0.0000 </r>
       <r>   23.9427    0.0000 </r>
       <r>   25.1411    0.0000 </r>
       <r>   26.1326    0.0000 </r>
       <r>   29.0112    0.0000 </r>
       <r>   37.5147    0.0000 </r>
      </set>
      <set comment="kpoint 33">
       <r>    0.4969    1.0000 </r>
       <r>    5.9174    1.0000 </r>
       <r>    6.3605    1.0000 </r>
       <r>    6.3605    1.0000 </r>
       <r>    7.1671    0.0000 </r>
       <r>    7.1671    0.0000 </r>
       <r>   21.6910    0.0000 </r>
       <r>   27.5384    0.0000 </r>
       <r>   28.5628    0.0000 </r>
       <r>   28.5628    0.0000 </r>
       <r>   33.4852    0.0000 </r>
       <r>   34.0551    0.0000 </r>
      </set>
      <set comment="kpoint 34">
       <r>    1.4188    1.0000 </r>
       <r>    5.7166    1.0000 </r>
       <r>    6.3451    1.0000 </r>
       <r>    6.5532    1.0000 </r>
       <r>    6.9337    0.6466 </r>
       <r>    7.5141    0.0000 </r>
       <r>   20.2345    0.0000 </r>
       <r>   22.5426    0.0000 </r>
       <r>   29.3186    0.0000 </r>
       <r>   30.8375    0.0000 </r>
       <r>   31.0268    0.0000 </r>
       <r>   32.1070    0.0000 </r>
      </set>
      <set comment="kpoint 35">
       <r>    3.0127    1.0000 </r>
       <r>    5.5506    1.0000 </r>
       <r>    6.0825    1.0000 </r>
       <r>    6.7061    1.0000 </r>
       <r>    7.0031    0.0563 </r>
       <r>    8.1335    0.0000 </r>
       <r>   17.2726    0.0000 </r>
       <r>   19.6537    0.0000 </r>
       <r>   27.5392    0.0000 </r>
       <r>   27.5745    0.0000 </r>
       <r>   32.7563    0.0000 </r>
       <r>   33.8424    0.0000 </r>
      </set>
      <set comment="kpoint 36">
       <r>    4.2595    1.0000 </r>
       <r>    5.6159    1.0000 </r>
       <r>    5.9369    1.0000 </r>
       <r>    6.6022    1.0000 </r>
       <r>    7.4877    0.0000 </r>
       <r>    9.2260    0.0000 </r>
       <r>   13.0812    0.0000 </r>
       <r>   19.8940    0.0000 </r>
       <r>   24.9748    0.0000 </r>
       <r>   26.0890    0.0000 </r>
       <r>   34.0739    0.0000 </r>
       <r>   34.3816    0.0000 </r>
      </set>
      <set comment="kpoint 37">
       <r>    4.2408    1.0000 </r>
       <r>    5.4305    1.0000 </r>
       <r>    6.0262    1.0000 </r>
       <r>    6.6377    1.0000 </r>
       <r>    7.7518    0.0000 </r>
       <r>    9.0849    0.0000 </r>
       <r>   13.0348    0.0000 </r>
       <r>   21.1034    0.0000 </r>
       <r>   23.4150    0.0000 </r>
       <r>   25.5350    0.0000 </r>
       <r>   35.1189    0.0000 </r>
       <r>   35.1291    0.0000 </r>
      </set>
      <set comment="kpoint 38">
       <r>    2.9890    1.0000 </r>
       <r>    5.3474    1.0000 </r>
       <r>    6.1686    1.0000 </r>
       <r>    6.7390    1.0000 </r>
       <r>    7.6337    0.0000 </r>
       <r>    7.6622    0.0000 </r>
       <r>   17.2166    0.0000 </r>
       <r>   23.0879    0.0000 </r>
       <r>   23.1011    0.0000 </r>
       <r>   25.6938    0.0000 </r>
       <r>   31.9758    0.0000 </r>
       <r>   36.3850    0.0000 </r>
      </set>
      <set comment="kpoint 39">
       <r>    1.9814    1.0000 </r>
       <r>    5.5813    1.0000 </r>
       <r>    6.3252    1.0000 </r>
       <r>    6.5476    1.0000 </r>
       <r>    7.2223    0.0000 </r>
       <r>    7.5060    0.0000 </r>
       <r>   18.4886    0.0000 </r>
       <r>   24.6803    0.0000 </r>
       <r>   25.4014    0.0000 </r>
       <r>   27.3539    0.0000 </r>
       <r>   32.5980    0.0000 </r>
       <r>   34.2316    0.0000 </r>
      </set>
      <set comment="kpoint 40">
       <r>    3.2385    1.0000 </r>
       <r>    5.3821    1.0000 </r>
       <r>    6.0257    1.0000 </r>
       <r>    6.8866    0.9562 </r>
       <r>    7.2029    0.0000 </r>
       <r>    8.1302    0.0000 </r>
       <r>   17.4853    0.0000 </r>
       <r>   19.8344    0.0000 </r>
       <r>   23.5301    0.0000 </r>
       <r>   29.0130    0.0000 </r>
       <r>   31.3984    0.0000 </r>
       <r>   34.3069    0.0000 </r>
      </set>
      <set comment="kpoint 41">
       <r>    4.5269    1.0000 </r>
       <r>    5.3769    1.0000 </r>
       <r>    5.6392    1.0000 </r>
       <r>    6.9957    0.0843 </r>
       <r>    7.4192    0.0000 </r>
       <r>    9.4873    0.0000 </r>
       <r>   15.0067    0.0000 </r>
       <r>   17.6104    0.0000 </r>
       <r>   21.1442    0.0000 </r>
       <r>   29.6708    0.0000 </r>
       <r>   31.8436    0.0000 </r>
       <r>   35.8850    0.0000 </r>
      </set>
      <set comment="kpoint 42">
       <r>    4.8743    1.0000 </r>
       <r>    5.1749    1.0000 </r>
       <r>    5.7747    1.0000 </r>
       <r>    6.9544    0.4167 </r>
       <r>    7.6480    0.0000 </r>
       <r>   10.9047    0.0000 </r>
       <r>   12.6366    0.0000 </r>
       <r>   18.5326    0.0000 </r>
       <r>   19.5268    0.0000 </r>
       <r>   28.7048    0.0000 </r>
       <r>   32.8957    0.0000 </r>
       <r>   37.0974    0.0000 </r>
      </set>
      <set comment="kpoint 43">
       <r>    4.1083    1.0000 </r>
       <r>    5.1976    1.0000 </r>
       <r>    5.8937    1.0000 </r>
       <r>    7.1286    0.0000 </r>
       <r>    7.4652    0.0000 </r>
       <r>    8.7587    0.0000 </r>
       <r>   16.4557    0.0000 </r>
       <r>   18.8447    0.0000 </r>
       <r>   20.4163    0.0000 </r>
       <r>   28.3986    0.0000 </r>
       <r>   31.2883    0.0000 </r>
       <r>   35.1494    0.0000 </r>
      </set>
      <set comment="kpoint 44">
       <r>    3.8984    1.0000 </r>
       <r>    5.1207    1.0000 </r>
       <r>    6.1240    1.0000 </r>
       <r>    6.9796    0.1778 </r>
       <r>    7.7624    0.0000 </r>
       <r>    8.3517    0.0000 </r>
       <r>   16.1763    0.0000 </r>
       <r>   20.1324    0.0000 </r>
       <r>   21.8121    0.0000 </r>
       <r>   25.1287    0.0000 </r>
       <r>   31.3135    0.0000 </r>
       <r>   38.2355    0.0000 </r>
      </set>
      <set comment="kpoint 45">
       <r>    4.5624    1.0000 </r>
       <r>    5.0523    1.0000 </r>
       <r>    6.0076    1.0000 </r>
       <r>    7.3075    0.0000 </r>
       <r>    7.6588    0.0000 </r>
       <r>    9.8607    0.0000 </r>
       <r>   15.7016    0.0000 </r>
       <r>   17.5861    0.0000 </r>
       <r>   18.1726    0.0000 </r>
       <r>   27.9884    0.0000 </r>
       <r>   31.1493    0.0000 </r>
       <r>   36.3290    0.0000 </r>
      </set>
      <set comment="kpoint 46">
       <r>    4.9138    1.0000 </r>
       <r>    5.2633    1.0000 </r>
       <r>    5.6882    1.0000 </r>
       <r>    7.1375    0.0000 </r>
       <r>    7.7802    0.0000 </r>
       <r>   12.4450    0.0000 </r>
       <r>   13.8310    0.0000 </r>
       <r>   15.9411    0.0000 </r>
       <r>   16.7339    0.0000 </r>
       <r>   30.5679    0.0000 </r>
       <r>   33.2891    0.0000 </r>
       <r>   34.6215    0.0000 </r>
      </set>
      <set comment="kpoint 47">
       <r>    4.8979    1.0000 </r>
       <r>    5.2691    1.0000 </r>
       <r>    5.5920    1.0000 </r>
       <r>    7.1150    0.0000 </r>
       <r>    7.6369    0.0000 </r>
       <r>   10.8313    0.0000 </r>
       <r>   14.2547    0.0000 </r>
       <r>   17.0193    0.0000 </r>
       <r>   18.2838    0.0000 </r>
       <r>   30.5000    0.0000 </r>
       <r>   32.0410    0.0000 </r>
       <r>   35.3545    0.0000 </r>
      </set>
      <set comment="kpoint 48">
[...]
       </set>
       <set comment="band 5">
        <r>  0.0001  0.0000  0.0002  0.0003  0.0025  0.0308  0.0002  0.9461  0.0087 </r>
       </set>
       <set comment="band 6">
        <r>  0.0305  0.0048  0.3431  0.0006  0.0001  0.2623  0.0336  0.0127  0.0012 </r>
       </set>
       <set comment="band 7">
        <r>  0.0032  0.1035  0.0071  0.2343  0.1286  0.0050  0.1286  0.0034  0.0121 </r>
       </set>
       <set comment="band 8">
        <r>  0.3841  0.0049  0.0399  0.0358  0.0345  0.0049  0.1949  0.0000  0.0006 </r>
       </set>
       <set comment="band 9">
        <r>  0.1498  0.1645  0.0008  0.1469  0.0499  0.0013  0.0306  0.0010  0.0560 </r>
       </set>
       <set comment="band 10">
        <r>  0.0313  0.0435  0.0006  0.0634  0.3820  0.0000  0.0236  0.0005  0.0035 </r>
       </set>
       <set comment="band 11">
        <r>  0.1298  0.2197  0.0030  0.0213  0.0775  0.0001  0.1281  0.0002  0.0049 </r>
       </set>
       <set comment="band 12">
        <r>  0.0127  0.0057  0.0332  0.0002  0.0001  0.2769  0.0117  0.0013  0.0286 </r>
       </set>
      </set>
      <set comment="kpoint 50">
       <set comment="band 1">
        <r>  0.0773  0.0058  0.0435  0.0058  0.0514  0.0138  0.5355  0.0138  0.0000 </r>
       </set>
       <set comment="band 2">
        <r>  0.0002  0.0152  0.0003  0.0152  0.7639  0.0070  0.0532  0.0070  0.0000 </r>
       </set>
       <set comment="band 3">
        <r>  0.0245  0.0000  0.0981  0.0000  0.0369  0.2810  0.1243  0.2810  0.0000 </r>
       </set>
       <set comment="band 4">
        <r>  0.0000  0.0027  0.0000  0.0027  0.0000  0.1991  0.0000  0.1991  0.5627 </r>
       </set>
       <set comment="band 5">
        <r>  0.0000  0.0000  0.0000  0.0000  0.0000  0.2908  0.0000  0.2908  0.4073 </r>
       </set>
       <set comment="band 6">
        <r>  0.0731  0.0086  0.1836  0.0086  0.0030  0.1844  0.1398  0.1844  0.0000 </r>
       </set>
       <set comment="band 7">
        <r>  0.1337  0.1495  0.0010  0.1495  0.1335  0.0179  0.0284  0.0179  0.0000 </r>
       </set>
       <set comment="band 8">
        <r>  0.2046  0.0058  0.1608  0.0058  0.0020  0.0069  0.2582  0.0069  0.0000 </r>
       </set>
       <set comment="band 9">
        <r>  0.0000  0.2492  0.0000  0.2492  0.0000  0.0124  0.0000  0.0124  0.0474 </r>
       </set>
       <set comment="band 10">
        <r>  0.1361  0.0026  0.0148  0.0026  0.3655  0.0000  0.0555  0.0000  0.0000 </r>
       </set>
       <set comment="band 11">
        <r>  0.1202  0.0928  0.0190  0.0928  0.1610  0.0031  0.0911  0.0031  0.0000 </r>
       </set>
       <set comment="band 12">
        <r>  0.0000  0.0259  0.0000  0.0259  0.0000  0.0859  0.0000  0.0858  0.1890 </r>
       </set>
      </set>
      <set comment="kpoint 51">
       <set comment="band 1">
        <r>  0.3632  0.0349  0.0349  0.0349  0.0321  0.0321  0.0000  0.0321  0.0000 </r>
       </set>
       <set comment="band 2">
        <r>  0.0087  0.0277  0.0277  0.0277  0.2488  0.2488  0.0000  0.2488  0.0000 </r>
       </set>
       <set comment="band 3">
        <r>  0.0000  0.0001  0.0002  0.0004  0.1612  0.3352  0.1594  0.0744  0.2169 </r>
       </set>
       <set comment="band 4">
        <r>  0.0000  0.0003  0.0002  0.0000  0.2193  0.0453  0.2169  0.3062  0.1594 </r>
       </set>
       <set comment="band 5">
        <r>  0.0000  0.0003  0.0006  0.0001  0.2515  0.0327  0.5658  0.1058  0.0192 </r>
       </set>
       <set comment="band 6">
        <r>  0.0000  0.0004  0.0000  0.0005  0.0085  0.2273  0.0192  0.1542  0.5658 </r>
       </set>
       <set comment="band 7">
        <r>  0.1606  0.0751  0.0751  0.0751  0.0913  0.0913  0.0000  0.0913  0.0000 </r>
       </set>
       <set comment="band 8">
        <r>  0.0141  0.0018  0.0018  0.0018  0.0150  0.0150  0.0000  0.0150  0.0000 </r>
       </set>
       <set comment="band 9">
        <r>  0.0000  0.0990  0.2177  0.1174  0.0968  0.0522  0.0236  0.0440  0.0078 </r>
       </set>
       <set comment="band 10">
        <r>  0.0000  0.1904  0.0717  0.1720  0.0319  0.0765  0.0078  0.0847  0.0236 </r>
       </set>
       <set comment="band 11">
        <r>  0.0000  0.0700  0.0211  0.0226  0.0095  0.0102  0.1235  0.0317  0.3206 </r>
       </set>
       <set comment="band 12">
        <r>  0.0000  0.0058  0.0547  0.0532  0.0247  0.0241  0.3206  0.0026  0.1235 </r>
       </set>
      </set>
      <set comment="kpoint 52">
       <set comment="band 1">
        <r>  0.2821  0.0573  0.0573  0.0046  0.0407  0.1118  0.0027  0.0407  0.0081 </r>
       </set>
       <set comment="band 2">
        <r>  0.0073  0.0280  0.0280  0.0460  0.3233  0.0191  0.0103  0.3233  0.0309 </r>
       </set>
       <set comment="band 3">
        <r>  0.0002  0.0023  0.0023  0.0006  0.0485  0.3546  0.1177  0.0485  0.3532 </r>
       </set>
       <set comment="band 4">
        <r>  0.0000  0.0003  0.0003  0.0000  0.2115  0.0000  0.3936  0.2115  0.1312 </r>
       </set>
       <set comment="band 5">
        <r>  0.0000  0.0006  0.0006  0.0000  0.2719  0.0000  0.3203  0.2719  0.1068 </r>
       </set>
       <set comment="band 6">
        <r>  0.0257  0.0130  0.0130  0.0034  0.0056  0.4555  0.1074  0.0056  0.3221 </r>
       </set>
       <set comment="band 7">
        <r>  0.1829  0.0438  0.0438  0.1267  0.1051  0.0610  0.0030  0.1051  0.0089 </r>
       </set>
       <set comment="band 8">
        <r>  0.0589  0.0430  0.0430  0.1849  0.0575  0.0379  0.0179  0.0575  0.0537 </r>
       </set>
       <set comment="band 9">
        <r>  0.0274  0.0756  0.0756  0.0442  0.0000  0.0045  0.0092  0.0000  0.0276 </r>
       </set>
       <set comment="band 10">
        <r>  0.0000  0.2118  0.2118  0.0000  0.0001  0.0000  0.1737  0.0001  0.0579 </r>
       </set>
       <set comment="band 11">
        <r>  0.0000  0.0640  0.0640  0.0000  0.1571  0.0000  0.1690  0.1571  0.0563 </r>
       </set>
       <set comment="band 12">
        <r>  0.0628  0.0052  0.0052  0.0312  0.0177  0.1223  0.0375  0.0177  0.1124 </r>
       </set>
      </set>
      <set comment="kpoint 53">
       <set comment="band 1">
        <r>  0.1396  0.0665  0.0665  0.0003  0.0176  0.3467  0.0087  0.0176  0.0261 </r>
       </set>
       <set comment="band 2">
        <r>  0.0000  0.0164  0.0164  0.0381  0.1995  0.0392  0.0813  0.1995  0.2440 </r>
       </set>
       <set comment="band 3">
        <r>  0.0019  0.0012  0.0012  0.0234  0.1835  0.1722  0.0802  0.1835  0.2406 </r>
       </set>
       <set comment="band 4">
        <r>  0.0000  0.0021  0.0021  0.0000  0.0620  0.0000  0.6174  0.0620  0.2058 </r>
       </set>
       <set comment="band 5">
        <r>  0.0000  0.0002  0.0002  0.0000  0.4250  0.0000  0.0927  0.4250  0.0309 </r>
       </set>
       <set comment="band 6">
        <r>  0.1056  0.0501  0.0501  0.0029  0.0000  0.4090  0.0571  0.0000  0.1712 </r>
       </set>
       <set comment="band 7">
        <r>  0.1071  0.0132  0.0132  0.2580  0.1234  0.0170  0.0069  0.1234  0.0208 </r>
       </set>
       <set comment="band 8">
        <r>  0.2078  0.0476  0.0476  0.1087  0.0300  0.0293  0.0310  0.0300  0.0929 </r>
       </set>
       <set comment="band 9">
        <r>  0.0000  0.2176  0.2176  0.0000  0.0005  0.0000  0.1524  0.0005  0.0508 </r>
       </set>
       <set comment="band 10">
        <r>  0.0927  0.0499  0.0499  0.0030  0.0000  0.1162  0.0221  0.0000  0.0663 </r>
       </set>
       <set comment="band 11">
        <r>  0.0104  0.0005  0.0005  0.0889  0.0469  0.0260  0.0043  0.0469  0.0128 </r>
       </set>
       <set comment="band 12">
        <r>  0.0000  0.0220  0.0220  0.0000  0.2252  0.0000  0.0530  0.2252  0.0177 </r>
       </set>
      </set>
      <set comment="kpoint 54">
       <set comment="band 1">
        <r>  0.0404  0.0213  0.0213  0.0024  0.0143  0.7129  0.0023  0.0143  0.0069 </r>
       </set>
       <set comment="band 2">
        <r>  0.0029  0.0300  0.0300  0.0031  0.0009  0.0005  0.1814  0.0009  0.5441 </r>
       </set>
       <set comment="band 3">
        <r>  0.0008  0.0006  0.0006  0.0889  0.3594  0.0342  0.0025  0.3594  0.0076 </r>
       </set>
       <set comment="band 4">
        <r>  0.0000  0.0030  0.0030  0.0000  0.0504  0.0000  0.6386  0.0504  0.2129 </r>
       </set>
       <set comment="band 5">
        <r>  0.0000  0.0001  0.0001  0.0000  0.4403  0.0000  0.0759  0.4403  0.0253 </r>
       </set>
       <set comment="band 6">
        <r>  0.0906  0.1111  0.1111  0.0374  0.0070  0.2077  0.0310  0.0070  0.0929 </r>
       </set>
       <set comment="band 7">
        <r>  0.1182  0.0014  0.0014  0.2777  0.1345  0.0306  0.0019  0.1345  0.0057 </r>
       </set>
       <set comment="band 8">
        <r>  0.2966  0.0255  0.0255  0.0665  0.0109  0.0119  0.0547  0.0109  0.1640 </r>
       </set>
       <set comment="band 9">
        <r>  0.0000  0.2382  0.2382  0.0000  0.0010  0.0000  0.0915  0.0010  0.0305 </r>
       </set>
       <set comment="band 10">
        <r>  0.1293  0.0219  0.0219  0.0021  0.0000  0.2444  0.0209  0.0000  0.0628 </r>
       </set>
       <set comment="band 11">
        <r>  0.0527  0.0989  0.0989  0.0043  0.0000  0.2445  0.0192  0.0000  0.0577 </r>
       </set>
       <set comment="band 12">
        <r>  0.0000  0.0102  0.0102  0.0000  0.1834  0.0000  0.0376  0.1825  0.0126 </r>
       </set>
      </set>
      <set comment="kpoint 55">
       <set comment="band 1">
        <r>  0.2221  0.0095  0.0666  0.0095  0.1069  0.1150  0.0252  0.1150  0.0000 </r>
       </set>
       <set comment="band 2">
        <r>  0.0082  0.0534  0.0397  0.0534  0.3231  0.0439  0.1986  0.0439  0.0000 </r>
       </set>
       <set comment="band 3">
        <r>  0.0046  0.0012  0.0077  0.0012  0.3506  0.0836  0.3931  0.0836  0.0000 </r>
       </set>
       <set comment="band 4">
        <r>  0.0000  0.0015  0.0000  0.0015  0.0000  0.2357  0.0000  0.2357  0.4723 </r>
       </set>
       <set comment="band 5">
        <r>  0.0000  0.0001  0.0000  0.0001  0.0000  0.2484  0.0000  0.2484  0.4900 </r>
       </set>
       <set comment="band 6">
        <r>  0.0285  0.0173  0.0419  0.0173  0.0842  0.1944  0.3225  0.1944  0.0000 </r>
       </set>
       <set comment="band 7">
        <r>  0.2352  0.0749  0.0169  0.0749  0.1397  0.0813  0.0073  0.0813  0.0000 </r>
       </set>
       <set comment="band 8">
        <r>  0.0159  0.0033  0.1464  0.0033  0.0268  0.0091  0.2047  0.0091  0.0000 </r>
       </set>
       <set comment="band 9">
        <r>  0.0000  0.2291  0.0000  0.2291  0.0000  0.0442  0.0000  0.0442  0.0736 </r>
       </set>
       <set comment="band 10">
        <r>  0.1025  0.0408  0.1791  0.0408  0.1330  0.0025  0.0001  0.0025  0.0000 </r>
       </set>
       <set comment="band 11">
        <r>  0.0132  0.0011  0.0100  0.0011  0.1642  0.0104  0.2585  0.0104  0.0000 </r>
       </set>
       <set comment="band 12">
        <r>  0.0000  0.0577  0.0000  0.0577  0.0000  0.0616  0.0000  0.0616  0.3643 </r>
       </set>
      </set>
      <set comment="kpoint 56">
       <set comment="band 1">
        <r>  0.1185  0.0138  0.0587  0.0019  0.1744  0.2433  0.0540  0.0846  0.0019 </r>
       </set>
       <set comment="band 2">
        <r>  0.0003  0.0475  0.0213  0.0410  0.1770  0.0094  0.3659  0.0315  0.0883 </r>
       </set>
       <set comment="band 3">
        <r>  0.0051  0.0008  0.0173  0.0158  0.3534  0.3075  0.1359  0.0031  0.0565 </r>
       </set>
       <set comment="band 4">
        <r>  0.0000  0.0007  0.0058  0.0014  0.0360  0.0146  0.1379  0.2718  0.4803 </r>
       </set>
       <set comment="band 5">
        <r>  0.0004  0.0002  0.0015  0.0008  0.0811  0.0610  0.0713  0.5106  0.2534 </r>
       </set>
       <set comment="band 6">
        <r>  0.0675  0.0430  0.1006  0.0267  0.0142  0.3113  0.1594  0.0166  0.0633 </r>
       </set>
       <set comment="band 7">
        <r>  0.2372  0.0345  0.0020  0.1326  0.1624  0.0484  0.0120  0.0786  0.0119 </r>
       </set>
       <set comment="band 8">
        <r>  0.0720  0.0865  0.0033  0.1913  0.0579  0.0206  0.0521  0.0189  0.0778 </r>
       </set>
       <set comment="band 9">
        <r>  0.1155  0.0200  0.2456  0.0231  0.0002  0.0274  0.1548  0.0113  0.0025 </r>
       </set>
       <set comment="band 10">
        <r>  0.0041  0.2431  0.0327  0.0288  0.0714  0.0056  0.0038  0.0016  0.0011 </r>
       </set>
       <set comment="band 11">
        <r>  0.0537  0.0192  0.0008  0.0052  0.1685  0.1146  0.0464  0.0194  0.1648 </r>
       </set>
       <set comment="band 12">
        <r>  0.0501  0.1230  0.0407  0.0553  0.0688  0.0204  0.1881  0.0013  0.0289 </r>
       </set>
      </set>
      <set comment="kpoint 57">
       <set comment="band 1">
        <r>  0.0024  0.0474  0.0366  0.0006  0.0011  0.1245  0.3516  0.0010  0.2172 </r>
       </set>
       <set comment="band 2">
        <r>  0.0286  0.0005  0.0222  0.0069  0.0416  0.5670  0.0734  0.0126  0.1009 </r>
       </set>
       <set comment="band 3">
        <r>  0.0004  0.0003  0.0028  0.0722  0.6528  0.0568  0.0089  0.0612  0.0035 </r>
       </set>
       <set comment="band 4">
        <r>  0.0056  0.0005  0.0038  0.0008  0.0008  0.0035  0.3831  0.0351  0.5205 </r>
       </set>
       <set comment="band 5">
        <r>  0.0006  0.0000  0.0000  0.0013  0.1089  0.0063  0.0143  0.8337  0.0189 </r>
       </set>
       <set comment="band 6">
        <r>  0.0854  0.0700  0.1736  0.0277  0.0107  0.2075  0.0833  0.0000  0.0367 </r>
       </set>
       <set comment="band 7">
        <r>  0.1124  0.0016  0.0050  0.2873  0.1990  0.0231  0.0026  0.0534  0.0107 </r>
       </set>
       <set comment="band 8">
        <r>  0.2722  0.0630  0.0059  0.0748  0.0214  0.0088  0.0613  0.0045  0.1437 </r>
       </set>
       <set comment="band 9">
        <r>  0.1214  0.0857  0.2109  0.0009  0.0005  0.0522  0.1378  0.0011  0.0000 </r>
       </set>
       <set comment="band 10">
        <r>  0.0351  0.1582  0.0318  0.0018  0.0001  0.1948  0.0000  0.0002  0.0634 </r>
       </set>
       <set comment="band 11">
        <r>  0.0047  0.0328  0.0008  0.0474  0.2829  0.0345  0.0173  0.0079  0.0110 </r>
       </set>
       <set comment="band 12">
        <r>  0.0198  0.2132  0.0278  0.0023  0.0460  0.1882  0.0307  0.0002  0.0424 </r>
       </set>
      </set>
      <set comment="kpoint 58">
       <set comment="band 1">
        <r>  0.0735  0.0025  0.0270  0.0025  0.4442  0.0943  0.0796  0.0943  0.0000 </r>
       </set>
       <set comment="band 2">
        <r>  0.0004  0.0460  0.0125  0.0460  0.0989  0.0011  0.5659  0.0011  0.0000 </r>
       </set>
       <set comment="band 3">
        <r>  0.0052  0.0035  0.0620  0.0035  0.2252  0.2454  0.0803  0.2454  0.0000 </r>
       </set>
       <set comment="band 4">
        <r>  0.0000  0.0026  0.0000  0.0026  0.0000  0.1583  0.0000  0.1583  0.6326 </r>
       </set>
       <set comment="band 5">
        <r>  0.0000  0.0001  0.0000  0.0001  0.0000  0.3309  0.0000  0.3309  0.3230 </r>
       </set>
       <set comment="band 6">
        <r>  0.0149  0.0609  0.1628  0.0609  0.0488  0.0951  0.1858  0.0951  0.0000 </r>
       </set>
       <set comment="band 7">
        <r>  0.2950  0.0520  0.0153  0.0520  0.1770  0.0710  0.0066  0.0710  0.0000 </r>
       </set>
       <set comment="band 8">
        <r>  0.1567  0.0203  0.1816  0.0203  0.0066  0.0213  0.1915  0.0213  0.0000 </r>
       </set>
       <set comment="band 9">
        <r>  0.0000  0.2368  0.0000  0.2368  0.0000  0.0087  0.0000  0.0087  0.1119 </r>
       </set>
       <set comment="band 10">
        <r>  0.1225  0.0242  0.0198  0.0242  0.2262  0.0000  0.0647  0.0000  0.0000 </r>
       </set>
       <set comment="band 11">
        <r>  0.0065  0.0871  0.0289  0.0871  0.2828  0.0013  0.0041  0.0013  0.0000 </r>
       </set>
       <set comment="band 12">
        <r>  0.0000  0.0385  0.0000  0.0385  0.0000  0.1270  0.0000  0.1270  0.2043 </r>
       </set>
      </set>
      <set comment="kpoint 59">
       <set comment="band 1">
        <r>  0.2005  0.0093  0.0093  0.0093  0.1672  0.1672  0.0000  0.1672  0.0000 </r>
       </set>
       <set comment="band 2">
        <r>  0.0000  0.0000  0.0000  0.0000  0.1726  0.0643  0.3045  0.1962  0.2049 </r>
       </set>
       <set comment="band 3">
        <r>  0.0000  0.0000  0.0000  0.0000  0.1161  0.2244  0.2049  0.0925  0.3045 </r>
       </set>
       <set comment="band 4">
        <r>  0.0198  0.1222  0.1222  0.1222  0.0590  0.0590  0.0000  0.0590  0.0000 </r>
       </set>
       <set comment="band 5">
        <r>  0.0000  0.0000  0.0000  0.0001  0.1049  0.3203  0.1311  0.1122  0.3167 </r>
       </set>
       <set comment="band 6">
        <r>  0.0000  0.0001  0.0001  0.0000  0.2534  0.0379  0.3167  0.2461  0.1311 </r>
       </set>
       <set comment="band 7">
        <r>  0.3099  0.0235  0.0235  0.0235  0.1323  0.1323  0.0000  0.1323  0.0000 </r>
       </set>
       <set comment="band 8">
        <r>  0.0015  0.0075  0.0075  0.0075  0.0019  0.0019  0.0000  0.0019  0.0000 </r>
       </set>
       <set comment="band 9">
        <r>  0.0000  0.2128  0.1290  0.2197  0.0079  0.0134  0.0022  0.0130  0.0042 </r>
       </set>
       <set comment="band 10">
        <r>  0.0000  0.1615  0.2453  0.1547  0.0150  0.0095  0.0042  0.0099  0.0022 </r>
       </set>
       <set comment="band 11">
        <r>  0.0000  0.0058  0.0036  0.0122  0.0345  0.1162  0.1192  0.0553  0.3557 </r>
       </set>
       <set comment="band 12">
        <r>  0.0000  0.0086  0.0108  0.0022  0.1029  0.0211  0.3557  0.0820  0.1192 </r>
       </set>
      </set>
      <set comment="kpoint 60">
       <set comment="band 1">
        <r>  0.1447  0.0077  0.0077  0.0051  0.1802  0.2516  0.0000  0.1802  0.0000 </r>
       </set>
       <set comment="band 2">
        <r>  0.0002  0.0494  0.0494  0.0308  0.0003  0.0245  0.1556  0.0003  0.4667 </r>
       </set>
       <set comment="band 3">
        <r>  0.0005  0.0360  0.0360  0.0552  0.1594  0.3438  0.0085  0.1594  0.0255 </r>
       </set>
       <set comment="band 4">
        <r>  0.0000  0.0008  0.0008  0.0000  0.1941  0.0000  0.4160  0.1941  0.1387 </r>
       </set>
       <set comment="band 5">
        <r>  0.0000  0.0001  0.0001  0.0000  0.2925  0.0000  0.2994  0.2925  0.0998 </r>
       </set>
       <set comment="band 6">
        <r>  0.0079  0.0649  0.0649  0.0624  0.0266  0.2539  0.0732  0.0266  0.2197 </r>
       </set>
       <set comment="band 7">
        <r>  0.3441  0.0002  0.0002  0.0322  0.1481  0.1273  0.0007  0.1481  0.0021 </r>
       </set>
       <set comment="band 8">
        <r>  0.0466  0.0226  0.0226  0.2058  0.0319  0.0188  0.0338  0.0319  0.1013 </r>
       </set>
       <set comment="band 9">
        <r>  0.0000  0.2307  0.2307  0.0000  0.0115  0.0000  0.1053  0.0115  0.0351 </r>
       </set>
       <set comment="band 10">
        <r>  0.0576  0.0636  0.0636  0.0787  0.0009  0.0558  0.0046  0.0009  0.0138 </r>
       </set>
       <set comment="band 11">
        <r>  0.0000  0.0577  0.0577  0.0000  0.1181  0.0000  0.2299  0.1181  0.0766 </r>
       </set>
       <set comment="band 12">
        <r>  0.0511  0.0001  0.0001  0.0000  0.0010  0.2024  0.0621  0.0010  0.1864 </r>
       </set>
      </set>
     </set>
    </set>
   </array>
  </projected>
 </calculation>
 <structure name="finalpos" >
  <crystal>
   <varray name="basis" >
    <v>       0.00000000       1.92969431       1.92969431 </v>
    <v>       1.92969431       0.00000000       1.92969431 </v>
    <v>       1.92969431       1.92969431       0.00000000 </v>
   </varray>
   <i name="volume">     14.37128315 </i>
   <varray name="rec_basis" >
    <v>      -0.25910840       0.25910840       0.25910840 </v>
    <v>       0.25910840      -0.25910840       0.25910840 </v>
    <v>       0.25910840       0.25910840      -0.25910840 </v>
   </varray>
  </crystal>
  <varray name="positions" >
   <v>       0.00000000       0.00000000       0.00000000 </v>
  </varray>
 </structure>
</modeling>
