    1    1    1    2
  0.1081089E+02  0.2481945E-09  0.2481945E-09  0.2481945E-09  0.5000000E-15
  1.000000000000000E-004
  CAR 
 Co-fcc                                  
      9     28     12
 
  0.8333333E-01  0.8333333E-01  0.8333333E-01  0.9259259E-02
      1          1.644281        1.660821   1.000000   1.000000
      2          7.583334        9.188127   1.000000   1.000000
      3          7.723334        9.358558   1.000000   1.000000
      4          7.723334        9.358558   1.000000   1.000000
      5          8.701091       10.682144   1.000000   0.000000
      6          8.701091       10.682144   1.000000   0.000000
      7         32.711236       32.586578   0.000000   0.000000
      8         35.442261       35.481544   0.000000   0.000000
      9         37.403192       37.627888   0.000000   0.000000
     10         37.403192       37.627888   0.000000   0.000000
     11         41.756680       41.926098   0.000000   0.000000
     12         41.756875       41.989882   0.000000   0.000000
 
  0.2500000E+00  0.8333333E-01  0.8333333E-01  0.2777778E-01
      1          3.016899        3.057290   1.000000   1.000000
      2          7.264579        8.761972   1.000000   1.000000
      3          7.874328        9.546738   1.000000   1.000000
      4          7.965094        9.647114   1.000000   1.000000
      5          8.499201       10.417627   1.000000   0.561747
      6          8.976579       10.920201   1.000000   0.000000
      7         28.017860       28.346598   0.000000   0.000000
      8         31.475757       31.638156   0.000000   0.000000
      9         36.603874       36.602744   0.000000   0.000000
     10         39.027330       39.227302   0.000000   0.000000
     11         39.532172       39.513093   0.000000   0.000000
     12         41.074026       41.369974   0.000000   0.000000
 
  0.4166667E+00  0.8333333E-01  0.8333333E-01  0.2777778E-01
      1          5.048774        5.565670   1.000000   1.000000
      2          7.582915        8.750857   1.000000   1.000000
      3          7.749249        9.282658   1.000000   1.000000
      4          7.819656        9.495062   1.000000   1.000000
      5          9.143589       11.031670   1.000000   0.000000
      6          9.946310       11.714671   1.000000   0.000000
      7         20.260106       20.914599   0.000000   0.000000
      8         30.585307       30.693054   0.000000   0.000000
      9         34.379139       34.427900   0.000000   0.000000
     10         36.431888       36.777970   0.000000   0.000000
     11         38.935889       39.231524   0.000000   0.000000
     12         40.437766       40.600227   0.000000   0.000000
 
 -0.4166667E+00  0.8333333E-01  0.8333333E-01  0.2777778E-01
      1          5.315100        6.257671   1.000000   1.000000
      2          7.406879        9.026560   1.000000   1.000000
      3          7.657740        9.390202   1.000000   1.000000
      4          8.673689        9.574486   1.000000   1.000000
      5          9.621707       11.571426   1.000000   0.000000
      6         11.116768       12.236946   0.000000   0.000000
      7         16.796076       17.779235   0.000000   0.000000
      8         30.993931       30.911286   0.000000   0.000000
      9         33.531001       33.865780   0.000000   0.000000
     10         33.919830       34.167709   0.000000   0.000000
     11         40.019163       40.246043   0.000000   0.000000
     12         40.045815       40.286176   0.000000   0.000000
 
 -0.2500000E+00  0.8333333E-01  0.8333333E-01  0.2777778E-01
      1          4.539504        4.779425   1.000000   1.000000
      2          7.311119        8.539854   1.000000   1.000000
      3          7.678725        9.395711   1.000000   1.000000
      4          7.881036        9.607141   1.000000   1.000000
      5          9.190158       10.970272   1.000000   0.000000
      6          9.278832       11.225944   1.000000   0.000000
      7         22.666433       23.196769   0.000000   0.000000
      8         32.291229       32.169335   0.000000   0.000000
      9         33.055481       33.416131   0.000000   0.000000
     10         36.314363       36.653240   0.000000   0.000000
     11         40.018450       40.174072   0.000000   0.000000
     12         42.546795       42.721378   0.000000   0.000000
 
 -0.8333333E-01  0.8333333E-01  0.8333333E-01  0.2777778E-01
      1          2.354096        2.377803   1.000000   1.000000
      2          7.343921        8.897597   1.000000   1.000000
      3          7.898146        9.552063   1.000000   1.000000
      4          7.907890        9.562078   1.000000   1.000000
      5          8.496424       10.421485   1.000000   0.518463
      6          8.831101       10.820297   1.000000   0.000000
      7         30.733126       30.919367   0.000000   0.000000
      8         33.757925       33.700490   0.000000   0.000000
      9         34.499949       34.832692   0.000000   0.000000
     10         37.186772       37.244644   0.000000   0.000000
     11         41.342026       41.602459   0.000000   0.000000
     12         43.658443       44.207870   0.000000   0.000000
 
  0.2500000E+00  0.2500000E+00  0.8333333E-01  0.2777778E-01
      1          3.627160        3.699726   1.000000   1.000000
      2          6.913064        8.388199   1.000000   1.000000
      3          7.956039        9.691430   1.000000   1.000000
      4          8.259264        9.956461   1.000000   1.000000
      5          8.574495       10.311378   1.000000   0.999213
      6          9.058190       11.058607   1.000000   0.000000
      7         28.499025       28.821178   0.000000   0.000000
      8         31.490265       31.837909   0.000000   0.000000
      9         31.994327       32.022522   0.000000   0.000000
     10         34.119698       34.280093   0.000000   0.000000
     11         39.076387       39.727563   0.000000   0.000000
     12         45.169610       45.183449   0.000000   0.000000
 
  0.4166667E+00  0.2500000E+00  0.8333333E-01  0.5555556E-01
      1          5.348874        5.763695   1.000000   1.000000
      2          6.617233        7.974264   1.000000   1.000000
      3          7.532662        9.097696   1.000000   1.000000
      4          8.542270       10.325932   1.000000   0.997011
      5          9.164360       10.985867   1.000000   0.000000
      6         10.284519       11.944064   0.999956   0.000000
      7         23.613332       24.073382   0.000000   0.000000
      8         27.100629       27.423375   0.000000   0.000000
      9         29.573228       29.890094   0.000000   0.000000
     10         34.894788       35.087008   0.000000   0.000000
     11         39.879711       40.241647   0.000000   0.000000
     12         44.109120       44.360441   0.000000   0.000000
 
 -0.4166667E+00  0.2500000E+00  0.8333333E-01  0.5555556E-01
      1          6.030278        7.114961   1.000000   1.000000
      2          6.728370        8.026899   1.000000   1.000000
      3          7.611621        8.915635   1.000000   1.000000
      4          8.248780       10.054745   1.000000   1.000000
      5          9.574935       11.487130   1.000000   0.000000
      6         13.679137       14.565070   0.000000   0.000000
      7         17.235612       18.050958   0.000000   0.000000
      8         26.144282       26.502278   0.000000   0.000000
      9         28.094575       28.458353   0.000000   0.000000
     10         35.018006       35.152529   0.000000   0.000000
     11         41.450737       41.628403   0.000000   0.000000
     12         46.644021       47.170761   0.000000   0.000000
 
 -0.2500000E+00  0.2500000E+00  0.8333333E-01  0.5555556E-01
      1          5.934426        6.533967   1.000000   1.000000
      2          6.954759        8.233430   1.000000   1.000000
      3          7.156069        8.715628   1.000000   1.000000
      4          8.320128       10.137454   1.000000   1.000000
      5          9.053321       10.866340   1.000000   0.000000
      6         11.481202       12.929441   0.000000   0.000000
      7         21.187153       21.757679   0.000000   0.000000
      8         25.005779       25.404683   0.000000   0.000000
      9         30.613574       30.898686   0.000000   0.000000
     10         36.863870       36.992302   0.000000   0.000000
     11         39.894227       40.011097   0.000000   0.000000
     12         45.191682       45.592837   0.000000   0.000000
 
 -0.8333333E-01  0.2500000E+00  0.8333333E-01  0.5555556E-01
      1          4.186725        4.300773   1.000000   1.000000
      2          6.991437        8.414869   1.000000   1.000000
      3          7.716551        9.416353   1.000000   1.000000
      4          8.172051        9.908673   1.000000   1.000000
      5          8.647512       10.459550   1.000000   0.151419
      6          9.434754       11.328639   1.000000   0.000000
      7         25.621238       26.038286   0.000000   0.000000
      8         29.142146       29.412657   0.000000   0.000000
      9         34.181500       34.296351   0.000000   0.000000
     10         36.567382       36.724693   0.000000   0.000000
     11         40.935431       41.171629   0.000000   0.000000
     12         41.794055       42.097539   0.000000   0.000000
 
  0.4166667E+00  0.4166667E+00  0.8333333E-01  0.2777778E-01
      1          5.289346        6.223792   1.000000   1.000000
      2          6.034668        7.369602   1.000000   1.000000
      3          8.872964       10.147909   1.000000   1.000000
      4          9.156776       11.054017   1.000000   0.000000
      5          9.600940       11.569850   1.000000   0.000000
      6         10.833000       11.986910   0.000000   0.000000
      7         24.064252       24.553186   0.000000   0.000000
      8         24.979021       25.343267   0.000000   0.000000
      9         26.854186       27.101454   0.000000   0.000000
     10         31.474770       31.807833   0.000000   0.000000
     11         35.797000       36.240740   0.000000   0.000000
     12         47.230311       50.888754   0.000000   0.000000
 
 -0.4166667E+00  0.4166667E+00  0.8333333E-01  0.5555556E-01
      1          5.562410        6.788268   1.000000   1.000000
      2          6.081121        7.369537   1.000000   1.000000
      3          8.418994        9.760612   1.000000   1.000000
      4          9.120989       11.097307   1.000000   0.000000
      5          9.778724       11.659561   1.000000   0.000000
      6         14.504524       15.148620   0.000000   0.000000
      7         20.676952       21.300667   0.000000   0.000000
      8         21.548298       22.076806   0.000000   0.000000
      9         24.919640       25.231394   0.000000   0.000000
     10         33.609641       33.866204   0.000000   0.000000
     11         38.786195       39.174034   0.000000   0.000000
     12         47.154667       48.296460   0.000000   0.000000
 
 -0.2500000E+00  0.4166667E+00  0.8333333E-01  0.5555556E-01
      1          6.297556        7.605639   1.000000   1.000000
      2          6.510394        7.672522   1.000000   1.000000
      3          7.409346        8.709421   1.000000   1.000000
      4          8.558492       10.446532   1.000000   0.253934
      5          9.492847       11.346123   1.000000   0.000000
      6         15.417594       16.195965   0.000000   0.000000
      7         17.703038       18.379434   0.000000   0.000000
      8         22.311294       22.861556   0.000000   0.000000
      9         27.321317       27.679456   0.000000   0.000000
     10         34.927446       35.098646   0.000000   0.000000
     11         43.338072       43.427996   0.000000   0.000000
     12         46.434851       47.373383   0.000000   0.000000
 
 -0.8333333E-01  0.4166667E+00  0.8333333E-01  0.5555556E-01
      1          5.555973        6.397093   1.000000   1.000000
      2          7.215664        8.575161   1.000000   1.000000
      3          7.791311        9.080895   1.000000   1.000000
      4          7.951263        9.672227   1.000000   1.000000
      5          9.459015       11.362864   1.000000   0.000000
      6         11.358962       12.667815   0.000000   0.000000
      7         18.421295       19.182562   0.000000   0.000000
      8         28.823811       29.032237   0.000000   0.000000
      9         31.178367       31.468754   0.000000   0.000000
     10         35.271465       35.414967   0.000000   0.000000
     11         39.970229       40.209556   0.000000   0.000000
     12         43.439502       43.572054   0.000000   0.000000
 
 -0.4166667E+00 -0.4166667E+00  0.8333333E-01  0.2777778E-01
      1          5.209018        6.387070   1.000000   1.000000
      2          5.811736        7.114439   1.000000   1.000000
      3          9.402262       10.933827   1.000000   0.000000
      4          9.414346       11.436161   1.000000   0.000000
      5          9.803717       11.702238   1.000000   0.000000
      6         13.012065       13.477951   0.000000   0.000000
      7         20.680685       21.486913   0.000000   0.000000
      8         23.895526       24.171050   0.000000   0.000000
      9         25.759131       25.953604   0.000000   0.000000
     10         31.207549       31.584046   0.000000   0.000000
     11         35.429713       35.867026   0.000000   0.000000
     12         47.347024       51.088107   0.000000   0.000000
 
 -0.2500000E+00 -0.4166667E+00  0.8333333E-01  0.5555556E-01
      1          5.678251        6.668948   1.000000   1.000000
      2          6.271035        7.585243   1.000000   1.000000
      3          7.929811        9.246861   1.000000   1.000000
      4          8.949530       10.820050   1.000000   0.000000
      5          9.555632       11.448637   1.000000   0.000000
      6         12.094267       13.228367   0.000000   0.000000
      7         22.057166       22.511532   0.000000   0.000000
      8         24.621504       25.082996   0.000000   0.000000
      9         25.922567       26.281633   0.000000   0.000000
     10         34.002499       34.231535   0.000000   0.000000
     11         39.104984       39.476538   0.000000   0.000000
     12         46.072158       46.477618   0.000000   0.000000
 
 -0.2500000E+00 -0.2500000E+00  0.8333333E-01  0.2777778E-01
      1          4.907581        5.264086   1.000000   1.000000
      2          6.433748        7.829363   1.000000   1.000000
      3          8.065063        9.551815   1.000000   1.000000
      4          8.719387       10.493591   1.000000   0.023121
      5          9.309999       10.935897   1.000000   0.000000
      6          9.331092       11.333271   1.000000   0.000000
      7         26.404743       26.757559   0.000000   0.000000
      8         28.648585       28.932447   0.000000   0.000000
      9         28.851393       29.162020   0.000000   0.000000
     10         32.149677       32.411733   0.000000   0.000000
     11         36.829655       37.333760   0.000000   0.000000
     12         47.198955       48.774432   0.000000   0.000000
 
  0.2500000E+00  0.2500000E+00  0.2500000E+00  0.9259259E-02
      1          3.587759        3.674870   1.000000   1.000000
      2          7.341788        8.715655   1.000000   1.000000
      3          7.840527        9.546871   1.000000   1.000000
      4          7.840527        9.546871   1.000000   1.000000
      5          8.874513       10.794596   1.000000   0.000000
      6          8.874513       10.794596   1.000000   0.000000
      7         25.113521       25.549369   0.000000   0.000000
      8         33.709170       33.463396   0.000000   0.000000
      9         36.067982       36.426080   0.000000   0.000000
     10         36.067982       36.426080   0.000000   0.000000
     11         41.323627       41.508321   0.000000   0.000000
     12         41.323627       41.508321   0.000000   0.000000
 
  0.4166667E+00  0.2500000E+00  0.2500000E+00  0.2777778E-01
      1          5.099629        5.358763   1.000000   1.000000
      2          7.060092        8.391756   1.000000   1.000000
      3          7.513787        9.153185   1.000000   1.000000
      4          8.092951        9.903860   1.000000   1.000000
      5          8.677746       10.481294   1.000000   0.049946
      6         10.213513       11.976348   1.000000   0.000000
      7         23.178592       23.686582   0.000000   0.000000
      8         26.839020       27.181715   0.000000   0.000000
      9         35.128653       35.121141   0.000000   0.000000
     10         36.074953       36.420098   0.000000   0.000000
     11         40.331330       40.299745   0.000000   0.000000
     12         41.839523       42.120529   0.000000   0.000000
 
 -0.4166667E+00  0.2500000E+00  0.2500000E+00  0.2777778E-01
      1          6.266418        7.186006   1.000000   1.000000
      2          6.803713        8.185924   1.000000   1.000000
      3          7.312169        8.613304   1.000000   1.000000
      4          8.297647       10.154570   1.000000   1.000000
      5          9.183975       11.013645   1.000000   0.000000
      6         13.120726       14.231039   0.000000   0.000000
      7         19.187458       19.840847   0.000000   0.000000
      8         23.366771       23.843105   0.000000   0.000000
      9         31.483147       31.840825   0.000000   0.000000
     10         33.087785       33.192863   0.000000   0.000000
     11         44.232955       44.217292   0.000000   0.000000
     12         44.629609       44.802599   0.000000   0.000000
 
 -0.2500000E+00  0.2500000E+00  0.2500000E+00  0.2777778E-01
      1          5.852387        6.917626   1.000000   1.000000
      2          6.490842        7.738962   1.000000   1.000000
      3          7.761535        9.083222   1.000000   1.000000
      4          8.487357       10.322025   1.000000   0.997878
      5          9.679382       11.625791   1.000000   0.000000
      6         12.782452       13.817296   0.000000   0.000000
      7         19.189730       19.790953   0.000000   0.000000
      8         25.217837       25.651612   0.000000   0.000000
      9         28.786864       29.091680   0.000000   0.000000
     10         32.378844       32.617998   0.000000   0.000000
     11         42.831696       43.166532   0.000000   0.000000
     12         46.407345       46.567222   0.000000   0.000000
 
  0.4166667E+00  0.4166667E+00  0.2500000E+00  0.2777778E-01
      1          5.440201        6.042172   1.000000   1.000000
      2          6.953482        8.184249   1.000000   1.000000
      3          7.557163        9.093563   1.000000   1.000000
      4          8.115912        9.882061   1.000000   1.000000
      5          9.575175       11.539028   1.000000   0.000000
      6         10.500543       11.949318   0.014269   0.000000
      7         20.685698       21.277336   0.000000   0.000000
      8         29.481092       29.651225   0.000000   0.000000
      9         30.566139       30.900323   0.000000   0.000000
     10         33.240375       33.507485   0.000000   0.000000
     11         43.319163       43.428150   0.000000   0.000000
     12         44.044188       44.382311   0.000000   0.000000
 
 -0.4166667E+00  0.4166667E+00  0.2500000E+00  0.5555556E-01
      1          6.230588        7.302106   1.000000   1.000000
      2          6.633712        7.936423   1.000000   1.000000
      3          7.178566        8.509959   1.000000   1.000000
      4          8.632112       10.499511   1.000000   0.015362
      5          9.480231       11.329318   1.000000   0.000000
      6         13.646744       14.645392   0.000000   0.000000
      7         19.678543       20.261916   0.000000   0.000000
      8         23.676245       24.115913   0.000000   0.000000
      9         25.934860       26.355449   0.000000   0.000000
     10         37.715630       37.836690   0.000000   0.000000
     11         40.156442       40.289815   0.000000   0.000000
     12         44.728792       45.371885   0.000000   0.000000
 
 -0.2500000E+00  0.4166667E+00  0.2500000E+00  0.5555556E-01
      1          6.025044        7.312826   1.000000   1.000000
      2          6.596383        7.865635   1.000000   1.000000
      3          7.404166        8.695155   1.000000   1.000000
      4          8.727820       10.636581   1.000000   0.000000
      5          9.769779       11.642925   1.000000   0.000000
      6         16.449124       17.103610   0.000000   0.000000
      7         18.756530       19.322983   0.000000   0.000000
      8         21.664290       22.268622   0.000000   0.000000
      9         23.326321       23.769629   0.000000   0.000000
     10         37.650473       37.801504   0.000000   0.000000
     11         42.098084       42.248310   0.000000   0.000000
     12         43.886629       44.227725   0.000000   0.000000
 
 -0.4166667E+00 -0.4166667E+00  0.2500000E+00  0.2777778E-01
      1          5.849875        7.141909   1.000000   1.000000
      2          6.276911        7.493089   1.000000   1.000000
      3          8.026658        9.325661   1.000000   1.000000
      4          8.840731       10.772141   1.000000   0.000000
      5          9.607544       11.487191   1.000000   0.000000
      6         15.560162       16.247931   0.000000   0.000000
      7         18.197064       18.777697   0.000000   0.000000
      8         21.508595       22.157777   0.000000   0.000000
      9         27.856967       28.143670   0.000000   0.000000
     10         32.149697       32.417572   0.000000   0.000000
     11         42.507920       42.888051   0.000000   0.000000
     12         47.235856       48.390601   0.000000   0.000000
 
  0.4166667E+00  0.4166667E+00  0.4166667E+00  0.9259259E-02
      1          5.088404        5.871594   1.000000   1.000000
      2          7.586752        9.309470   1.000000   1.000000
      3          7.586752        9.309470   1.000000   1.000000
      4          9.148657        9.462377   1.000000   1.000000
      5          9.499885       11.438711   1.000000   0.000000
      6          9.499885       11.438711   1.000000   0.000000
      7         18.069010       18.907029   0.000000   0.000000
      8         32.271563       31.974056   0.000000   0.000000
      9         35.437380       35.776627   0.000000   0.000000
     10         35.437380       35.776627   0.000000   0.000000
     11         38.420531       38.701673   0.000000   0.000000
     12         38.420531       38.701673   0.000000   0.000000
 
 -0.4166667E+00  0.4166667E+00  0.4166667E+00  0.2777778E-01
      1          5.741597        6.743204   1.000000   1.000000
      2          7.072941        8.484597   1.000000   1.000000
      3          7.937486        9.134410   1.000000   1.000000
      4          7.949969        9.713516   1.000000   1.000000
      5          9.478766       11.391184   1.000000   0.000000
      6         12.671123       13.652427   0.000000   0.000000
      7         16.998845       17.905603   0.000000   0.000000
      8         27.302370       27.601178   0.000000   0.000000
      9         32.169187       32.515125   0.000000   0.000000
     10         33.102474       33.181170   0.000000   0.000000
     11         42.260242       42.499787   0.000000   0.000000
     12         42.570733       42.676828   0.000000   0.000000
