 vasp.6.3.2 27Jun22 (build Aug 12 2022 00:53:59) complex                        
  
 executed on               tv2STD date 2024.11.30  15:14:42
 running   24 mpi-ranks, with    1 threads/rank
 distrk:  each k-point on   24 cores,    1 groups
 distr:  one band on NCORE=   6 cores,    4 groups


--------------------------------------------------------------------------------------------------------


 INCAR:
   SYSTEM = Co-fcc
   NWRITE = 2    write-flag
   ISTART = 0    job   : 0-new, 1-cont, 2-samecut
   ICHARG = 2    charge: 0-wave, 1-file, 2-atom, >10-const
   INIWAV = 1    electr: 0-lowe 1-rand  2-diag
   ENCUT = 400.0     energy cutoff in eV
   PREC = Accurate      normal | accurate
   ADDGRID = .FALSE.  (use fine grid)
   NELM = 100     number of ELM steps
   EDIFF = 1E-06    energy stopping-criterion for ELM
   LREAL = .FALSE.      real-space projection (.FALSE., .TRUE., On, Auto)
   ALGO = Normal     Normal, Fast, Very_Fast
   LWAVE = .FALSE.
   LCHARG = .FALSE.
   NSW = 0       max number of geometry steps
   IBRION = -1     ionic relax: 0-MD, 1-quasi-Newton, 2-CG, 3-Damped MD
   EDIFFG = -0.02  force (eV/A) stopping-criterion for geometry steps
   ISIF = 2     (1:force\=y stress\=trace only ions\=y shape\=n volume\=n)
   ISYM = 1     (1-use symmetry, 0-no symmetry)
   ISMEAR = 0     (-1-Fermi, 1-Methfessel/Paxton)
   SIGMA = 0.05   broadening in eV
   NPAR = 4
   ISPIN = 2
   MAGMOM = 1*3

 POTCAR:    PAW_PBE Co 02Aug2007                  
 POTCAR:    PAW_PBE Co 02Aug2007                  
   SHA256 =  0e690c60710354995174544f52f9f2c30879afabeffe3b3fbd4001cb294e56d4 Co/POTCAR             
   COPYR  = (c) Copyright 02Aug2007 Georg Kresse                                                    
   COPYR  = This file is part of the software VASP. Any use, copying, and all other rights are regul
   COPYR  = If you do not have a valid VASP license, you may not use, copy or distribute this file. 
   VRHFIN =Co: d8 s1                                                                                
   LEXCH  = PE                                                                                      
   EATOM  =   813.3670 eV,   59.7808 Ry                                                             
                                                                                                    
   TITEL  = PAW_PBE Co 02Aug2007                                                                    
   LULTRA =        F    use ultrasoft PP ?                                                          
   IUNSCR =        1    unscreen: 0-lin 1-nonlin 2-no                                               
   RPACOR =    2.000    partial core radius                                                         
   POMASS =   58.933; ZVAL   =    9.000    mass and valenz                                          
   RCORE  =    2.300    outmost cutoff radius                                                       
   RWIGS  =    2.460; RWIGS  =    1.302    wigner-seitz radius (au A)                               
   ENMAX  =  267.968; ENMIN  =  200.976 eV                                                          
   RCLOC  =    1.203    cutoff for local pot                                                        
   LCOR   =        T    correct aug charges                                                         
   LPAW   =        T    paw PP                                                                      
   EAUG   =  477.818                                                                                
   DEXC   =    0.000                                                                                
   RMAX   =    2.360    core radius for proj-oper                                                   
   RAUG   =    1.300    factor for augmentation sphere                                              
   RDEP   =    2.393    radius for radial grids                                                     
   RDEPT  =    1.864    core radius for aug-charge                                                  
                                                                                                    
   Atomic configuration                                                                             
    9 entries                                                                                       
     n  l   j            E        occ.                                                              
     1  0  0.50     -7587.6674   2.0000                                                             
     2  0  0.50      -893.6084   2.0000                                                             
     2  1  1.50      -764.5805   6.0000                                                             
     3  0  0.50       -97.5973   2.0000                                                             
     3  1  1.50       -60.9648   6.0000                                                             
     3  2  2.50        -4.2382   8.0000                                                             
     4  0  0.50        -4.3746   1.0000                                                             
     4  1  1.50        -4.0817   0.0000                                                             
     4  3  2.50        -1.3606   0.0000                                                             
   Description                                                                                      
     l       E           TYP  RCUT    TYP  RCUT                                                     
     2     -4.2382362     23  2.300                                                                 
     2     -5.5988188     23  2.300                                                                 
     0     -4.3745797     23  2.300                                                                 
     0      5.7660125     23  2.300                                                                 
     1     -2.7211652     23  2.300                                                                 
     1     16.9860234     23  2.300                                                                 
  local pseudopotential read in
  partial core-charges read in
  partial kinetic energy density read in
  atomic valenz-charges read in
  non local Contribution for L=           2  read in
    real space projection operators read in
  non local Contribution for L=           2  read in
    real space projection operators read in
  non local Contribution for L=           0  read in
    real space projection operators read in
  non local Contribution for L=           0  read in
    real space projection operators read in
  non local Contribution for L=           1  read in
    real space projection operators read in
  non local Contribution for L=           1  read in
    real space projection operators read in
    PAW grid and wavefunctions read in
 
   number of l-projection  operators is LMAX  =           6
   number of lm-projection operators is LMMAX =          18
 
  PAW_PBE Co 02Aug2007                  :
 energy of atom  1       EATOM= -813.3670
 kinetic energy error for atom=    0.0093 (will be added to EATOM!!)
 
 
 POSCAR: Co
  positions in cartesian coordinates
  No initial velocities read in
 exchange correlation table for  LEXCH =        8
   RHO(1)=    0.500       N(1)  =     2000
   RHO(2)=  100.500       N(2)  =     4000
 


--------------------------------------------------------------------------------------------------------


 ion  position               nearest neighbor table
   1  0.000  0.000  0.000-
 
  LATTYP: Found a face centered cubic cell.
 ALAT       =     3.5100000000
  
  Lattice vectors:
  
 A1 = (   0.0000000000,   1.7550000000,   1.7550000000)
 A2 = (   1.7550000000,   0.0000000000,   1.7550000000)
 A3 = (   1.7550000000,   1.7550000000,   0.0000000000)


Analysis of symmetry for initial positions (statically):
=====================================================================
 Subroutine PRICEL returns:
 Original cell was already a primitive cell.
 

 Routine SETGRP: Setting up the symmetry group for a 
 face centered cubic supercell.


 Subroutine GETGRP returns: Found 48 space group operations
 (whereof 48 operations were pure point group operations)
 out of a pool of 48 trial point group operations.


The static configuration has the point symmetry O_h .


Analysis of symmetry for dynamics (positions and initial velocities):
=====================================================================
 Subroutine PRICEL returns:
 Original cell was already a primitive cell.
 

 Routine SETGRP: Setting up the symmetry group for a 
 face centered cubic supercell.


 Subroutine GETGRP returns: Found 48 space group operations
 (whereof 48 operations were pure point group operations)
 out of a pool of 48 trial point group operations.


The dynamic configuration has the point symmetry O_h .


Analysis of structural, dynamic, and magnetic symmetry:
=====================================================================
 Subroutine PRICEL returns:
 Original cell was already a primitive cell.
 

 Routine SETGRP: Setting up the symmetry group for a 
 face centered cubic supercell.


 Subroutine GETGRP returns: Found 48 space group operations
 (whereof 48 operations were pure point group operations)
 out of a pool of 48 trial point group operations.


The overall configuration has the point symmetry O_h .


 Subroutine INISYM returns: Found 48 space group operations
 (whereof 48 operations are pure point group operations),
 and found     1 'primitive' translations


----------------------------------------------------------------------------------------

                                     Primitive cell                                     

  volume of cell :      10.8109

  direct lattice vectors                    reciprocal lattice vectors
     0.000000000  1.755000000  1.755000000    -0.284900285  0.284900285  0.284900285
     1.755000000  0.000000000  1.755000000     0.284900285 -0.284900285  0.284900285
     1.755000000  1.755000000  0.000000000     0.284900285  0.284900285 -0.284900285

  length of vectors
     2.481944802  2.481944802  2.481944802     0.493461769  0.493461769  0.493461769

  position of ions in fractional coordinates (direct lattice)
     0.000000000  0.000000000  0.000000000

  ion indices of the primitive-cell ions
   primitive index   ion index
                 1           1

----------------------------------------------------------------------------------------

 
 
 KPOINTS: Automatic mesh                          

Automatic generation of k-mesh.
 Grid dimensions read from file:
 generate k-points for:    6    6    6

 Generating k-lattice:

  Cartesian coordinates                     Fractional coordinates (reciprocal lattice)
    -0.047483381  0.047483381  0.047483381     0.166666667  0.000000000  0.000000000
     0.047483381 -0.047483381  0.047483381     0.000000000  0.166666667  0.000000000
     0.047483381  0.047483381 -0.047483381     0.000000000  0.000000000  0.166666667

  Length of vectors
     0.082243628  0.082243628  0.082243628

  Shift w.r.t. Gamma in fractional coordinates (k-lattice)
     0.500000000  0.500000000  0.500000000

 
 Subroutine IBZKPT returns following result:
 ===========================================
 
 Found     28 irreducible k-points:
 
 Following reciprocal coordinates:
            Coordinates               Weight
  0.083333  0.083333  0.083333      8.000000
  0.250000  0.083333  0.083333     24.000000
  0.416667  0.083333  0.083333     24.000000
 -0.416667  0.083333  0.083333     24.000000
 -0.250000  0.083333  0.083333     24.000000
 -0.083333  0.083333  0.083333     24.000000
  0.250000  0.250000  0.083333     24.000000
  0.416667  0.250000  0.083333     48.000000
 -0.416667  0.250000  0.083333     48.000000
 -0.250000  0.250000  0.083333     48.000000
 -0.083333  0.250000  0.083333     48.000000
  0.416667  0.416667  0.083333     24.000000
 -0.416667  0.416667  0.083333     48.000000
 -0.250000  0.416667  0.083333     48.000000
 -0.083333  0.416667  0.083333     48.000000
 -0.416667 -0.416667  0.083333     24.000000
 -0.250000 -0.416667  0.083333     48.000000
 -0.250000 -0.250000  0.083333     24.000000
  0.250000  0.250000  0.250000      8.000000
  0.416667  0.250000  0.250000     24.000000
 -0.416667  0.250000  0.250000     24.000000
 -0.250000  0.250000  0.250000     24.000000
  0.416667  0.416667  0.250000     24.000000
 -0.416667  0.416667  0.250000     48.000000
 -0.250000  0.416667  0.250000     48.000000
 -0.416667 -0.416667  0.250000     24.000000
  0.416667  0.416667  0.416667      8.000000
 -0.416667  0.416667  0.416667     24.000000
 
 Following cartesian coordinates:
            Coordinates               Weight
  0.023742  0.023742  0.023742      8.000000
 -0.023742  0.071225  0.071225     24.000000
 -0.071225  0.118708  0.118708     24.000000
  0.166192 -0.118708 -0.118708     24.000000
  0.118708 -0.071225 -0.071225     24.000000
  0.071225 -0.023742 -0.023742     24.000000
  0.023742  0.023742  0.118708     24.000000
 -0.023742  0.071225  0.166192     48.000000
  0.213675 -0.166192 -0.071225     48.000000
  0.166192 -0.118708 -0.023742     48.000000
  0.118708 -0.071225  0.023742     48.000000
  0.023742  0.023742  0.213675     24.000000
  0.261159 -0.213675 -0.023742     48.000000
  0.213675 -0.166192  0.023742     48.000000
  0.166192 -0.118708  0.071225     48.000000
  0.023742  0.023742 -0.261159     24.000000
 -0.023742  0.071225 -0.213675     48.000000
  0.023742  0.023742 -0.166192     24.000000
  0.071225  0.071225  0.071225      8.000000
  0.023742  0.118708  0.118708     24.000000
  0.261159 -0.118708 -0.118708     24.000000
  0.213675 -0.071225 -0.071225     24.000000
  0.071225  0.071225  0.166192     24.000000
  0.308642 -0.166192 -0.071225     48.000000
  0.261159 -0.118708 -0.023742     48.000000
  0.071225  0.071225 -0.308642     24.000000
  0.118708  0.118708  0.118708      8.000000
  0.356125 -0.118708 -0.118708     24.000000
 


--------------------------------------------------------------------------------------------------------




 Dimension of arrays:
   k-points           NKPTS =     28   k-points in BZ     NKDIM =     28   number of bands    NBANDS=     12
   number of dos      NEDOS =    301   number of ions     NIONS =      1
   non local maximal  LDIM  =      6   non local SUM 2l+1 LMDIM =     18
   total plane-waves  NPLWV =   4096
   max r-space proj   IRMAX =      1   max aug-charges    IRDMAX=  15140
   dimension x,y,z NGX =    16 NGY =   16 NGZ =   16
   dimension x,y,z NGXF=    32 NGYF=   32 NGZF=   32
   support grid    NGXF=    32 NGYF=   32 NGZF=   32
   ions per type =               1
   NGX,Y,Z   is equivalent  to a cutoff of  10.72, 10.72, 10.72 a.u.
   NGXF,Y,Z  is equivalent  to a cutoff of  21.43, 21.43, 21.43 a.u.

 SYSTEM =  Co-fcc                                  
 POSCAR =  Co                                      

 Startparameter for this run:
   NWRITE =      2    write-flag & timer
   PREC   = accura    normal or accurate (medium, high low for compatibility)
   ISTART =      0    job   : 0-new  1-cont  2-samecut
   ICHARG =      2    charge: 1-file 2-atom 10-const
   ISPIN  =      2    spin polarized calculation?
   LNONCOLLINEAR =      F non collinear calculations
   LSORBIT =      F    spin-orbit coupling
   INIWAV =      1    electr: 0-lowe 1-rand  2-diag
   LASPH  =      F    aspherical Exc in radial PAW
 Electronic Relaxation 1
   ENCUT  =  400.0 eV  29.40 Ry    5.42 a.u.   4.05  4.05  4.05*2*pi/ulx,y,z
   ENINI  =  400.0     initial cutoff
   ENAUG  =  477.8 eV  augmentation charge cutoff
   NELM   =    100;   NELMIN=  2; NELMDL= -5     # of ELM steps 
   EDIFF  = 0.1E-05   stopping-criterion for ELM
   LREAL  =      F    real-space projection
   NLSPLINE    = F    spline interpolate recip. space projectors
   LCOMPAT=      F    compatible to vasp.4.4
   GGA_COMPAT  = T    GGA compatible to vasp.4.4-vasp.4.6
   LMAXPAW     = -100 max onsite density
   LMAXMIX     =    2 max onsite mixed and CHGCAR
   VOSKOWN=      0    Vosko Wilk Nusair interpolation
   ROPT   =    0.00000
 Ionic relaxation
   EDIFFG = -.2E-01   stopping-criterion for IOM
   NSW    =      0    number of steps for IOM
   NBLOCK =      1;   KBLOCK =      1    inner block; outer block 
   IBRION =     -1    ionic relax: 0-MD 1-quasi-New 2-CG
   NFREE  =      0    steps in history (QN), initial steepest desc. (CG)
   ISIF   =      2    stress and relaxation
   IWAVPR =     10    prediction:  0-non 1-charg 2-wave 3-comb
   ISYM   =      1    0-nonsym 1-usesym 2-fastsym
   LCORR  =      T    Harris-Foulkes like correction to forces

   POTIM  = 0.5000    time-step for ionic-motion
   TEIN   =    0.0    initial temperature
   TEBEG  =    0.0;   TEEND  =   0.0 temperature during run
   SMASS  =  -3.00    Nose mass-parameter (am)
   estimated Nose-frequenzy (Omega)   =  0.10E-29 period in steps = 0.13E+47 mass=  -0.141E-27a.u.
   SCALEE = 1.0000    scale energy and forces
   NPACO  =    256;   APACO  = 10.0  distance and # of slots for P.C.
   PSTRESS=    0.0 pullay stress

  Mass of Ions in am
   POMASS =  58.93
  Ionic Valenz
   ZVAL   =   9.00
  Atomic Wigner-Seitz radii
   RWIGS  =  -1.00
  virtual crystal weights 
   VCA    =   1.00
   NELECT =       9.0000    total number of electrons
   NUPDOWN=      -1.0000    fix difference up-down

 DOS related values:
   EMIN   =  10.00;   EMAX   =-10.00  energy-range for DOS
   EFERMI =   0.00
   ISMEAR =     0;   SIGMA  =   0.05  broadening in eV -4-tet -1-fermi 0-gaus

 Electronic relaxation 2 (details)
   IALGO  =     38    algorithm
   LDIAG  =      T    sub-space diagonalisation (order eigenvalues)
   LSUBROT=      F    optimize rotation matrix (better conditioning)
   TURBO    =      0    0=normal 1=particle mesh
   IRESTART =      0    0=no restart 2=restart with 2 vectors
   NREBOOT  =      0    no. of reboots
   NMIN     =      0    reboot dimension
   EREF     =   0.00    reference energy to select bands
   IMIX   =      4    mixing-type and parameters
     AMIX     =   0.40;   BMIX     =  1.00
     AMIX_MAG =   1.60;   BMIX_MAG =  1.00
     AMIN     =   0.10
     WC   =   100.;   INIMIX=   1;  MIXPRE=   1;  MAXMIX= -45

 Intra band minimization:
   WEIMIN = 0.0000     energy-eigenvalue tresh-hold
   EBREAK =  0.21E-07  absolut break condition
   DEPER  =   0.30     relativ break condition  

   TIME   =   0.40     timestep for ELM

  volume/ion in A,a.u.               =      10.81        72.96
  Fermi-wavevector in a.u.,A,eV,Ry     =   1.540051  2.910275 32.269731  2.371758
  Thomas-Fermi vector in A             =   2.646193
 
 Write flags
   LWAVE        =      F    write WAVECAR
   LDOWNSAMPLE  =      F    k-point downsampling of WAVECAR
   LCHARG       =      F    write CHGCAR
   LVTOT        =      F    write LOCPOT, total local potential
   LVHAR        =      F    write LOCPOT, Hartree potential only
   LELF         =      F    write electronic localiz. function (ELF)
   LORBIT       =      0    0 simple, 1 ext, 2 COOP (PROOUT), +10 PAW based schemes


 Dipole corrections
   LMONO  =      F    monopole corrections only (constant potential shift)
   LDIPOL =      F    correct potential (dipole corrections)
   IDIPOL =      0    1-x, 2-y, 3-z, 4-all directions 
   EPSILON=  1.0000000 bulk dielectric constant

 Exchange correlation treatment:
   GGA     =    --    GGA type
   LEXCH   =     8    internal setting for exchange type
   LIBXC   =     F    Libxc                    
   VOSKOWN =     0    Vosko Wilk Nusair interpolation
   LHFCALC =     F    Hartree Fock is set to
   LHFONE  =     F    Hartree Fock one center treatment
   AEXX    =    0.0000 exact exchange contribution

 Linear response parameters
   LEPSILON=     F    determine dielectric tensor
   LRPA    =     F    only Hartree local field effects (RPA)
   LNABLA  =     F    use nabla operator in PAW spheres
   LVEL    =     F    velocity operator in full k-point grid
   CSHIFT  =0.1000    complex shift for real part using Kramers Kronig
   OMEGAMAX=  -1.0    maximum frequency
   DEG_THRESHOLD= 0.2000000E-02 threshold for treating states as degnerate
   RTIME   =   -0.100 relaxation time in fs
  (WPLASMAI=    0.000 imaginary part of plasma frequency in eV, 0.658/RTIME)
   DFIELD  = 0.0000000 0.0000000 0.0000000 field for delta impulse in time
 
  Optional k-point grid parameters
   LKPOINTS_OPT  =     F    use optional k-point grid
   KPOINTS_OPT_MODE=     1    mode for optional k-point grid
 
 Orbital magnetization related:
   ORBITALMAG=     F  switch on orbital magnetization
   LCHIMAG   =     F  perturbation theory with respect to B field
   DQ        =  0.001000  dq finite difference perturbation B field
   LLRAUG    =     F  two centre corrections for induced B field



--------------------------------------------------------------------------------------------------------


 Static calculation
 charge density and potential will be updated during run
 spin polarized calculation
 Variant of blocked Davidson
 Davidson routine will perform the subspace rotation
 perform sub-space diagonalisation
    after iterative eigenvector-optimisation
 modified Broyden-mixing scheme, WC =      100.0
 initial mixing is a Kerker type mixing with AMIX =  0.4000 and BMIX =      1.0000
 Hartree-type preconditioning will be used
 using additional bands            7
 reciprocal scheme for non local part
 use partial core corrections
 calculate Harris-corrections to forces 
   (improved forces if not selfconsistent)
 use gradient corrections 
 use of overlap-Matrix (Vanderbilt PP)
 Gauss-broadening in eV      SIGMA  =   0.05


--------------------------------------------------------------------------------------------------------


  energy-cutoff  :      400.00
  volume of cell :       10.81
      direct lattice vectors                 reciprocal lattice vectors
     0.000000000  1.755000000  1.755000000    -0.284900285  0.284900285  0.284900285
     1.755000000  0.000000000  1.755000000     0.284900285 -0.284900285  0.284900285
     1.755000000  1.755000000  0.000000000     0.284900285  0.284900285 -0.284900285

  length of vectors
     2.481944802  2.481944802  2.481944802     0.493461769  0.493461769  0.493461769


 
 k-points in units of 2pi/SCALE and weight: Automatic mesh                          
   0.02374169  0.02374169  0.02374169       0.009
  -0.02374169  0.07122507  0.07122507       0.028
  -0.07122507  0.11870845  0.11870845       0.028
   0.16619183 -0.11870845 -0.11870845       0.028
   0.11870845 -0.07122507 -0.07122507       0.028
   0.07122507 -0.02374169 -0.02374169       0.028
   0.02374169  0.02374169  0.11870845       0.028
  -0.02374169  0.07122507  0.16619183       0.056
   0.21367521 -0.16619183 -0.07122507       0.056
   0.16619183 -0.11870845 -0.02374169       0.056
   0.11870845 -0.07122507  0.02374169       0.056
   0.02374169  0.02374169  0.21367521       0.028
   0.26115859 -0.21367521 -0.02374169       0.056
   0.21367521 -0.16619183  0.02374169       0.056
   0.16619183 -0.11870845  0.07122507       0.056
   0.02374169  0.02374169 -0.26115859       0.028
  -0.02374169  0.07122507 -0.21367521       0.056
   0.02374169  0.02374169 -0.16619183       0.028
   0.07122507  0.07122507  0.07122507       0.009
   0.02374169  0.11870845  0.11870845       0.028
   0.26115859 -0.11870845 -0.11870845       0.028
   0.21367521 -0.07122507 -0.07122507       0.028
   0.07122507  0.07122507  0.16619183       0.028
   0.30864198 -0.16619183 -0.07122507       0.056
   0.26115859 -0.11870845 -0.02374169       0.056
   0.07122507  0.07122507 -0.30864198       0.028
   0.11870845  0.11870845  0.11870845       0.009
   0.35612536 -0.11870845 -0.11870845       0.028
 
 k-points in reciprocal lattice and weights: Automatic mesh                          
   0.08333333  0.08333333  0.08333333       0.009
   0.25000000  0.08333333  0.08333333       0.028
   0.41666667  0.08333333  0.08333333       0.028
  -0.41666667  0.08333333  0.08333333       0.028
  -0.25000000  0.08333333  0.08333333       0.028
  -0.08333333  0.08333333  0.08333333       0.028
   0.25000000  0.25000000  0.08333333       0.028
   0.41666667  0.25000000  0.08333333       0.056
  -0.41666667  0.25000000  0.08333333       0.056
  -0.25000000  0.25000000  0.08333333       0.056
  -0.08333333  0.25000000  0.08333333       0.056
   0.41666667  0.41666667  0.08333333       0.028
  -0.41666667  0.41666667  0.08333333       0.056
  -0.25000000  0.41666667  0.08333333       0.056
  -0.08333333  0.41666667  0.08333333       0.056
  -0.41666667 -0.41666667  0.08333333       0.028
  -0.25000000 -0.41666667  0.08333333       0.056
  -0.25000000 -0.25000000  0.08333333       0.028
   0.25000000  0.25000000  0.25000000       0.009
   0.41666667  0.25000000  0.25000000       0.028
  -0.41666667  0.25000000  0.25000000       0.028
  -0.25000000  0.25000000  0.25000000       0.028
   0.41666667  0.41666667  0.25000000       0.028
  -0.41666667  0.41666667  0.25000000       0.056
  -0.25000000  0.41666667  0.25000000       0.056
  -0.41666667 -0.41666667  0.25000000       0.028
   0.41666667  0.41666667  0.41666667       0.009
  -0.41666667  0.41666667  0.41666667       0.028
 
 position of ions in fractional coordinates (direct lattice) 
   0.00000000  0.00000000  0.00000000
 
 position of ions in cartesian coordinates  (Angst):
   0.00000000  0.00000000  0.00000000
 


--------------------------------------------------------------------------------------------------------


 k-point   1 :   0.0833 0.0833 0.0833  plane waves:     178
 k-point   2 :   0.2500 0.0833 0.0833  plane waves:     192
 k-point   3 :   0.4167 0.0833 0.0833  plane waves:     195
 k-point   4 :  -0.4167 0.0833 0.0833  plane waves:     195
 k-point   5 :  -0.2500 0.0833 0.0833  plane waves:     195
 k-point   6 :  -0.0833 0.0833 0.0833  plane waves:     182
 k-point   7 :   0.2500 0.2500 0.0833  plane waves:     193
 k-point   8 :   0.4167 0.2500 0.0833  plane waves:     196
 k-point   9 :  -0.4167 0.2500 0.0833  plane waves:     195
 k-point  10 :  -0.2500 0.2500 0.0833  plane waves:     197
 k-point  11 :  -0.0833 0.2500 0.0833  plane waves:     196
 k-point  12 :   0.4167 0.4167 0.0833  plane waves:     203
 k-point  13 :  -0.4167 0.4167 0.0833  plane waves:     202
 k-point  14 :  -0.2500 0.4167 0.0833  plane waves:     197
 k-point  15 :  -0.0833 0.4167 0.0833  plane waves:     197
 k-point  16 :  -0.4167-0.4167 0.0833  plane waves:     198
 k-point  17 :  -0.2500-0.4167 0.0833  plane waves:     200
 k-point  18 :  -0.2500-0.2500 0.0833  plane waves:     196
 k-point  19 :   0.2500 0.2500 0.2500  plane waves:     193
 k-point  20 :   0.4167 0.2500 0.2500  plane waves:     197
 k-point  21 :  -0.4167 0.2500 0.2500  plane waves:     198
 k-point  22 :  -0.2500 0.2500 0.2500  plane waves:     197
 k-point  23 :   0.4167 0.4167 0.2500  plane waves:     196
 k-point  24 :  -0.4167 0.4167 0.2500  plane waves:     198
 k-point  25 :  -0.2500 0.4167 0.2500  plane waves:     202
 k-point  26 :  -0.4167-0.4167 0.2500  plane waves:     196
 k-point  27 :   0.4167 0.4167 0.4167  plane waves:     195
 k-point  28 :  -0.4167 0.4167 0.4167  plane waves:     198

 maximum and minimum number of plane-waves per node :        38       24

 maximum number of plane-waves:       203
 maximum index in each direction: 
   IXMAX=    4   IYMAX=    4   IZMAX=    3
   IXMIN=   -4   IYMIN=   -4   IZMIN=   -4


 parallel 3D FFT for wavefunctions:
    minimum data exchange during FFTs selected (reduces bandwidth)
 parallel 3D FFT for charge:
    minimum data exchange during FFTs selected (reduces bandwidth)


 total amount of memory used by VASP MPI-rank0    30662. kBytes
=======================================================================

   base      :      30000. kBytes
   nonl-proj :        161. kBytes
   fftplans  :         92. kBytes
   grid      :        217. kBytes
   one-center:         31. kBytes
   wavefun   :        161. kBytes
 
     INWAV:  cpu time      0.0000: real time      0.0004
 Broyden mixing: mesh for mixing (old mesh)
   NGX =  9   NGY =  9   NGZ =  9
  (NGX  = 32   NGY  = 32   NGZ  = 32)
  gives a total of    729 points

 initial charge density was supplied:
 charge density of overlapping atoms calculated
 number of electron       9.0000000 magnetization       3.0000000
 keeping initial charge density in first step


--------------------------------------------------------------------------------------------------------


 Maximum index for augmentation-charges         1165 (set IRDMAX)


--------------------------------------------------------------------------------------------------------


 First call to EWALD:  gamma=   0.802
 Maximum number of real-space cells 3x 3x 3
 Maximum number of reciprocal cells 3x 3x 3

    FEWALD:  cpu time      0.0014: real time      0.0014


--------------------------------------- Iteration      1(   1)  ---------------------------------------


    POTLOK:  cpu time      0.0048: real time      0.0057
    SETDIJ:  cpu time      0.0052: real time      0.0052
     EDDAV:  cpu time      0.1265: real time      0.1274
       DOS:  cpu time      0.0008: real time      0.0009
    --------------------------------------------
      LOOP:  cpu time      0.1373: real time      0.1392

 eigenvalue-minimisations  :  1360
 total energy-change (2. order) : 0.2250402E+02  (-0.3489658E+03)
 number of electron       9.0000000 magnetization       3.0000000
 augmentation part        9.0000000 magnetization       3.0000000

 Free energy of the ion-electron system (eV)
  ---------------------------------------------------
  alpha Z        PSCENC =        39.18058524
  Ewald energy   TEWEN  =      -761.78120824
  -Hartree energ DENC   =      -149.59159932
  -exchange      EXHF   =         0.00000000
  -V(xc)+E(xc)   XCENC  =        17.82600435
  PAW double counting   =       719.99081943     -772.94345096
  entropy T*S    EENTRO =        -0.00040915
  eigenvalues    EBANDS =       116.46554887
  atomic energy  EATOM  =       813.35773410
  Solvation  Ediel_sol  =         0.00000000
  ---------------------------------------------------
  free energy    TOTEN  =        22.50402433 eV

  energy without entropy =       22.50443348  energy(sigma->0) =       22.50422891


--------------------------------------------------------------------------------------------------------




--------------------------------------- Iteration      1(   2)  ---------------------------------------


     EDDAV:  cpu time      0.1242: real time      0.1255
       DOS:  cpu time      0.0004: real time      0.0004
    --------------------------------------------
      LOOP:  cpu time      0.1246: real time      0.1260

 eigenvalue-minimisations  :  1456
 total energy-change (2. order) :-0.2956583E+02  (-0.2761178E+02)
 number of electron       9.0000000 magnetization       3.0000000
 augmentation part        9.0000000 magnetization       3.0000000

 Free energy of the ion-electron system (eV)
  ---------------------------------------------------
  alpha Z        PSCENC =        39.18058524
  Ewald energy   TEWEN  =      -761.78120824
  -Hartree energ DENC   =      -149.59159932
  -exchange      EXHF   =         0.00000000
  -V(xc)+E(xc)   XCENC  =        17.82600435
  PAW double counting   =       719.99081943     -772.94345096
  entropy T*S    EENTRO =        -0.00138141
  eigenvalues    EBANDS =        86.90069505
  atomic energy  EATOM  =       813.35773410
  Solvation  Ediel_sol  =         0.00000000
  ---------------------------------------------------
  free energy    TOTEN  =        -7.06180176 eV

  energy without entropy =       -7.06042035  energy(sigma->0) =       -7.06111105


--------------------------------------------------------------------------------------------------------




--------------------------------------- Iteration      1(   3)  ---------------------------------------


     EDDAV:  cpu time      0.1289: real time      0.1297
       DOS:  cpu time      0.0004: real time      0.0004
    --------------------------------------------
      LOOP:  cpu time      0.1293: real time      0.1301

 eigenvalue-minimisations  :  1552
 total energy-change (2. order) :-0.7384258E+00  (-0.7358394E+00)
 number of electron       9.0000000 magnetization       3.0000000
 augmentation part        9.0000000 magnetization       3.0000000

 Free energy of the ion-electron system (eV)
  ---------------------------------------------------
  alpha Z        PSCENC =        39.18058524
  Ewald energy   TEWEN  =      -761.78120824
  -Hartree energ DENC   =      -149.59159932
  -exchange      EXHF   =         0.00000000
  -V(xc)+E(xc)   XCENC  =        17.82600435
  PAW double counting   =       719.99081943     -772.94345096
  entropy T*S    EENTRO =        -0.00129229
  eigenvalues    EBANDS =        86.16218012
  atomic energy  EATOM  =       813.35773410
  Solvation  Ediel_sol  =         0.00000000
  ---------------------------------------------------
  free energy    TOTEN  =        -7.80022756 eV

  energy without entropy =       -7.79893527  energy(sigma->0) =       -7.79958142


--------------------------------------------------------------------------------------------------------




--------------------------------------- Iteration      1(   4)  ---------------------------------------


     EDDAV:  cpu time      0.1326: real time      0.1336
       DOS:  cpu time      0.0004: real time      0.0004
    --------------------------------------------
      LOOP:  cpu time      0.1331: real time      0.1340

 eigenvalue-minimisations  :  1640
 total energy-change (2. order) :-0.7267203E-02  (-0.7265575E-02)
 number of electron       9.0000000 magnetization       3.0000000
 augmentation part        9.0000000 magnetization       3.0000000

 Free energy of the ion-electron system (eV)
  ---------------------------------------------------
  alpha Z        PSCENC =        39.18058524
  Ewald energy   TEWEN  =      -761.78120824
  -Hartree energ DENC   =      -149.59159932
  -exchange      EXHF   =         0.00000000
  -V(xc)+E(xc)   XCENC  =        17.82600435
  PAW double counting   =       719.99081943     -772.94345096
  entropy T*S    EENTRO =        -0.00129178
  eigenvalues    EBANDS =        86.15491241
  atomic energy  EATOM  =       813.35773410
  Solvation  Ediel_sol  =         0.00000000
  ---------------------------------------------------
  free energy    TOTEN  =        -7.80749476 eV

  energy without entropy =       -7.80620299  energy(sigma->0) =       -7.80684888


--------------------------------------------------------------------------------------------------------




--------------------------------------- Iteration      1(   5)  ---------------------------------------


     EDDAV:  cpu time      0.1402: real time      0.1411
       DOS:  cpu time      0.0005: real time      0.0005
    CHARGE:  cpu time      0.0086: real time      0.0086
    MIXING:  cpu time      0.0002: real time      0.0002
    --------------------------------------------
      LOOP:  cpu time      0.1495: real time      0.1504

 eigenvalue-minimisations  :  1780
 total energy-change (2. order) :-0.1781836E-03  (-0.1781802E-03)
 number of electron       9.0000000 magnetization       1.4689733
 augmentation part        4.5922821 magnetization       1.0523910

 Broyden mixing:
  rms(total) = 0.11348E+01    rms(broyden)= 0.11348E+01
  rms(prec ) = 0.32068E+01
  weight for this iteration     100.00

 Free energy of the ion-electron system (eV)
  ---------------------------------------------------
  alpha Z        PSCENC =        39.18058524
  Ewald energy   TEWEN  =      -761.78120824
  -Hartree energ DENC   =      -149.59159932
  -exchange      EXHF   =         0.00000000
  -V(xc)+E(xc)   XCENC  =        17.82600435
  PAW double counting   =       719.99081943     -772.94345096
  entropy T*S    EENTRO =        -0.00129177
  eigenvalues    EBANDS =        86.15473422
  atomic energy  EATOM  =       813.35773410
  Solvation  Ediel_sol  =         0.00000000
  ---------------------------------------------------
  free energy    TOTEN  =        -7.80767295 eV

  energy without entropy =       -7.80638117  energy(sigma->0) =       -7.80702706


--------------------------------------------------------------------------------------------------------




--------------------------------------- Iteration      1(   6)  ---------------------------------------


    POTLOK:  cpu time      0.0032: real time      0.0033
    SETDIJ:  cpu time      0.0047: real time      0.0047
     EDDAV:  cpu time      0.1379: real time      0.1387
       DOS:  cpu time      0.0005: real time      0.0005
    CHARGE:  cpu time      0.0079: real time      0.0079
    MIXING:  cpu time      0.0002: real time      0.0002
    --------------------------------------------
      LOOP:  cpu time      0.1543: real time      0.1553

 eigenvalue-minimisations  :  1732
 total energy-change (2. order) : 0.6160395E+00  (-0.1139313E+01)
 number of electron       9.0000000 magnetization       1.5795405
 augmentation part        5.3264876 magnetization       1.4474197

 Broyden mixing:
  rms(total) = 0.41946E+00    rms(broyden)= 0.41944E+00
  rms(prec ) = 0.87385E+00
  weight for this iteration     100.00

 eigenvalues of (default mixing * dielectric matrix)
  average eigenvalue GAMMA=   0.9128
  0.9128

 Free energy of the ion-electron system (eV)
  ---------------------------------------------------
  alpha Z        PSCENC =        39.18058524
  Ewald energy   TEWEN  =      -761.78120824
  -Hartree energ DENC   =      -131.30366825
  -exchange      EXHF   =         0.00000000
  -V(xc)+E(xc)   XCENC  =        16.32690054
  PAW double counting   =       794.31293135     -842.26683240
  entropy T*S    EENTRO =        -0.00319794
  eigenvalues    EBANDS =        64.98512218
  atomic energy  EATOM  =       813.35773410
  Solvation  Ediel_sol  =         0.00000000
  ---------------------------------------------------
  free energy    TOTEN  =        -7.19163342 eV

  energy without entropy =       -7.18843548  energy(sigma->0) =       -7.19003445


--------------------------------------------------------------------------------------------------------




--------------------------------------- Iteration      1(   7)  ---------------------------------------


    POTLOK:  cpu time      0.0029: real time      0.0031
    SETDIJ:  cpu time      0.0045: real time      0.0046
     EDDAV:  cpu time      0.1337: real time      0.1347
       DOS:  cpu time      0.0005: real time      0.0005
    CHARGE:  cpu time      0.0078: real time      0.0078
    MIXING:  cpu time      0.0002: real time      0.0002
    --------------------------------------------
      LOOP:  cpu time      0.1496: real time      0.1508

 eigenvalue-minimisations  :  1672
 total energy-change (2. order) : 0.1597747E+00  (-0.1311330E+00)
 number of electron       9.0000000 magnetization       1.7005019
 augmentation part        5.0915370 magnetization       1.5208147

 Broyden mixing:
  rms(total) = 0.24265E+00    rms(broyden)= 0.24265E+00
  rms(prec ) = 0.40011E+00
  weight for this iteration     100.00

 eigenvalues of (default mixing * dielectric matrix)
  average eigenvalue GAMMA=   0.7441
  0.9758  0.5123

 Free energy of the ion-electron system (eV)
  ---------------------------------------------------
  alpha Z        PSCENC =        39.18058524
  Ewald energy   TEWEN  =      -761.78120824
  -Hartree energ DENC   =      -134.94792152
  -exchange      EXHF   =         0.00000000
  -V(xc)+E(xc)   XCENC  =        16.55181596
  PAW double counting   =       828.66671460     -879.89555908
  entropy T*S    EENTRO =        -0.00224735
  eigenvalues    EBANDS =        71.83822758
  atomic energy  EATOM  =       813.35773410
  Solvation  Ediel_sol  =         0.00000000
  ---------------------------------------------------
  free energy    TOTEN  =        -7.03185870 eV

  energy without entropy =       -7.02961135  energy(sigma->0) =       -7.03073502


--------------------------------------------------------------------------------------------------------




--------------------------------------- Iteration      1(   8)  ---------------------------------------


    POTLOK:  cpu time      0.0029: real time      0.0031
    SETDIJ:  cpu time      0.0045: real time      0.0046
     EDDAV:  cpu time      0.1433: real time      0.1441
       DOS:  cpu time      0.0004: real time      0.0004
    CHARGE:  cpu time      0.0077: real time      0.0078
    MIXING:  cpu time      0.0002: real time      0.0002
    --------------------------------------------
      LOOP:  cpu time      0.1591: real time      0.1601

 eigenvalue-minimisations  :  1828
 total energy-change (2. order) : 0.9490589E-02  (-0.1510869E-02)
 number of electron       9.0000000 magnetization       1.6957150
 augmentation part        5.1081440 magnetization       1.5171542

 Broyden mixing:
  rms(total) = 0.12246E+00    rms(broyden)= 0.12246E+00
  rms(prec ) = 0.21452E+00
  weight for this iteration     100.00

 eigenvalues of (default mixing * dielectric matrix)
  average eigenvalue GAMMA=   1.1065
  1.9714  0.7714  0.5766

 Free energy of the ion-electron system (eV)
  ---------------------------------------------------
  alpha Z        PSCENC =        39.18058524
  Ewald energy   TEWEN  =      -761.78120824
  -Hartree energ DENC   =      -133.61084710
  -exchange      EXHF   =         0.00000000
  -V(xc)+E(xc)   XCENC  =        16.54731099
  PAW double counting   =       857.78943015     -909.74350485
  entropy T*S    EENTRO =        -0.00223040
  eigenvalues    EBANDS =        71.24036200
  atomic energy  EATOM  =       813.35773410
  Solvation  Ediel_sol  =         0.00000000
  ---------------------------------------------------
  free energy    TOTEN  =        -7.02236811 eV

  energy without entropy =       -7.02013770  energy(sigma->0) =       -7.02125291


--------------------------------------------------------------------------------------------------------




--------------------------------------- Iteration      1(   9)  ---------------------------------------


    POTLOK:  cpu time      0.0029: real time      0.0030
    SETDIJ:  cpu time      0.0045: real time      0.0045
     EDDAV:  cpu time      0.1490: real time      0.1499
       DOS:  cpu time      0.0005: real time      0.0005
    CHARGE:  cpu time      0.0077: real time      0.0077
    MIXING:  cpu time      0.0003: real time      0.0003
    --------------------------------------------
      LOOP:  cpu time      0.1649: real time      0.1659

 eigenvalue-minimisations  :  1924
 total energy-change (2. order) : 0.6314320E-02  (-0.6823740E-03)
 number of electron       9.0000000 magnetization       1.6683487
 augmentation part        5.1237150 magnetization       1.4938853

 Broyden mixing:
  rms(total) = 0.26991E-01    rms(broyden)= 0.26991E-01
  rms(prec ) = 0.42950E-01
  weight for this iteration     100.00

 eigenvalues of (default mixing * dielectric matrix)
  average eigenvalue GAMMA=   1.0600
  2.1986  0.7078  0.7078  0.6257

 Free energy of the ion-electron system (eV)
  ---------------------------------------------------
  alpha Z        PSCENC =        39.18058524
  Ewald energy   TEWEN  =      -761.78120824
  -Hartree energ DENC   =      -132.24370994
  -exchange      EXHF   =         0.00000000
  -V(xc)+E(xc)   XCENC  =        16.49055678
  PAW double counting   =       891.93204582     -944.71916977
  entropy T*S    EENTRO =        -0.00222953
  eigenvalues    EBANDS =        70.76934174
  atomic energy  EATOM  =       813.35773410
  Solvation  Ediel_sol  =         0.00000000
  ---------------------------------------------------
  free energy    TOTEN  =        -7.01605379 eV

  energy without entropy =       -7.01382426  energy(sigma->0) =       -7.01493903


--------------------------------------------------------------------------------------------------------




--------------------------------------- Iteration      1(  10)  ---------------------------------------


    POTLOK:  cpu time      0.0028: real time      0.0030
    SETDIJ:  cpu time      0.0045: real time      0.0045
     EDDAV:  cpu time      0.1564: real time      0.1573
       DOS:  cpu time      0.0005: real time      0.0005
    CHARGE:  cpu time      0.0088: real time      0.0088
    MIXING:  cpu time      0.0003: real time      0.0003
    --------------------------------------------
      LOOP:  cpu time      0.1733: real time      0.1744

 eigenvalue-minimisations  :  1848
 total energy-change (2. order) : 0.2090049E-03  (-0.1811710E-04)
 number of electron       9.0000000 magnetization       1.6668967
 augmentation part        5.1254143 magnetization       1.4924512

 Broyden mixing:
  rms(total) = 0.57061E-02    rms(broyden)= 0.57060E-02
  rms(prec ) = 0.11529E-01
  weight for this iteration     100.00

 eigenvalues of (default mixing * dielectric matrix)
  average eigenvalue GAMMA=   1.2008
  2.5312  1.3632  0.7747  0.6939  0.6411

 Free energy of the ion-electron system (eV)
  ---------------------------------------------------
  alpha Z        PSCENC =        39.18058524
  Ewald energy   TEWEN  =      -761.78120824
  -Hartree energ DENC   =      -131.98488611
  -exchange      EXHF   =         0.00000000
  -V(xc)+E(xc)   XCENC  =        16.46641556
  PAW double counting   =       900.61748134     -953.61663092
  entropy T*S    EENTRO =        -0.00216326
  eigenvalues    EBANDS =        70.74682751
  atomic energy  EATOM  =       813.35773410
  Solvation  Ediel_sol  =         0.00000000
  ---------------------------------------------------
  free energy    TOTEN  =        -7.01584478 eV

  energy without entropy =       -7.01368152  energy(sigma->0) =       -7.01476315


--------------------------------------------------------------------------------------------------------




--------------------------------------- Iteration      1(  11)  ---------------------------------------


    POTLOK:  cpu time      0.0031: real time      0.0032
    SETDIJ:  cpu time      0.0048: real time      0.0048
     EDDAV:  cpu time      0.1492: real time      0.1500
       DOS:  cpu time      0.0005: real time      0.0005
    CHARGE:  cpu time      0.0079: real time      0.0079
    MIXING:  cpu time      0.0003: real time      0.0003
    --------------------------------------------
      LOOP:  cpu time      0.1657: real time      0.1667

 eigenvalue-minimisations  :  1908
 total energy-change (2. order) : 0.2726906E-04  (-0.7503036E-05)
 number of electron       9.0000000 magnetization       1.6661872
 augmentation part        5.1256537 magnetization       1.4904106

 Broyden mixing:
  rms(total) = 0.42507E-02    rms(broyden)= 0.42507E-02
  rms(prec ) = 0.43879E-02
  weight for this iteration     100.00

 eigenvalues of (default mixing * dielectric matrix)
  average eigenvalue GAMMA=   1.0989
  2.4082  1.2799  0.6106  0.8328  0.7310  0.7310

 Free energy of the ion-electron system (eV)
  ---------------------------------------------------
  alpha Z        PSCENC =        39.18058524
  Ewald energy   TEWEN  =      -761.78120824
  -Hartree energ DENC   =      -131.85766463
  -exchange      EXHF   =         0.00000000
  -V(xc)+E(xc)   XCENC  =        16.45703424
  PAW double counting   =       906.24020630     -959.35359951
  entropy T*S    EENTRO =        -0.00215752
  eigenvalues    EBANDS =        70.74325250
  atomic energy  EATOM  =       813.35773410
  Solvation  Ediel_sol  =         0.00000000
  ---------------------------------------------------
  free energy    TOTEN  =        -7.01581752 eV

  energy without entropy =       -7.01366000  energy(sigma->0) =       -7.01473876


--------------------------------------------------------------------------------------------------------




--------------------------------------- Iteration      1(  12)  ---------------------------------------


    POTLOK:  cpu time      0.0029: real time      0.0030
    SETDIJ:  cpu time      0.0046: real time      0.0046
     EDDAV:  cpu time      0.1059: real time      0.1065
       DOS:  cpu time      0.0005: real time      0.0005
    CHARGE:  cpu time      0.0077: real time      0.0077
    MIXING:  cpu time      0.0003: real time      0.0003
    --------------------------------------------
      LOOP:  cpu time      0.1218: real time      0.1226

 eigenvalue-minimisations  :  1148
 total energy-change (2. order) : 0.1162283E-05  (-0.2660292E-06)
 number of electron       9.0000000 magnetization       1.6674946
 augmentation part        5.1258073 magnetization       1.4919724

 Broyden mixing:
  rms(total) = 0.16928E-02    rms(broyden)= 0.16928E-02
  rms(prec ) = 0.18109E-02
  weight for this iteration     100.00

 eigenvalues of (default mixing * dielectric matrix)
  average eigenvalue GAMMA=   1.3106
  2.5521  2.5521  1.1957  0.8137  0.6232  0.7187  0.7187

 Free energy of the ion-electron system (eV)
  ---------------------------------------------------
  alpha Z        PSCENC =        39.18058524
  Ewald energy   TEWEN  =      -761.78120824
  -Hartree energ DENC   =      -131.87454224
  -exchange      EXHF   =         0.00000000
  -V(xc)+E(xc)   XCENC  =        16.45828688
  PAW double counting   =       906.06915725     -959.16188326
  entropy T*S    EENTRO =        -0.00215932
  eigenvalues    EBANDS =        70.73821323
  atomic energy  EATOM  =       813.35773410
  Solvation  Ediel_sol  =         0.00000000
  ---------------------------------------------------
  free energy    TOTEN  =        -7.01581635 eV

  energy without entropy =       -7.01365703  energy(sigma->0) =       -7.01473669


--------------------------------------------------------------------------------------------------------




--------------------------------------- Iteration      1(  13)  ---------------------------------------


    POTLOK:  cpu time      0.0029: real time      0.0030
    SETDIJ:  cpu time      0.0045: real time      0.0045
     EDDAV:  cpu time      0.1007: real time      0.1015
       DOS:  cpu time      0.0005: real time      0.0005
    --------------------------------------------
      LOOP:  cpu time      0.1086: real time      0.1095

 eigenvalue-minimisations  :  1044
 total energy-change (2. order) : 0.5472276E-06  (-0.1565547E-06)
 number of electron       9.0000000 magnetization       1.6674946
 augmentation part        5.1258073 magnetization       1.4919724

 Free energy of the ion-electron system (eV)
  ---------------------------------------------------
  alpha Z        PSCENC =        39.18058524
  Ewald energy   TEWEN  =      -761.78120824
  -Hartree energ DENC   =      -131.87988436
  -exchange      EXHF   =         0.00000000
  -V(xc)+E(xc)   XCENC  =        16.45941987
  PAW double counting   =       906.43694503     -959.52054956
  entropy T*S    EENTRO =        -0.00216266
  eigenvalues    EBANDS =        70.73330478
  atomic energy  EATOM  =       813.35773410
  Solvation  Ediel_sol  =         0.00000000
  ---------------------------------------------------
  free energy    TOTEN  =        -7.01581581 eV

  energy without entropy =       -7.01365314  energy(sigma->0) =       -7.01473447


--------------------------------------------------------------------------------------------------------




 average (electrostatic) potential at core
  the test charge radii are     1.0452
  (the norm of the test charge is              1.0000)
       1 -78.2461
 
 
 
 E-fermi :  10.4231     XC(G=0): -13.4265     alpha+bet :-17.7917

 Fermi energy:        10.4231214481

 spin component 1

 k-point     1 :       0.0833    0.0833    0.0833
  band No.  band energies     occupation 
      1       1.6443      1.00000
      2       7.5833      1.00000
      3       7.7233      1.00000
      4       7.7233      1.00000
      5       8.7011      1.00000
      6       8.7011      1.00000
      7      32.7112      0.00000
      8      35.4423      0.00000
      9      37.4032      0.00000
     10      37.4032      0.00000
     11      41.7567      0.00000
     12      41.7569      0.00000

 k-point     2 :       0.2500    0.0833    0.0833
  band No.  band energies     occupation 
      1       3.0169      1.00000
      2       7.2646      1.00000
      3       7.8743      1.00000
      4       7.9651      1.00000
      5       8.4992      1.00000
      6       8.9766      1.00000
      7      28.0179      0.00000
      8      31.4758      0.00000
      9      36.6039      0.00000
     10      39.0273      0.00000
     11      39.5322      0.00000
     12      41.0740      0.00000

 k-point     3 :       0.4167    0.0833    0.0833
  band No.  band energies     occupation 
      1       5.0488      1.00000
      2       7.5829      1.00000
      3       7.7492      1.00000
      4       7.8197      1.00000
      5       9.1436      1.00000
      6       9.9463      1.00000
      7      20.2601      0.00000
      8      30.5853      0.00000
      9      34.3791      0.00000
     10      36.4319      0.00000
     11      38.9359      0.00000
     12      40.4378      0.00000

 k-point     4 :      -0.4167    0.0833    0.0833
  band No.  band energies     occupation 
      1       5.3151      1.00000
      2       7.4069      1.00000
      3       7.6577      1.00000
      4       8.6737      1.00000
      5       9.6217      1.00000
      6      11.1168      0.00000
      7      16.7961      0.00000
      8      30.9939      0.00000
      9      33.5310      0.00000
     10      33.9198      0.00000
     11      40.0192      0.00000
     12      40.0458      0.00000

 k-point     5 :      -0.2500    0.0833    0.0833
  band No.  band energies     occupation 
      1       4.5395      1.00000
      2       7.3111      1.00000
      3       7.6787      1.00000
      4       7.8810      1.00000
      5       9.1902      1.00000
      6       9.2788      1.00000
      7      22.6664      0.00000
      8      32.2912      0.00000
      9      33.0555      0.00000
     10      36.3144      0.00000
     11      40.0185      0.00000
     12      42.5468      0.00000

 k-point     6 :      -0.0833    0.0833    0.0833
  band No.  band energies     occupation 
      1       2.3541      1.00000
      2       7.3439      1.00000
      3       7.8981      1.00000
      4       7.9079      1.00000
      5       8.4964      1.00000
      6       8.8311      1.00000
      7      30.7331      0.00000
      8      33.7579      0.00000
      9      34.4999      0.00000
     10      37.1868      0.00000
     11      41.3420      0.00000
     12      43.6584      0.00000

 k-point     7 :       0.2500    0.2500    0.0833
  band No.  band energies     occupation 
      1       3.6272      1.00000
      2       6.9131      1.00000
      3       7.9560      1.00000
      4       8.2593      1.00000
      5       8.5745      1.00000
      6       9.0582      1.00000
      7      28.4990      0.00000
      8      31.4903      0.00000
      9      31.9943      0.00000
     10      34.1197      0.00000
     11      39.0764      0.00000
     12      45.1696      0.00000

 k-point     8 :       0.4167    0.2500    0.0833
  band No.  band energies     occupation 
      1       5.3489      1.00000
      2       6.6172      1.00000
      3       7.5327      1.00000
      4       8.5423      1.00000
      5       9.1644      1.00000
      6      10.2845      0.99996
      7      23.6133      0.00000
      8      27.1006      0.00000
      9      29.5732      0.00000
     10      34.8948      0.00000
     11      39.8797      0.00000
     12      44.1091      0.00000

 k-point     9 :      -0.4167    0.2500    0.0833
  band No.  band energies     occupation 
      1       6.0303      1.00000
      2       6.7284      1.00000
      3       7.6116      1.00000
      4       8.2488      1.00000
      5       9.5749      1.00000
      6      13.6791      0.00000
      7      17.2356      0.00000
      8      26.1443      0.00000
      9      28.0946      0.00000
     10      35.0180      0.00000
     11      41.4507      0.00000
     12      46.6440      0.00000

 k-point    10 :      -0.2500    0.2500    0.0833
  band No.  band energies     occupation 
      1       5.9344      1.00000
      2       6.9548      1.00000
      3       7.1561      1.00000
      4       8.3201      1.00000
      5       9.0533      1.00000
      6      11.4812      0.00000
      7      21.1872      0.00000
      8      25.0058      0.00000
      9      30.6136      0.00000
     10      36.8639      0.00000
     11      39.8942      0.00000
     12      45.1917      0.00000

 k-point    11 :      -0.0833    0.2500    0.0833
  band No.  band energies     occupation 
      1       4.1867      1.00000
      2       6.9914      1.00000
      3       7.7166      1.00000
      4       8.1721      1.00000
      5       8.6475      1.00000
      6       9.4348      1.00000
      7      25.6212      0.00000
      8      29.1421      0.00000
      9      34.1815      0.00000
     10      36.5674      0.00000
     11      40.9354      0.00000
     12      41.7941      0.00000

 k-point    12 :       0.4167    0.4167    0.0833
  band No.  band energies     occupation 
      1       5.2893      1.00000
      2       6.0347      1.00000
      3       8.8730      1.00000
      4       9.1568      1.00000
      5       9.6009      1.00000
      6      10.8330      0.00000
      7      24.0643      0.00000
      8      24.9790      0.00000
      9      26.8542      0.00000
     10      31.4748      0.00000
     11      35.7970      0.00000
     12      47.2303      0.00000

 k-point    13 :      -0.4167    0.4167    0.0833
  band No.  band energies     occupation 
      1       5.5624      1.00000
      2       6.0811      1.00000
      3       8.4190      1.00000
      4       9.1210      1.00000
      5       9.7787      1.00000
      6      14.5045      0.00000
      7      20.6770      0.00000
      8      21.5483      0.00000
      9      24.9196      0.00000
     10      33.6096      0.00000
     11      38.7862      0.00000
     12      47.1547      0.00000

 k-point    14 :      -0.2500    0.4167    0.0833
  band No.  band energies     occupation 
      1       6.2976      1.00000
      2       6.5104      1.00000
      3       7.4093      1.00000
      4       8.5585      1.00000
      5       9.4928      1.00000
      6      15.4176      0.00000
      7      17.7030      0.00000
      8      22.3113      0.00000
      9      27.3213      0.00000
     10      34.9274      0.00000
     11      43.3381      0.00000
     12      46.4349      0.00000

 k-point    15 :      -0.0833    0.4167    0.0833
  band No.  band energies     occupation 
      1       5.5560      1.00000
      2       7.2157      1.00000
      3       7.7913      1.00000
      4       7.9513      1.00000
      5       9.4590      1.00000
      6      11.3590      0.00000
      7      18.4213      0.00000
      8      28.8238      0.00000
      9      31.1784      0.00000
     10      35.2715      0.00000
     11      39.9702      0.00000
     12      43.4395      0.00000

 k-point    16 :      -0.4167   -0.4167    0.0833
  band No.  band energies     occupation 
      1       5.2090      1.00000
      2       5.8117      1.00000
      3       9.4023      1.00000
      4       9.4143      1.00000
      5       9.8037      1.00000
      6      13.0121      0.00000
      7      20.6807      0.00000
      8      23.8955      0.00000
      9      25.7591      0.00000
     10      31.2075      0.00000
     11      35.4297      0.00000
     12      47.3470      0.00000

 k-point    17 :      -0.2500   -0.4167    0.0833
  band No.  band energies     occupation 
      1       5.6783      1.00000
      2       6.2710      1.00000
      3       7.9298      1.00000
      4       8.9495      1.00000
      5       9.5556      1.00000
      6      12.0943      0.00000
      7      22.0572      0.00000
      8      24.6215      0.00000
      9      25.9226      0.00000
     10      34.0025      0.00000
     11      39.1050      0.00000
     12      46.0722      0.00000

 k-point    18 :      -0.2500   -0.2500    0.0833
  band No.  band energies     occupation 
      1       4.9076      1.00000
      2       6.4337      1.00000
      3       8.0651      1.00000
      4       8.7194      1.00000
      5       9.3100      1.00000
      6       9.3311      1.00000
      7      26.4047      0.00000
      8      28.6486      0.00000
      9      28.8514      0.00000
     10      32.1497      0.00000
     11      36.8297      0.00000
     12      47.1990      0.00000

 k-point    19 :       0.2500    0.2500    0.2500
  band No.  band energies     occupation 
      1       3.5878      1.00000
      2       7.3418      1.00000
      3       7.8405      1.00000
      4       7.8405      1.00000
      5       8.8745      1.00000
      6       8.8745      1.00000
      7      25.1135      0.00000
      8      33.7092      0.00000
      9      36.0680      0.00000
     10      36.0680      0.00000
     11      41.3236      0.00000
     12      41.3236      0.00000

 k-point    20 :       0.4167    0.2500    0.2500
  band No.  band energies     occupation 
      1       5.0996      1.00000
      2       7.0601      1.00000
      3       7.5138      1.00000
      4       8.0930      1.00000
      5       8.6777      1.00000
      6      10.2135      1.00000
      7      23.1786      0.00000
      8      26.8390      0.00000
      9      35.1287      0.00000
     10      36.0750      0.00000
     11      40.3313      0.00000
     12      41.8395      0.00000

 k-point    21 :      -0.4167    0.2500    0.2500
  band No.  band energies     occupation 
      1       6.2664      1.00000
      2       6.8037      1.00000
      3       7.3122      1.00000
      4       8.2976      1.00000
      5       9.1840      1.00000
      6      13.1207      0.00000
      7      19.1875      0.00000
      8      23.3668      0.00000
      9      31.4831      0.00000
     10      33.0878      0.00000
     11      44.2330      0.00000
     12      44.6296      0.00000

 k-point    22 :      -0.2500    0.2500    0.2500
  band No.  band energies     occupation 
      1       5.8524      1.00000
      2       6.4908      1.00000
      3       7.7615      1.00000
      4       8.4874      1.00000
      5       9.6794      1.00000
      6      12.7825      0.00000
      7      19.1897      0.00000
      8      25.2178      0.00000
      9      28.7869      0.00000
     10      32.3788      0.00000
     11      42.8317      0.00000
     12      46.4073      0.00000

 k-point    23 :       0.4167    0.4167    0.2500
  band No.  band energies     occupation 
      1       5.4402      1.00000
      2       6.9535      1.00000
      3       7.5572      1.00000
      4       8.1159      1.00000
      5       9.5752      1.00000
      6      10.5005      0.01427
      7      20.6857      0.00000
      8      29.4811      0.00000
      9      30.5661      0.00000
     10      33.2404      0.00000
     11      43.3192      0.00000
     12      44.0442      0.00000

 k-point    24 :      -0.4167    0.4167    0.2500
  band No.  band energies     occupation 
      1       6.2306      1.00000
      2       6.6337      1.00000
      3       7.1786      1.00000
      4       8.6321      1.00000
      5       9.4802      1.00000
      6      13.6467      0.00000
      7      19.6785      0.00000
      8      23.6762      0.00000
      9      25.9349      0.00000
     10      37.7156      0.00000
     11      40.1564      0.00000
     12      44.7288      0.00000

 k-point    25 :      -0.2500    0.4167    0.2500
  band No.  band energies     occupation 
      1       6.0250      1.00000
      2       6.5964      1.00000
      3       7.4042      1.00000
      4       8.7278      1.00000
      5       9.7698      1.00000
      6      16.4491      0.00000
      7      18.7565      0.00000
      8      21.6643      0.00000
      9      23.3263      0.00000
     10      37.6505      0.00000
     11      42.0981      0.00000
     12      43.8866      0.00000

 k-point    26 :      -0.4167   -0.4167    0.2500
  band No.  band energies     occupation 
      1       5.8499      1.00000
      2       6.2769      1.00000
      3       8.0267      1.00000
      4       8.8407      1.00000
      5       9.6075      1.00000
      6      15.5602      0.00000
      7      18.1971      0.00000
      8      21.5086      0.00000
      9      27.8570      0.00000
     10      32.1497      0.00000
     11      42.5079      0.00000
     12      47.2359      0.00000

 k-point    27 :       0.4167    0.4167    0.4167
  band No.  band energies     occupation 
      1       5.0884      1.00000
      2       7.5868      1.00000
      3       7.5868      1.00000
      4       9.1487      1.00000
      5       9.4999      1.00000
      6       9.4999      1.00000
      7      18.0690      0.00000
      8      32.2716      0.00000
      9      35.4374      0.00000
     10      35.4374      0.00000
     11      38.4205      0.00000
     12      38.4205      0.00000

 k-point    28 :      -0.4167    0.4167    0.4167
  band No.  band energies     occupation 
      1       5.7416      1.00000
      2       7.0729      1.00000
      3       7.9375      1.00000
      4       7.9500      1.00000
      5       9.4788      1.00000
      6      12.6711      0.00000
      7      16.9988      0.00000
      8      27.3024      0.00000
      9      32.1692      0.00000
     10      33.1025      0.00000
     11      42.2602      0.00000
     12      42.5707      0.00000
 Fermi energy:        10.4231214481

 spin component 2

 k-point     1 :       0.0833    0.0833    0.0833
  band No.  band energies     occupation 
      1       1.6608      1.00000
      2       9.1881      1.00000
      3       9.3586      1.00000
      4       9.3586      1.00000
      5      10.6821      0.00000
      6      10.6821      0.00000
      7      32.5866      0.00000
      8      35.4815      0.00000
      9      37.6279      0.00000
     10      37.6279      0.00000
     11      41.9261      0.00000
     12      41.9899      0.00000

 k-point     2 :       0.2500    0.0833    0.0833
  band No.  band energies     occupation 
      1       3.0573      1.00000
      2       8.7620      1.00000
      3       9.5467      1.00000
      4       9.6471      1.00000
      5      10.4176      0.56175
      6      10.9202      0.00000
      7      28.3466      0.00000
      8      31.6382      0.00000
      9      36.6027      0.00000
     10      39.2273      0.00000
     11      39.5131      0.00000
     12      41.3700      0.00000

 k-point     3 :       0.4167    0.0833    0.0833
  band No.  band energies     occupation 
      1       5.5657      1.00000
      2       8.7509      1.00000
      3       9.2827      1.00000
      4       9.4951      1.00000
      5      11.0317      0.00000
      6      11.7147      0.00000
      7      20.9146      0.00000
      8      30.6931      0.00000
      9      34.4279      0.00000
     10      36.7780      0.00000
     11      39.2315      0.00000
     12      40.6002      0.00000

 k-point     4 :      -0.4167    0.0833    0.0833
  band No.  band energies     occupation 
      1       6.2577      1.00000
      2       9.0266      1.00000
      3       9.3902      1.00000
      4       9.5745      1.00000
      5      11.5714      0.00000
      6      12.2369      0.00000
      7      17.7792      0.00000
      8      30.9113      0.00000
      9      33.8658      0.00000
     10      34.1677      0.00000
     11      40.2460      0.00000
     12      40.2862      0.00000

 k-point     5 :      -0.2500    0.0833    0.0833
  band No.  band energies     occupation 
      1       4.7794      1.00000
      2       8.5399      1.00000
      3       9.3957      1.00000
      4       9.6071      1.00000
      5      10.9703      0.00000
      6      11.2259      0.00000
      7      23.1968      0.00000
      8      32.1693      0.00000
      9      33.4161      0.00000
     10      36.6532      0.00000
     11      40.1741      0.00000
     12      42.7214      0.00000

 k-point     6 :      -0.0833    0.0833    0.0833
  band No.  band energies     occupation 
      1       2.3778      1.00000
      2       8.8976      1.00000
      3       9.5521      1.00000
      4       9.5621      1.00000
      5      10.4215      0.51846
      6      10.8203      0.00000
      7      30.9194      0.00000
      8      33.7005      0.00000
      9      34.8327      0.00000
     10      37.2446      0.00000
     11      41.6025      0.00000
     12      44.2079      0.00000

 k-point     7 :       0.2500    0.2500    0.0833
  band No.  band energies     occupation 
      1       3.6997      1.00000
      2       8.3882      1.00000
      3       9.6914      1.00000
      4       9.9565      1.00000
      5      10.3114      0.99921
      6      11.0586      0.00000
      7      28.8212      0.00000
      8      31.8379      0.00000
      9      32.0225      0.00000
     10      34.2801      0.00000
     11      39.7276      0.00000
     12      45.1834      0.00000

 k-point     8 :       0.4167    0.2500    0.0833
  band No.  band energies     occupation 
      1       5.7637      1.00000
      2       7.9743      1.00000
      3       9.0977      1.00000
      4      10.3259      0.99701
      5      10.9859      0.00000
      6      11.9441      0.00000
      7      24.0734      0.00000
      8      27.4234      0.00000
      9      29.8901      0.00000
     10      35.0870      0.00000
     11      40.2416      0.00000
     12      44.3604      0.00000

 k-point     9 :      -0.4167    0.2500    0.0833
  band No.  band energies     occupation 
      1       7.1150      1.00000
      2       8.0269      1.00000
      3       8.9156      1.00000
      4      10.0547      1.00000
      5      11.4871      0.00000
      6      14.5651      0.00000
      7      18.0510      0.00000
      8      26.5023      0.00000
      9      28.4584      0.00000
     10      35.1525      0.00000
     11      41.6284      0.00000
     12      47.1708      0.00000

 k-point    10 :      -0.2500    0.2500    0.0833
  band No.  band energies     occupation 
      1       6.5340      1.00000
      2       8.2334      1.00000
      3       8.7156      1.00000
      4      10.1375      1.00000
      5      10.8663      0.00000
      6      12.9294      0.00000
      7      21.7577      0.00000
      8      25.4047      0.00000
      9      30.8987      0.00000
     10      36.9923      0.00000
     11      40.0111      0.00000
     12      45.5928      0.00000

 k-point    11 :      -0.0833    0.2500    0.0833
  band No.  band energies     occupation 
      1       4.3008      1.00000
      2       8.4149      1.00000
      3       9.4164      1.00000
      4       9.9087      1.00000
      5      10.4596      0.15142
      6      11.3286      0.00000
      7      26.0383      0.00000
      8      29.4127      0.00000
      9      34.2964      0.00000
     10      36.7247      0.00000
     11      41.1716      0.00000
     12      42.0975      0.00000

 k-point    12 :       0.4167    0.4167    0.0833
  band No.  band energies     occupation 
      1       6.2238      1.00000
      2       7.3696      1.00000
      3      10.1479      1.00000
      4      11.0540      0.00000
      5      11.5698      0.00000
      6      11.9869      0.00000
      7      24.5532      0.00000
      8      25.3433      0.00000
      9      27.1015      0.00000
     10      31.8078      0.00000
     11      36.2407      0.00000
     12      50.8888      0.00000

 k-point    13 :      -0.4167    0.4167    0.0833
  band No.  band energies     occupation 
      1       6.7883      1.00000
      2       7.3695      1.00000
      3       9.7606      1.00000
      4      11.0973      0.00000
      5      11.6596      0.00000
      6      15.1486      0.00000
      7      21.3007      0.00000
      8      22.0768      0.00000
      9      25.2314      0.00000
     10      33.8662      0.00000
     11      39.1740      0.00000
     12      48.2965      0.00000

 k-point    14 :      -0.2500    0.4167    0.0833
  band No.  band energies     occupation 
      1       7.6056      1.00000
      2       7.6725      1.00000
      3       8.7094      1.00000
      4      10.4465      0.25393
      5      11.3461      0.00000
      6      16.1960      0.00000
      7      18.3794      0.00000
      8      22.8616      0.00000
      9      27.6795      0.00000
     10      35.0986      0.00000
     11      43.4280      0.00000
     12      47.3734      0.00000

 k-point    15 :      -0.0833    0.4167    0.0833
  band No.  band energies     occupation 
      1       6.3971      1.00000
      2       8.5752      1.00000
      3       9.0809      1.00000
      4       9.6722      1.00000
      5      11.3629      0.00000
      6      12.6678      0.00000
      7      19.1826      0.00000
      8      29.0322      0.00000
      9      31.4688      0.00000
     10      35.4150      0.00000
     11      40.2096      0.00000
     12      43.5721      0.00000

 k-point    16 :      -0.4167   -0.4167    0.0833
  band No.  band energies     occupation 
      1       6.3871      1.00000
      2       7.1144      1.00000
      3      10.9338      0.00000
      4      11.4362      0.00000
      5      11.7022      0.00000
      6      13.4780      0.00000
      7      21.4869      0.00000
      8      24.1711      0.00000
      9      25.9536      0.00000
     10      31.5840      0.00000
     11      35.8670      0.00000
     12      51.0881      0.00000

 k-point    17 :      -0.2500   -0.4167    0.0833
  band No.  band energies     occupation 
      1       6.6689      1.00000
      2       7.5852      1.00000
      3       9.2469      1.00000
      4      10.8200      0.00000
      5      11.4486      0.00000
      6      13.2284      0.00000
      7      22.5115      0.00000
      8      25.0830      0.00000
      9      26.2816      0.00000
     10      34.2315      0.00000
     11      39.4765      0.00000
     12      46.4776      0.00000

 k-point    18 :      -0.2500   -0.2500    0.0833
  band No.  band energies     occupation 
      1       5.2641      1.00000
      2       7.8294      1.00000
      3       9.5518      1.00000
      4      10.4936      0.02312
      5      10.9359      0.00000
      6      11.3333      0.00000
      7      26.7576      0.00000
      8      28.9324      0.00000
      9      29.1620      0.00000
     10      32.4117      0.00000
     11      37.3338      0.00000
     12      48.7744      0.00000

 k-point    19 :       0.2500    0.2500    0.2500
  band No.  band energies     occupation 
      1       3.6749      1.00000
      2       8.7157      1.00000
      3       9.5469      1.00000
      4       9.5469      1.00000
      5      10.7946      0.00000
      6      10.7946      0.00000
      7      25.5494      0.00000
      8      33.4634      0.00000
      9      36.4261      0.00000
     10      36.4261      0.00000
     11      41.5083      0.00000
     12      41.5083      0.00000

 k-point    20 :       0.4167    0.2500    0.2500
  band No.  band energies     occupation 
      1       5.3588      1.00000
      2       8.3918      1.00000
      3       9.1532      1.00000
      4       9.9039      1.00000
      5      10.4813      0.04995
      6      11.9763      0.00000
      7      23.6866      0.00000
      8      27.1817      0.00000
      9      35.1211      0.00000
     10      36.4201      0.00000
     11      40.2997      0.00000
     12      42.1205      0.00000

 k-point    21 :      -0.4167    0.2500    0.2500
  band No.  band energies     occupation 
      1       7.1860      1.00000
      2       8.1859      1.00000
      3       8.6133      1.00000
      4      10.1546      1.00000
      5      11.0136      0.00000
      6      14.2310      0.00000
      7      19.8408      0.00000
      8      23.8431      0.00000
      9      31.8408      0.00000
     10      33.1929      0.00000
     11      44.2173      0.00000
     12      44.8026      0.00000

 k-point    22 :      -0.2500    0.2500    0.2500
  band No.  band energies     occupation 
      1       6.9176      1.00000
      2       7.7390      1.00000
      3       9.0832      1.00000
      4      10.3220      0.99788
      5      11.6258      0.00000
      6      13.8173      0.00000
      7      19.7910      0.00000
      8      25.6516      0.00000
      9      29.0917      0.00000
     10      32.6180      0.00000
     11      43.1665      0.00000
     12      46.5672      0.00000

 k-point    23 :       0.4167    0.4167    0.2500
  band No.  band energies     occupation 
      1       6.0422      1.00000
      2       8.1842      1.00000
      3       9.0936      1.00000
      4       9.8821      1.00000
      5      11.5390      0.00000
      6      11.9493      0.00000
      7      21.2773      0.00000
      8      29.6512      0.00000
      9      30.9003      0.00000
     10      33.5075      0.00000
     11      43.4281      0.00000
     12      44.3823      0.00000

 k-point    24 :      -0.4167    0.4167    0.2500
  band No.  band energies     occupation 
      1       7.3021      1.00000
      2       7.9364      1.00000
      3       8.5100      1.00000
      4      10.4995      0.01536
      5      11.3293      0.00000
      6      14.6454      0.00000
      7      20.2619      0.00000
      8      24.1159      0.00000
      9      26.3554      0.00000
     10      37.8367      0.00000
     11      40.2898      0.00000
     12      45.3719      0.00000

 k-point    25 :      -0.2500    0.4167    0.2500
  band No.  band energies     occupation 
      1       7.3128      1.00000
      2       7.8656      1.00000
      3       8.6952      1.00000
      4      10.6366      0.00000
      5      11.6429      0.00000
      6      17.1036      0.00000
      7      19.3230      0.00000
      8      22.2686      0.00000
      9      23.7696      0.00000
     10      37.8015      0.00000
     11      42.2483      0.00000
     12      44.2277      0.00000

 k-point    26 :      -0.4167   -0.4167    0.2500
  band No.  band energies     occupation 
      1       7.1419      1.00000
      2       7.4931      1.00000
      3       9.3257      1.00000
      4      10.7721      0.00000
      5      11.4872      0.00000
      6      16.2479      0.00000
      7      18.7777      0.00000
      8      22.1578      0.00000
      9      28.1437      0.00000
     10      32.4176      0.00000
     11      42.8881      0.00000
     12      48.3906      0.00000

 k-point    27 :       0.4167    0.4167    0.4167
  band No.  band energies     occupation 
      1       5.8716      1.00000
      2       9.3095      1.00000
      3       9.3095      1.00000
      4       9.4624      1.00000
      5      11.4387      0.00000
      6      11.4387      0.00000
      7      18.9070      0.00000
      8      31.9741      0.00000
      9      35.7766      0.00000
     10      35.7766      0.00000
     11      38.7017      0.00000
     12      38.7017      0.00000

 k-point    28 :      -0.4167    0.4167    0.4167
  band No.  band energies     occupation 
      1       6.7432      1.00000
      2       8.4846      1.00000
      3       9.1344      1.00000
      4       9.7135      1.00000
      5      11.3912      0.00000
      6      13.6524      0.00000
      7      17.9056      0.00000
      8      27.6012      0.00000
      9      32.5151      0.00000
     10      33.1812      0.00000
     11      42.4998      0.00000
     12      42.6768      0.00000


--------------------------------------------------------------------------------------------------------


 soft charge-density along one line, spin component           1
         0         1         2         3         4         5         6         7         8         9
 total charge-density along one line
 
 soft charge-density along one line, spin component           2
         0         1         2         3         4         5         6         7         8         9
 total charge-density along one line
 
 pseudopotential strength for first ion, spin component:           1
 -0.582  -0.000  -0.000  -0.000  -0.000  -1.218  -0.000  -0.000
 -0.000  -0.582   0.000  -0.000  -0.000  -0.000  -1.218   0.000
 -0.000   0.000  -0.653   0.000   0.000  -0.000   0.000  -1.286
 -0.000  -0.000   0.000  -0.582   0.000  -0.000  -0.000   0.000
 -0.000  -0.000   0.000   0.000  -0.653  -0.000  -0.000   0.000
 -1.218  -0.000  -0.000  -0.000  -0.000  -1.793  -0.000  -0.000
 -0.000  -1.218   0.000  -0.000  -0.000  -0.000  -1.793   0.000
 -0.000   0.000  -1.286   0.000   0.000  -0.000   0.000  -1.859
 -0.000  -0.000   0.000  -1.218   0.000  -0.000  -0.000   0.000
 -0.000  -0.000   0.000   0.000  -1.286  -0.000  -0.000   0.000
 -0.000  -0.000  -0.000  -0.000   0.000  -0.000  -0.000  -0.000
 -0.000  -0.000  -0.000  -0.000   0.000  -0.000  -0.000  -0.000
  0.000  -0.000   0.000   0.000   0.000   0.000   0.000   0.000
  0.000  -0.000   0.000   0.000   0.000   0.000  -0.000   0.000
 -0.000   0.000  -0.000   0.000   0.000  -0.000   0.000  -0.000
  0.000   0.000   0.000   0.000   0.000   0.000   0.000   0.000
 -0.000  -0.000   0.000   0.000   0.000   0.000  -0.000   0.000
 -0.000   0.000  -0.000  -0.000   0.000  -0.000   0.000  -0.000
 pseudopotential strength for first ion, spin component:           2
  0.738   0.000  -0.000   0.000  -0.000   0.047  -0.000  -0.000
  0.000   0.738   0.000   0.000  -0.000  -0.000   0.047   0.000
 -0.000   0.000   0.807   0.000   0.000  -0.000   0.000   0.114
  0.000   0.000   0.000   0.738   0.000  -0.000  -0.000   0.000
 -0.000  -0.000   0.000   0.000   0.807  -0.000  -0.000   0.000
  0.047  -0.000  -0.000  -0.000  -0.000  -0.582  -0.000  -0.000
 -0.000   0.047   0.000  -0.000  -0.000  -0.000  -0.582   0.000
 -0.000   0.000   0.114   0.000   0.000  -0.000   0.000  -0.518
 -0.000  -0.000   0.000   0.047   0.000  -0.000  -0.000   0.000
 -0.000  -0.000   0.000   0.000   0.114  -0.000  -0.000   0.000
 -0.000  -0.000   0.000  -0.000   0.000  -0.000  -0.000   0.000
 -0.000  -0.000   0.000  -0.000   0.000  -0.000  -0.000   0.000
  0.000  -0.000   0.000   0.000   0.000   0.000   0.000   0.000
  0.000  -0.000   0.000   0.000   0.000   0.000  -0.000   0.000
 -0.000   0.000  -0.000   0.000   0.000  -0.000   0.000  -0.000
  0.000   0.000   0.000   0.000   0.000   0.000   0.000   0.000
  0.000  -0.000   0.000   0.000   0.000   0.000  -0.000   0.000
 -0.000   0.000  -0.000   0.000   0.000  -0.000   0.000  -0.000
 total augmentation occupancy for first ion, spin component:           1
  2.857  -0.000   0.000   0.000  -0.000  -1.559  -0.000   0.000   0.000   0.000   0.000   0.000   0.000   0.000   0.000   0.000
 -0.000   2.857   0.000   0.000   0.000  -0.000  -1.559   0.000   0.000   0.000  -0.000   0.000   0.000   0.000   0.000   0.000
  0.000   0.000   3.207  -0.000   0.000  -0.000  -0.000  -1.750  -0.000   0.000   0.000   0.000   0.000   0.000   0.000   0.000
  0.000  -0.000   0.000   2.857  -0.000  -0.000   0.000   0.000  -1.559  -0.000   0.000   0.000   0.000   0.000   0.000   0.000
  0.000   0.000  -0.000  -0.000   3.207  -0.000  -0.000   0.000   0.000  -1.750   0.000   0.000   0.000   0.000   0.000   0.000
 -1.559  -0.000   0.000  -0.000   0.000   1.840   0.000   0.000   0.000  -0.000   0.000   0.000   0.000   0.000   0.000   0.000
  0.000  -1.559  -0.000  -0.000   0.000   0.000   1.840   0.000  -0.000   0.000   0.000   0.000   0.000   0.000   0.000   0.000
  0.000   0.000  -1.750  -0.000   0.000   0.000   0.000   1.798  -0.000   0.000   0.000   0.000   0.000   0.000   0.000   0.000
  0.000   0.000   0.000  -1.559   0.000   0.000   0.000  -0.000   1.840   0.000   0.000   0.000   0.000   0.000   0.000   0.000
  0.000   0.000  -0.000  -0.000  -1.750  -0.000  -0.000   0.000   0.000   1.798   0.000  -0.000   0.000   0.000   0.000   0.000
  0.000  -0.000   0.000   0.000  -0.000  -0.000   0.000  -0.000   0.000  -0.000   2.319  -0.273   0.000   0.000   0.000   0.000
 -0.000  -0.000   0.000  -0.000   0.000   0.000   0.000   0.000   0.000  -0.000  -0.273   0.041   0.000   0.000   0.000   0.000
  0.000   0.000   0.000   0.000   0.000   0.000   0.000   0.000   0.000   0.000   0.000   0.000   0.317  -0.000   0.000  -0.030
  0.000   0.000   0.000   0.000   0.000   0.000   0.000   0.000   0.000   0.000   0.000   0.000   0.000   0.317  -0.000   0.000
  0.000   0.000   0.000   0.000   0.000   0.000   0.000   0.000   0.000   0.000   0.000   0.000  -0.000   0.000   0.317  -0.000
  0.000   0.000   0.000   0.000   0.000   0.000   0.000   0.000   0.000   0.000   0.000   0.000  -0.030   0.000  -0.000   0.003
  0.000   0.000   0.000   0.000   0.000   0.000   0.000   0.000   0.000   0.000   0.000   0.000  -0.000  -0.030   0.000  -0.000
  0.000   0.000   0.000   0.000   0.000   0.000   0.000   0.000   0.000   0.000   0.000   0.000   0.000  -0.000  -0.030   0.000
 total augmentation occupancy for first ion, spin component:           2
  2.070  -0.000  -0.000   0.000   0.000  -1.010  -0.000  -0.000   0.000   0.000  -0.000   0.000   0.000   0.000   0.000   0.000
 -0.000   2.070   0.000  -0.000   0.000  -0.000  -1.010   0.000   0.000   0.000  -0.000   0.000   0.000   0.000   0.000   0.000
  0.000   0.000   2.231   0.000   0.000   0.000  -0.000  -1.042  -0.000   0.000  -0.000  -0.000   0.000   0.000   0.000   0.000
  0.000   0.000   0.000   2.070   0.000  -0.000   0.000   0.000  -1.010   0.000   0.000  -0.000   0.000   0.000   0.000   0.000
  0.000  -0.000   0.000  -0.000   2.231   0.000  -0.000   0.000  -0.000  -1.042   0.000   0.000   0.000   0.000   0.000   0.000
 -1.010   0.000   0.000   0.000  -0.000   0.290   0.000  -0.000  -0.000   0.000   0.000  -0.000   0.000   0.000   0.000   0.000
  0.000  -1.010   0.000  -0.000  -0.000   0.000   0.290   0.000  -0.000   0.000   0.000  -0.000   0.000   0.000   0.000   0.000
 -0.000  -0.000  -1.042   0.000  -0.000  -0.000   0.000   0.309  -0.000   0.000   0.000  -0.000   0.000   0.000   0.000   0.000
 -0.000   0.000   0.000  -1.010   0.000  -0.000   0.000   0.000   0.290  -0.000  -0.000   0.000   0.000   0.000   0.000   0.000
  0.000   0.000   0.000   0.000  -1.042   0.000  -0.000   0.000   0.000   0.309   0.000   0.000   0.000   0.000   0.000   0.000
 -0.000  -0.000  -0.000  -0.000   0.000   0.000  -0.000   0.000   0.000  -0.000  -0.303   0.093   0.000   0.000   0.000   0.000
  0.000  -0.000  -0.000   0.000   0.000  -0.000  -0.000  -0.000   0.000   0.000   0.093  -0.016   0.000   0.000   0.000   0.000
  0.000   0.000   0.000   0.000   0.000   0.000   0.000   0.000   0.000   0.000   0.000   0.000  -0.035   0.000   0.000   0.005
  0.000   0.000   0.000   0.000   0.000   0.000   0.000   0.000   0.000   0.000   0.000   0.000   0.000  -0.035   0.000   0.000
  0.000   0.000   0.000   0.000   0.000   0.000   0.000   0.000   0.000   0.000   0.000   0.000  -0.000   0.000  -0.035  -0.000
  0.000   0.000   0.000   0.000   0.000   0.000   0.000   0.000   0.000   0.000   0.000   0.000   0.005   0.000  -0.000  -0.001
  0.000   0.000   0.000   0.000   0.000   0.000   0.000   0.000   0.000   0.000   0.000   0.000  -0.000   0.005   0.000   0.000
  0.000   0.000   0.000   0.000   0.000   0.000   0.000   0.000   0.000   0.000   0.000   0.000   0.000  -0.000   0.005   0.000


------------------------ aborting loop because EDIFF is reached ----------------------------------------


    CHARGE:  cpu time      0.0077: real time      0.0077
    FORLOC:  cpu time      0.0000: real time      0.0000
    FORNL :  cpu time      0.0043: real time      0.0044
    STRESS:  cpu time      0.0155: real time      0.0155
    FORCOR:  cpu time      0.0026: real time      0.0026
    FORHAR:  cpu time      0.0003: real time      0.0003
    MIXING:  cpu time      0.0002: real time      0.0002
    OFIELD:  cpu time      0.0000: real time      0.0000

  FORCE on cell =-STRESS in cart. coord.  units (eV):
  Direction    XX          YY          ZZ          XY          YZ          ZX
  --------------------------------------------------------------------------------------
  Alpha Z    39.18059    39.18059    39.18059
  Ewald    -253.92708  -253.92708  -253.92708     0.00000     0.00000     0.00000
  Hartree    43.96030    43.96030    43.96030     0.00000     0.00000     0.00000
  E(xc)     -46.29416   -46.29416   -46.29416    -0.00000    -0.00000    -0.00000
  Local      -9.67884    -9.67884    -9.67884     0.00006     0.00006     0.00006
  n-local    -4.58491    -3.13102    -6.08362     2.04519    -1.71932    -0.18670
  augment   155.47851   155.47851   155.47851    -0.00005    -0.00005    -0.00005
  Kinetic    75.16299    74.50604    78.27627    -0.70464     1.04868     0.21727
  Fock        0.00000     0.00000     0.00000     0.00000     0.00000     0.00000
  -------------------------------------------------------------------------------------
  Total       0.10123     0.10123     0.10123    -0.00000    -0.00000     0.00000
  in kB      15.00245    15.00245    15.00245    -0.00000    -0.00000     0.00000
  external pressure =       15.00 kB  Pullay stress =        0.00 kB


 VOLUME and BASIS-vectors are now :
 -----------------------------------------------------------------------------
  energy-cutoff  :      400.00
  volume of cell :       10.81
      direct lattice vectors                 reciprocal lattice vectors
     0.000000000  1.755000000  1.755000000    -0.284900285  0.284900285  0.284900285
     1.755000000  0.000000000  1.755000000     0.284900285 -0.284900285  0.284900285
     1.755000000  1.755000000  0.000000000     0.284900285  0.284900285 -0.284900285

  length of vectors
     2.481944802  2.481944802  2.481944802     0.493461769  0.493461769  0.493461769


 FORCES acting on ions
    electron-ion (+dipol)            ewald-force                    non-local-force                 convergence-correction
 -----------------------------------------------------------------------------------------------
   0.720E-15 0.395E-15 0.550E-15   0.813E-15 0.404E-15 -.279E-14   -.827E-23 -.827E-23 -.662E-23   0.281E-14 0.567E-14 0.480E-15
 -----------------------------------------------------------------------------------------------
   0.720E-15 0.395E-15 0.550E-15   0.813E-15 0.404E-15 -.279E-14   -.827E-23 -.827E-23 -.662E-23   0.281E-14 0.567E-14 0.480E-15
 
 
 POSITION                                       TOTAL-FORCE (eV/Angst)
 -----------------------------------------------------------------------------------
      0.00000      0.00000      0.00000        -0.000000     -0.000000     -0.000000
 -----------------------------------------------------------------------------------
    total drift:                                0.000000      0.000000     -0.000000


--------------------------------------------------------------------------------------------------------



  FREE ENERGIE OF THE ION-ELECTRON SYSTEM (eV)
  ---------------------------------------------------
  free  energy   TOTEN  =        -7.01581581 eV

  energy  without entropy=       -7.01365314  energy(sigma->0) =       -7.01473447
 


--------------------------------------------------------------------------------------------------------


    POTLOK:  cpu time      0.0079: real time      0.0080


--------------------------------------------------------------------------------------------------------


     LOOP+:  cpu time      1.9177: real time      1.9362
    4ORBIT:  cpu time      0.0000: real time      0.0000

 total amount of memory used by VASP MPI-rank0    30662. kBytes
=======================================================================

   base      :      30000. kBytes
   nonl-proj :        161. kBytes
   fftplans  :         92. kBytes
   grid      :        217. kBytes
   one-center:         31. kBytes
   wavefun   :        161. kBytes
 
  
  
 General timing and accounting informations for this job:
 ========================================================
  
                  Total CPU time used (sec):        2.608
                            User time (sec):        2.127
                          System time (sec):        0.481
                         Elapsed time (sec):        3.760
  
                   Maximum memory used (kb):      216956.
                   Average memory used (kb):          N/A
  
                          Minor page faults:        16865
                          Major page faults:           77
                 Voluntary context switches:         2215
