   2   2   0   0
  0.1579990E+02  0.2760000E-09  0.2760000E-09  0.4790000E-09  0.5000000E-15
  1.000000000000000E-004
  CAR 
 Pt-hcc                                  
     35.84829400    -45.35620458  301     11.11997082      1.00000000
    -45.356  0.0000E+00  0.0000E+00
    -45.086  0.0000E+00  0.0000E+00
    -44.815  0.0000E+00  0.0000E+00
    -44.544  0.0000E+00  0.0000E+00
    -44.273  0.0000E+00  0.0000E+00
    -44.003  0.0000E+00  0.0000E+00
    -43.732  0.0000E+00  0.0000E+00
    -43.461  0.0000E+00  0.0000E+00
    -43.191  0.0000E+00  0.0000E+00
    -42.920  0.0000E+00  0.0000E+00
    -42.649  0.0000E+00  0.0000E+00
    -42.379  0.0000E+00  0.0000E+00
    -42.108  0.0000E+00  0.0000E+00
    -41.837  0.1733E-06  0.4691E-07
    -41.567  0.6788E+01  0.1837E+01
    -41.296  0.2475E+02  0.8538E+01
    -41.025  0.1279E+02  0.1200E+02
    -40.755  0.0000E+00  0.1200E+02
    -40.484  0.0000E+00  0.1200E+02
    -40.213  0.0000E+00  0.1200E+02
    -39.943  0.0000E+00  0.1200E+02
    -39.672  0.0000E+00  0.1200E+02
    -39.401  0.0000E+00  0.1200E+02
    -39.131  0.0000E+00  0.1200E+02
    -38.860  0.0000E+00  0.1200E+02
    -38.589  0.0000E+00  0.1200E+02
    -38.318  0.0000E+00  0.1200E+02
    -38.048  0.0000E+00  0.1200E+02
    -37.777  0.0000E+00  0.1200E+02
    -37.506  0.0000E+00  0.1200E+02
    -37.236  0.0000E+00  0.1200E+02
    -36.965  0.0000E+00  0.1200E+02
    -36.694  0.0000E+00  0.1200E+02
    -36.424  0.0000E+00  0.1200E+02
    -36.153  0.0000E+00  0.1200E+02
    -35.882  0.0000E+00  0.1200E+02
    -35.612  0.0000E+00  0.1200E+02
    -35.341  0.0000E+00  0.1200E+02
    -35.070  0.0000E+00  0.1200E+02
    -34.800  0.0000E+00  0.1200E+02
    -34.529  0.0000E+00  0.1200E+02
    -34.258  0.0000E+00  0.1200E+02
    -33.988  0.0000E+00  0.1200E+02
    -33.717  0.0000E+00  0.1200E+02
    -33.446  0.0000E+00  0.1200E+02
    -33.176  0.0000E+00  0.1200E+02
    -32.905  0.0000E+00  0.1200E+02
    -32.634  0.0000E+00  0.1200E+02
    -32.363  0.0000E+00  0.1200E+02
    -32.093  0.0000E+00  0.1200E+02
    -31.822  0.0000E+00  0.1200E+02
    -31.551  0.0000E+00  0.1200E+02
    -31.281  0.0000E+00  0.1200E+02
    -31.010  0.0000E+00  0.1200E+02
    -30.739  0.0000E+00  0.1200E+02
    -30.469  0.0000E+00  0.1200E+02
    -30.198  0.0000E+00  0.1200E+02
    -29.927  0.0000E+00  0.1200E+02
    -29.657  0.0000E+00  0.1200E+02
    -29.386  0.0000E+00  0.1200E+02
    -29.115  0.0000E+00  0.1200E+02
    -28.845  0.0000E+00  0.1200E+02
    -28.574  0.0000E+00  0.1200E+02
    -28.303  0.0000E+00  0.1200E+02
    -28.033  0.0000E+00  0.1200E+02
    -27.762  0.0000E+00  0.1200E+02
    -27.491  0.0000E+00  0.1200E+02
    -27.221  0.0000E+00  0.1200E+02
    -26.950  0.0000E+00  0.1200E+02
    -26.679  0.0000E+00  0.1200E+02
    -26.408  0.0000E+00  0.1200E+02
    -26.138  0.0000E+00  0.1200E+02
    -25.867  0.0000E+00  0.1200E+02
    -25.596  0.0000E+00  0.1200E+02
    -25.326  0.0000E+00  0.1200E+02
    -25.055  0.0000E+00  0.1200E+02
    -24.784  0.0000E+00  0.1200E+02
    -24.514  0.0000E+00  0.1200E+02
    -24.243  0.0000E+00  0.1200E+02
    -23.972  0.0000E+00  0.1200E+02
    -23.702  0.0000E+00  0.1200E+02
    -23.431  0.0000E+00  0.1200E+02
    -23.160  0.0000E+00  0.1200E+02
    -22.890  0.0000E+00  0.1200E+02
    -22.619  0.0000E+00  0.1200E+02
    -22.348  0.0000E+00  0.1200E+02
    -22.078  0.0000E+00  0.1200E+02
    -21.807  0.0000E+00  0.1200E+02
    -21.536  0.0000E+00  0.1200E+02
    -21.266  0.0000E+00  0.1200E+02
    -20.995  0.0000E+00  0.1200E+02
    -20.724  0.0000E+00  0.1200E+02
    -20.453  0.0000E+00  0.1200E+02
    -20.183  0.0000E+00  0.1200E+02
    -19.912  0.0000E+00  0.1200E+02
    -19.641  0.0000E+00  0.1200E+02
    -19.371  0.0000E+00  0.1200E+02
    -19.100  0.0000E+00  0.1200E+02
    -18.829  0.0000E+00  0.1200E+02
    -18.559  0.0000E+00  0.1200E+02
    -18.288  0.0000E+00  0.1200E+02
    -18.017  0.0000E+00  0.1200E+02
    -17.747  0.0000E+00  0.1200E+02
    -17.476  0.0000E+00  0.1200E+02
    -17.205  0.0000E+00  0.1200E+02
    -16.935  0.0000E+00  0.1200E+02
    -16.664  0.0000E+00  0.1200E+02
    -16.393  0.0000E+00  0.1200E+02
    -16.123  0.0000E+00  0.1200E+02
    -15.852  0.0000E+00  0.1200E+02
    -15.581  0.0000E+00  0.1200E+02
    -15.311  0.0000E+00  0.1200E+02
    -15.040  0.0000E+00  0.1200E+02
    -14.769  0.0000E+00  0.1200E+02
    -14.498  0.0000E+00  0.1200E+02
    -14.228  0.0000E+00  0.1200E+02
    -13.957  0.0000E+00  0.1200E+02
    -13.686  0.0000E+00  0.1200E+02
    -13.416  0.0000E+00  0.1200E+02
    -13.145  0.0000E+00  0.1200E+02
    -12.874  0.0000E+00  0.1200E+02
    -12.604  0.0000E+00  0.1200E+02
    -12.333  0.0000E+00  0.1200E+02
    -12.062  0.0000E+00  0.1200E+02
    -11.792  0.0000E+00  0.1200E+02
    -11.521  0.0000E+00  0.1200E+02
    -11.250  0.0000E+00  0.1200E+02
    -10.980  0.0000E+00  0.1200E+02
    -10.709  0.0000E+00  0.1200E+02
    -10.438  0.0000E+00  0.1200E+02
    -10.168  0.0000E+00  0.1200E+02
     -9.897  0.0000E+00  0.1200E+02
     -9.626  0.0000E+00  0.1200E+02
     -9.356  0.0000E+00  0.1200E+02
     -9.085  0.0000E+00  0.1200E+02
     -8.814  0.0000E+00  0.1200E+02
     -8.543  0.0000E+00  0.1200E+02
     -8.273  0.0000E+00  0.1200E+02
     -8.002  0.0000E+00  0.1200E+02
     -7.731  0.0000E+00  0.1200E+02
     -7.461  0.0000E+00  0.1200E+02
     -7.190  0.0000E+00  0.1200E+02
     -6.919  0.0000E+00  0.1200E+02
     -6.649  0.0000E+00  0.1200E+02
     -6.378  0.0000E+00  0.1200E+02
     -6.107  0.0000E+00  0.1200E+02
     -5.837  0.0000E+00  0.1200E+02
     -5.566  0.0000E+00  0.1200E+02
     -5.295  0.0000E+00  0.1200E+02
     -5.025  0.0000E+00  0.1200E+02
     -4.754  0.0000E+00  0.1200E+02
     -4.483  0.0000E+00  0.1200E+02
     -4.213  0.0000E+00  0.1200E+02
     -3.942  0.0000E+00  0.1200E+02
     -3.671  0.0000E+00  0.1200E+02
     -3.401  0.0000E+00  0.1200E+02
     -3.130  0.0000E+00  0.1200E+02
     -2.859  0.0000E+00  0.1200E+02
     -2.589  0.0000E+00  0.1200E+02
     -2.318  0.0000E+00  0.1200E+02
     -2.047  0.0000E+00  0.1200E+02
     -1.776  0.0000E+00  0.1200E+02
     -1.506  0.0000E+00  0.1200E+02
     -1.235  0.0000E+00  0.1200E+02
     -0.964  0.0000E+00  0.1200E+02
     -0.694  0.0000E+00  0.1200E+02
     -0.423  0.0000E+00  0.1200E+02
     -0.152  0.0000E+00  0.1200E+02
      0.118  0.0000E+00  0.1200E+02
      0.389  0.0000E+00  0.1200E+02
      0.660  0.0000E+00  0.1200E+02
      0.930  0.0000E+00  0.1200E+02
      1.201  0.3859E-11  0.1200E+02
      1.472  0.1769E-01  0.1200E+02
      1.742  0.3969E-01  0.1202E+02
      2.013  0.9610E-01  0.1204E+02
      2.284  0.2553E+00  0.1211E+02
      2.554  0.3380E-01  0.1212E+02
      2.825  0.6829E-01  0.1214E+02
      3.096  0.2793E+00  0.1221E+02
      3.366  0.3006E+00  0.1230E+02
      3.637  0.3227E+00  0.1238E+02
      3.908  0.4916E+00  0.1252E+02
      4.179  0.2885E+00  0.1259E+02
      4.449  0.3289E+00  0.1268E+02
      4.720  0.2395E+01  0.1333E+02
      4.991  0.2036E+01  0.1388E+02
      5.261  0.2236E+01  0.1449E+02
      5.532  0.1753E+01  0.1496E+02
      5.803  0.3466E+01  0.1590E+02
      6.073  0.1740E+01  0.1637E+02
      6.344  0.3534E+01  0.1733E+02
      6.615  0.2778E+01  0.1808E+02
      6.885  0.3953E+01  0.1915E+02
      7.156  0.2192E+01  0.1974E+02
      7.427  0.2652E+01  0.2046E+02
      7.697  0.3867E+01  0.2151E+02
      7.968  0.3614E+01  0.2249E+02
      8.239  0.3653E+01  0.2348E+02
      8.509  0.2550E+01  0.2417E+02
      8.780  0.4048E+01  0.2526E+02
      9.051  0.2331E+01  0.2589E+02
      9.321  0.2967E+01  0.2670E+02
      9.592  0.2830E+01  0.2746E+02
      9.863  0.2720E+01  0.2820E+02
     10.134  0.1286E+01  0.2855E+02
     10.404  0.2050E+01  0.2910E+02
     10.675  0.4169E+01  0.3023E+02
     10.946  0.3985E+01  0.3131E+02
     11.216  0.3846E+01  0.3235E+02
     11.487  0.2758E+01  0.3310E+02
     11.758  0.1264E+01  0.3344E+02
     12.028  0.3448E+00  0.3353E+02
     12.299  0.4588E+00  0.3365E+02
     12.570  0.4656E-02  0.3366E+02
     12.840  0.5495E-01  0.3367E+02
     13.111  0.8087E+00  0.3389E+02
     13.382  0.1681E+01  0.3435E+02
     13.652  0.5854E+00  0.3450E+02
     13.923  0.6225E+00  0.3467E+02
     14.194  0.3452E+00  0.3477E+02
     14.464  0.1588E-03  0.3477E+02
     14.735  0.1316E+00  0.3480E+02
     15.006  0.9880E+00  0.3507E+02
     15.276  0.3878E+00  0.3517E+02
     15.547  0.8436E+00  0.3540E+02
     15.818  0.3733E+00  0.3550E+02
     16.089  0.4300E+00  0.3562E+02
     16.359  0.8927E+00  0.3586E+02
     16.630  0.5091E+00  0.3600E+02
     16.901  0.2352E-01  0.3601E+02
     17.171  0.2323E+00  0.3607E+02
     17.442  0.3023E+00  0.3615E+02
     17.713  0.7352E+00  0.3635E+02
     17.983  0.1469E+01  0.3675E+02
     18.254  0.1189E+01  0.3707E+02
     18.525  0.4290E+00  0.3718E+02
     18.795  0.7228E+00  0.3738E+02
     19.066  0.6465E+00  0.3756E+02
     19.337  0.6389E+00  0.3773E+02
     19.607  0.5059E+00  0.3787E+02
     19.878  0.2679E+00  0.3794E+02
     20.149  0.5575E+00  0.3809E+02
     20.419  0.1611E+01  0.3852E+02
     20.690  0.1031E+01  0.3880E+02
     20.961  0.9827E+00  0.3907E+02
     21.231  0.4477E+00  0.3919E+02
     21.502  0.6700E+00  0.3937E+02
     21.773  0.3948E+00  0.3948E+02
     22.044  0.2308E+00  0.3954E+02
     22.314  0.4208E+00  0.3966E+02
     22.585  0.4631E+00  0.3978E+02
     22.856  0.5412E+00  0.3993E+02
     23.126  0.1167E+01  0.4024E+02
     23.397  0.9110E+00  0.4049E+02
     23.668  0.1474E+01  0.4089E+02
     23.938  0.1238E+01  0.4122E+02
     24.209  0.2363E+00  0.4129E+02
     24.480  0.5411E+00  0.4143E+02
     24.750  0.9413E+00  0.4169E+02
     25.021  0.1118E+01  0.4199E+02
     25.292  0.1196E+01  0.4232E+02
     25.562  0.1387E+01  0.4269E+02
     25.833  0.1382E+01  0.4306E+02
     26.104  0.2394E+01  0.4371E+02
     26.374  0.8413E+00  0.4394E+02
     26.645  0.1577E+01  0.4437E+02
     26.916  0.7831E+00  0.4458E+02
     27.186  0.1979E+01  0.4511E+02
     27.457  0.1570E+01  0.4554E+02
     27.728  0.1971E+01  0.4607E+02
     27.999  0.1095E+01  0.4637E+02
     28.269  0.3707E+00  0.4647E+02
     28.540  0.1605E+01  0.4690E+02
     28.811  0.6326E+00  0.4708E+02
     29.081  0.2346E+00  0.4714E+02
     29.352  0.7592E+00  0.4734E+02
     29.623  0.4262E+00  0.4746E+02
     29.893  0.5444E+00  0.4761E+02
     30.164  0.5206E+00  0.4775E+02
     30.435  0.5287E+00  0.4789E+02
     30.705  0.1700E+00  0.4794E+02
     30.976  0.1347E-01  0.4794E+02
     31.247  0.6349E-01  0.4796E+02
     31.517  0.1117E+00  0.4799E+02
     31.788  0.3759E-02  0.4799E+02
     32.059  0.1033E-03  0.4799E+02
     32.329  0.3838E-01  0.4800E+02
     32.600  0.0000E+00  0.4800E+02
     32.871  0.0000E+00  0.4800E+02
     33.141  0.0000E+00  0.4800E+02
     33.412  0.0000E+00  0.4800E+02
     33.683  0.0000E+00  0.4800E+02
     33.954  0.0000E+00  0.4800E+02
     34.224  0.0000E+00  0.4800E+02
     34.495  0.0000E+00  0.4800E+02
     34.766  0.0000E+00  0.4800E+02
     35.036  0.0000E+00  0.4800E+02
     35.307  0.0000E+00  0.4800E+02
     35.578  0.0000E+00  0.4800E+02
     35.848  0.0000E+00  0.4800E+02
