    2    2    1    1
  0.1579990E+02  0.2760000E-09  0.2760000E-09  0.4790000E-09  0.5000000E-15
  1.000000000000000E-004
  CAR 
 Pt-hcc                                  
     32     40     24
 
  0.0000000E+00  0.0000000E+00  0.0000000E+00  0.2604167E-02
      1        -41.484231   1.000000
      2        -41.285592   1.000000
      3        -41.285591   1.000000
      4        -41.245402   1.000000
      5        -41.245401   1.000000
      6        -41.155341   1.000000
      7          1.422139   1.000000
      8          4.081407   1.000000
      9          7.201787   1.000000
     10          7.732055   1.000000
     11          7.732056   1.000000
     12          8.097690   1.000000
     13          8.097690   1.000000
     14          9.338293   1.000000
     15          9.338293   1.000000
     16         10.407342   1.000000
     17         10.916010   1.000000
     18         10.916010   1.000000
     19         15.801448   0.000000
     20         26.240060   0.000000
     21         26.806699   0.000000
     22         28.394479   0.000000
     23         32.157180   0.000000
     24         32.157180   0.000000
 
  0.1250000E+00 -0.6938894E-17  0.0000000E+00  0.1562500E-01
      1        -41.465636   1.000000
      2        -41.340299   1.000000
      3        -41.301488   1.000000
      4        -41.300914   1.000000
      5        -41.256556   1.000000
      6        -41.159295   1.000000
      7          1.979420   1.000000
      8          4.577438   1.000000
      9          7.088793   1.000000
     10          7.716816   1.000000
     11          7.942878   1.000000
     12          8.160283   1.000000
     13          8.400089   1.000000
     14          8.504235   1.000000
     15          9.084712   1.000000
     16          9.182978   1.000000
     17         11.005016   0.999426
     18         13.198542   0.000000
     19         15.748224   0.000000
     20         26.730143   0.000000
     21         27.595698   0.000000
     22         28.672346   0.000000
     23         30.067014   0.000000
     24         30.351832   0.000000
 
  0.2500000E+00 -0.1387779E-16  0.0000000E+00  0.1562500E-01
      1        -41.474206   1.000000
      2        -41.435140   1.000000
      3        -41.417428   1.000000
      4        -41.338623   1.000000
      5        -41.284561   1.000000
      6        -41.173073   1.000000
      7          3.386989   1.000000
      8          5.313379   1.000000
      9          6.817914   1.000000
     10          7.046065   1.000000
     11          7.322906   1.000000
     12          8.537408   1.000000
     13          8.588122   1.000000
     14          8.834882   1.000000
     15          9.324645   1.000000
     16          9.597741   1.000000
     17         11.110895   0.601294
     18         15.712391   0.000000
     19         15.950500   0.000000
     20         23.347320   0.000000
     21         27.011346   0.000000
     22         27.213602   0.000000
     23         29.435310   0.000000
     24         29.643989   0.000000
 
  0.3750000E+00 -0.2775558E-16  0.0000000E+00  0.1562500E-01
      1        -41.607271   1.000000
      2        -41.565970   1.000000
      3        -41.375653   1.000000
      4        -41.358283   1.000000
      5        -41.313936   1.000000
      6        -41.198610   1.000000
      7          4.549280   1.000000
      8          5.016687   1.000000
      9          5.811111   1.000000
     10          7.518364   1.000000
     11          7.989978   1.000000
     12          8.177969   1.000000
     13          8.188723   1.000000
     14         10.758475   1.000000
     15         10.833641   1.000000
     16         10.938093   1.000000
     17         11.141293   0.273230
     18         16.369384   0.000000
     19         18.569954   0.000000
     20         18.640489   0.000000
     21         24.344243   0.000000
     22         24.615345   0.000000
     23         25.334687   0.000000
     24         28.106367   0.000000
 
  0.5000000E+00 -0.2775558E-16  0.0000000E+00  0.7812500E-02
      1        -41.662573   1.000000
      2        -41.619740   1.000000
      3        -41.391091   1.000000
      4        -41.326111   1.000000
      5        -41.325262   1.000000
      6        -41.217930   1.000000
      7          4.740060   1.000000
      8          4.811689   1.000000
      9          5.467185   1.000000
     10          7.780745   1.000000
     11          8.024414   1.000000
     12          8.214678   1.000000
     13          8.547322   1.000000
     14         11.140751   0.278351
     15         11.447592   0.000000
     16         11.647826   0.000000
     17         13.409984   0.000000
     18         14.888491   0.000000
     19         18.409103   0.000000
     20         19.957890   0.000000
     21         20.640539   0.000000
     22         23.165471   0.000000
     23         24.393620   0.000000
     24         27.239155   0.000000
 
  0.1250000E+00  0.1250000E+00  0.0000000E+00  0.1562500E-01
      1        -41.432339   1.000000
      2        -41.422442   1.000000
      3        -41.402075   1.000000
      4        -41.324933   1.000000
      5        -41.286676   1.000000
      6        -41.168643   1.000000
      7          2.995309   1.000000
      8          5.372378   1.000000
      9          6.691186   1.000000
     10          7.273558   1.000000
     11          7.506273   1.000000
     12          8.137655   1.000000
     13          8.299840   1.000000
     14          9.074429   1.000000
     15          9.104699   1.000000
     16          9.444937   1.000000
     17         10.989057   0.999893
     18         15.253117   0.000000
     19         15.712041   0.000000
     20         25.685123   0.000000
     21         25.718207   0.000000
     22         28.391716   0.000000
     23         28.814739   0.000000
     24         30.415610   0.000000
 
  0.2500000E+00  0.1250000E+00  0.0000000E+00  0.3125000E-01
      1        -41.543546   1.000000
      2        -41.517082   1.000000
      3        -41.377675   1.000000
      4        -41.377618   1.000000
      5        -41.328896   1.000000
      6        -41.188827   1.000000
      7          4.507877   1.000000
      8          5.634219   1.000000
      9          6.215015   1.000000
     10          6.844992   1.000000
     11          7.557363   1.000000
     12          7.782035   1.000000
     13          8.574880   1.000000
     14          9.073980   1.000000
     15         10.475661   1.000000
     16         10.933754   1.000000
     17         11.118719   0.514124
     18         16.122336   0.000000
     19         17.891991   0.000000
     20         20.902719   0.000000
     21         23.308521   0.000000
     22         26.520868   0.000000
     23         27.787576   0.000000
     24         28.652777   0.000000
 
  0.3750000E+00  0.1250000E+00  0.0000000E+00  0.3125000E-01
      1        -41.632800   1.000000
      2        -41.591853   1.000000
      3        -41.417623   1.000000
      4        -41.357874   1.000000
      5        -41.325287   1.000000
      6        -41.217427   1.000000
      7          5.157676   1.000000
      8          5.245991   1.000000
      9          5.631941   1.000000
     10          7.676987   1.000000
     11          7.793197   1.000000
     12          7.991989   1.000000
     13          8.254126   1.000000
     14         10.565157   1.000000
     15         10.889961   1.000000
     16         11.219226   0.002498
     17         13.168019   0.000000
     18         16.538999   0.000000
     19         17.983610   0.000000
     20         20.224382   0.000000
     21         20.818441   0.000000
     22         23.555606   0.000000
     23         25.097978   0.000000
     24         27.113472   0.000000
 
  0.2500000E+00  0.2500000E+00  0.0000000E+00  0.1562500E-01
      1        -41.583029   1.000000
      2        -41.565771   1.000000
      3        -41.445937   1.000000
      4        -41.405497   1.000000
      5        -41.325441   1.000000
      6        -41.216720   1.000000
      7          5.760574   1.000000
      8          5.844176   1.000000
      9          6.341452   1.000000
     10          6.460898   1.000000
     11          7.400766   1.000000
     12          8.104790   1.000000
     13          8.108022   1.000000
     14          9.500338   1.000000
     15         10.628890   1.000000
     16         11.124780   0.445900
     17         13.234956   0.000000
     18         17.424390   0.000000
     19         18.842473   0.000000
     20         19.354843   0.000000
     21         20.484475   0.000000
     22         25.444750   0.000000
     23         26.195151   0.000000
     24         26.725115   0.000000
 
  0.3750000E+00  0.2500000E+00  0.0000000E+00  0.1562500E-01
      1        -41.598274   1.000000
      2        -41.556488   1.000000
      3        -41.498262   1.000000
      4        -41.445931   1.000000
      5        -41.288676   1.000000
      6        -41.244152   1.000000
      7          5.724147   1.000000
      8          6.092350   1.000000
      9          6.097517   1.000000
     10          7.214880   1.000000
     11          7.496494   1.000000
     12          7.637148   1.000000
     13          8.489029   1.000000
     14         10.274738   1.000000
     15         10.501634   1.000000
     16         10.752803   1.000000
     17         15.254498   0.000000
     18         15.345954   0.000000
     19         17.809287   0.000000
     20         21.165757   0.000000
     21         22.418129   0.000000
     22         22.775030   0.000000
     23         24.946579   0.000000
     24         25.575208   0.000000
 
  0.0000000E+00  0.0000000E+00  0.1666667E+00  0.5208333E-02
      1        -41.461845   1.000000
      2        -41.282137   1.000000
      3        -41.282136   1.000000
      4        -41.247780   1.000000
      5        -41.247779   1.000000
      6        -41.177358   1.000000
      7          1.658411   1.000000
      8          4.042153   1.000000
      9          7.145563   1.000000
     10          7.701364   1.000000
     11          7.701365   1.000000
     12          8.031135   1.000000
     13          8.031135   1.000000
     14          9.421422   1.000000
     15          9.507534   1.000000
     16          9.507534   1.000000
     17         10.866978   1.000000
     18         10.866978   1.000000
     19         17.233962   0.000000
     20         25.588792   0.000000
     21         27.499071   0.000000
     22         27.921055   0.000000
     23         31.395845   0.000000
     24         31.395845   0.000000
 
  0.1250000E+00 -0.6938894E-17  0.1666667E+00  0.3125000E-01
      1        -41.447560   1.000000
      2        -41.335473   1.000000
      3        -41.306209   1.000000
      4        -41.298146   1.000000
      5        -41.259529   1.000000
      6        -41.177827   1.000000
      7          2.207762   1.000000
      8          4.555720   1.000000
      9          7.113693   1.000000
     10          7.553099   1.000000
     11          7.641056   1.000000
     12          8.103171   1.000000
     13          8.376355   1.000000
     14          8.425592   1.000000
     15          9.302229   1.000000
     16          9.304735   1.000000
     17         10.927448   1.000000
     18         12.226499   0.000000
     19         17.433001   0.000000
     20         26.301105   0.000000
     21         27.862410   0.000000
     22         28.472033   0.000000
     23         29.433070   0.000000
     24         30.094417   0.000000
 
  0.2500000E+00 -0.1387779E-16  0.1666667E+00  0.3125000E-01
      1        -41.481722   1.000000
      2        -41.441940   1.000000
      3        -41.389937   1.000000
      4        -41.334959   1.000000
      5        -41.288407   1.000000
      6        -41.186165   1.000000
      7          3.553496   1.000000
      8          5.348972   1.000000
      9          6.611184   1.000000
     10          7.105388   1.000000
     11          7.199713   1.000000
     12          8.321171   1.000000
     13          8.631090   1.000000
     14          9.207366   1.000000
     15          9.391984   1.000000
     16          9.567799   1.000000
     17         10.992097   0.999851
     18         13.774300   0.000000
     19         18.214245   0.000000
     20         23.647997   0.000000
     21         26.953692   0.000000
     22         27.377700   0.000000
     23         28.406588   0.000000
     24         29.920710   0.000000
 
  0.3750000E+00 -0.2775558E-16  0.1666667E+00  0.3125000E-01
      1        -41.609957   1.000000
      2        -41.572986   1.000000
      3        -41.371566   1.000000
      4        -41.342163   1.000000
      5        -41.317969   1.000000
      6        -41.205136   1.000000
      7          4.490497   1.000000
      8          5.045843   1.000000
      9          5.995528   1.000000
     10          6.827373   1.000000
     11          8.122840   1.000000
     12          8.322064   1.000000
     13          8.935247   1.000000
     14         10.664592   1.000000
     15         10.729390   1.000000
     16         10.789027   1.000000
     17         11.148007   0.213897
     18         15.051326   0.000000
     19         18.453053   0.000000
     20         20.284445   0.000000
     21         23.822653   0.000000
     22         24.817150   0.000000
     23         26.000758   0.000000
     24         28.432198   0.000000
 
  0.5000000E+00 -0.2775558E-16  0.1666667E+00  0.1562500E-01
      1        -41.664411   1.000000
      2        -41.626551   1.000000
      3        -41.386509   1.000000
      4        -41.330381   1.000000
      5        -41.312608   1.000000
      6        -41.221175   1.000000
      7          4.582239   1.000000
      8          4.789068   1.000000
      9          5.805636   1.000000
     10          6.855575   1.000000
     11          8.183320   1.000000
     12          8.357638   1.000000
     13          9.710166   1.000000
     14         10.840914   1.000000
     15         11.476429   0.000000
     16         11.636774   0.000000
     17         12.990243   0.000000
     18         14.685359   0.000000
     19         18.174021   0.000000
     20         18.673725   0.000000
     21         22.373051   0.000000
     22         23.672882   0.000000
     23         24.623695   0.000000
     24         27.725224   0.000000
 
  0.1250000E+00  0.1250000E+00  0.1666667E+00  0.3125000E-01
      1        -41.444034   1.000000
      2        -41.405081   1.000000
      3        -41.391260   1.000000
      4        -41.323849   1.000000
      5        -41.289461   1.000000
      6        -41.182609   1.000000
      7          3.194926   1.000000
      8          5.397183   1.000000
      9          6.753029   1.000000
     10          6.858329   1.000000
     11          7.627702   1.000000
     12          7.727659   1.000000
     13          8.749113   1.000000
     14          8.823518   1.000000
     15          9.434421   1.000000
     16          9.440180   1.000000
     17         10.891865   1.000000
     18         13.460488   0.000000
     19         17.965529   0.000000
     20         25.849040   0.000000
     21         25.900218   0.000000
     22         28.117629   0.000000
     23         28.379303   0.000000
     24         30.415469   0.000000
 
  0.2500000E+00  0.1250000E+00  0.1666667E+00  0.6250000E-01
      1        -41.547365   1.000000
      2        -41.522864   1.000000
      3        -41.377231   1.000000
      4        -41.358039   1.000000
      5        -41.331274   1.000000
      6        -41.197162   1.000000
      7          4.569315   1.000000
      8          5.708164   1.000000
      9          6.118319   1.000000
     10          6.834369   1.000000
     11          7.402667   1.000000
     12          8.033149   1.000000
     13          8.462153   1.000000
     14          9.249439   1.000000
     15         10.528117   1.000000
     16         10.639473   1.000000
     17         11.273761   0.000007
     18         14.800035   0.000000
     19         19.073741   0.000000
     20         21.536146   0.000000
     21         23.554393   0.000000
     22         26.099610   0.000000
     23         27.350880   0.000000
     24         29.093866   0.000000
 
  0.3750000E+00  0.1250000E+00  0.1666667E+00  0.6250000E-01
      1        -41.634211   1.000000
      2        -41.598439   1.000000
      3        -41.415612   1.000000
      4        -41.362934   1.000000
      5        -41.311105   1.000000
      6        -41.219748   1.000000
      7          4.936370   1.000000
      8          5.279937   1.000000
      9          6.030905   1.000000
     10          6.799774   1.000000
     11          7.741918   1.000000
     12          8.555122   1.000000
     13          8.784514   1.000000
     14         10.498809   1.000000
     15         10.607316   1.000000
     16         11.321437   0.000000
     17         13.149558   0.000000
     18         16.141410   0.000000
     19         17.486892   0.000000
     20         20.329975   0.000000
     21         21.431703   0.000000
     22         23.826344   0.000000
     23         25.518097   0.000000
     24         27.042304   0.000000
 
  0.2500000E+00  0.2500000E+00  0.1666667E+00  0.3125000E-01
      1        -41.584058   1.000000
      2        -41.571898   1.000000
      3        -41.447075   1.000000
      4        -41.411412   1.000000
      5        -41.310335   1.000000
      6        -41.218593   1.000000
      7          5.732490   1.000000
      8          5.755986   1.000000
      9          6.350242   1.000000
     10          6.567165   1.000000
     11          7.627005   1.000000
     12          7.780943   1.000000
     13          8.196050   1.000000
     14          9.683549   1.000000
     15         10.288750   1.000000
     16         11.300627   0.000000
     17         13.321052   0.000000
     18         17.053757   0.000000
     19         18.063568   0.000000
     20         19.696627   0.000000
     21         21.896662   0.000000
     22         24.300111   0.000000
     23         25.478080   0.000000
     24         27.653505   0.000000
 
  0.3750000E+00  0.2500000E+00  0.1666667E+00  0.3125000E-01
      1        -41.597536   1.000000
      2        -41.563009   1.000000
      3        -41.498874   1.000000
      4        -41.451584   1.000000
      5        -41.278628   1.000000
      6        -41.240604   1.000000
      7          5.629447   1.000000
      8          6.170782   1.000000
      9          6.332370   1.000000
     10          6.766766   1.000000
     11          7.375966   1.000000
     12          7.897432   1.000000
     13          8.610688   1.000000
     14         10.142873   1.000000
     15         10.386775   1.000000
     16         10.897733   1.000000
     17         15.477023   0.000000
     18         15.487005   0.000000
     19         18.170966   0.000000
     20         20.458595   0.000000
     21         20.617386   0.000000
     22         24.057681   0.000000
     23         24.785482   0.000000
     24         25.876258   0.000000
 
  0.0000000E+00  0.0000000E+00  0.3333333E+00  0.5208333E-02
      1        -41.402518   1.000000
      2        -41.274880   1.000000
      3        -41.274879   1.000000
      4        -41.255160   1.000000
      5        -41.255159   1.000000
      6        -41.237818   1.000000
      7          2.311499   1.000000
      8          3.806793   1.000000
      9          7.054686   1.000000
     10          7.677339   1.000000
     11          7.677339   1.000000
     12          7.879218   1.000000
     13          7.879218   1.000000
     14          7.968665   1.000000
     15          9.905529   1.000000
     16          9.905529   1.000000
     17         10.686137   1.000000
     18         10.686137   1.000000
     19         20.071226   0.000000
     20         24.853185   0.000000
     21         27.090098   0.000000
     22         27.302911   0.000000
     23         31.009060   0.000000
     24         31.009060   0.000000
 
  0.1250000E+00 -0.6938894E-17  0.3333333E+00  0.3125000E-01
      1        -41.400896   1.000000
      2        -41.322245   1.000000
      3        -41.317599   1.000000
      4        -41.289913   1.000000
      5        -41.267455   1.000000
      6        -41.226628   1.000000
      7          2.844102   1.000000
      8          4.347255   1.000000
      9          7.070182   1.000000
     10          7.130105   1.000000
     11          7.382838   1.000000
     12          7.964076   1.000000
     13          8.056186   1.000000
     14          8.263368   1.000000
     15          9.765969   1.000000
     16          9.821240   1.000000
     17         10.680984   1.000000
     18         11.222534   0.001860
     19         20.316689   0.000000
     20         25.497773   0.000000
     21         27.635923   0.000000
     22         27.709963   0.000000
     23         29.219419   0.000000
     24         30.415134   0.000000
 
  0.2500000E+00 -0.1387779E-16  0.3333333E+00  0.3125000E-01
      1        -41.484428   1.000000
      2        -41.457298   1.000000
      3        -41.336083   1.000000
      4        -41.325144   1.000000
      5        -41.298194   1.000000
      6        -41.222928   1.000000
      7          4.020935   1.000000
      8          5.247727   1.000000
      9          6.319622   1.000000
     10          6.838781   1.000000
     11          7.357744   1.000000
     12          8.022929   1.000000
     13          8.769406   1.000000
     14          9.250876   1.000000
     15          9.815256   1.000000
     16          9.886803   1.000000
     17         10.671262   1.000000
     18         12.120143   0.000000
     19         20.777913   0.000000
     20         24.522213   0.000000
     21         25.632779   0.000000
     22         27.338715   0.000000
     23         28.426757   0.000000
     24         29.170340   0.000000
 
  0.3750000E+00 -0.2775558E-16  0.3333333E+00  0.3125000E-01
      1        -41.611441   1.000000
      2        -41.588970   1.000000
      3        -41.360063   1.000000
      4        -41.329354   1.000000
      5        -41.303534   1.000000
      6        -41.226270   1.000000
      7          4.508906   1.000000
      8          5.027017   1.000000
      9          6.057346   1.000000
     10          6.322084   1.000000
     11          8.604401   1.000000
     12          8.734487   1.000000
     13          9.729357   1.000000
     14         10.059299   1.000000
     15         10.611797   1.000000
     16         10.868962   1.000000
     17         11.085692   0.833863
     18         13.122070   0.000000
     19         19.161071   0.000000
     20         21.222252   0.000000
     21         23.696324   0.000000
     22         26.090653   0.000000
     23         26.438082   0.000000
     24         28.734331   0.000000
 
  0.5000000E+00 -0.2775558E-16  0.3333333E+00  0.1562500E-01
      1        -41.665091   1.000000
      2        -41.642280   1.000000
      3        -41.374444   1.000000
      4        -41.342321   1.000000
      5        -41.284384   1.000000
      6        -41.232009   1.000000
      7          4.457219   1.000000
      8          4.821345   1.000000
      9          6.040192   1.000000
     10          6.081036   1.000000
     11          8.640981   1.000000
     12          9.030971   1.000000
     13         10.141367   1.000000
     14         11.159073   0.134371
     15         11.517411   0.000000
     16         11.606158   0.000000
     17         11.945596   0.000000
     18         14.007631   0.000000
     19         17.763679   0.000000
     20         17.832423   0.000000
     21         24.273638   0.000000
     22         25.000406   0.000000
     23         25.119231   0.000000
     24         28.421236   0.000000
 
  0.1250000E+00  0.1250000E+00  0.3333333E+00  0.3125000E-01
      1        -41.442546   1.000000
      2        -41.415277   1.000000
      3        -41.340477   1.000000
      4        -41.319368   1.000000
      5        -41.296819   1.000000
      6        -41.222144   1.000000
      7          3.757629   1.000000
      8          5.243171   1.000000
      9          6.458493   1.000000
     10          6.920235   1.000000
     11          7.111267   1.000000
     12          7.638676   1.000000
     13          8.662562   1.000000
     14          9.002513   1.000000
     15          9.799491   1.000000
     16          9.862015   1.000000
     17         10.613281   1.000000
     18         11.941521   0.000000
     19         20.753487   0.000000
     20         25.886596   0.000000
     21         26.528447   0.000000
     22         27.348076   0.000000
     23         27.637522   0.000000
     24         28.313962   0.000000
 
  0.2500000E+00  0.1250000E+00  0.3333333E+00  0.6250000E-01
      1        -41.551459   1.000000
      2        -41.535250   1.000000
      3        -41.370586   1.000000
      4        -41.346941   1.000000
      5        -41.308516   1.000000
      6        -41.221907   1.000000
      7          4.777279   1.000000
      8          5.606552   1.000000
      9          6.084728   1.000000
     10          6.763750   1.000000
     11          7.433612   1.000000
     12          7.953644   1.000000
     13          8.612379   1.000000
     14          9.669119   1.000000
     15         10.150519   1.000000
     16         10.916283   1.000000
     17         11.297835   0.000000
     18         12.987173   0.000000
     19         20.654189   0.000000
     20         23.100935   0.000000
     21         23.632920   0.000000
     22         25.627304   0.000000
     23         26.970170   0.000000
     24         27.528332   0.000000
 
  0.3750000E+00  0.1250000E+00  0.3333333E+00  0.6250000E-01
      1        -41.634668   1.000000
      2        -41.613826   1.000000
      3        -41.407510   1.000000
      4        -41.376261   1.000000
      5        -41.280626   1.000000
      6        -41.229044   1.000000
      7          4.829570   1.000000
      8          5.312155   1.000000
      9          6.109511   1.000000
     10          6.407440   1.000000
     11          7.859463   1.000000
     12          9.075507   1.000000
     13          9.340127   1.000000
     14          9.889962   1.000000
     15         10.639997   1.000000
     16         11.447590   0.000000
     17         13.187387   0.000000
     18         14.806602   0.000000
     19         17.752171   0.000000
     20         19.558059   0.000000
     21         22.929671   0.000000
     22         24.857905   0.000000
     23         25.881377   0.000000
     24         26.427475   0.000000
 
  0.2500000E+00  0.2500000E+00  0.3333333E+00  0.3125000E-01
      1        -41.586334   1.000000
      2        -41.582504   1.000000
      3        -41.445870   1.000000
      4        -41.424263   1.000000
      5        -41.277900   1.000000
      6        -41.226903   1.000000
      7          5.630026   1.000000
      8          5.643216   1.000000
      9          6.421608   1.000000
     10          6.976688   1.000000
     11          7.329122   1.000000
     12          7.759085   1.000000
     13          8.323257   1.000000
     14          9.466487   1.000000
     15         10.402432   1.000000
     16         11.495108   0.000000
     17         13.538849   0.000000
     18         15.344828   0.000000
     19         18.857350   0.000000
     20         20.383971   0.000000
     21         22.842752   0.000000
     22         23.011339   0.000000
     23         25.314727   0.000000
     24         27.864687   0.000000
 
  0.3750000E+00  0.2500000E+00  0.3333333E+00  0.3125000E-01
      1        -41.595802   1.000000
      2        -41.577308   1.000000
      3        -41.495711   1.000000
      4        -41.466475   1.000000
      5        -41.257529   1.000000
      6        -41.236275   1.000000
      7          5.593840   1.000000
      8          6.171763   1.000000
      9          6.391346   1.000000
     10          6.776729   1.000000
     11          7.179965   1.000000
     12          7.981407   1.000000
     13          8.802242   1.000000
     14          9.429464   1.000000
     15         10.695600   1.000000
     16         11.092652   0.780146
     17         15.907565   0.000000
     18         16.158994   0.000000
     19         18.167538   0.000000
     20         19.061227   0.000000
     21         20.012041   0.000000
     22         22.630936   0.000000
     23         26.734593   0.000000
     24         27.045003   0.000000
 
  0.0000000E+00  0.0000000E+00  0.5000000E+00  0.2604167E-02
      1        -41.320504   1.000000
      2        -41.320502   1.000000
      3        -41.265044   1.000000
      4        -41.265043   1.000000
      5        -41.265043   1.000000
      6        -41.265042   1.000000
      7          3.166052   1.000000
      8          3.166053   1.000000
      9          7.187939   1.000000
     10          7.187941   1.000000
     11          7.738096   1.000000
     12          7.738097   1.000000
     13          7.738098   1.000000
     14          7.738099   1.000000
     15         10.346064   1.000000
     16         10.346064   1.000000
     17         10.346067   1.000000
     18         10.346067   1.000000
     19         23.039687   0.000000
     20         23.039688   0.000000
     21         26.662269   0.000000
     22         26.662269   0.000000
     23         31.471485   0.000000
     24         31.471486   0.000000
 
  0.1250000E+00 -0.6938894E-17  0.5000000E+00  0.1562500E-01
      1        -41.350019   1.000000
      2        -41.350017   1.000000
      3        -41.284287   1.000000
      4        -41.284285   1.000000
      5        -41.278982   1.000000
      6        -41.278980   1.000000
      7          3.696537   1.000000