Pt-fcc                                  
   1.00000000000000     
     0.000000    1.860118    1.860118
     1.860118    0.000000    1.860118
     1.860118    1.860118    0.000000
   Pt
     1
Direct
  0.000000  0.000000  0.000000
 
   36   36   36
  112.76      112.66      112.01      109.99      105.60      98.111      87.441      74.284      59.960      46.038    
  33.890      24.344      17.554      13.096      10.214      8.3164      7.1554      6.5400      6.3486      6.5400    
  7.1554      8.3164      10.214      13.096      17.554      24.344      33.890      46.038      59.960      74.284    
  87.441      98.111      105.60      109.99      112.01      112.66      112.66      112.28      110.93      107.67    
  101.64      92.413      80.335      66.447      52.231      39.188      28.417      20.389      14.932      11.415    
  9.0945      7.6111      6.7536      6.3654      6.3654      6.7536      7.6111      9.0945      11.415      14.932    
  20.389      28.417      39.188      52.231      66.447      80.335      92.413      101.64      107.67      110.93    
  112.28      112.66      112.01      110.93      108.31      103.29      95.305      84.392      71.286      57.277    
  43.848      32.255      23.224      16.839      12.647      9.9098      8.1040      6.9993      6.4137      6.2315    
  6.4137      6.9993      8.1040      9.9098      12.647      16.839      23.224      32.255      43.848      57.277    
  71.286      84.392      95.305      103.29      108.31      110.93      112.01      112.28      109.99      107.67    
  103.29      96.247      86.411      74.252      60.818      47.470      35.501      25.801      18.671      13.855    
  10.714      8.6080      7.2643      6.4876      6.1356      6.1356      6.4876      7.2643      8.6080      10.714    
  13.855      18.671      25.801      35.501      47.470      60.818      74.252      86.411      96.247      103.29    
  107.67      109.99      110.93      110.93      105.60      101.64      95.305      86.411      75.248      62.637    
  49.759      37.848      27.860      20.256      14.953      11.451      9.0903      7.5313      6.5779      6.0718    
  5.9142      6.0718      6.5779      7.5313      9.0903      11.451      14.953      20.256      27.860      37.848    
  49.759      62.637      75.248      86.411      95.305      101.64      105.60      107.67      108.31      107.67    
  98.111      92.413      84.392      74.252      62.637      50.541      39.077      29.189      21.423      15.838    
  12.069      9.5149      7.7797      6.6736      6.0328      5.7417      5.7417      6.0328      6.6736      7.7797    
  9.5149      12.069      15.838      21.423      29.189      39.077      50.541      62.637      74.252      84.392    
  92.413      98.111      101.64      103.29      103.29      101.64      87.441      80.335      71.286      60.818    
  49.759      39.077      29.647      22.042      16.414      12.519      9.8473      7.9888      6.7631      6.0112    
  5.6103      5.4850      5.6103      6.0112      6.7631      7.9888      9.8473      12.519      16.414      22.042    
  29.647      39.077      49.759      60.818      71.286      80.335      87.441      92.413      95.305      96.247    
  95.305      92.413      74.284      66.447      57.277      47.470      37.848      29.189      22.042      16.614    
  12.756      10.059      8.1399      6.8357      6.0007      5.5134      5.2906      5.2906      5.5134      6.0007    
  6.8357      8.1399      10.059      12.756      16.614      22.042      29.189      37.848      47.470      57.277    
  66.447      74.284      80.335      84.392      86.411      86.411      84.392      80.335      59.960      52.231    
  43.848      35.501      27.860      21.423      16.414      12.756      10.132      8.2192      6.8829      5.9962    
  5.4465      5.1501      5.0568      5.1501      5.4465      5.9962      6.8829      8.2192      10.132      12.756    
  16.414      21.423      27.860      35.501      43.848      52.231      59.960      66.447      71.286      74.252    
  75.248      74.252      71.286      66.447      46.038      39.188      32.255      25.801      20.256      15.838    
  12.519      10.059      8.2192      6.8993      5.9948      5.4071      5.0584      4.8969      4.8969      5.0584    
  5.4071      5.9948      6.8993      8.2192      10.059      12.519      15.838      20.256      25.801      32.255    
  39.188      46.038      52.231      57.277      60.818      62.637      62.637      60.818      57.277      52.231    
  33.890      28.417      23.224      18.671      14.953      12.069      9.8473      8.1399      6.8829      5.9948    
  5.3941      5.0131      4.8034      4.7366      4.8034      5.0131      5.3941      5.9948      6.8829      8.1399    
  9.8473      12.069      14.953      18.671      23.224      28.417      33.889      39.188      43.848      47.470    
  49.759      50.541      49.759      47.470      43.848      39.188      24.344      20.389      16.839      13.855    
  11.451      9.5149      7.9888      6.8357      5.9962      5.4071      5.0131      4.7726      4.6588      4.6588    
  4.7726      5.0131      5.4071      5.9962      6.8357      7.9888      9.5149      11.451      13.855      16.839    
  20.389      24.344      28.417      32.255      35.501      37.848      39.077      39.077      37.848      35.501    
  32.255      28.417      17.554      14.932      12.647      10.714      9.0903      7.7797      6.7631      6.0007    
  5.4465      5.0584      4.8034      4.6588      4.6119      4.6588      4.8034      5.0584      5.4465      6.0007    
  6.7631      7.7797      9.0903      10.714      12.647      14.932      17.554      20.389      23.224      25.801    
  27.860      29.189      29.647      29.189      27.860      25.801      23.224      20.389      13.096      11.415    
  9.9098      8.6080      7.5313      6.6736      6.0112      5.5134      5.1501      4.8969      4.7366      4.6588    
  4.6588      4.7366      4.8969      5.1501      5.5134      6.0112      6.6736      7.5313      8.6080      9.9098    
  11.415      13.096      14.932      16.839      18.671      20.256      21.423      22.042      22.042      21.423    
  20.256      18.671      16.839      14.932      10.214      9.0945      8.1040      7.2643      6.5779      6.0328    
  5.6103      5.2906      5.0568      4.8969      4.8034      4.7726      4.8034      4.8969      5.0568      5.2906    
  5.6103      6.0328      6.5779      7.2643      8.1040      9.0945      10.214      11.415      12.647      13.855    
  14.953      15.838      16.414      16.614      16.414      15.838      14.953      13.855      12.647      11.415    
  8.3164      7.6111      6.9993      6.4876      6.0718      5.7417      5.4850      5.2906      5.1501      5.0584    
  5.0131      5.0131      5.0584      5.1501      5.2906      5.4850      5.7417      6.0718      6.4876      6.9993    
  7.6111      8.3164      9.0945      9.9098      10.714      11.451      12.069      12.519      12.756      12.756    
  12.519      12.069      11.451      10.714      9.9098      9.0945      7.1554      6.7536      6.4137      6.1356    
  5.9142      5.7417      5.6103      5.5134      5.4465      5.4071      5.3941      5.4071      5.4465      5.5134    
  5.6103      5.7417      5.9142      6.1356      6.4137      6.7536      7.1554      7.6111      8.1040      8.6080    
  9.0903      9.5149      9.8473      10.059      10.132      10.059      9.8473      9.5149      9.0903      8.6080    
  8.1040      7.6111      6.5400      6.3654      6.2315      6.1356      6.0718      6.0328      6.0112      6.0007    
  5.9962      5.9948      5.9948      5.9962      6.0007      6.0112      6.0328      6.0718      6.1356      6.2315    
  6.3654      6.5400      6.7536      6.9993      7.2643      7.5313      7.7797      7.9888      8.1399      8.2192    
  8.2192      8.1399      7.9888      7.7797      7.5313      7.2643      6.9993      6.7536      6.3486      6.3654    
  6.4137      6.4876      6.5779      6.6736      6.7631      6.8357      6.8829      6.8993      6.8829      6.8357    
  6.7631      6.6736      6.5779      6.4876      6.4137      6.3654      6.3485      6.3654      6.4137      6.4876    
  6.5779      6.6736      6.7631      6.8357      6.8829      6.8993      6.8829      6.8357      6.7631      6.6736    
  6.5779      6.4876      6.4137      6.3654      6.5400      6.7536      6.9993      7.2643      7.5313      7.7797    
  7.9888      8.1399      8.2192      8.2192      8.1399      7.9888      7.7797      7.5313      7.2643      6.9993    
  6.7536      6.5400      6.3654      6.2315      6.1356      6.0718      6.0328      6.0112      6.0007      5.9962    
  5.9948      5.9948      5.9962      6.0007      6.0112      6.0328      6.0718      6.1356      6.2315      6.3654    
  7.1554      7.6111      8.1040      8.6080      9.0903      9.5149      9.8473      10.059      10.132      10.059    
  9.8473      9.5149      9.0903      8.6080      8.1040      7.6111      7.1554      6.7536      6.4137      6.1356    
  5.9142      5.7417      5.6103      5.5134      5.4465      5.4071      5.3941      5.4071      5.4465      5.5134    
  5.6103      5.7417      5.9142      6.1356      6.4137      6.7536      8.3164      9.0945      9.9098      10.714    
  11.451      12.069      12.519      12.756      12.756      12.519      12.069      11.451      10.714      9.9098    
  9.0945      8.3164      7.6111      6.9993      6.4876      6.0718      5.7417      5.4850      5.2906      5.1501    
  5.0584      5.0131      5.0131      5.0584      5.1501      5.2906      5.4850      5.7417      6.0718      6.4876    
  6.9993      7.6111      10.214      11.415      12.647      13.855      14.953      15.838      16.414      16.614    
  16.414      15.838      14.953      13.855      12.647      11.415      10.214      9.0945      8.1040      7.2643    
  6.5779      6.0328      5.6103      5.2906      5.0568      4.8969      4.8034      4.7726      4.8034      4.8969    
  5.0568      5.2906      5.6103      6.0328      6.5779      7.2643      8.1040      9.0945      13.096      14.932    
  16.839      18.671      20.256      21.423      22.042      22.042      21.423      20.256      18.671      16.839    
  14.932      13.096      11.415      9.9098      8.6080      7.5313      6.6736      6.0112      5.5134      5.1501    
  4.8969      4.7366      4.6588      4.6588      4.7366      4.8969      5.1501      5.5134      6.0112      6.6736    
  7.5313      8.6080      9.9098      11.415      17.554      20.389      23.224      25.801      27.860      29.189    
  29.647      29.189      27.860      25.801      23.224      20.389      17.554      14.932      12.647      10.714    
  9.0903      7.7797      6.7631      6.0007      5.4465      5.0584      4.8034      4.6588      4.6119      4.6588    
  4.8034      5.0584      5.4465      6.0007      6.7631      7.7797      9.0903      10.714      12.647      14.932    
  24.344      28.417      32.255      35.501      37.848      39.077      39.077      37.848      35.501      32.255    
  28.417      24.344      20.389      16.839      13.855      11.451      9.5149      7.9888      6.8357      5.9962    
  5.4071      5.0131      4.7726      4.6588      4.6588      4.7726      5.0131      5.4071      5.9962      6.8357    
  7.9888      9.5149      11.451      13.855      16.839      20.389      33.890      39.188      43.848      47.470    
  49.759      50.541      49.759      47.470      43.848      39.188      33.889      28.417      23.224      18.671    
  14.953      12.069      9.8473      8.1399      6.8829      5.9948      5.3941      5.0131      4.8034      4.7366    
  4.8034      5.0131      5.3941      5.9948      6.8829      8.1399      9.8473      12.069      14.953      18.671    
  23.224      28.417      46.038      52.231      57.277      60.818      62.637      62.637      60.818      57.277    
  52.231      46.038      39.188      32.255      25.801      20.256      15.838      12.519      10.059      8.2192    
  6.8993      5.9948      5.4071      5.0584      4.8969      4.8969      5.0584      5.4071      5.9948      6.8993    
  8.2192      10.059      12.519      15.838      20.256      25.801      32.255      39.188      59.960      66.447    
  71.286      74.252      75.248      74.252      71.286      66.447      59.960      52.231      43.848      35.501    
  27.860      21.423      16.414      12.756      10.132      8.2192      6.8829      5.9962      5.4465      5.1501    
  5.0568      5.1501      5.4465      5.9962      6.8829      8.2192      10.132      12.756      16.414      21.423    
  27.860      35.501      43.848      52.231      74.284      80.335      84.392      86.411      86.411      84.392    
  80.335      74.284      66.447      57.277      47.470      37.848      29.189      22.042      16.614      12.756    
  10.059      8.1399      6.8357      6.0007      5.5134      5.2906      5.2906      5.5134      6.0007      6.8357    
  8.1399      10.059      12.756      16.614      22.042      29.189      37.848      47.470      57.277      66.447    
  87.441      92.413      95.305      96.247      95.305      92.413      87.441      80.335      71.286      60.818    
  49.759      39.077      29.647      22.042      16.414      12.519      9.8473      7.9888      6.7631      6.0112    
  5.6103      5.4850      5.6103      6.0112      6.7631      7.9888      9.8473      12.519      16.414      22.042    
  29.647      39.077      49.759      60.818      71.286      80.335      98.111      101.64      103.29      103.29    
  101.64      98.111      92.413      84.392      74.252      62.637      50.541      39.077      29.189      21.423    
  15.838      12.069      9.5149      7.7797      6.6736      6.0328      5.7417      5.7417      6.0328      6.6736    
  7.7797      9.5149      12.069      15.838      21.423      29.189      39.077      50.541      62.637      74.252    
  84.392      92.413      105.60      107.67      108.31      107.67      105.60      101.64      95.305      86.411    
  75.248      62.637      49.759      37.848      27.860      20.256      14.953      11.451      9.0903      7.5313    
  6.5779      6.0718      5.9142      6.0718      6.5779      7.5313      9.0903      11.451      14.953      20.256    
  27.860      37.848      49.759      62.637      75.248      86.411      95.305      101.64      109.99      110.93    
  110.93      109.99      107.67      103.29      96.247      86.411      74.252      60.818      47.470      35.501    
  25.801      18.671      13.855      10.714      8.6080      7.2643      6.4876      6.1356      6.1356      6.4876    
  7.2643      8.6080      10.714      13.855      18.671      25.801      35.501      47.470      60.818      74.252    
  86.411      96.247      103.29      107.67      112.01      112.28      112.01      110.93      108.31      103.29    
  95.305      84.392      71.286      57.277      43.848      32.255      23.224      16.839      12.647      9.9098    
  8.1040      6.9993      6.4137      6.2315      6.4137      6.9993      8.1040      9.9098      12.647      16.839    
  23.224      32.255      43.848      57.277      71.286      84.392      95.305      103.29      108.31      110.93    
  112.66      112.66      112.28      110.93      107.67      101.64      92.413      80.335      66.447      52.231    
  39.188      28.417      20.389      14.932      11.415      9.0945      7.6111      6.7536      6.3654      6.3654    
  6.7536      7.6111      9.0945      11.415      14.932      20.389      28.417      39.188      52.231      66.447    
  80.335      92.413      101.64      107.67      110.93      112.28      112.66      112.28      110.93      107.67    
  101.64      92.413      80.335      66.447      52.231      39.188      28.417      20.389      14.932      11.415    
  9.0945      7.6111      6.7536      6.3654      6.3654      6.7536      7.6111      9.0945      11.415      14.932    
  20.389      28.417      39.188      52.231      66.447      80.335      92.413      101.64      107.67      110.93    
  112.28      112.66      112.28      111.29      108.80      103.92      96.051      85.200      72.087      58.006    
  44.454      32.717      23.547      17.049      12.782      10.004      8.1721      7.0514      6.4573      6.2724    
  6.4573      7.0514      8.1721      10.004      12.782      17.049      23.547      32.717      44.454      58.006    
  72.087      85.200      96.051      103.92      108.80      111.29      112.28      112.51      110.93      108.80    
  104.63      97.781      88.061      75.902      62.346      48.773      36.524      26.537      19.162      14.168    
  10.924      8.7586      7.3760      6.5767      6.2145      6.2145      6.5767      7.3760      8.7586      10.924    
  14.168      19.162      26.537      36.524      48.773      62.346      75.902      88.061      97.781      104.63    
  108.80      110.93      111.76      111.76      107.67      103.92      97.781      89.000      77.813      65.019    
  51.819      39.496      29.076      21.085      15.486      11.798      9.3361      7.7094      6.7145      6.1866    
  6.0222      6.1866      6.7145      7.7094      9.3361      11.798      15.486      21.085      29.076      39.496    
  51.819      65.019      77.813      89.000      97.781      103.92      107.67      109.59      110.16      109.59    
  101.64      96.051      88.061      77.813      65.920      53.388      41.380      30.917      22.624      16.621    
  12.572      9.8646      8.0291      6.8587      6.1813      5.8738      5.8738      6.1813      6.8587      8.0291    
  9.8646      12.572      16.621      22.624      30.917      41.380      53.388      65.920      77.813      88.061    
  96.051      101.64      105.03      106.61      106.61      105.03      92.413      85.200      75.902      65.019    
  53.388      42.025      31.884      23.619      17.455      13.187      10.304      8.3106      6.9959      6.1905    
  5.7617      5.6279      5.7617      6.1905      6.9959      8.3106      10.304      13.187      17.455      23.619    
  31.884      42.025      53.388      65.019      75.902      85.200      92.413      97.404      100.28      101.21    
  100.28      97.404      80.335      72.087      62.346      51.819      41.380      31.884      23.963      17.898    
  13.584      10.618      8.5310      7.1126      6.2065      5.6792      5.4387      5.4387      5.6792      6.2065    
  7.1126      8.5310      10.618      13.584      17.898      23.963      31.884      41.380      51.819      62.346    
  72.087      80.335      86.650      90.853      92.936      92.936      90.853      86.650      66.447      58.006    
  48.773      39.496      30.917      23.619      17.898      13.722      10.783      8.6715      7.1976      6.2227    
  5.6209      5.2978      5.1964      5.2978      5.6209      6.2227      7.1976      8.6715      10.783      13.722    
  17.898      23.619      30.917      39.496      48.773      58.006      66.447      73.482      78.701      81.888    
  82.956      81.888      78.701      73.482      52.231      44.454      36.524      29.076      22.624      17.455    
  13.584      10.783      8.7197      7.2422      6.2343      5.5835      5.1998      5.0229      5.0229      5.1998    
  5.5835      6.2343      7.2422      8.7197      10.783      13.584      17.455      22.624      29.076      36.524    
  44.454      52.231      59.220      64.885      68.846      70.877      70.877      68.846      64.885      59.220    
  39.188      32.717      26.537      21.085      16.621      13.187      10.618      8.6715      7.2422      6.2385    
  5.5651      5.1418      4.9105      4.8372      4.9105      5.1418      5.5651      6.2385      7.2422      8.6715    
  10.618      13.187      16.621      21.085      26.537      32.717      39.188      45.415      50.866      55.089    
  57.753      58.662      57.753      55.089      50.866      45.415      28.417      23.547      19.162      15.486    
  12.572      10.304      8.5310      7.1976      6.2343      5.5651      5.1225      4.8552      4.7296      4.7296    
  4.8552      5.1225      5.5651      6.2343      7.1976      8.5310      10.304      12.572      15.486      19.162    
  23.547      28.417      33.411      38.097      42.047      44.896      46.386      46.386      44.896      42.047    
  38.097      33.411      20.389      17.049      14.168      11.798      9.8646      8.3106      7.1126      6.2227    
  5.5835      5.1418      4.8552      4.6944      4.6426      4.6944      4.8552      5.1418      5.5835      6.2227    
  7.1126      8.3106      9.8646      11.798      14.168      17.049      20.389      24.007      27.621      30.896    
  33.510      35.194      35.775      35.194      33.510      30.896      27.621      24.007      14.932      12.782    
  10.924      9.3361      8.0291      6.9959      6.2065      5.6209      5.1998      4.9105      4.7296      4.6426    
  4.6426      4.7296      4.9105      5.1998      5.6209      6.2065      6.9959      8.0291      9.3361      10.924    
  12.782      14.932      17.334      19.853      22.282      24.383      25.930      26.751      26.751      25.930    
  24.383      22.282      19.853      17.334      11.415      10.004      8.7586      7.7094      6.8587      6.1905    
  5.6792      5.2978      5.0229      4.8372      4.7296      4.6944      4.7296      4.8372      5.0229      5.2978    
  5.6792      6.1905      6.8587      7.7094      8.7586      10.004      11.415      12.955      14.590      16.228    
  17.735      18.955      19.752      20.028      19.752      18.955      17.735      16.228      14.590      12.955    
  9.0945      8.1721      7.3760      6.7145      6.1813      5.7617      5.4387      5.1964      5.0229      4.9105    
  4.8552      4.8552      4.9105      5.0229      5.1964      5.4387      5.7617      6.1813      6.7145      7.3760    
  8.1721      9.0945      10.116      11.189      12.255      13.258      14.120      14.756      15.095      15.095    
  14.756      14.120      13.258      12.255      11.189      10.116      7.6111      7.0514      6.5767      6.1866    
  5.8738      5.6279      5.4387      5.2978      5.1998      5.1418      5.1225      5.1418      5.1998      5.2978    
  5.4387      5.6279      5.8738      6.1866      6.5767      7.0514      7.6111      8.2457      8.9322      9.6348    
  10.308      10.901      11.366      11.664      11.767      11.664      11.366      10.901      10.308      9.6348    
  8.9322      8.2457      6.7536      6.4573      6.2145      6.0222      5.8738      5.7617      5.6792      5.6209    
  5.5835      5.5651      5.5651      5.5835      5.6209      5.6792      5.7617      5.8738      6.0222      6.2145    
  6.4573      6.7536      7.1014      7.4909      7.9046      8.3177      8.7004      9.0218      9.2540      9.3757    
  9.3757      9.2540      9.0218      8.7004      8.3177      7.9046      7.4909      7.1014      6.3654      6.2724    
  6.2145      6.1866      6.1813      6.1905      6.2065      6.2227      6.2343      6.2385      6.2343      6.2227    
  6.2065      6.1905      6.1813      6.1866      6.2145      6.2724      6.3654      6.4948      6.6579      6.8467    
  7.0490      7.2486      7.4283      7.5710      7.6628      7.6945      7.6628      7.5710      7.4283      7.2486    
  7.0490      6.8467      6.6579      6.4948      6.3654      6.4573      6.5767      6.7145      6.8587      6.9959    
  7.1126      7.1976      7.2422      7.2422      7.1976      7.1126      6.9959      6.8587      6.7145      6.5767    
  6.4573      6.3654      6.3061      6.2807      6.2858      6.3154      6.3606      6.4119      6.4600      6.4969    
  6.5168      6.5168      6.4969      6.4600      6.4119      6.3606      6.3154      6.2858      6.2807      6.3062    
  6.7536      7.0514      7.3760      7.7094      8.0291      8.3106      8.5310      8.6715      8.7197      8.6715    
  8.5310      8.3106      8.0291      7.7094      7.3760      7.0514      6.7536      6.4948      6.2807      6.1113    
  5.9828      5.8887      5.8222      5.7767      5.7475      5.7312      5.7260      5.7312      5.7475      5.7767    
  5.8222      5.8887      5.9828      6.1113      6.2807      6.4948      7.6111      8.1721      8.7586      9.3361    
  9.8646      10.304      10.618      10.783      10.783      10.618      10.304      9.8646      9.3361      8.7586    
  8.1721      7.6111      7.1014      6.6579      6.2858      5.9828      5.7416      5.5538      5.4113      5.3082    
  5.2408      5.2075      5.2075      5.2408      5.3082      5.4113      5.5538      5.7416      5.9828      6.2858    
  6.6579      7.1014      9.0945      10.004      10.924      11.798      12.572      13.187      13.584      13.722    
  13.584      13.187      12.572      11.798      10.924      10.004      9.0945      8.2457      7.4909      6.8467    
  6.3154      5.8887      5.5538      5.2968      5.1065      4.9748      4.8971      4.8714      4.8971      4.9748    
  5.1065      5.2968      5.5538      5.8887      6.3154      6.8467      7.4909      8.2457      11.415      12.782    
  14.168      15.486      16.621      17.455      17.898      17.898      17.455      16.621      15.486      14.168    
  12.782      11.415      10.116      8.9322      7.9046      7.0490      6.3606      5.8222      5.4113      5.1065    
  4.8907      4.7523      4.6846      4.6846      4.7523      4.8907      5.1065      5.4113      5.8222      6.3606    
  7.0490      7.9046      8.9322      10.116      14.932      17.049      19.162      21.085      22.624      23.619    
  23.963      23.619      22.624      21.085      19.162      17.049      14.932      12.955      11.189      9.6348    
  8.3177      7.2486      6.4119      5.7767      5.3082      4.9748      4.7523      4.6247      4.5831      4.6247    
  4.7523      4.9748      5.3082      5.7767      6.4119      7.2486      8.3177      9.6348      11.189      12.955    
  20.389      23.547      26.537      29.076      30.917      31.884      31.884      30.917      29.076      26.537    
  23.547      20.389      17.334      14.590      12.255      10.308      8.7004      7.4283      6.4600      5.7475    
  5.2408      4.8971      4.6846      4.5831      4.5831      4.6846      4.8971      5.2408      5.7475      6.4600    
  7.4283      8.7004      10.308      12.255      14.590      17.334      28.417      32.717      36.524      39.496    
  41.380      42.025      41.380      39.496      36.524      32.717      28.417      24.007      19.853      16.228    
  13.258      10.901      9.0218      7.5710      6.4969      5.7312      5.2075      4.8714      4.6846      4.6247    
  4.6846      4.8714      5.2075      5.7312      6.4969      7.5710      9.0218      10.901      13.258      16.228    
  19.853      24.007      39.188      44.454      48.773      51.819      53.388      53.388      51.819      48.773    
  44.454      39.188      33.411      27.621      22.282      17.735      14.120      11.366      9.2540      7.6628    
  6.5168      5.7260      5.2075      4.8971      4.7523      4.7523      4.8971      5.2075      5.7260      6.5168    
  7.6628      9.2540      11.366      14.120      17.735      22.282      27.621      33.411      52.231      58.006    
  62.346      65.019      65.920      65.019      62.346      58.006      52.231      45.415      38.097      30.896    
  24.383      18.955      14.756      11.664      9.3757      7.6945      6.5168      5.7312      5.2408      4.9748    
  4.8907      4.9748      5.2408      5.7312      6.5168      7.6945      9.3757      11.664      14.756      18.955    
  24.383      30.896      38.097      45.415      66.447      72.087      75.902      77.813      77.813      75.902    
  72.087      66.447      59.220      50.866      42.047      33.510      25.930      19.752      15.095      11.767    
  9.3757      7.6628      6.4969      5.7475      5.3082      5.1065      5.1065      5.3082      5.7475      6.4969    
  7.6628      9.3757      11.767      15.095      19.752      25.930      33.510      42.047      50.866      59.220    
  80.335      85.200      88.061      89.000      88.061      85.200      80.335      73.482      64.885      55.089    
  44.896      35.194      26.751      20.028      15.095      11.664      9.2540      7.5710      6.4600      5.7767    
  5.4113      5.2968      5.4113      5.7767      6.4600      7.5710      9.2540      11.664      15.095      20.028    
  26.751      35.194      44.896      55.089      64.885      73.482      92.413      96.051      97.781      97.781    
  96.051      92.413      86.650      78.701      68.846      57.753      46.386      35.775      26.751      19.752    
  14.756      11.366      9.0218      7.4283      6.4119      5.8222      5.5538      5.5538      5.8222      6.4119    
  7.4283      9.0218      11.366      14.756      19.752      26.751      35.775      46.386      57.753      68.846    
  78.701      86.650      101.64      103.92      104.63      103.92      101.64      97.404      90.853      81.888    
  70.877      58.662      46.386      35.194      25.930      18.955      14.120      10.901      8.7004      7.2486    
  6.3606      5.8887      5.7416      5.8887      6.3606      7.2486      8.7004      10.901      14.120      18.955    
  25.930      35.194      46.386      58.662      70.877      81.888      90.853      97.404      107.67      108.80    