Pt-fcc                                  
   1.00000000000000     
     0.000000    1.860118    1.860118
     1.860118    0.000000    1.860118
     1.860118    1.860118    0.000000
   Pt
     1
Direct
  0.000000  0.000000  0.000000
 
   36   36   36
 0.11276455683E+03 0.11265770241E+03 0.11201366423E+03 0.10999496229E+03 0.10560141013E+03
 0.98110915932E+02 0.87440886858E+02 0.74284151175E+02 0.59959770829E+02 0.46037532297E+02
 0.33889501989E+02 0.24343666743E+02 0.17553917590E+02 0.13095739727E+02 0.10213531090E+02
 0.83163822165E+01 0.71553743388E+01 0.65399649571E+01 0.63485531358E+01 0.65399649571E+01
 0.71553743388E+01 0.83163822165E+01 0.10213531090E+02 0.13095739727E+02 0.17553917590E+02
 0.24343666743E+02 0.33889501989E+02 0.46037532297E+02 0.59959770829E+02 0.74284151175E+02
 0.87440886858E+02 0.98110915932E+02 0.10560141013E+03 0.10999496229E+03 0.11201366423E+03
 0.11265770241E+03 0.11265770241E+03 0.11227992938E+03 0.11093134978E+03 0.10767466996E+03
 0.10163528931E+03 0.92412996362E+02 0.80335415881E+02 0.66446635940E+02 0.52231482451E+02
 0.39187519314E+02 0.28417056258E+02 0.20389044369E+02 0.14931810404E+02 0.11415409996E+02
 0.90945084462E+01 0.76111179974E+01 0.67536463567E+01 0.63653584108E+01 0.63653588203E+01
 0.67536473224E+01 0.76111188892E+01 0.90945086478E+01 0.11415409301E+02 0.14931809185E+02
 0.20389043408E+02 0.28417056272E+02 0.39187520444E+02 0.52231483922E+02 0.66446636214E+02
 0.80335413161E+02 0.92412989457E+02 0.10163527827E+03 0.10767465641E+03 0.11093133658E+03
 0.11227991974E+03 0.11265769888E+03 0.11201366423E+03 0.11093134978E+03 0.10830516914E+03
 0.10328603772E+03 0.95304526443E+02 0.84391635547E+02 0.71285948372E+02 0.57277284194E+02
 0.43847646137E+02 0.32255431408E+02 0.23224402450E+02 0.16838740604E+02 0.12647136925E+02
 0.99098126733E+01 0.81039594325E+01 0.69993263234E+01 0.64136928871E+01 0.62314959632E+01
 0.64136942163E+01 0.69993281268E+01 0.81039605108E+01 0.99098122232E+01 0.12647135082E+02
 0.16838738465E+02 0.23224401498E+02 0.32255432574E+02 0.43847649007E+02 0.57277286773E+02
 0.71285947673E+02 0.84391628772E+02 0.95304512395E+02 0.10328601768E+03 0.10830514690E+03
 0.11093133058E+03 0.11201365310E+03 0.11227991974E+03 0.10999496229E+03 0.10767466996E+03
 0.10328603772E+03 0.96247227056E+02 0.86411284610E+02 0.74251818143E+02 0.60817825382E+02
 0.47469510991E+02 0.35501013333E+02 0.25800597035E+02 0.18671447744E+02 0.13855200607E+02
 0.10713722066E+02 0.86079671155E+01 0.72643460482E+01 0.64875764324E+01 0.61355857553E+01
 0.61355866407E+01 0.64875785277E+01 0.72643480053E+01 0.86079675977E+01 0.10713720596E+02
 0.13855197954E+02 0.18671445607E+02 0.25800597113E+02 0.35501016228E+02 0.47469515505E+02
 0.60817828639E+02 0.74251816629E+02 0.86411275699E+02 0.96247210434E+02 0.10328601597E+03
 0.10767464807E+03 0.10999494605E+03 0.11093133058E+03 0.11093133658E+03 0.10560141013E+03
 0.10163528931E+03 0.95304526443E+02 0.86411284610E+02 0.75248348393E+02 0.62636843462E+02
 0.49758797896E+02 0.37847521368E+02 0.27859827176E+02 0.20255545544E+02 0.14953210744E+02
 0.11450563288E+02 0.90902793218E+01 0.75312774925E+01 0.65778970824E+01 0.60717954237E+01
 0.59141585329E+01 0.60717970323E+01 0.65778993047E+01 0.75312789112E+01 0.90902789349E+01
 0.11450561165E+02 0.14953208117E+02 0.20255544231E+02 0.27859828606E+02 0.37847525644E+02
 0.49758803443E+02 0.62636847449E+02 0.75248347857E+02 0.86411277844E+02 0.95304513922E+02
 0.10163527387E+03 0.10560139611E+03 0.10767464807E+03 0.10830514690E+03 0.10767465641E+03
 0.98110915932E+02 0.92412996362E+02 0.84391635547E+02 0.74251818143E+02 0.62636843462E+02
 0.50540952221E+02 0.39076805353E+02 0.29188506665E+02 0.21422638352E+02 0.15837924543E+02
 0.12068868101E+02 0.95148761967E+01 0.77797195623E+01 0.66735925500E+01 0.60328092876E+01
 0.57417004423E+01 0.57417011542E+01 0.60328110091E+01 0.66735942705E+01 0.77797202243E+01
 0.95148753091E+01 0.12068866071E+02 0.15837922575E+02 0.21422637889E+02 0.29188508691E+02
 0.39076809807E+02 0.50540957925E+02 0.62636848514E+02 0.74251820712E+02 0.84391634708E+02
 0.92412992513E+02 0.98110910705E+02 0.10163527387E+03 0.10328601597E+03 0.10328601768E+03
 0.10163527827E+03 0.87440886858E+02 0.80335415881E+02 0.71285948372E+02 0.60817825382E+02
 0.49758797896E+02 0.39076805353E+02 0.29647439318E+02 0.22041759681E+02 0.16413653608E+02
 0.12518741577E+02 0.98472704648E+01 0.79888029164E+01 0.67630762496E+01 0.60112398853E+01
 0.56102943049E+01 0.54850076843E+01 0.56102951186E+01 0.60112411014E+01 0.67630772375E+01
 0.79888031240E+01 0.98472697026E+01 0.12518740133E+02 0.16413652193E+02 0.22041759156E+02
 0.29647440417E+02 0.39076808379E+02 0.49758802651E+02 0.60817831254E+02 0.71285954505E+02
 0.80335421481E+02 0.87440891343E+02 0.92412992513E+02 0.95304513922E+02 0.96247210434E+02
 0.95304512395E+02 0.92412989457E+02 0.74284151175E+02 0.66446635940E+02 0.57277284194E+02
 0.47469510991E+02 0.37847521368E+02 0.29188506665E+02 0.22041759681E+02 0.16613536688E+02
 0.12756375396E+02 0.10059113562E+02 0.81399229396E+01 0.68356790508E+01 0.60006716845E+01
 0.55133948227E+01 0.52905704114E+01 0.52905705078E+01 0.55133951089E+01 0.60006721197E+01
 0.68356795157E+01 0.81399231957E+01 0.10059113325E+02 0.12756374441E+02 0.16613535060E+02
 0.22041757783E+02 0.29188505301E+02 0.37847521534E+02 0.47469513541E+02 0.57277289518E+02
 0.66446643636E+02 0.74284160047E+02 0.80335421481E+02 0.84391634708E+02 0.86411277844E+02
 0.86411275699E+02 0.84391628772E+02 0.80335413161E+02 0.59959770829E+02 0.52231482451E+02
 0.43847646137E+02 0.35501013333E+02 0.27859827176E+02 0.21422638352E+02 0.16413653608E+02
 0.12756375396E+02 0.10131872103E+02 0.82191857802E+01 0.68828888208E+01 0.59962379660E+01
 0.54465135357E+01 0.51500860701E+01 0.50568074157E+01 0.51500856507E+01 0.54465130243E+01
 0.59962377880E+01 0.68828891884E+01 0.82191864420E+01 0.10131872396E+02 0.12756374497E+02
 0.16413651036E+02 0.21422634303E+02 0.27859822670E+02 0.35501009944E+02 0.43847645355E+02
 0.52231485122E+02 0.59959776628E+02 0.66446643636E+02 0.71285954505E+02 0.74251820712E+02
 0.75248347857E+02 0.74251816629E+02 0.71285947673E+02 0.66446636214E+02 0.46037532297E+02
 0.39187519314E+02 0.32255431408E+02 0.25800597035E+02 0.20255545544E+02 0.15837924543E+02
 0.12518741577E+02 0.10059113562E+02 0.82191857802E+01 0.68992503153E+01 0.59947828353E+01
 0.54071193923E+01 0.50584377723E+01 0.48968807045E+01 0.48968802357E+01 0.50584366483E+01
 0.54071183281E+01 0.59947825143E+01 0.68992509902E+01 0.82191869757E+01 0.10059114258E+02
 0.12518740579E+02 0.15837921127E+02 0.20255539840E+02 0.25800590088E+02 0.32255424915E+02
 0.39187514850E+02 0.46037530756E+02 0.52231485122E+02 0.57277289518E+02 0.60817831254E+02
 0.62636848514E+02 0.62636847449E+02 0.60817828639E+02 0.57277286773E+02 0.52231483922E+02
 0.33889501989E+02 0.28417056258E+02 0.23224402450E+02 0.18671447744E+02 0.14953210744E+02
 0.12068868101E+02 0.98472704648E+01 0.81399229396E+01 0.68828888208E+01 0.59947828353E+01
 0.53940866111E+01 0.50130802223E+01 0.48033672801E+01 0.47365593615E+01 0.48033662749E+01
 0.50130787769E+01 0.53940855734E+01 0.59947828664E+01 0.68828900340E+01 0.81399247234E+01
 0.98472717102E+01 0.12068867603E+02 0.14953207695E+02 0.18671442150E+02 0.23224395010E+02
 0.28417048266E+02 0.33889494743E+02 0.39187514850E+02 0.43847645355E+02 0.47469513541E+02
 0.49758802651E+02 0.50540957925E+02 0.49758803443E+02 0.47469515505E+02 0.43847649007E+02
 0.39187520444E+02 0.24343666743E+02 0.20389044369E+02 0.16838740604E+02 0.13855200607E+02
 0.11450563288E+02 0.95148761967E+01 0.79888029164E+01 0.68356790508E+01 0.59962379660E+01
 0.54071193923E+01 0.50130802223E+01 0.47725574616E+01 0.46587560345E+01 0.46587556053E+01
 0.47725564116E+01 0.50130791072E+01 0.54071189065E+01 0.59962385750E+01 0.68356808266E+01
 0.79888053933E+01 0.95148785224E+01 0.11450564483E+02 0.13855199781E+02 0.16838737378E+02
 0.20389038820E+02 0.24343659473E+02 0.28417048266E+02 0.32255424915E+02 0.35501009944E+02
 0.37847521534E+02 0.39076808379E+02 0.39076809807E+02 0.37847525644E+02 0.35501016228E+02
 0.32255432574E+02 0.28417056272E+02 0.17553917590E+02 0.14931810404E+02 0.12647136925E+02
 0.10713722066E+02 0.90902793218E+01 0.77797195623E+01 0.67630762496E+01 0.60006716845E+01
 0.54465135357E+01 0.50584377723E+01 0.48033672801E+01 0.46587560345E+01 0.46119031193E+01
 0.46587556975E+01 0.48033667636E+01 0.50584373680E+01 0.54465136284E+01 0.60006726629E+01
 0.67630783563E+01 0.77797227947E+01 0.90902832293E+01 0.10713725937E+02 0.12647139689E+02
 0.14931811107E+02 0.17553915659E+02 0.20389038820E+02 0.23224395010E+02 0.25800590088E+02
 0.27859822670E+02 0.29188505301E+02 0.29647440417E+02 0.29188508691E+02 0.27859828606E+02
 0.25800597113E+02 0.23224401498E+02 0.20389043408E+02 0.13095739727E+02 0.11415409996E+02
 0.99098126733E+01 0.86079671155E+01 0.75312774925E+01 0.66735925500E+01 0.60112398853E+01
 0.55133948227E+01 0.51500860701E+01 0.48968807045E+01 0.47365593615E+01 0.46587556053E+01
 0.46587556975E+01 0.47365595552E+01 0.48968808353E+01 0.51500860754E+01 0.55133949076E+01
 0.60112405683E+01 0.66735944682E+01 0.75312811634E+01 0.86079724898E+01 0.99098190962E+01
 0.11415416269E+02 0.13095744354E+02 0.14931811107E+02 0.16838737378E+02 0.18671442150E+02
 0.20255539840E+02 0.21422634303E+02 0.22041757783E+02 0.22041759156E+02 0.21422637889E+02
 0.20255544231E+02 0.18671445607E+02 0.16838738465E+02 0.14931809185E+02 0.10213531090E+02
 0.90945084462E+01 0.81039594325E+01 0.72643460482E+01 0.65778970824E+01 0.60328092876E+01
 0.56102943049E+01 0.52905704114E+01 0.50568074157E+01 0.48968802357E+01 0.48033662749E+01
 0.47725564116E+01 0.48033667636E+01 0.48968808353E+01 0.50568076216E+01 0.52905699491E+01
 0.56102934131E+01 0.60328087615E+01 0.65778979574E+01 0.72643492126E+01 0.81039651052E+01
 0.90945159521E+01 0.10213539119E+02 0.11415416269E+02 0.12647139689E+02 0.13855199781E+02
 0.14953207695E+02 0.15837921127E+02 0.16413651036E+02 0.16613535060E+02 0.16413652193E+02
 0.15837922575E+02 0.14953208117E+02 0.13855197954E+02 0.12647135082E+02 0.11415409301E+02
 0.83163822165E+01 0.76111179974E+01 0.69993263234E+01 0.64875764324E+01 0.60717954237E+01
 0.57417004423E+01 0.54850076843E+01 0.52905705078E+01 0.51500856507E+01 0.50584366483E+01
 0.50130787769E+01 0.50130791072E+01 0.50584373680E+01 0.51500860754E+01 0.52905699491E+01
 0.54850058716E+01 0.57416977674E+01 0.60717929168E+01 0.64875753417E+01 0.69993276619E+01
 0.76111221084E+01 0.83163885438E+01 0.90945159521E+01 0.99098190962E+01 0.10713725937E+02
 0.11450564483E+02 0.12068867603E+02 0.12518740579E+02 0.12756374497E+02 0.12756374441E+02
 0.12518740133E+02 0.12068866071E+02 0.11450561165E+02 0.10713720596E+02 0.99098122232E+01
 0.90945086478E+01 0.71553743388E+01 0.67536463567E+01 0.64136928871E+01 0.61355857553E+01
 0.59141585329E+01 0.57417011542E+01 0.56102951186E+01 0.55133951089E+01 0.54465130243E+01
 0.54071183281E+01 0.53940855734E+01 0.54071189065E+01 0.54465136284E+01 0.55133949076E+01
 0.56102934131E+01 0.57416977674E+01 0.59141539450E+01 0.61355810392E+01 0.64136892867E+01
 0.67536448488E+01 0.71553753352E+01 0.76111221084E+01 0.81039651052E+01 0.86079724898E+01
 0.90902832293E+01 0.95148785224E+01 0.98472717102E+01 0.10059114258E+02 0.10131872396E+02
 0.10059113325E+02 0.98472697026E+01 0.95148753091E+01 0.90902789349E+01 0.86079675977E+01
 0.81039605108E+01 0.76111188892E+01 0.65399649571E+01 0.63653584108E+01 0.62314959632E+01
 0.61355866407E+01 0.60717970323E+01 0.60328110091E+01 0.60112411014E+01 0.60006721197E+01
 0.59962377880E+01 0.59947825143E+01 0.59947828664E+01 0.59962385750E+01 0.60006726629E+01
 0.60112405683E+01 0.60328087615E+01 0.60717929168E+01 0.61355810392E+01 0.62314897343E+01
 0.63653526312E+01 0.65399605557E+01 0.67536448488E+01 0.69993276619E+01 0.72643492126E+01
 0.75312811634E+01 0.77797227947E+01 0.79888053933E+01 0.81399247234E+01 0.82191869757E+01
 0.82191864420E+01 0.81399231957E+01 0.79888031240E+01 0.77797202243E+01 0.75312789112E+01
 0.72643480053E+01 0.69993281268E+01 0.67536473224E+01 0.63485531358E+01 0.63653588203E+01
 0.64136942163E+01 0.64875785277E+01 0.65778993047E+01 0.66735942705E+01 0.67630772375E+01
 0.68356795157E+01 0.68828891884E+01 0.68992509902E+01 0.68828900340E+01 0.68356808266E+01
 0.67630783563E+01 0.66735944682E+01 0.65778979574E+01 0.64875753417E+01 0.64136892867E+01
 0.63653526312E+01 0.63485464854E+01 0.63653526312E+01 0.64136892867E+01 0.64875753417E+01
 0.65778979574E+01 0.66735944682E+01 0.67630783563E+01 0.68356808266E+01 0.68828900340E+01
 0.68992509902E+01 0.68828891884E+01 0.68356795157E+01 0.67630772375E+01 0.66735942705E+01
 0.65778993047E+01 0.64875785277E+01 0.64136942163E+01 0.63653588203E+01 0.65399649571E+01
 0.67536473224E+01 0.69993281268E+01 0.72643480053E+01 0.75312789112E+01 0.77797202243E+01
 0.79888031240E+01 0.81399231957E+01 0.82191864420E+01 0.82191869757E+01 0.81399247234E+01
 0.79888053933E+01 0.77797227947E+01 0.75312811634E+01 0.72643492126E+01 0.69993276619E+01
 0.67536448488E+01 0.65399605557E+01 0.63653526312E+01 0.62314897343E+01 0.61355810392E+01
 0.60717929168E+01 0.60328087615E+01 0.60112405683E+01 0.60006726629E+01 0.59962385750E+01
 0.59947828664E+01 0.59947825143E+01 0.59962377880E+01 0.60006721197E+01 0.60112411014E+01
 0.60328110091E+01 0.60717970323E+01 0.61355866407E+01 0.62314959632E+01 0.63653584108E+01
 0.71553743388E+01 0.76111188892E+01 0.81039605108E+01 0.86079675977E+01 0.90902789349E+01
 0.95148753091E+01 0.98472697026E+01 0.10059113325E+02 0.10131872396E+02 0.10059114258E+02
 0.98472717102E+01 0.95148785224E+01 0.90902832293E+01 0.86079724898E+01 0.81039651052E+01
 0.76111221084E+01 0.71553753352E+01 0.67536448488E+01 0.64136892867E+01 0.61355810392E+01
 0.59141539450E+01 0.57416977674E+01 0.56102934131E+01 0.55133949076E+01 0.54465136284E+01
 0.54071189065E+01 0.53940855734E+01 0.54071183281E+01 0.54465130243E+01 0.55133951089E+01
 0.56102951186E+01 0.57417011542E+01 0.59141585329E+01 0.61355857553E+01 0.64136928871E+01
 0.67536463567E+01 0.83163822165E+01 0.90945086478E+01 0.99098122232E+01 0.10713720596E+02
 0.11450561165E+02 0.12068866071E+02 0.12518740133E+02 0.12756374441E+02 0.12756374497E+02
 0.12518740579E+02 0.12068867603E+02 0.11450564483E+02 0.10713725937E+02 0.99098190962E+01
 0.90945159521E+01 0.83163885438E+01 0.76111221084E+01 0.69993276619E+01 0.64875753417E+01
 0.60717929168E+01 0.57416977674E+01 0.54850058716E+01 0.52905699491E+01 0.51500860754E+01
 0.50584373680E+01 0.50130791072E+01 0.50130787769E+01 0.50584366483E+01 0.51500856507E+01
 0.52905705078E+01 0.54850076843E+01 0.57417004423E+01 0.60717954237E+01 0.64875764324E+01
 0.69993263234E+01 0.76111179974E+01 0.10213531090E+02 0.11415409301E+02 0.12647135082E+02
 0.13855197954E+02 0.14953208117E+02 0.15837922575E+02 0.16413652193E+02 0.16613535060E+02
 0.16413651036E+02 0.15837921127E+02 0.14953207695E+02 0.13855199781E+02 0.12647139689E+02
 0.11415416269E+02 0.10213539119E+02 0.90945159521E+01 0.81039651052E+01 0.72643492126E+01
 0.65778979574E+01 0.60328087615E+01 0.56102934131E+01 0.52905699491E+01 0.50568076216E+01
 0.48968808353E+01 0.48033667636E+01 0.47725564116E+01 0.48033662749E+01 0.48968802357E+01
 0.50568074157E+01 0.52905704114E+01 0.56102943049E+01 0.60328092876E+01 0.65778970824E+01
 0.72643460482E+01 0.81039594325E+01 0.90945084462E+01 0.13095739727E+02 0.14931809185E+02
 0.16838738465E+02 0.18671445607E+02 0.20255544231E+02 0.21422637889E+02 0.22041759156E+02
 0.22041757783E+02 0.21422634303E+02 0.20255539840E+02 0.18671442150E+02 0.16838737378E+02
 0.14931811107E+02 0.13095744354E+02 0.11415416269E+02 0.99098190962E+01 0.86079724898E+01
 0.75312811634E+01 0.66735944682E+01 0.60112405683E+01 0.55133949076E+01 0.51500860754E+01
 0.48968808353E+01 0.47365595552E+01 0.46587556975E+01 0.46587556053E+01 0.47365593615E+01
 0.48968807045E+01 0.51500860701E+01 0.55133948227E+01 0.60112398853E+01 0.66735925500E+01
 0.75312774925E+01 0.86079671155E+01 0.99098126733E+01 0.11415409996E+02 0.17553917590E+02
 0.20389043408E+02 0.23224401498E+02 0.25800597113E+02 0.27859828606E+02 0.29188508691E+02
 0.29647440417E+02 0.29188505301E+02 0.27859822670E+02 0.25800590088E+02 0.23224395010E+02
 0.20389038820E+02 0.17553915659E+02 0.14931811107E+02 0.12647139689E+02 0.10713725937E+02
 0.90902832293E+01 0.77797227947E+01 0.67630783563E+01 0.60006726629E+01 0.54465136284E+01
 0.50584373680E+01 0.48033667636E+01 0.46587556975E+01 0.46119031193E+01 0.46587560345E+01
 0.48033672801E+01 0.50584377723E+01 0.54465135357E+01 0.60006716845E+01 0.67630762496E+01
 0.77797195623E+01 0.90902793218E+01 0.10713722066E+02 0.12647136925E+02 0.14931810404E+02
 0.24343666743E+02 0.28417056272E+02 0.32255432574E+02 0.35501016228E+02 0.37847525644E+02
 0.39076809807E+02 0.39076808379E+02 0.37847521534E+02 0.35501009944E+02 0.32255424915E+02
 0.28417048266E+02 0.24343659473E+02 0.20389038820E+02 0.16838737378E+02 0.13855199781E+02
 0.11450564483E+02 0.95148785224E+01 0.79888053933E+01 0.68356808266E+01 0.59962385750E+01
 0.54071189065E+01 0.50130791072E+01 0.47725564116E+01 0.46587556053E+01 0.46587560345E+01
 0.47725574616E+01 0.50130802223E+01 0.54071193923E+01 0.59962379660E+01 0.68356790508E+01
 0.79888029164E+01 0.95148761967E+01 0.11450563288E+02 0.13855200607E+02 0.16838740604E+02
 0.20389044369E+02 0.33889501989E+02 0.39187520444E+02 0.43847649007E+02 0.47469515505E+02
 0.49758803443E+02 0.50540957925E+02 0.49758802651E+02 0.47469513541E+02 0.43847645355E+02
 0.39187514850E+02 0.33889494743E+02 0.28417048266E+02 0.23224395010E+02 0.18671442150E+02
 0.14953207695E+02 0.12068867603E+02 0.98472717102E+01 0.81399247234E+01 0.68828900340E+01
 0.59947828664E+01 0.53940855734E+01 0.50130787769E+01 0.48033662749E+01 0.47365593615E+01
 0.48033672801E+01 0.50130802223E+01 0.53940866111E+01 0.59947828353E+01 0.68828888208E+01
 0.81399229396E+01 0.98472704648E+01 0.12068868101E+02 0.14953210744E+02 0.18671447744E+02
 0.23224402450E+02 0.28417056258E+02 0.46037532297E+02 0.52231483922E+02 0.57277286773E+02
 0.60817828639E+02 0.62636847449E+02 0.62636848514E+02 0.60817831254E+02 0.57277289518E+02
 0.52231485122E+02 0.46037530756E+02 0.39187514850E+02 0.32255424915E+02 0.25800590088E+02
 0.20255539840E+02 0.15837921127E+02 0.12518740579E+02 0.10059114258E+02 0.82191869757E+01
 0.68992509902E+01 0.59947825143E+01 0.54071183281E+01 0.50584366483E+01 0.48968802357E+01
 0.48968807045E+01 0.50584377723E+01 0.54071193923E+01 0.59947828353E+01 0.68992503153E+01
 0.82191857802E+01 0.10059113562E+02 0.12518741577E+02 0.15837924543E+02 0.20255545544E+02
 0.25800597035E+02 0.32255431408E+02 0.39187519314E+02 0.59959770829E+02 0.66446636214E+02
 0.71285947673E+02 0.74251816629E+02 0.75248347857E+02 0.74251820712E+02 0.71285954505E+02
 0.66446643636E+02 0.59959776628E+02 0.52231485122E+02 0.43847645355E+02 0.35501009944E+02
 0.27859822670E+02 0.21422634303E+02 0.16413651036E+02 0.12756374497E+02 0.10131872396E+02
 0.82191864420E+01 0.68828891884E+01 0.59962377880E+01 0.54465130243E+01 0.51500856507E+01
 0.50568074157E+01 0.51500860701E+01 0.54465135357E+01 0.59962379660E+01 0.68828888208E+01
 0.82191857802E+01 0.10131872103E+02 0.12756375396E+02 0.16413653608E+02 0.21422638352E+02
 0.27859827176E+02 0.35501013333E+02 0.43847646137E+02 0.52231482451E+02 0.74284151175E+02
 0.80335413161E+02 0.84391628772E+02 0.86411275699E+02 0.86411277844E+02 0.84391634708E+02
 0.80335421481E+02 0.74284160047E+02 0.66446643636E+02 0.57277289518E+02 0.47469513541E+02
 0.37847521534E+02 0.29188505301E+02 0.22041757783E+02 0.16613535060E+02 0.12756374441E+02
 0.10059113325E+02 0.81399231957E+01 0.68356795157E+01 0.60006721197E+01 0.55133951089E+01
 0.52905705078E+01 0.52905704114E+01 0.55133948227E+01 0.60006716845E+01 0.68356790508E+01
 0.81399229396E+01 0.10059113562E+02 0.12756375396E+02 0.16613536688E+02 0.22041759681E+02
 0.29188506665E+02 0.37847521368E+02 0.47469510991E+02 0.57277284194E+02 0.66446635940E+02
 0.87440886858E+02 0.92412989457E+02 0.95304512395E+02 0.96247210434E+02 0.95304513922E+02
 0.92412992513E+02 0.87440891343E+02 0.80335421481E+02 0.71285954505E+02 0.60817831254E+02
 0.49758802651E+02 0.39076808379E+02 0.29647440417E+02 0.22041759156E+02 0.16413652193E+02
 0.12518740133E+02 0.98472697026E+01 0.79888031240E+01 0.67630772375E+01 0.60112411014E+01
 0.56102951186E+01 0.54850076843E+01 0.56102943049E+01 0.60112398853E+01 0.67630762496E+01
 0.79888029164E+01 0.98472704648E+01 0.12518741577E+02 0.16413653608E+02 0.22041759681E+02
 0.29647439318E+02 0.39076805353E+02 0.49758797896E+02 0.60817825382E+02 0.71285948372E+02
 0.80335415881E+02 0.98110915932E+02 0.10163527827E+03 0.10328601768E+03 0.10328601597E+03
 0.10163527387E+03 0.98110910705E+02 0.92412992513E+02 0.84391634708E+02 0.74251820712E+02
 0.62636848514E+02 0.50540957925E+02 0.39076809807E+02 0.29188508691E+02 0.21422637889E+02
 0.15837922575E+02 0.12068866071E+02 0.95148753091E+01 0.77797202243E+01 0.66735942705E+01
 0.60328110091E+01 0.57417011542E+01 0.57417004423E+01 0.60328092876E+01 0.66735925500E+01
 0.77797195623E+01 0.95148761967E+01 0.12068868101E+02 0.15837924543E+02 0.21422638352E+02
 0.29188506665E+02 0.39076805353E+02 0.50540952221E+02 0.62636843462E+02 0.74251818143E+02
 0.84391635547E+02 0.92412996362E+02 0.10560141013E+03 0.10767465641E+03 0.10830514690E+03
 0.10767464807E+03 0.10560139611E+03 0.10163527387E+03 0.95304513922E+02 0.86411277844E+02
 0.75248347857E+02 0.62636847449E+02 0.49758803443E+02 0.37847525644E+02 0.27859828606E+02
 0.20255544231E+02 0.14953208117E+02 0.11450561165E+02 0.90902789349E+01 0.75312789112E+01
 0.65778993047E+01 0.60717970323E+01 0.59141585329E+01 0.60717954237E+01 0.65778970824E+01
 0.75312774925E+01 0.90902793218E+01 0.11450563288E+02 0.14953210744E+02 0.20255545544E+02
 0.27859827176E+02 0.37847521368E+02 0.49758797896E+02 0.62636843462E+02 0.75248348393E+02
 0.86411284610E+02 0.95304526443E+02 0.10163528931E+03 0.10999496229E+03 0.11093133658E+03
 0.11093133058E+03 0.10999494605E+03 0.10767464807E+03 0.10328601597E+03 0.96247210434E+02
 0.86411275699E+02 0.74251816629E+02 0.60817828639E+02 0.47469515505E+02 0.35501016228E+02
 0.25800597113E+02 0.18671445607E+02 0.13855197954E+02 0.10713720596E+02 0.86079675977E+01
 0.72643480053E+01 0.64875785277E+01 0.61355866407E+01 0.61355857553E+01 0.64875764324E+01
 0.72643460482E+01 0.86079671155E+01 0.10713722066E+02 0.13855200607E+02 0.18671447744E+02
 0.25800597035E+02 0.35501013333E+02 0.47469510991E+02 0.60817825382E+02 0.74251818143E+02
 0.86411284610E+02 0.96247227056E+02 0.10328603772E+03 0.10767466996E+03 0.11201366423E+03
 0.11227991974E+03 0.11201365310E+03 0.11093133058E+03 0.10830514690E+03 0.10328601768E+03
 0.95304512395E+02 0.84391628772E+02 0.71285947673E+02 0.57277286773E+02 0.43847649007E+02
 0.32255432574E+02 0.23224401498E+02 0.16838738465E+02 0.12647135082E+02 0.99098122232E+01
 0.81039605108E+01 0.69993281268E+01 0.64136942163E+01 0.62314959632E+01 0.64136928871E+01
 0.69993263234E+01 0.81039594325E+01 0.99098126733E+01 0.12647136925E+02 0.16838740604E+02
 0.23224402450E+02 0.32255431408E+02 0.43847646137E+02 0.57277284194E+02 0.71285948372E+02
 0.84391635547E+02 0.95304526443E+02 0.10328603772E+03 0.10830516914E+03 0.11093134978E+03
 0.11265770241E+03 0.11265769888E+03 0.11227991974E+03 0.11093133658E+03 0.10767465641E+03
 0.10163527827E+03 0.92412989457E+02 0.80335413161E+02 0.66446636214E+02 0.52231483922E+02
 0.39187520444E+02 0.28417056272E+02 0.20389043408E+02 0.14931809185E+02 0.11415409301E+02
 0.90945086478E+01 0.76111188892E+01 0.67536473224E+01 0.63653588203E+01 0.63653584108E+01
 0.67536463567E+01 0.76111179974E+01 0.90945084462E+01 0.11415409996E+02 0.14931810404E+02
 0.20389044369E+02 0.28417056258E+02 0.39187519314E+02 0.52231482451E+02 0.66446635940E+02
 0.80335415881E+02 0.92412996362E+02 0.10163528931E+03 0.10767466996E+03 0.11093134978E+03
 0.11227992938E+03 0.11265770241E+03 0.11227992938E+03 0.11093134978E+03 0.10767466996E+03
 0.10163528931E+03 0.92412996362E+02 0.80335415881E+02 0.66446635940E+02 0.52231482451E+02
 0.39187519314E+02 0.28417056258E+02 0.20389044369E+02 0.14931810404E+02 0.11415409996E+02
 0.90945084462E+01 0.76111179974E+01 0.67536463567E+01 0.63653584108E+01 0.63653588203E+01
 0.67536473224E+01 0.76111188892E+01 0.90945086478E+01 0.11415409301E+02 0.14931809185E+02
 0.20389043408E+02 0.28417056272E+02 0.39187520444E+02 0.52231483922E+02 0.66446636214E+02
 0.80335413161E+02 0.92412989457E+02 0.10163527827E+03 0.10767465641E+03 0.11093133658E+03
 0.11227991974E+03 0.11265769888E+03 0.11227992938E+03 0.11129061844E+03 0.10879615434E+03
 0.10391705738E+03 0.96050537363E+02 0.85199536250E+02 0.72087467031E+02 0.58005896395E+02
 0.44454170565E+02 0.32717431013E+02 0.23547130799E+02 0.17048690685E+02 0.12781575355E+02
 0.10003744588E+02 0.81720847790E+01 0.70514112594E+01 0.64572766129E+01 0.62724452558E+01
 0.64572780197E+01 0.70514131670E+01 0.81720859178E+01 0.10003744110E+02 0.12781573412E+02
 0.17048688435E+02 0.23547129777E+02 0.32717432158E+02 0.44454173355E+02 0.58005898624E+02
 0.72087465458E+02 0.85199527883E+02 0.96050521009E+02 0.10391703453E+03 0.10879612924E+03
 0.11129059690E+03 0.11227991693E+03 0.11251272935E+03 0.11093134978E+03 0.10879615434E+03
 0.10462588002E+03 0.97781293877E+02 0.88061075261E+02 0.75902264743E+02 0.62345612605E+02
 0.48773254282E+02 0.36523572049E+02 0.26537038928E+02 0.19162024766E+02 0.14168029518E+02
 0.10924058814E+02 0.87586355844E+01 0.73760264015E+01 0.65766839882E+01 0.62145297945E+01
 0.62145307871E+01 0.65766863312E+01 0.73760285758E+01 0.87586360920E+01 0.10924057138E+02
 0.14168026538E+02 0.19162022384E+02 0.26537038970E+02 0.36523575008E+02 0.48773258553E+02
 0.62345614686E+02 0.75902260510E+02 0.88061061765E+02 0.97781271042E+02 0.10462585129E+03
 0.10879612596E+03 0.11093132893E+03 0.11176234150E+03 0.11176234916E+03 0.10767466996E+03
 0.10391705738E+03 0.97781293877E+02 0.89000214111E+02 0.77813003687E+02 0.65019272273E+02
 0.51818690359E+02 0.39495783818E+02 0.29075910709E+02 0.21084525187E+02 0.15486296857E+02
 0.11797663127E+02 0.93361345831E+01 0.77094094603E+01 0.67144964785E+01 0.61865595908E+01
 0.60221827550E+01 0.61865615082E+01 0.67144990989E+01 0.77094110676E+01 0.93361339992E+01
 0.11797660495E+02 0.15486293707E+02 0.21084523688E+02 0.29075912391E+02 0.39495788443E+02
 0.51818695544E+02 0.65019274139E+02 0.77812998461E+02 0.89000199867E+02 0.97781271854E+02
 0.10391703201E+03 0.10767464764E+03 0.10959175406E+03 0.11016469935E+03 0.10959176712E+03
 0.10163528931E+03 0.96050537363E+02 0.88061075261E+02 0.77813003687E+02 0.65920082582E+02
 0.53387999787E+02 0.41380397364E+02 0.30917307318E+02 0.22624177413E+02 0.16620713012E+02
 0.12571866753E+02 0.98646157828E+01 0.80290514373E+01 0.68587183833E+01 0.61812580980E+01
 0.58737628106E+01 0.58737637386E+01 0.61812603194E+01 0.68587205147E+01 0.80290520840E+01
 0.98646143706E+01 0.12571863974E+02 0.16620710567E+02 0.22624177169E+02 0.30917310244E+02
 0.41380402786E+02 0.53388005401E+02 0.65920085248E+02 0.77813000815E+02 0.88061066042E+02
 0.96050523436E+02 0.10163527438E+03 0.10503400631E+03 0.10660530187E+03 0.10660530616E+03
 0.10503401775E+03 0.92412996362E+02 0.85199536250E+02 0.75902264743E+02 0.65019272273E+02
 0.53387999787E+02 0.42025307208E+02 0.31883829927E+02 0.23619190565E+02 0.17455204208E+02
 0.13187003970E+02 0.10303830583E+02 0.83106117902E+01 0.69958680672E+01 0.61904884687E+01
 0.57617344430E+01 0.56279174120E+01 0.57617357058E+01 0.61904902694E+01 0.69958693434E+01
 0.83106117215E+01 0.10303829070E+02 0.13187001775E+02 0.17455202652E+02 0.23619190918E+02
 0.31883832783E+02 0.42025312121E+02 0.53388005402E+02 0.65019276833E+02 0.75902266856E+02
 0.85199535488E+02 0.92412993470E+02 0.97403714245E+02 0.10027898858E+03 0.10121128706E+03
 0.10027899086E+03 0.97403717702E+02 0.80335415881E+02 0.72087467031E+02 0.62345612605E+02
 0.51818690359E+02 0.41380397364E+02 0.31883829927E+02 0.23963169441E+02 0.17897699968E+02
 0.13584426320E+02 0.10618494463E+02 0.85310224874E+01 0.71126478075E+01 0.62064693755E+01
 0.56792014646E+01 0.54386901035E+01 0.54386904539E+01 0.56792023471E+01 0.62064703634E+01
 0.71126483897E+01 0.85310222999E+01 0.10618493454E+02 0.13584424823E+02 0.17897698626E+02
 0.23963169008E+02 0.31883831068E+02 0.41380400409E+02 0.51818695248E+02 0.62345618874E+02
 0.72087473905E+02 0.80335422469E+02 0.86649575806E+02 0.90852682144E+02 0.92935762475E+02
 0.92935761233E+02 0.90852678574E+02 0.86649570373E+02 0.66446635940E+02 0.58005896395E+02
 0.48773254282E+02 0.39495783818E+02 0.30917307318E+02 0.23619190565E+02 0.17897699968E+02
 0.13721985674E+02 0.10782664141E+02 0.86714627451E+01 0.71975604212E+01 0.62226670049E+01
 0.56209015474E+01 0.52978024999E+01 0.51964010999E+01 0.52978024950E+01 0.56209016309E+01
 0.62226672562E+01 0.71975607764E+01 0.86714629260E+01 0.10782663743E+02 0.13721984363E+02
 0.17897697777E+02 0.23619188017E+02 0.30917305460E+02 0.39495783864E+02 0.48773257197E+02
 0.58005902443E+02 0.66446644379E+02 0.73482043492E+02 0.78701496217E+02 0.81887947001E+02
 0.82956445807E+02 0.81887942502E+02 0.78701488381E+02 0.73482034295E+02 0.52231482451E+02
 0.44454170565E+02 0.36523572049E+02 0.29075910709E+02 0.22624177413E+02 0.17455204208E+02
 0.13584426320E+02 0.10782664141E+02 0.87196890951E+01 0.72422189440E+01 0.62342951455E+01
 0.55834603954E+01 0.51997935709E+01 0.50229102673E+01 0.50229099448E+01 0.51997928236E+01
 0.55834597462E+01 0.62342950705E+01 0.72422195143E+01 0.87196898106E+01 0.10782664112E+02
 0.13584424660E+02 0.17455200605E+02 0.22624172371E+02 0.29075905593E+02 0.36523568591E+02
 0.44454170154E+02 0.52231485561E+02 0.59219625231E+02 0.64884584674E+02 0.68845864412E+02
 0.70876886733E+02 0.70876884747E+02 0.68845859164E+02 0.64884577991E+02 0.59219619404E+02
 0.39187519314E+02 0.32717431013E+02 0.26537038928E+02 0.21084525187E+02 0.16620713012E+02
 0.13187003970E+02 0.10618494463E+02 0.86714627451E+01 0.72422189440E+01 0.62384873004E+01