   1   1   1   0
  0.1287216E+02  0.2630604E-09  0.2630604E-09  0.2630604E-09  0.5000000E-15
  1.000000000000000E-004
  CAR 
 Pt-fcc                                  
     78.98587664    -44.00916566  301     15.50774080      1.00000000
    -44.009  0.0000E+00  0.0000E+00
    -43.599  0.0000E+00  0.0000E+00
    -43.189  0.0000E+00  0.0000E+00
    -42.779  0.0000E+00  0.0000E+00
    -42.369  0.0000E+00  0.0000E+00
    -41.959  0.0000E+00  0.0000E+00
    -41.549  0.0000E+00  0.0000E+00
    -41.139  0.0000E+00  0.0000E+00
    -40.729  0.0000E+00  0.0000E+00
    -40.319  0.0000E+00  0.0000E+00
    -39.909  0.0000E+00  0.0000E+00
    -39.499  0.0000E+00  0.0000E+00
    -39.089  0.0000E+00  0.0000E+00
    -38.679  0.2432E-16  0.9972E-17
    -38.269  0.1716E-01  0.7036E-02
    -37.859  0.5685E-01  0.3235E-01
    -37.449  0.6179E-01  0.6000E-01
    -37.039  0.0000E+00  0.6000E-01
    -36.629  0.0000E+00  0.6000E-01
    -36.219  0.0000E+00  0.6000E-01
    -35.809  0.0000E+00  0.6000E-01
    -35.400  0.0000E+00  0.6000E-01
    -34.990  0.0000E+00  0.6000E-01
    -34.580  0.0000E+00  0.6000E-01
    -34.170  0.0000E+00  0.6000E-01
    -33.760  0.0000E+00  0.6000E-01
    -33.350  0.0000E+00  0.6000E-01
    -32.940  0.0000E+00  0.6000E-01
    -32.530  0.0000E+00  0.6000E-01
    -32.120  0.0000E+00  0.6000E-01
    -31.710  0.0000E+00  0.6000E-01
    -31.300  0.0000E+00  0.6000E-01
    -30.890  0.0000E+00  0.6000E-01
    -30.480  0.0000E+00  0.6000E-01
    -30.070  0.0000E+00  0.6000E-01
    -29.660  0.0000E+00  0.6000E-01
    -29.250  0.0000E+00  0.6000E-01
    -28.840  0.0000E+00  0.6000E-01
    -28.430  0.0000E+00  0.6000E-01
    -28.020  0.0000E+00  0.6000E-01
    -27.610  0.0000E+00  0.6000E-01
    -27.200  0.0000E+00  0.6000E-01
    -26.790  0.0000E+00  0.6000E-01
    -26.380  0.0000E+00  0.6000E-01
    -25.970  0.0000E+00  0.6000E-01
    -25.560  0.0000E+00  0.6000E-01
    -25.150  0.0000E+00  0.6000E-01
    -24.740  0.0000E+00  0.6000E-01
    -24.330  0.0000E+00  0.6000E-01
    -23.920  0.0000E+00  0.6000E-01
    -23.510  0.0000E+00  0.6000E-01
    -23.100  0.0000E+00  0.6000E-01
    -22.690  0.0000E+00  0.6000E-01
    -22.280  0.0000E+00  0.6000E-01
    -21.870  0.0000E+00  0.6000E-01
    -21.460  0.0000E+00  0.6000E-01
    -21.050  0.0000E+00  0.6000E-01
    -20.640  0.0000E+00  0.6000E-01
    -20.230  0.0000E+00  0.6000E-01
    -19.820  0.0000E+00  0.6000E-01
    -19.410  0.0000E+00  0.6000E-01
    -19.000  0.0000E+00  0.6000E-01
    -18.590  0.0000E+00  0.6000E-01
    -18.180  0.0000E+00  0.6000E-01
    -17.770  0.0000E+00  0.6000E-01
    -17.360  0.0000E+00  0.6000E-01
    -16.950  0.0000E+00  0.6000E-01
    -16.540  0.0000E+00  0.6000E-01
    -16.130  0.0000E+00  0.6000E-01
    -15.720  0.0000E+00  0.6000E-01
    -15.310  0.0000E+00  0.6000E-01
    -14.900  0.0000E+00  0.6000E-01
    -14.490  0.0000E+00  0.6000E-01
    -14.080  0.0000E+00  0.6000E-01
    -13.670  0.0000E+00  0.6000E-01
    -13.260  0.0000E+00  0.6000E-01
    -12.850  0.0000E+00  0.6000E-01
    -12.440  0.0000E+00  0.6000E-01
    -12.030  0.0000E+00  0.6000E-01
    -11.620  0.0000E+00  0.6000E-01
    -11.210  0.0000E+00  0.6000E-01
    -10.801  0.0000E+00  0.6000E-01
    -10.391  0.0000E+00  0.6000E-01
     -9.981  0.0000E+00  0.6000E-01
     -9.571  0.0000E+00  0.6000E-01
     -9.161  0.0000E+00  0.6000E-01
     -8.751  0.0000E+00  0.6000E-01
     -8.341  0.0000E+00  0.6000E-01
     -7.931  0.0000E+00  0.6000E-01
     -7.521  0.0000E+00  0.6000E-01
     -7.111  0.0000E+00  0.6000E-01
     -6.701  0.0000E+00  0.6000E-01
     -6.291  0.0000E+00  0.6000E-01
     -5.881  0.0000E+00  0.6000E-01
     -5.471  0.0000E+00  0.6000E-01
     -5.061  0.0000E+00  0.6000E-01
     -4.651  0.0000E+00  0.6000E-01
     -4.241  0.0000E+00  0.6000E-01
     -3.831  0.0000E+00  0.6000E-01
     -3.421  0.0000E+00  0.6000E-01
     -3.011  0.0000E+00  0.6000E-01
     -2.601  0.0000E+00  0.6000E-01
     -2.191  0.0000E+00  0.6000E-01
     -1.781  0.0000E+00  0.6000E-01
     -1.371  0.0000E+00  0.6000E-01
     -0.961  0.0000E+00  0.6000E-01
     -0.551  0.0000E+00  0.6000E-01
     -0.141  0.0000E+00  0.6000E-01
      0.269  0.0000E+00  0.6000E-01
      0.679  0.0000E+00  0.6000E-01
      1.089  0.0000E+00  0.6000E-01
      1.499  0.0000E+00  0.6000E-01
      1.909  0.0000E+00  0.6000E-01
      2.319  0.0000E+00  0.6000E-01
      2.729  0.0000E+00  0.6000E-01
      3.139  0.0000E+00  0.6000E-01
      3.549  0.9718E-04  0.6004E-01
      3.959  0.2930E-03  0.6016E-01
      4.369  0.5009E-03  0.6037E-01
      4.779  0.5859E-03  0.6068E-01
      5.189  0.6233E-03  0.6094E-01
      5.599  0.9862E-03  0.6144E-01
      6.009  0.1439E-02  0.6203E-01
      6.419  0.2434E-02  0.6304E-01
      6.829  0.5278E-02  0.6549E-01
      7.239  0.9550E-02  0.6944E-01
      7.649  0.1101E-01  0.7419E-01
      8.059  0.1189E-01  0.7934E-01
      8.469  0.1059E-01  0.8387E-01
      8.879  0.5358E-02  0.8628E-01
      9.289  0.1150E-01  0.9102E-01
      9.699  0.1063E-01  0.9547E-01
     10.109  0.1046E-01  0.9978E-01
     10.519  0.1202E-01  0.1051E+00
     10.929  0.1533E-01  0.1116E+00
     11.339  0.1576E-01  0.1186E+00
     11.749  0.1018E-01  0.1229E+00
     12.159  0.8040E-02  0.1264E+00
     12.569  0.8827E-02  0.1303E+00
     12.979  0.1219E-01  0.1355E+00
     13.389  0.7520E-02  0.1388E+00
     13.799  0.1067E-01  0.1434E+00
     14.208  0.5969E-02  0.1459E+00
     14.618  0.9585E-02  0.1501E+00
     15.028  0.8956E-02  0.1539E+00
     15.438  0.1130E-01  0.1590E+00
     15.848  0.1324E-01  0.1646E+00
     16.258  0.4237E-02  0.1664E+00
     16.668  0.1291E-02  0.1670E+00
     17.078  0.4233E-02  0.1687E+00
     17.488  0.1425E-02  0.1693E+00
     17.898  0.2451E-02  0.1703E+00
     18.308  0.2372E-02  0.1716E+00
     18.718  0.1682E-02  0.1723E+00
     19.128  0.2016E-02  0.1732E+00
     19.538  0.3319E-02  0.1745E+00
     19.948  0.1481E-02  0.1751E+00
     20.358  0.2681E-02  0.1762E+00
     20.768  0.1837E-02  0.1771E+00
     21.178  0.1550E-02  0.1778E+00
     21.588  0.2049E-02  0.1786E+00
     21.998  0.1220E-02  0.1792E+00
     22.408  0.3097E-02  0.1806E+00
     22.818  0.2827E-02  0.1818E+00
     23.228  0.4641E-02  0.1838E+00
     23.638  0.6716E-03  0.1841E+00
     24.048  0.3037E-02  0.1854E+00
     24.458  0.3931E-02  0.1870E+00
     24.868  0.1626E-02  0.1877E+00
     25.278  0.3556E-02  0.1892E+00
     25.688  0.2744E-02  0.1904E+00
     26.098  0.1883E-02  0.1912E+00
     26.508  0.2387E-02  0.1922E+00
     26.918  0.3747E-02  0.1938E+00
     27.328  0.3579E-02  0.1952E+00
     27.738  0.3984E-02  0.1969E+00
     28.148  0.5196E-02  0.1990E+00
     28.558  0.1711E-02  0.1999E+00
     28.968  0.2723E-02  0.2010E+00
     29.378  0.6351E-02  0.2037E+00
     29.788  0.4553E-02  0.2057E+00
     30.198  0.5056E-02  0.2080E+00
     30.608  0.5163E-02  0.2104E+00
     31.018  0.9244E-02  0.2142E+00
     31.428  0.7007E-02  0.2173E+00
     31.838  0.6535E-02  0.2202E+00
     32.248  0.4941E-02  0.2223E+00
     32.658  0.8880E-02  0.2260E+00
     33.068  0.5189E-02  0.2283E+00
     33.478  0.6835E-02  0.2312E+00
     33.888  0.3147E-02  0.2325E+00
     34.298  0.4254E-02  0.2344E+00
     34.708  0.1419E-02  0.2351E+00
     35.118  0.2903E-02  0.2363E+00
     35.528  0.4452E-02  0.2381E+00
     35.938  0.6852E-02  0.2411E+00
     36.348  0.5674E-02  0.2438E+00
     36.758  0.4397E-02  0.2457E+00
     37.168  0.7380E-02  0.2489E+00
     37.578  0.5372E-02  0.2511E+00
     37.988  0.7085E-02  0.2542E+00
     38.398  0.5311E-02  0.2565E+00
     38.807  0.3136E-02  0.2580E+00
     39.217  0.1184E-02  0.2586E+00
     39.627  0.3665E-02  0.2601E+00
     40.037  0.2808E-02  0.2613E+00
     40.447  0.3523E-02  0.2628E+00
     40.857  0.4292E-02  0.2646E+00
     41.267  0.5028E-02  0.2666E+00
     41.677  0.6706E-02  0.2695E+00
     42.087  0.5532E-02  0.2719E+00
     42.497  0.4457E-02  0.2739E+00
     42.907  0.5983E-02  0.2764E+00
     43.317  0.3609E-02  0.2780E+00
     43.727  0.5133E-02  0.2802E+00
     44.137  0.7329E-02  0.2832E+00
     44.547  0.7903E-02  0.2865E+00
     44.957  0.9233E-02  0.2904E+00
     45.367  0.7629E-02  0.2936E+00
     45.777  0.7963E-02  0.2970E+00
     46.187  0.9320E-02  0.3009E+00
     46.597  0.7731E-02  0.3042E+00
     47.007  0.7248E-02  0.3072E+00
     47.417  0.4176E-02  0.3092E+00
     47.827  0.6186E-02  0.3117E+00
     48.237  0.4693E-02  0.3137E+00
     48.647  0.3130E-02  0.3151E+00
     49.057  0.6441E-02  0.3179E+00
     49.467  0.6751E-02  0.3208E+00
     49.877  0.7233E-02  0.3240E+00
     50.287  0.7343E-02  0.3272E+00
     50.697  0.8974E-02  0.3310E+00
     51.107  0.6144E-02  0.3338E+00
     51.517  0.3872E-02  0.3354E+00
     51.927  0.4467E-02  0.3372E+00
     52.337  0.5366E-02  0.3396E+00
     52.747  0.6851E-02  0.3425E+00
     53.157  0.6842E-02  0.3453E+00
     53.567  0.5690E-02  0.3479E+00
     53.977  0.8852E-02  0.3515E+00
     54.387  0.6905E-02  0.3544E+00
     54.797  0.1065E-01  0.3591E+00
     55.207  0.7448E-02  0.3623E+00
     55.617  0.5261E-01  0.3839E+00
     56.027  0.6406E-02  0.3867E+00
     56.437  0.1299E-01  0.3922E+00
     56.847  0.9662E-02  0.3965E+00
     57.257  0.6560E-02  0.3992E+00
     57.667  0.6234E-02  0.4019E+00
     58.077  0.3468E-02  0.4034E+00
     58.487  0.6155E-02  0.4059E+00
     58.897  0.9249E-02  0.4097E+00
     59.307  0.6417E-02  0.4126E+00
     59.717  0.7051E-02  0.4155E+00
     60.127  0.7546E-02  0.4186E+00
     60.537  0.5415E-02  0.4210E+00
     60.947  0.9052E-02  0.4248E+00
     61.357  0.6271E-02  0.4276E+00
     61.767  0.6817E-02  0.4306E+00
     62.177  0.6167E-02  0.4333E+00
     62.587  0.7034E-02  0.4364E+00
     62.997  0.5532E-02  0.4386E+00
     63.407  0.6580E-02  0.4415E+00
     63.816  0.8651E-02  0.4452E+00
     64.226  0.8254E-02  0.4489E+00
     64.636  0.7365E-02  0.4521E+00
     65.046  0.8295E-02  0.4556E+00
     65.456  0.8402E-02  0.4591E+00
     65.866  0.6838E-02  0.4623E+00
     66.276  0.9106E-02  0.4662E+00
     66.686  0.3894E-02  0.4679E+00
     67.096  0.4979E-02  0.4702E+00
     67.506  0.7379E-02  0.4732E+00
     67.916  0.3081E-02  0.4745E+00
     68.326  0.3032E-02  0.4760E+00
     68.736  0.1865E-02  0.4767E+00
     69.146  0.1683E-02  0.4774E+00
     69.556  0.9385E-03  0.4779E+00
     69.966  0.1279E-02  0.4784E+00
     70.376  0.1680E-02  0.4791E+00
     70.786  0.6726E-05  0.4792E+00
     71.196  0.1161E-02  0.4796E+00
     71.606  0.1494E-05  0.4796E+00
     72.016  0.2912E-03  0.4798E+00
     72.426  0.2925E-03  0.4799E+00
     72.836  0.0000E+00  0.4799E+00
     73.246  0.3627E-08  0.4799E+00
     73.656  0.2927E-03  0.4800E+00
     74.066  0.0000E+00  0.4800E+00
     74.476  0.0000E+00  0.4800E+00
     74.886  0.0000E+00  0.4800E+00
     75.296  0.0000E+00  0.4800E+00
     75.706  0.0000E+00  0.4800E+00
     76.116  0.0000E+00  0.4800E+00
     76.526  0.0000E+00  0.4800E+00
     76.936  0.0000E+00  0.4800E+00
     77.346  0.0000E+00  0.4800E+00
     77.756  0.0000E+00  0.4800E+00
     78.166  0.0000E+00  0.4800E+00
     78.576  0.0000E+00  0.4800E+00
     78.986  0.0000E+00  0.4800E+00
     78.98587664    -44.00916566  301     15.50774080      1.00000000
    -44.009  0.0000E+00  0.0000E+00  0.0000E+00  0.0000E+00  0.0000E+00  0.0000E+00  0.0000E+00  0.0000E+00  0.0000E+00
    -43.599  0.0000E+00  0.0000E+00  0.0000E+00  0.0000E+00  0.0000E+00  0.0000E+00  0.0000E+00  0.0000E+00  0.0000E+00
    -43.189  0.0000E+00  0.0000E+00  0.0000E+00  0.0000E+00  0.0000E+00  0.0000E+00  0.0000E+00  0.0000E+00  0.0000E+00
    -42.779  0.0000E+00  0.0000E+00  0.0000E+00  0.0000E+00  0.0000E+00  0.0000E+00  0.0000E+00  0.0000E+00  0.0000E+00
    -42.369  0.0000E+00  0.0000E+00  0.0000E+00  0.0000E+00  0.0000E+00  0.0000E+00  0.0000E+00  0.0000E+00  0.0000E+00
    -41.959  0.0000E+00  0.0000E+00  0.0000E+00  0.0000E+00  0.0000E+00  0.0000E+00  0.0000E+00  0.0000E+00  0.0000E+00
    -41.549  0.0000E+00  0.0000E+00  0.0000E+00  0.0000E+00  0.0000E+00  0.0000E+00  0.0000E+00  0.0000E+00  0.0000E+00
    -41.139  0.0000E+00  0.0000E+00  0.0000E+00  0.0000E+00  0.0000E+00  0.0000E+00  0.0000E+00  0.0000E+00  0.0000E+00
    -40.729  0.0000E+00  0.0000E+00  0.0000E+00  0.0000E+00  0.0000E+00  0.0000E+00  0.0000E+00  0.0000E+00  0.0000E+00
    -40.319  0.0000E+00  0.0000E+00  0.0000E+00  0.0000E+00  0.0000E+00  0.0000E+00  0.0000E+00  0.0000E+00  0.0000E+00
    -39.909  0.0000E+00  0.0000E+00  0.0000E+00  0.0000E+00  0.0000E+00  0.0000E+00  0.0000E+00  0.0000E+00  0.0000E+00
    -39.499  0.0000E+00  0.0000E+00  0.0000E+00  0.0000E+00  0.0000E+00  0.0000E+00  0.0000E+00  0.0000E+00  0.0000E+00
    -39.089  0.0000E+00  0.0000E+00  0.0000E+00  0.0000E+00  0.0000E+00  0.0000E+00  0.0000E+00  0.0000E+00  0.0000E+00
    -38.679  0.1158E-19  0.7915E-15  0.7915E-15  0.7915E-15  0.7241E-20  0.7241E-20  0.6022E-20  0.7241E-20  0.6022E-20
    -38.269  0.1085E-03  0.5603E+00  0.5603E+00  0.5603E+00  0.4600E-04  0.4600E-04  0.2197E-04  0.4600E-04  0.2197E-04
    -37.859  0.6234E-03  0.1870E+01  0.1870E+01  0.1870E+01  0.2727E-03  0.2727E-03  0.1099E-03  0.2727E-03  0.1099E-03
    -37.449  0.9011E-04  0.2050E+01  0.2050E+01  0.2050E+01  0.1325E-03  0.1325E-03  0.1000E-03  0.1325E-03  0.1000E-03
    -37.039  0.0000E+00  0.0000E+00  0.0000E+00  0.0000E+00  0.0000E+00  0.0000E+00  0.0000E+00  0.0000E+00  0.0000E+00
    -36.629  0.0000E+00  0.0000E+00  0.0000E+00  0.0000E+00  0.0000E+00  0.0000E+00  0.0000E+00  0.0000E+00  0.0000E+00
    -36.219  0.0000E+00  0.0000E+00  0.0000E+00  0.0000E+00  0.0000E+00  0.0000E+00  0.0000E+00  0.0000E+00  0.0000E+00
    -35.809  0.0000E+00  0.0000E+00  0.0000E+00  0.0000E+00  0.0000E+00  0.0000E+00  0.0000E+00  0.0000E+00  0.0000E+00
    -35.400  0.0000E+00  0.0000E+00  0.0000E+00  0.0000E+00  0.0000E+00  0.0000E+00  0.0000E+00  0.0000E+00  0.0000E+00
    -34.990  0.0000E+00  0.0000E+00  0.0000E+00  0.0000E+00  0.0000E+00  0.0000E+00  0.0000E+00  0.0000E+00  0.0000E+00
    -34.580  0.0000E+00  0.0000E+00  0.0000E+00  0.0000E+00  0.0000E+00  0.0000E+00  0.0000E+00  0.0000E+00  0.0000E+00
    -34.170  0.0000E+00  0.0000E+00  0.0000E+00  0.0000E+00  0.0000E+00  0.0000E+00  0.0000E+00  0.0000E+00  0.0000E+00
    -33.760  0.0000E+00  0.0000E+00  0.0000E+00  0.0000E+00  0.0000E+00  0.0000E+00  0.0000E+00  0.0000E+00  0.0000E+00
    -33.350  0.0000E+00  0.0000E+00  0.0000E+00  0.0000E+00  0.0000E+00  0.0000E+00  0.0000E+00  0.0000E+00  0.0000E+00
    -32.940  0.0000E+00  0.0000E+00  0.0000E+00  0.0000E+00  0.0000E+00  0.0000E+00  0.0000E+00  0.0000E+00  0.0000E+00
    -32.530  0.0000E+00  0.0000E+00  0.0000E+00  0.0000E+00  0.0000E+00  0.0000E+00  0.0000E+00  0.0000E+00  0.0000E+00
    -32.120  0.0000E+00  0.0000E+00  0.0000E+00  0.0000E+00  0.0000E+00  0.0000E+00  0.0000E+00  0.0000E+00  0.0000E+00
    -31.710  0.0000E+00  0.0000E+00  0.0000E+00  0.0000E+00  0.0000E+00  0.0000E+00  0.0000E+00  0.0000E+00  0.0000E+00
    -31.300  0.0000E+00  0.0000E+00  0.0000E+00  0.0000E+00  0.0000E+00  0.0000E+00  0.0000E+00  0.0000E+00  0.0000E+00
    -30.890  0.0000E+00  0.0000E+00  0.0000E+00  0.0000E+00  0.0000E+00  0.0000E+00  0.0000E+00  0.0000E+00  0.0000E+00
    -30.480  0.0000E+00  0.0000E+00  0.0000E+00  0.0000E+00  0.0000E+00  0.0000E+00  0.0000E+00  0.0000E+00  0.0000E+00
    -30.070  0.0000E+00  0.0000E+00  0.0000E+00  0.0000E+00  0.0000E+00  0.0000E+00  0.0000E+00  0.0000E+00  0.0000E+00
    -29.660  0.0000E+00  0.0000E+00  0.0000E+00  0.0000E+00  0.0000E+00  0.0000E+00  0.0000E+00  0.0000E+00  0.0000E+00
    -29.250  0.0000E+00  0.0000E+00  0.0000E+00  0.0000E+00  0.0000E+00  0.0000E+00  0.0000E+00  0.0000E+00  0.0000E+00
    -28.840  0.0000E+00  0.0000E+00  0.0000E+00  0.0000E+00  0.0000E+00  0.0000E+00  0.0000E+00  0.0000E+00  0.0000E+00
    -28.430  0.0000E+00  0.0000E+00  0.0000E+00  0.0000E+00  0.0000E+00  0.0000E+00  0.0000E+00  0.0000E+00  0.0000E+00
    -28.020  0.0000E+00  0.0000E+00  0.0000E+00  0.0000E+00  0.0000E+00  0.0000E+00  0.0000E+00  0.0000E+00  0.0000E+00
    -27.610  0.0000E+00  0.0000E+00  0.0000E+00  0.0000E+00  0.0000E+00  0.0000E+00  0.0000E+00  0.0000E+00  0.0000E+00
    -27.200  0.0000E+00  0.0000E+00  0.0000E+00  0.0000E+00  0.0000E+00  0.0000E+00  0.0000E+00  0.0000E+00  0.0000E+00
    -26.790  0.0000E+00  0.0000E+00  0.0000E+00  0.0000E+00  0.0000E+00  0.0000E+00  0.0000E+00  0.0000E+00  0.0000E+00
    -26.380  0.0000E+00  0.0000E+00  0.0000E+00  0.0000E+00  0.0000E+00  0.0000E+00  0.0000E+00  0.0000E+00  0.0000E+00
    -25.970  0.0000E+00  0.0000E+00  0.0000E+00  0.0000E+00  0.0000E+00  0.0000E+00  0.0000E+00  0.0000E+00  0.0000E+00
    -25.560  0.0000E+00  0.0000E+00  0.0000E+00  0.0000E+00  0.0000E+00  0.0000E+00  0.0000E+00  0.0000E+00  0.0000E+00
    -25.150  0.0000E+00  0.0000E+00  0.0000E+00  0.0000E+00  0.0000E+00  0.0000E+00  0.0000E+00  0.0000E+00  0.0000E+00
    -24.740  0.0000E+00  0.0000E+00  0.0000E+00  0.0000E+00  0.0000E+00  0.0000E+00  0.0000E+00  0.0000E+00  0.0000E+00
    -24.330  0.0000E+00  0.0000E+00  0.0000E+00  0.0000E+00  0.0000E+00  0.0000E+00  0.0000E+00  0.0000E+00  0.0000E+00
    -23.920  0.0000E+00  0.0000E+00  0.0000E+00  0.0000E+00  0.0000E+00  0.0000E+00  0.0000E+00  0.0000E+00  0.0000E+00
    -23.510  0.0000E+00  0.0000E+00  0.0000E+00  0.0000E+00  0.0000E+00  0.0000E+00  0.0000E+00  0.0000E+00  0.0000E+00
    -23.100  0.0000E+00  0.0000E+00  0.0000E+00  0.0000E+00  0.0000E+00  0.0000E+00  0.0000E+00  0.0000E+00  0.0000E+00
    -22.690  0.0000E+00  0.0000E+00  0.0000E+00  0.0000E+00  0.0000E+00  0.0000E+00  0.0000E+00  0.0000E+00  0.0000E+00
    -22.280  0.0000E+00  0.0000E+00  0.0000E+00  0.0000E+00  0.0000E+00  0.0000E+00  0.0000E+00  0.0000E+00  0.0000E+00
    -21.870  0.0000E+00  0.0000E+00  0.0000E+00  0.0000E+00  0.0000E+00  0.0000E+00  0.0000E+00  0.0000E+00  0.0000E+00
    -21.460  0.0000E+00  0.0000E+00  0.0000E+00  0.0000E+00  0.0000E+00  0.0000E+00  0.0000E+00  0.0000E+00  0.0000E+00
    -21.050  0.0000E+00  0.0000E+00  0.0000E+00  0.0000E+00  0.0000E+00  0.0000E+00  0.0000E+00  0.0000E+00  0.0000E+00
    -20.640  0.0000E+00  0.0000E+00  0.0000E+00  0.0000E+00  0.0000E+00  0.0000E+00  0.0000E+00  0.0000E+00  0.0000E+00
    -20.230  0.0000E+00  0.0000E+00  0.0000E+00  0.0000E+00  0.0000E+00  0.0000E+00  0.0000E+00  0.0000E+00  0.0000E+00
    -19.820  0.0000E+00  0.0000E+00  0.0000E+00  0.0000E+00  0.0000E+00  0.0000E+00  0.0000E+00  0.0000E+00  0.0000E+00
    -19.410  0.0000E+00  0.0000E+00  0.0000E+00  0.0000E+00  0.0000E+00  0.0000E+00  0.0000E+00  0.0000E+00  0.0000E+00
    -19.000  0.0000E+00  0.0000E+00  0.0000E+00  0.0000E+00  0.0000E+00  0.0000E+00  0.0000E+00  0.0000E+00  0.0000E+00
    -18.590  0.0000E+00  0.0000E+00  0.0000E+00  0.0000E+00  0.0000E+00  0.0000E+00  0.0000E+00  0.0000E+00  0.0000E+00
    -18.180  0.0000E+00  0.0000E+00  0.0000E+00  0.0000E+00  0.0000E+00  0.0000E+00  0.0000E+00  0.0000E+00  0.0000E+00
    -17.770  0.0000E+00  0.0000E+00  0.0000E+00  0.0000E+00  0.0000E+00  0.0000E+00  0.0000E+00  0.0000E+00  0.0000E+00
    -17.360  0.0000E+00  0.0000E+00  0.0000E+00  0.0000E+00  0.0000E+00  0.0000E+00  0.0000E+00  0.0000E+00  0.0000E+00
    -16.950  0.0000E+00  0.0000E+00  0.0000E+00  0.0000E+00  0.0000E+00  0.0000E+00  0.0000E+00  0.0000E+00  0.0000E+00
    -16.540  0.0000E+00  0.0000E+00  0.0000E+00  0.0000E+00  0.0000E+00  0.0000E+00  0.0000E+00  0.0000E+00  0.0000E+00
    -16.130  0.0000E+00  0.0000E+00  0.0000E+00  0.0000E+00  0.0000E+00  0.0000E+00  0.0000E+00  0.0000E+00  0.0000E+00
    -15.720  0.0000E+00  0.0000E+00  0.0000E+00  0.0000E+00  0.0000E+00  0.0000E+00  0.0000E+00  0.0000E+00  0.0000E+00
    -15.310  0.0000E+00  0.0000E+00  0.0000E+00  0.0000E+00  0.0000E+00  0.0000E+00  0.0000E+00  0.0000E+00  0.0000E+00
    -14.900  0.0000E+00  0.0000E+00  0.0000E+00  0.0000E+00  0.0000E+00  0.0000E+00  0.0000E+00  0.0000E+00  0.0000E+00
    -14.490  0.0000E+00  0.0000E+00  0.0000E+00  0.0000E+00  0.0000E+00  0.0000E+00  0.0000E+00  0.0000E+00  0.0000E+00
    -14.080  0.0000E+00  0.0000E+00  0.0000E+00  0.0000E+00  0.0000E+00  0.0000E+00  0.0000E+00  0.0000E+00  0.0000E+00
    -13.670  0.0000E+00  0.0000E+00  0.0000E+00  0.0000E+00  0.0000E+00  0.0000E+00  0.0000E+00  0.0000E+00  0.0000E+00
    -13.260  0.0000E+00  0.0000E+00  0.0000E+00  0.0000E+00  0.0000E+00  0.0000E+00  0.0000E+00  0.0000E+00  0.0000E+00
    -12.850  0.0000E+00  0.0000E+00  0.0000E+00  0.0000E+00  0.0000E+00  0.0000E+00  0.0000E+00  0.0000E+00  0.0000E+00
    -12.440  0.0000E+00  0.0000E+00  0.0000E+00  0.0000E+00  0.0000E+00  0.0000E+00  0.0000E+00  0.0000E+00  0.0000E+00
    -12.030  0.0000E+00  0.0000E+00  0.0000E+00  0.0000E+00  0.0000E+00  0.0000E+00  0.0000E+00  0.0000E+00  0.0000E+00
    -11.620  0.0000E+00  0.0000E+00  0.0000E+00  0.0000E+00  0.0000E+00  0.0000E+00  0.0000E+00  0.0000E+00  0.0000E+00
    -11.210  0.0000E+00  0.0000E+00  0.0000E+00  0.0000E+00  0.0000E+00  0.0000E+00  0.0000E+00  0.0000E+00  0.0000E+00
    -10.801  0.0000E+00  0.0000E+00  0.0000E+00  0.0000E+00  0.0000E+00  0.0000E+00  0.0000E+00  0.0000E+00  0.0000E+00
    -10.391  0.0000E+00  0.0000E+00  0.0000E+00  0.0000E+00  0.0000E+00  0.0000E+00  0.0000E+00  0.0000E+00  0.0000E+00
     -9.981  0.0000E+00  0.0000E+00  0.0000E+00  0.0000E+00  0.0000E+00  0.0000E+00  0.0000E+00  0.0000E+00  0.0000E+00
     -9.571  0.0000E+00  0.0000E+00  0.0000E+00  0.0000E+00  0.0000E+00  0.0000E+00  0.0000E+00  0.0000E+00  0.0000E+00
     -9.161  0.0000E+00  0.0000E+00  0.0000E+00  0.0000E+00  0.0000E+00  0.0000E+00  0.0000E+00  0.0000E+00  0.0000E+00
     -8.751  0.0000E+00  0.0000E+00  0.0000E+00  0.0000E+00  0.0000E+00  0.0000E+00  0.0000E+00  0.0000E+00  0.0000E+00
     -8.341  0.0000E+00  0.0000E+00  0.0000E+00  0.0000E+00  0.0000E+00  0.0000E+00  0.0000E+00  0.0000E+00  0.0000E+00
     -7.931  0.0000E+00  0.0000E+00  0.0000E+00  0.0000E+00  0.0000E+00  0.0000E+00  0.0000E+00  0.0000E+00  0.0000E+00
     -7.521  0.0000E+00  0.0000E+00  0.0000E+00  0.0000E+00  0.0000E+00  0.0000E+00  0.0000E+00  0.0000E+00  0.0000E+00
     -7.111  0.0000E+00  0.0000E+00  0.0000E+00  0.0000E+00  0.0000E+00  0.0000E+00  0.0000E+00  0.0000E+00  0.0000E+00
     -6.701  0.0000E+00  0.0000E+00  0.0000E+00  0.0000E+00  0.0000E+00  0.0000E+00  0.0000E+00  0.0000E+00  0.0000E+00
     -6.291  0.0000E+00  0.0000E+00  0.0000E+00  0.0000E+00  0.0000E+00  0.0000E+00  0.0000E+00  0.0000E+00  0.0000E+00
     -5.881  0.0000E+00  0.0000E+00  0.0000E+00  0.0000E+00  0.0000E+00  0.0000E+00  0.0000E+00  0.0000E+00  0.0000E+00
     -5.471  0.0000E+00  0.0000E+00  0.0000E+00  0.0000E+00  0.0000E+00  0.0000E+00  0.0000E+00  0.0000E+00  0.0000E+00
     -5.061  0.0000E+00  0.0000E+00  0.0000E+00  0.0000E+00  0.0000E+00  0.0000E+00  0.0000E+00  0.0000E+00  0.0000E+00
     -4.651  0.0000E+00  0.0000E+00  0.0000E+00  0.0000E+00  0.0000E+00  0.0000E+00  0.0000E+00  0.0000E+00  0.0000E+00
     -4.241  0.0000E+00  0.0000E+00  0.0000E+00  0.0000E+00  0.0000E+00  0.0000E+00  0.0000E+00  0.0000E+00  0.0000E+00
     -3.831  0.0000E+00  0.0000E+00  0.0000E+00  0.0000E+00  0.0000E+00  0.0000E+00  0.0000E+00  0.0000E+00  0.0000E+00
     -3.421  0.0000E+00  0.0000E+00  0.0000E+00  0.0000E+00  0.0000E+00  0.0000E+00  0.0000E+00  0.0000E+00  0.0000E+00
     -3.011  0.0000E+00  0.0000E+00  0.0000E+00  0.0000E+00  0.0000E+00  0.0000E+00  0.0000E+00  0.0000E+00  0.0000E+00
     -2.601  0.0000E+00  0.0000E+00  0.0000E+00  0.0000E+00  0.0000E+00  0.0000E+00  0.0000E+00  0.0000E+00  0.0000E+00
     -2.191  0.0000E+00  0.0000E+00  0.0000E+00  0.0000E+00  0.0000E+00  0.0000E+00  0.0000E+00  0.0000E+00  0.0000E+00
     -1.781  0.0000E+00  0.0000E+00  0.0000E+00  0.0000E+00  0.0000E+00  0.0000E+00  0.0000E+00  0.0000E+00  0.0000E+00
     -1.371  0.0000E+00  0.0000E+00  0.0000E+00  0.0000E+00  0.0000E+00  0.0000E+00  0.0000E+00  0.0000E+00  0.0000E+00
     -0.961  0.0000E+00  0.0000E+00  0.0000E+00  0.0000E+00  0.0000E+00  0.0000E+00  0.0000E+00  0.0000E+00  0.0000E+00
     -0.551  0.0000E+00  0.0000E+00  0.0000E+00  0.0000E+00  0.0000E+00  0.0000E+00  0.0000E+00  0.0000E+00  0.0000E+00
     -0.141  0.0000E+00  0.0000E+00  0.0000E+00  0.0000E+00  0.0000E+00  0.0000E+00  0.0000E+00  0.0000E+00  0.0000E+00
      0.269  0.0000E+00  0.0000E+00  0.0000E+00  0.0000E+00  0.0000E+00  0.0000E+00  0.0000E+00  0.0000E+00  0.0000E+00
      0.679  0.0000E+00  0.0000E+00  0.0000E+00  0.0000E+00  0.0000E+00  0.0000E+00  0.0000E+00  0.0000E+00  0.0000E+00
      1.089  0.0000E+00  0.0000E+00  0.0000E+00  0.0000E+00  0.0000E+00  0.0000E+00  0.0000E+00  0.0000E+00  0.0000E+00
      1.499  0.0000E+00  0.0000E+00  0.0000E+00  0.0000E+00  0.0000E+00  0.0000E+00  0.0000E+00  0.0000E+00  0.0000E+00
      1.909  0.0000E+00  0.0000E+00  0.0000E+00  0.0000E+00  0.0000E+00  0.0000E+00  0.0000E+00  0.0000E+00  0.0000E+00
      2.319  0.0000E+00  0.0000E+00  0.0000E+00  0.0000E+00  0.0000E+00  0.0000E+00  0.0000E+00  0.0000E+00  0.0000E+00
      2.729  0.0000E+00  0.0000E+00  0.0000E+00  0.0000E+00  0.0000E+00  0.0000E+00  0.0000E+00  0.0000E+00  0.0000E+00
      3.139  0.0000E+00  0.0000E+00  0.0000E+00  0.0000E+00  0.0000E+00  0.0000E+00  0.0000E+00  0.0000E+00  0.0000E+00
      3.549  0.4545E-02  0.6053E-05  0.6053E-05  0.6053E-05  0.3362E-06  0.3362E-06  0.1254E-14  0.3362E-06  0.1254E-14
      3.959  0.1346E-01  0.6560E-04  0.6560E-04  0.6560E-04  0.6571E-05  0.6571E-05  0.5172E-05  0.6571E-05  0.5172E-05
      4.369  0.2240E-01  0.2157E-03  0.2157E-03  0.2157E-03  0.6934E-04  0.6934E-04  0.3004E-04  0.6934E-04  0.3004E-04
      4.779  0.2535E-01  0.3784E-03  0.3784E-03  0.3784E-03  0.1886E-03  0.1886E-03  0.7512E-04  0.1886E-03  0.7512E-04
      5.189  0.2594E-01  0.5022E-03  0.5022E-03  0.5022E-03  0.4514E-03  0.4514E-03  0.1555E-03  0.4514E-03  0.1555E-03
      5.599  0.3921E-01  0.9422E-03  0.9422E-03  0.9422E-03  0.1139E-02  0.1139E-02  0.5139E-03  0.1139E-02  0.5139E-03
      6.009  0.5317E-01  0.1492E-02  0.1492E-02  0.1492E-02  0.3807E-02  0.3807E-02  0.5293E-03  0.3807E-02  0.5293E-03
      6.419  0.6923E-01  0.1977E-02  0.1977E-02  0.1977E-02  0.1759E-01  0.1759E-01  0.3380E-02  0.1759E-01  0.3380E-02
      6.829  0.1018E+00  0.3040E-02  0.3040E-02  0.3040E-02  0.4199E-01  0.4199E-01  0.4293E-01  0.4199E-01  0.4293E-01
      7.239  0.1287E+00  0.5189E-02  0.5189E-02  0.5189E-02  0.8591E-01  0.8591E-01  0.1068E+00  0.8591E-01  0.1068E+00
      7.649  0.9850E-01  0.5290E-02  0.5290E-02  0.5290E-02  0.1458E+00  0.1458E+00  0.1003E+00  0.1458E+00  0.1003E+00
      8.059  0.7277E-01  0.6230E-02  0.6230E-02  0.6230E-02  0.1721E+00  0.1721E+00  0.1134E+00  0.1721E+00  0.1134E+00
      8.469  0.4080E-01  0.6898E-02  0.6898E-02  0.6898E-02  0.1447E+00  0.1447E+00  0.1274E+00  0.1447E+00  0.1274E+00
      8.879  0.1013E-01  0.4683E-02  0.4683E-02  0.4683E-02  0.8364E-01  0.8364E-01  0.5344E-01  0.8364E-01  0.5344E-01
      9.289  0.1233E-01  0.1085E-01  0.1085E-01  0.1085E-01  0.1596E+00  0.1596E+00  0.1497E+00  0.1596E+00  0.1497E+00
      9.699  0.9880E-02  0.8189E-02  0.8189E-02  0.8189E-02  0.1539E+00  0.1539E+00  0.1451E+00  0.1539E+00  0.1451E+00
     10.109  0.1628E-01  0.7716E-02  0.7716E-02  0.7716E-02  0.1615E+00  0.1615E+00  0.1326E+00  0.1615E+00  0.1326E+00
     10.519  0.2469E-01  0.1101E-01  0.1101E-01  0.1101E-01  0.1956E+00  0.1956E+00  0.1317E+00  0.1956E+00  0.1317E+00
     10.929  0.2759E-01  0.1514E-01  0.1514E-01  0.1514E-01  0.2486E+00  0.2486E+00  0.1761E+00  0.2486E+00  0.1761E+00
     11.339  0.1904E-01  0.1120E-01  0.1120E-01  0.1120E-01  0.2794E+00  0.2794E+00  0.1851E+00  0.2794E+00  0.1851E+00
     11.749  0.1559E-01  0.9649E-02  0.9649E-02  0.9649E-02  0.1519E+00  0.1519E+00  0.1492E+00  0.1519E+00  0.1492E+00
     12.159  0.1173E-01  0.7727E-02  0.7727E-02  0.7727E-02  0.1027E+00  0.1027E+00  0.1466E+00  0.1027E+00  0.1466E+00
     12.569  0.1097E-01  0.7749E-02  0.7749E-02  0.7749E-02  0.9432E-01  0.9432E-01  0.1980E+00  0.9432E-01  0.1980E+00
     12.979  0.1227E-01  0.8851E-02  0.8851E-02  0.8851E-02  0.1080E+00  0.1080E+00  0.3213E+00  0.1080E+00  0.3213E+00
     13.389  0.7030E-02  0.4554E-02  0.4554E-02  0.4554E-02  0.6516E-01  0.6516E-01  0.2111E+00  0.6516E-01  0.2111E+00
     13.799  0.9829E-02  0.5447E-02  0.5447E-02  0.5447E-02  0.1102E+00  0.1102E+00  0.2824E+00  0.1102E+00  0.2824E+00
     14.208  0.1644E-02  0.3532E-02  0.3532E-02  0.3532E-02  0.7754E-01  0.7754E-01  0.1385E+00  0.7754E-01  0.1385E+00
     14.618  0.9714E-02  0.4353E-02  0.4353E-02  0.4353E-02  0.1313E+00  0.1313E+00  0.2177E+00  0.1313E+00  0.2177E+00
     15.028  0.2856E-02  0.1947E-02  0.1947E-02  0.1947E-02  0.1622E+00  0.1622E+00  0.1653E+00  0.1622E+00  0.1653E+00
     15.438  0.5579E-02  0.2506E-02  0.2506E-02  0.2506E-02  0.2314E+00  0.2314E+00  0.1716E+00  0.2314E+00  0.1716E+00
     15.848  0.1295E-01  0.3877E-02  0.3877E-02  0.3877E-02  0.3031E+00  0.3031E+00  0.1496E+00  0.3031E+00  0.1496E+00
     16.258  0.4875E-02  0.1540E-02  0.1540E-02  0.1540E-02  0.1089E+00  0.1089E+00  0.2970E-01  0.1089E+00  0.2970E-01
     16.668  0.5698E-02  0.2274E-02  0.2274E-02  0.2274E-02  0.1854E-01  0.1854E-01  0.1797E-01  0.1854E-01  0.1797E-01
     17.078  0.2574E-01  0.7125E-02  0.7125E-02  0.7125E-02  0.6353E-01  0.6353E-01  0.5391E-01  0.6353E-01  0.5391E-01
     17.488  0.7765E-02  0.3810E-02  0.3810E-02  0.3810E-02  0.1861E-01  0.1861E-01  0.1513E-01  0.1861E-01  0.1513E-01
     17.898  0.2149E-01  0.5458E-02  0.5458E-02  0.5458E-02  0.3372E-01  0.3372E-01  0.2543E-01  0.3372E-01  0.2543E-01
     18.308  0.1262E-01  0.8418E-02  0.8418E-02  0.8418E-02  0.2866E-01  0.2866E-01  0.1922E-01  0.2866E-01  0.1922E-01
     18.718  0.1754E-01  0.4494E-02  0.4494E-02  0.4494E-02  0.2087E-01  0.2087E-01  0.1467E-01  0.2087E-01  0.1467E-01
     19.128  0.2355E-01  0.5747E-02  0.5747E-02  0.5747E-02  0.2574E-01  0.2574E-01  0.1379E-01  0.2574E-01  0.1379E-01
     19.538  0.3756E-01  0.1165E-01  0.1165E-01  0.1165E-01  0.3774E-01  0.3774E-01  0.1861E-01  0.3774E-01  0.1861E-01
     19.948  0.1429E-01  0.5684E-02  0.5684E-02  0.5684E-02  0.1407E-01  0.1407E-01  0.1104E-01  0.1407E-01  0.1104E-01