    1    1  100    1
  0.1287216E+02  0.2630604E-09  0.2630604E-09  0.2630604E-09  0.5000000E-15
  1.000000000000000E-004
  CAR 
 Pt-fcc                                  
     16    110     24
 
  0.5000000E-01  0.5000000E-01  0.5000000E-01  0.2000000E-02
      1        -37.602217   1.000000
      2        -37.583552   1.000000
      3        -37.583552   1.000000
      4          3.454857   1.000000
      5         10.513383   1.000000
      6         10.626202   1.000000
      7         10.626202   1.000000
      8         13.344975   1.000000
      9         13.344975   1.000000
     10         29.703428   0.000000
     11         34.809744   0.000000
     12         35.577112   0.000000
     13         35.577112   0.000000
     14         42.068584   0.000000
     15         49.575057   0.000000
     16         50.346088   0.000000
     17         50.346088   0.000000
     18         54.828364   0.000000
     19         54.828364   0.000000
     20         55.523810   0.000000
     21         55.865575   0.000000
     22         61.038477   0.000000
     23         61.038477   0.000000
     24         67.777771   0.000000
 
  0.1500000E+00  0.5000000E-01  0.5000000E-01  0.6000000E-02
      1        -37.704709   1.000000
      2        -37.613438   1.000000
      3        -37.592857   1.000000
      4          4.068695   1.000000
      5         10.204042   1.000000
      6         10.853504   1.000000
      7         10.906664   1.000000
      8         13.029040   1.000000
      9         13.409905   1.000000
     10         30.703276   0.000000
     11         33.094389   0.000000
     12         35.945151   0.000000
     13         36.931967   0.000000
     14         43.941929   0.000000
     15         46.300427   0.000000
     16         47.270334   0.000000
     17         49.149307   0.000000
     18         52.668758   0.000000
     19         55.508133   0.000000
     20         56.266686   0.000000
     21         58.567303   0.000000
     22         59.696900   0.000000
     23         62.243990   0.000000
     24         68.647077   0.000000
 
  0.2500000E+00  0.5000000E-01  0.5000000E-01  0.6000000E-02
      1        -37.928616   1.000000
      2        -37.651997   1.000000
      3        -37.620961   1.000000
      4          5.331877   1.000000
      5          9.930014   1.000000
      6         11.090072   1.000000
      7         11.138301   1.000000
      8         12.988595   1.000000
      9         13.741470   1.000000
     10         30.369581   0.000000
     11         32.335268   0.000000
     12         37.698566   0.000000
     13         39.541100   0.000000
     14         40.223513   0.000000
     15         43.657969   0.000000
     16         44.443136   0.000000
     17         50.377733   0.000000
     18         52.870014   0.000000
     19         55.518857   0.000000
     20         56.725660   0.000000
     21         58.148592   0.000000
     22         61.689430   0.000000
     23         62.742794   0.000000
     24         69.002772   0.000000
 
  0.3500000E+00  0.5000000E-01  0.5000000E-01  0.6000000E-02
      1        -38.181148   1.000000
      2        -37.689652   1.000000
      3        -37.657977   1.000000
      4          6.293876   1.000000
      5         10.701829   1.000000
      6         10.894690   1.000000
      7         10.923203   1.000000
      8         13.855423   1.000000
      9         14.720581   1.000000
     10         27.493759   0.000000
     11         31.420200   0.000000
     12         37.620695   0.000000
     13         39.940007   0.000000
     14         40.466853   0.000000
     15         42.911040   0.000000
     16         43.062775   0.000000
     17         53.099293   0.000000
     18         55.387933   0.000000
     19         55.549342   0.000000
     20         57.242073   0.000000
     21         58.264499   0.000000
     22         61.607281   0.000000
     23         63.381600   0.000000
     24         68.071962   0.000000
 
  0.4500000E+00  0.5000000E-01  0.5000000E-01  0.6000000E-02
      1        -38.367189   1.000000
      2        -37.713338   1.000000
      3        -37.690471   1.000000
      4          6.427411   1.000000
      5         10.498363   1.000000
      6         10.628066   1.000000
      7         12.825985   1.000000
      8         14.994996   1.000000
      9         15.831393   0.000000
     10         24.145598   0.000000
     11         29.764343   0.000000
     12         35.605935   0.000000
     13         36.674868   0.000000
     14         44.244600   0.000000
     15         45.922640   0.000000
     16         45.987724   0.000000
     17         53.326710   0.000000
     18         55.095643   0.000000
     19         55.519443   0.000000
     20         55.926026   0.000000
     21         60.651452   0.000000
     22         63.334504   0.000000
     23         63.567213   0.000000
     24         65.142434   0.000000
 
 -0.4500000E+00  0.5000000E-01  0.5000000E-01  0.6000000E-02
      1        -38.418482   1.000000
      2        -37.713543   1.000000
      3        -37.706124   1.000000
      4          6.400548   1.000000
      5         10.379085   1.000000
      6         10.561581   1.000000
      7         13.674742   1.000000
      8         15.570125   0.038824
      9         16.220153   0.000000
     10         22.693107   0.000000
     11         29.352447   0.000000
     12         35.364551   0.000000
     13         35.371329   0.000000
     14         46.239299   0.000000
     15         46.553277   0.000000
     16         47.906437   0.000000
     17         53.072734   0.000000
     18         53.759107   0.000000
     19         54.678090   0.000000
     20         55.511483   0.000000
     21         61.678037   0.000000
     22         62.209306   0.000000
     23         65.140136   0.000000
     24         65.658288   0.000000
 
 -0.3500000E+00  0.5000000E-01  0.5000000E-01  0.6000000E-02
      1        -38.318109   1.000000
      2        -37.697635   1.000000
      3        -37.691679   1.000000
      4          6.427474   1.000000
      5         10.548382   1.000000
      6         10.755267   1.000000
      7         12.067381   1.000000
      8         15.020346   1.000000
      9         15.166369   1.000000
     10         25.232689   0.000000
     11         30.185234   0.000000
     12         36.363577   0.000000
     13         37.288899   0.000000
     14         43.818556   0.000000
     15         43.872982   0.000000
     16         45.311177   0.000000
     17         52.816847   0.000000
     18         55.510417   0.000000
     19         56.258455   0.000000
     20         56.711164   0.000000
     21         60.715722   0.000000
     22         61.089428   0.000000
     23         63.850318   0.000000
     24         66.050998   0.000000
 
 -0.2500000E+00  0.5000000E-01  0.5000000E-01  0.6000000E-02
      1        -38.100276   1.000000
      2        -37.669206   1.000000
      3        -37.654660   1.000000
      4          6.077308   1.000000
      5         10.265805   1.000000
      6         10.922916   1.000000
      7         11.064582   1.000000
      8         13.653189   1.000000
      9         14.212343   1.000000
     10         28.521642   0.000000
     11         32.049976   0.000000
     12         38.557653   0.000000
     13         39.301060   0.000000
     14         41.463287   0.000000
     15         41.620496   0.000000
     16         42.586815   0.000000
     17         52.671396   0.000000
     18         54.445714   0.000000
     19         55.522977   0.000000
     20         56.659353   0.000000
     21         59.246380   0.000000
     22         60.199041   0.000000
     23         64.049837   0.000000
     24         69.286872   0.000000
 
 -0.1500000E+00  0.5000000E-01  0.5000000E-01  0.6000000E-02
      1        -37.844854   1.000000
      2        -37.632273   1.000000
      3        -37.617478   1.000000
      4          4.880990   1.000000
      5          9.938040   1.000000
      6         11.082211   1.000000
      7         11.115146   1.000000
      8         12.918288   1.000000
      9         13.543687   1.000000
     10         31.231251   0.000000
     11         31.991598   0.000000
     12         37.259712   0.000000
     13         38.108306   0.000000
     14         41.999797   0.000000
     15         44.115218   0.000000
     16         46.257712   0.000000
     17         48.760642   0.000000
     18         52.658485   0.000000
     19         55.517966   0.000000
     20         56.776022   0.000000
     21         59.128460   0.000000
     22         59.537230   0.000000
     23         63.327432   0.000000
     24         68.871324   0.000000
 
 -0.5000000E-01  0.5000000E-01  0.5000000E-01  0.6000000E-02
      1        -37.649139   1.000000
      2        -37.599072   1.000000
      3        -37.594124   1.000000
      4          3.768962   1.000000
      5         10.303196   1.000000
      6         10.782524   1.000000
      7         10.792875   1.000000
      8         13.084998   1.000000
      9         13.444240   1.000000
     10         30.232216   0.000000
     11         34.041681   0.000000
     12         35.734522   0.000000
     13         35.987139   0.000000
     14         43.577772   0.000000
     15         47.553712   0.000000
     16         47.975668   0.000000
     17         50.446828   0.000000
     18         52.398924   0.000000
     19         55.516850   0.000000
     20         56.896454   0.000000
     21         57.520306   0.000000
     22         59.207341   0.000000
     23         62.368882   0.000000
     24         68.432277   0.000000
 
  0.1500000E+00  0.1500000E+00  0.5000000E-01  0.6000000E-02
      1        -37.726896   1.000000
      2        -37.627941   1.000000
      3        -37.622220   1.000000
      4          4.371595   1.000000
      5          9.897911   1.000000
      6         11.113371   1.000000
      7         11.123234   1.000000
      8         12.635148   1.000000
      9         13.637293   1.000000
     10         31.231393   0.000000
     11         33.388385   0.000000
     12         35.925174   0.000000
     13         36.274180   0.000000
     14         44.724791   0.000000
     15         45.567645   0.000000
     16         46.668835   0.000000
     17         48.882914   0.000000
     18         50.957541   0.000000
     19         55.519065   0.000000
     20         56.458399   0.000000
     21         59.138718   0.000000
     22         59.194947   0.000000
     23         63.504854   0.000000
     24         70.058563   0.000000
 
  0.2500000E+00  0.1500000E+00  0.5000000E-01  0.1200000E-01
      1        -37.882749   1.000000
      2        -37.683459   1.000000
      3        -37.644296   1.000000
      4          5.436189   1.000000
      5          9.440764   1.000000
      6         11.238793   1.000000
      7         11.586330   1.000000
      8         12.488864   1.000000
      9         14.002342   1.000000
     10         31.825165   0.000000
     11         32.792639   0.000000
     12         35.943817   0.000000
     13         37.416582   0.000000
     14         41.475210   0.000000
     15         44.014074   0.000000
     16         46.490310   0.000000
     17         49.965609   0.000000
     18         50.466409   0.000000
     19         55.041243   0.000000
     20         55.526559   0.000000
     21         58.089364   0.000000
     22         62.237702   0.000000
     23         65.081062   0.000000
     24         70.162565   0.000000
 
  0.3500000E+00  0.1500000E+00  0.5000000E-01  0.1200000E-01
      1        -38.104816   1.000000
      2        -37.733417   1.000000
      3        -37.680414   1.000000
      4          6.630009   1.000000
      5          9.542673   1.000000
      6         10.667813   1.000000
      7         11.590942   1.000000
      8         13.592789   1.000000
      9         14.957034   1.000000
     10         29.020817   0.000000
     11         32.687559   0.000000
     12         35.807277   0.000000
     13         37.386003   0.000000
     14         41.926735   0.000000
     15         43.219999   0.000000
     16         45.031214   0.000000
     17         49.192147   0.000000
     18         54.506882   0.000000
     19         55.521047   0.000000
     20         56.459089   0.000000
     21         57.732002   0.000000
     22         61.972503   0.000000
     23         66.415776   0.000000
     24         67.929480   0.000000
 
  0.4500000E+00  0.1500000E+00  0.5000000E-01  0.1200000E-01
      1        -38.294435   1.000000
      2        -37.770607   1.000000
      3        -37.717354   1.000000
      4          6.964521   1.000000
      5         10.116441   1.000000
      6         10.916122   1.000000
      7         11.310869   1.000000
      8         15.036656   1.000000
      9         16.437706   0.000000
     10         25.283424   0.000000
     11         31.046019   0.000000
     12         34.529334   0.000000
     13         36.938582   0.000000
     14         42.746914   0.000000
     15         45.705350   0.000000
     16         46.700660   0.000000
     17         49.578079   0.000000
     18         55.514063   0.000000
     19         56.001880   0.000000
     20         56.637256   0.000000
     21         59.238803   0.000000
     22         62.210419   0.000000
     23         63.969000   0.000000
     24         66.119142   0.000000
 
 -0.4500000E+00  0.1500000E+00  0.5000000E-01  0.1200000E-01
      1        -38.380540   1.000000
      2        -37.793873   1.000000
      3        -37.728863   1.000000
      4          6.944471   1.000000
      5          9.902543   1.000000
      6         11.057436   1.000000
      7         12.206444   1.000000
      8         15.462618   0.899067
      9         18.167532   0.000000
     10         22.427862   0.000000
     11         30.393940   0.000000
     12         34.167547   0.000000
     13         35.180332   0.000000
     14         45.102487   0.000000
     15         45.948786   0.000000
     16         49.102499   0.000000
     17         51.821113   0.000000
     18         54.008174   0.000000
     19         55.517740   0.000000
     20         56.304100   0.000000
     21         58.662764   0.000000
     22         60.172131   0.000000
     23         64.954589   0.000000
     24         67.108236   0.000000
 
 -0.3500000E+00  0.1500000E+00  0.5000000E-01  0.1200000E-01
      1        -38.334022   1.000000
      2        -37.797262   1.000000
      3        -37.708729   1.000000
      4          6.998769   1.000000
      5         10.051765   1.000000
      6         11.094142   1.000000
      7         11.656533   1.000000
      8         14.798309   1.000000
      9         17.348451   0.000000
     10         24.182140   0.000000
     11         30.723965   0.000000
     12         33.860548   0.000000
     13         36.813656   0.000000
     14         42.766290   0.000000
     15         46.138876   0.000000
     16         47.878584   0.000000
     17         51.560993   0.000000
     18         55.502680   0.000000
     19         55.696642   0.000000
     20         56.662004   0.000000
     21         57.273187   0.000000
     22         62.012139   0.000000
     23         64.566287   0.000000
     24         65.763658   0.000000
 
 -0.2500000E+00  0.1500000E+00  0.5000000E-01  0.1200000E-01
      1        -38.172556   1.000000
      2        -37.771253   1.000000
      3        -37.670369   1.000000
      4          6.896519   1.000000
      5         10.003164   1.000000
      6         10.526131   1.000000
      7         11.426000   1.000000
      8         13.489574   1.000000
      9         15.796871   0.000000
     10         27.852783   0.000000
     11         32.050418   0.000000
     12         34.912805   0.000000
     13         38.334478   0.000000
     14         40.879060   0.000000
     15         44.664323   0.000000
     16         45.845372   0.000000
     17         49.425962   0.000000
     18         54.880193   0.000000
     19         55.510431   0.000000
     20         56.146825   0.000000
     21         58.997828   0.000000
     22         62.216547   0.000000
     23         65.451889   0.000000
     24         66.425101   0.000000
 
 -0.1500000E+00  0.1500000E+00  0.5000000E-01  0.1200000E-01
      1        -37.959411   1.000000
      2        -37.716394   1.000000
      3        -37.631877   1.000000
      4          5.886717   1.000000
      5          9.504727   1.000000
      6         11.035640   1.000000
      7         11.621547   1.000000
      8         12.488562   1.000000
      9         14.421224   1.000000
     10         30.734014   0.000000
     11         33.049536   0.000000
     12         36.022133   0.000000
     13         37.463742   0.000000
     14         40.964825   0.000000
     15         44.715827   0.000000
     16         46.306927   0.000000
     17         48.815339   0.000000
     18         51.601630   0.000000
     19         55.497645   0.000000
     20         55.703449   0.000000
     21         57.063627   0.000000
     22         64.097517   0.000000
     23         65.251397   0.000000
     24         68.871801   0.000000
 
 -0.5000000E-01  0.1500000E+00  0.5000000E-01  0.1200000E-01
      1        -37.785858   1.000000
      2        -37.642918   1.000000
      3        -37.609311   1.000000
      4          4.644025   1.000000
      5          9.892033   1.000000
      6         11.109774   1.000000
      7         11.135504   1.000000
      8         12.707750   1.000000
      9         13.627999   1.000000
     10         31.579078   0.000000
     11         32.333310   0.000000
     12         36.100882   0.000000
     13         37.702568   0.000000
     14         42.546262   0.000000
     15         45.452471   0.000000
     16         47.575769   0.000000
     17         48.618126   0.000000
     18         50.699565   0.000000
     19         55.515106   0.000000
     20         56.951513   0.000000
     21         57.503835   0.000000
     22         60.979138   0.000000
     23         63.635885   0.000000
     24         69.628369   0.000000
 
  0.2500000E+00  0.2500000E+00  0.5000000E-01  0.6000000E-02
      1        -37.945023   1.000000
      2        -37.713763   1.000000
      3        -37.712200   1.000000
      4          6.107033   1.000000
      5          8.825811   1.000000
      6         11.427037   1.000000
      7         12.236337   1.000000
      8         12.533181   1.000000
      9         14.246595   1.000000
     10         32.848109   0.000000
     11         34.166095   0.000000
     12         34.937076   0.000000
     13         35.348398   0.000000
     14         41.379703   0.000000
     15         43.311456   0.000000
     16         43.803575   0.000000
     17         51.717795   0.000000
     18         51.772148   0.000000
     19         53.124163   0.000000
     20         55.534041   0.000000
     21         60.688681   0.000000
     22         61.768441   0.000000
     23         63.413044   0.000000
     24         73.395193   0.000000
 
  0.3500000E+00  0.2500000E+00  0.5000000E-01  0.1200000E-01
      1        -38.093090   1.000000
      2        -37.783317   1.000000
      3        -37.745281   1.000000
      4          7.027850   1.000000
      5          8.447599   1.000000
      6         10.945671   1.000000
      7         12.827927   1.000000
      8         13.617149   1.000000
      9         15.021697   1.000000
     10         30.851605   0.000000
     11         33.134004   0.000000
     12         33.926082   0.000000
     13         36.338880   0.000000
     14         40.357818   0.000000
     15         43.448859   0.000000
     16         44.891600   0.000000
     17         50.800266   0.000000
     18         51.163837   0.000000
     19         55.523325   0.000000
     20         56.370261   0.000000
     21         59.971988   0.000000
     22         62.362768   0.000000
     23         64.407971   0.000000
     24         70.866597   0.000000
 
  0.4500000E+00  0.2500000E+00  0.5000000E-01  0.1200000E-01
      1        -38.233021   1.000000
      2        -37.852417   1.000000
      3        -37.777957   1.000000
      4          7.500758   1.000000
      5          8.834043   1.000000
      6         10.529681   1.000000
      7         12.582166   1.000000
      8         15.226590   1.000000
      9         16.815762   0.000000
     10         26.619674   0.000000
     11         32.167887   0.000000
     12         32.345233   0.000000
     13         36.704205   0.000000
     14         42.034211   0.000000
     15         44.523563   0.000000
     16         46.896515   0.000000
     17         49.977812   0.000000
     18         52.352851   0.000000
     19         55.523183   0.000000
     20         56.044835   0.000000
     21         60.468830   0.000000
     22         63.729951   0.000000
     23         64.519993   0.000000
     24         67.990899   0.000000
 
 -0.4500000E+00  0.2500000E+00  0.5000000E-01  0.1200000E-01
      1        -38.302371   1.000000
      2        -37.923532   1.000000
      3        -37.782270   1.000000
      4          7.657642   1.000000
      5          9.218063   1.000000
      6         10.818156   1.000000
      7         12.220802   1.000000
      8         15.519361   0.371201
      9         19.782137   0.000000
     10         22.721635   0.000000
     11         30.961986   0.000000
     12         32.599896   0.000000
     13         35.263090   0.000000
     14         43.753077   0.000000
     15         46.045710   0.000000
     16         47.728735   0.000000
     17         50.709787   0.000000
     18         54.677450   0.000000
     19         55.404682   0.000000
     20         55.519402   0.000000
     21         59.447328   0.000000
     22         61.602055   0.000000
     23         64.975807   0.000000
     24         67.397573   0.000000
 
 -0.3500000E+00  0.2500000E+00  0.5000000E-01  0.1200000E-01
      1        -38.281815   1.000000
      2        -37.963830   1.000000
      3        -37.754629   1.000000
      4          7.962987   1.000000
      5          9.335150   1.000000
      6         10.802437   1.000000
      7         12.034645   1.000000
      8         14.722518   1.000000
      9         19.564657   0.000000
     10         23.727717   0.000000
     11         30.060282   0.000000
     12         33.136678   0.000000
     13         35.788148   0.000000
     14         42.410564   0.000000
     15         45.022389   0.000000
     16         49.263011   0.000000
     17         53.723750   0.000000
     18         54.435591   0.000000
     19         55.519949   0.000000
     20         57.037694   0.000000
     21         57.370644   0.000000
     22         59.200798   0.000000
     23         64.207455   0.000000
     24         66.692598   0.000000
 
 -0.2500000E+00  0.2500000E+00  0.5000000E-01  0.1200000E-01
      1        -38.203155   1.000000
      2        -37.930625   1.000000
      3        -37.709113   1.000000
      4          8.178072   1.000000
      5          9.562572   1.000000
      6          9.854835   1.000000
      7         12.162494   1.000000
      8         13.434336   1.000000
      9         17.800653   0.000000
     10         27.044502   0.000000
     11         30.507391   0.000000
     12         33.285640   0.000000
     13         38.577688   0.000000
     14         39.291551   0.000000
     15         45.295172   0.000000
     16         50.031634   0.000000
     17         50.220995   0.000000
     18         52.160541   0.000000
     19         55.514555   0.000000
     20         56.543422   0.000000
     21         59.887744   0.000000
     22         63.151670   0.000000
     23         63.798282   0.000000
     24         65.291202   0.000000
 
 -0.1500000E+00  0.2500000E+00  0.5000000E-01  0.1200000E-01
      1        -38.113889   1.000000
      2        -37.815042   1.000000
      3        -37.665395   1.000000
      4          7.196670   1.000000
      5          9.363087   1.000000
      6         10.484892   1.000000
      7         11.982888   1.000000
      8         12.716135   1.000000
      9         15.969284   0.000000
     10         29.056938   0.000000
     11         32.639411   0.000000
     12         34.273977   0.000000
     13         36.878407   0.000000
     14         41.591405   0.000000
     15         45.452924   0.000000
     16         46.859976   0.000000
     17         47.817279   0.000000
     18         52.771107   0.000000
     19         55.501101   0.000000
     20         55.874091   0.000000
     21         58.901929   0.000000
     22         63.855074   0.000000
     23         66.218978   0.000000
     24         66.697813   0.000000
 
 -0.5000000E-01  0.2500000E+00  0.5000000E-01  0.1200000E-01
      1        -38.018370   1.000000
      2        -37.687777   1.000000
      3        -37.640906   1.000000
      4          5.945975   1.000000
      5          9.784612   1.000000
      6         10.999315   1.000000
      7         11.296105   1.000000
      8         13.059392   1.000000
      9         14.292613   1.000000
     10         29.686854   0.000000
     11         32.657885   0.000000
     12         37.404201   0.000000
     13         38.195371   0.000000
     14         41.237757   0.000000
     15         42.801935   0.000000
     16         44.414613   0.000000
     17         50.920584   0.000000
     18         52.802279   0.000000
     19         55.525993   0.000000
     20         56.899530   0.000000
     21         57.351233   0.000000
     22         61.927401   0.000000
     23         65.010622   0.000000
     24         69.124003   0.000000
 
  0.3500000E+00  0.3500000E+00  0.5000000E-01  0.6000000E-02
      1        -38.176423   1.000000
      2        -37.814014   1.000000
      3        -37.808113   1.000000
      4          7.023762   1.000000
      5          7.820153   1.000000
      6         12.189748   1.000000
      7         13.782796   1.000000
      8         14.319840   1.000000
      9         15.003602   1.000000
     10         30.805157   0.000000
     11         31.506813   0.000000
     12         32.787664   0.000000
     13         36.947880   0.000000
     14         37.960946   0.000000
     15         45.348377   0.000000
     16         45.893716   0.000000
     17         48.281886   0.000000
     18         53.137306   0.000000
     19         55.521688   0.000000
     20         56.279733   0.000000
     21         62.448842   0.000000
     22         63.341210   0.000000
     23         63.592168   0.000000
     24         68.264099   0.000000
 
  0.4500000E+00  0.3500000E+00  0.5000000E-01  0.1200000E-01
      1        -38.264765   1.000000
      2        -37.878054   1.000000
      3        -37.840763   1.000000
      4          7.109050   1.000000
      5          7.652421   1.000000
      6         12.346026   1.000000
      7         14.299001   1.000000
      8         15.250640   1.000000
      9         16.731979   0.000000
     10         27.775842   0.000000
     11         29.775577   0.000000
     12         31.104023   0.000000
     13         37.779166   0.000000
     14         39.649089   0.000000
     15         45.097483   0.000000
     16         48.194145   0.000000
     17         49.617374   0.000000
     18         53.461376   0.000000
     19         54.546891   0.000000
     20         55.520315   0.000000
     21         61.282958   0.000000
     22         63.458950   0.000000
     23         65.197841   0.000000
     24         65.832149   0.000000
 
 -0.4500000E+00  0.3500000E+00  0.5000000E-01  0.1200000E-01
      1        -38.282283   1.000000
      2        -37.982152   1.000000
      3        -37.843563   1.000000
      4          7.332155   1.000000
      5          8.147365   1.000000
      6         11.807887   1.000000
      7         13.751169   1.000000
      8         15.706006   0.000000
      9         20.098940   0.000000
     10         23.873942   0.000000
     11         29.093929   0.000000
     12         30.414329   0.000000
     13         37.574838   0.000000
     14         42.576224   0.000000
     15         44.426376   0.000000
     16         47.917451   0.000000
     17         52.253703   0.000000
     18         54.108574   0.000000
     19         54.781044   0.000000
     20         55.519103   0.000000
     21         59.652127   0.000000
     22         61.969909   0.000000
     23         64.129947   0.000000
     24         65.587515   0.000000
 
 -0.3500000E+00  0.3500000E+00  0.5000000E-01  0.1200000E-01
      1        -38.206841   1.000000
      2        -38.105386   1.000000
      3        -37.812050   1.000000
      4          7.810659   1.000000
      5          8.949087   1.000000
      6         10.949143   1.000000
      7         13.141459   1.000000
      8         15.052545   1.000000
      9         21.080614   0.000000
     10         24.067413   0.000000
     11         27.279341   0.000000
     12         32.327824   0.000000
     13         36.509474   0.000000
     14         43.118764   0.000000
     15         45.150831   0.000000
     16         46.304819   0.000000
     17         54.278024   0.000000
     18         54.865658   0.000000
     19         55.518116   0.000000
     20         57.601380   0.000000
     21         58.649266   0.000000
     22         60.659033   0.000000
     23         62.912735   0.000000
     24         65.128478   0.000000
 
 -0.2500000E+00  0.3500000E+00  0.5000000E-01  0.1200000E-01
      1        -38.213024   1.000000
      2        -38.049070   1.000000
      3        -37.760249   1.000000
      4          8.361614   1.000000
      5          9.387699   1.000000
      6         10.131118   1.000000
      7         12.499985   1.000000