 vasp.6.3.2 27Jun22 (build Aug 12 2022 00:53:59) complex                        
  
 executed on               tv2STD date 2024.12.03  01:38:22
 running   24 mpi-ranks, with    1 threads/rank
 distrk:  each k-point on   24 cores,    1 groups
 distr:  one band on NCORE=   1 cores,   24 groups


--------------------------------------------------------------------------------------------------------


 INCAR:
   SYSTEM = Pt-fcc
   NWRITE = 2    write-flag
   ISTART = 0    job   : 0-new, 1-cont, 2-samecut
   ICHARG = 2    charge: 0-wave, 1-file, 2-atom, >10-const
   INIWAV = 1    electr: 0-lowe 1-rand  2-diag
   ENCUT = 425.0     energy cutoff in eV
   PREC = accurate      normal | accurate
   ADDGRID = .FALSE.  (use fine grid)
   NELM = 100     number of ELM steps
   EDIFF = 1E-06    energy stopping-criterion for ELM
   LREAL = .FALSE.      real-space projection (.FALSE., .TRUE., On, Auto)
   ALGO = Normal     Normal, Fast, Very_Fast
   LWAVE = .TRUE.
   LCHARG = .TRUE.
   NSW = 100       max number of geometry steps
   IBRION = 2     ionic relax: 0-MD, 1-quasi-Newton, 2-CG, 3-Damped MD
   EDIFFG = -0.02  force (eV/A) stopping-criterion for geometry steps
   ISIF = 2     (1:force\=y stress\=trace only ions\=y shape\=n volume\=n)
   ISYM = 1     (1-use symmetry, 0-no symmetry)
   ISMEAR = 0     (-1-Fermi, 1-Methfessel/Paxton)
   SIGMA = 0.05   broadening in eV
   LORBIT = 11

 POTCAR:    PAW_PBE Pt_pv 12Dec2005               
 POTCAR:    PAW_PBE Pt_pv 12Dec2005               
   SHA256 =  e5abf7e8cd8db70d0153315afc5ad66b6e3eeee29cc2d5b91b16730957c1d208 Pt_pv/POTCAR          
   COPYR  = (c) Copyright 12Dec2005 Georg Kresse                                                    
   COPYR  = This file is part of the software VASP. Any use, copying, and all other rights are regul
   COPYR  = If you do not have a valid VASP license, you may not use, copy or distribute this file. 
   VRHFIN =Pt: 5ps1d9                                                                               
   LEXCH  = PE                                                                                      
   EATOM  =  2428.2504 eV,  178.4714 Ry                                                             
                                                                                                    
   TITEL  = PAW_PBE Pt_pv 12Dec2005                                                                 
   LULTRA =        F    use ultrasoft PP ?                                                          
   IUNSCR =        1    unscreen: 0-lin 1-nonlin 2-no                                               
   RPACOR =    2.000    partial core radius                                                         
   POMASS =  195.080; ZVAL   =   16.000    mass and valenz                                          
   RCORE  =    2.200    outmost cutoff radius                                                       
   RWIGS  =    2.200; RWIGS  =    1.164    wigner-seitz radius (au A)                               
   ENMAX  =  294.607; ENMIN  =  220.955 eV                                                          
   ICORE  =        3    local potential                                                             
   LCOR   =        T    correct aug charges                                                         
   LPAW   =        T    paw PP                                                                      
   EAUG   =  527.014                                                                                
   DEXC   =    0.000                                                                                
   RMAX   =    2.247    core radius for proj-oper                                                   
   RAUG   =    1.300    factor for augmentation sphere                                              
   RDEP   =    2.279    radius for radial grids                                                     
   RDEPT  =    1.878    core radius for aug-charge                                                  
                                                                                                    
   Atomic configuration                                                                             
   16 entries                                                                                       
     n  l   j            E        occ.                                                              
     1  0  0.50    -78401.1885   2.0000                                                             
     2  0  0.50    -13770.7750   2.0000                                                             
     2  1  1.50    -11931.0468   6.0000                                                             
     3  0  0.50     -3234.7234   2.0000                                                             
     3  1  1.50     -2699.2216   6.0000                                                             
     3  2  2.50     -2119.5714  10.0000                                                             
     4  0  0.50      -695.1528   2.0000                                                             
     4  1  1.50      -519.6034   6.0000                                                             
     4  2  2.50      -306.6786  10.0000                                                             
     4  3  3.50       -70.1041  14.0000                                                             
     5  0  0.50      -101.7747   2.0000                                                             
     5  1  1.50       -55.9873   6.0000                                                             
     6  1  1.50        -6.8029   0.0000                                                             
     5  2  2.50        -6.1423   9.0000                                                             
     6  0  0.50        -5.6573   1.0000                                                             
     5  3  2.50        -1.3606   0.0000                                                             
   Description                                                                                      
     l       E           TYP  RCUT    TYP  RCUT                                                     
     1    -55.9873477     23  2.000                                                                 
     1     27.2116520     23  2.000                                                                 
     2     -6.1423404     23  2.200                                                                 
     2     -4.6754623     23  2.200                                                                 
     0     -5.6573207     23  2.200                                                                 
     0     47.6203910     23  2.200                                                                 
     3      6.8029130     23  2.200                                                                 
  local pseudopotential read in
  partial core-charges read in
  partial kinetic energy density read in
  atomic valenz-charges read in
  non local Contribution for L=           1  read in
    real space projection operators read in
  non local Contribution for L=           1  read in
    real space projection operators read in
  non local Contribution for L=           2  read in
    real space projection operators read in
  non local Contribution for L=           2  read in
    real space projection operators read in
  non local Contribution for L=           0  read in
    real space projection operators read in
  non local Contribution for L=           0  read in
    real space projection operators read in
    PAW grid and wavefunctions read in
 
   number of l-projection  operators is LMAX  =           6
   number of lm-projection operators is LMMAX =          18
 
  PAW_PBE Pt_pv 12Dec2005               :
 energy of atom  1       EATOM=-2428.2504
 kinetic energy error for atom=    0.0554 (will be added to EATOM!!)
 
 
 POSCAR: Pt
  positions in cartesian coordinates
  No initial velocities read in
 exchange correlation table for  LEXCH =        8
   RHO(1)=    0.500       N(1)  =     2000
   RHO(2)=  100.500       N(2)  =     4000
 


--------------------------------------------------------------------------------------------------------


 ion  position               nearest neighbor table
   1  0.000  0.000  0.000-
 
  LATTYP: Found a face centered cubic cell.
 ALAT       =     3.7202354233
  
  Lattice vectors:
  
 A1 = (   0.0000000000,   1.8601177117,   1.8601177117)
 A2 = (   1.8601177117,   0.0000000000,   1.8601177117)
 A3 = (   1.8601177117,   1.8601177117,   0.0000000000)


Analysis of symmetry for initial positions (statically):
=====================================================================
 Subroutine PRICEL returns:
 Original cell was already a primitive cell.
 

 Routine SETGRP: Setting up the symmetry group for a 
 face centered cubic supercell.


 Subroutine GETGRP returns: Found 48 space group operations
 (whereof 48 operations were pure point group operations)
 out of a pool of 48 trial point group operations.


The static configuration has the point symmetry O_h .


Analysis of symmetry for dynamics (positions and initial velocities):
=====================================================================
 Subroutine PRICEL returns:
 Original cell was already a primitive cell.
 

 Routine SETGRP: Setting up the symmetry group for a 
 face centered cubic supercell.


 Subroutine GETGRP returns: Found 48 space group operations
 (whereof 48 operations were pure point group operations)
 out of a pool of 48 trial point group operations.


The dynamic configuration has the point symmetry O_h .


 Subroutine INISYM returns: Found 48 space group operations
 (whereof 48 operations are pure point group operations),
 and found     1 'primitive' translations


----------------------------------------------------------------------------------------

                                     Primitive cell                                     

  volume of cell :      12.8722

  direct lattice vectors                    reciprocal lattice vectors
     0.000000000  1.860117712  1.860117712    -0.268800193  0.268800193  0.268800193
     1.860117712  0.000000000  1.860117712     0.268800193 -0.268800193  0.268800193
     1.860117712  1.860117712  0.000000000     0.268800193  0.268800193 -0.268800193

  length of vectors
     2.630603695  2.630603695  2.630603695     0.465575591  0.465575591  0.465575591

  position of ions in fractional coordinates (direct lattice)
     0.000000000  0.000000000  0.000000000

  ion indices of the primitive-cell ions
   primitive index   ion index
                 1           1

----------------------------------------------------------------------------------------

 
 
 KPOINTS: Automatic mesh                          

Automatic generation of k-mesh.
 Grid dimensions read from file:
 generate k-points for:   10   10   10

 Generating k-lattice:

  Cartesian coordinates                     Fractional coordinates (reciprocal lattice)
    -0.026880019  0.026880019  0.026880019     0.100000000 -0.000000000 -0.000000000
     0.026880019 -0.026880019  0.026880019     0.000000000  0.100000000  0.000000000
     0.026880019  0.026880019 -0.026880019     0.000000000  0.000000000  0.100000000

  Length of vectors
     0.046557559  0.046557559  0.046557559

  Shift w.r.t. Gamma in fractional coordinates (k-lattice)
     0.500000000  0.500000000  0.500000000

 
 Subroutine IBZKPT returns following result:
 ===========================================
 
 Found    110 irreducible k-points:
 
 Following reciprocal coordinates:
            Coordinates               Weight
  0.050000  0.050000  0.050000      8.000000
  0.150000  0.050000  0.050000     24.000000
  0.250000  0.050000  0.050000     24.000000
  0.350000  0.050000  0.050000     24.000000
  0.450000  0.050000  0.050000     24.000000
 -0.450000  0.050000  0.050000     24.000000
 -0.350000  0.050000  0.050000     24.000000
 -0.250000  0.050000  0.050000     24.000000
 -0.150000  0.050000  0.050000     24.000000
 -0.050000  0.050000  0.050000     24.000000
  0.150000  0.150000  0.050000     24.000000
  0.250000  0.150000  0.050000     48.000000
  0.350000  0.150000  0.050000     48.000000
  0.450000  0.150000  0.050000     48.000000
 -0.450000  0.150000  0.050000     48.000000
 -0.350000  0.150000  0.050000     48.000000
 -0.250000  0.150000  0.050000     48.000000
 -0.150000  0.150000  0.050000     48.000000
 -0.050000  0.150000  0.050000     48.000000
  0.250000  0.250000  0.050000     24.000000
  0.350000  0.250000  0.050000     48.000000
  0.450000  0.250000  0.050000     48.000000
 -0.450000  0.250000  0.050000     48.000000
 -0.350000  0.250000  0.050000     48.000000
 -0.250000  0.250000  0.050000     48.000000
 -0.150000  0.250000  0.050000     48.000000
 -0.050000  0.250000  0.050000     48.000000
  0.350000  0.350000  0.050000     24.000000
  0.450000  0.350000  0.050000     48.000000
 -0.450000  0.350000  0.050000     48.000000
 -0.350000  0.350000  0.050000     48.000000
 -0.250000  0.350000  0.050000     48.000000
 -0.150000  0.350000  0.050000     48.000000
 -0.050000  0.350000  0.050000     48.000000
  0.450000  0.450000  0.050000     24.000000
 -0.450000  0.450000  0.050000     48.000000
 -0.350000  0.450000  0.050000     48.000000
 -0.250000  0.450000  0.050000     48.000000
 -0.150000  0.450000  0.050000     48.000000
 -0.050000  0.450000  0.050000     48.000000
 -0.450000 -0.450000  0.050000     24.000000
 -0.350000 -0.450000  0.050000     48.000000
 -0.250000 -0.450000  0.050000     48.000000
 -0.150000 -0.450000  0.050000     48.000000
 -0.350000 -0.350000  0.050000     24.000000
 -0.250000 -0.350000  0.050000     48.000000
 -0.150000 -0.350000  0.050000     48.000000
 -0.250000 -0.250000  0.050000     24.000000
 -0.150000 -0.250000  0.050000     48.000000
 -0.150000 -0.150000  0.050000     24.000000
  0.150000  0.150000  0.150000      8.000000
  0.250000  0.150000  0.150000     24.000000
  0.350000  0.150000  0.150000     24.000000
  0.450000  0.150000  0.150000     24.000000
 -0.450000  0.150000  0.150000     24.000000
 -0.350000  0.150000  0.150000     24.000000
 -0.250000  0.150000  0.150000     24.000000
 -0.150000  0.150000  0.150000     24.000000
  0.250000  0.250000  0.150000     24.000000
  0.350000  0.250000  0.150000     48.000000
  0.450000  0.250000  0.150000     48.000000
 -0.450000  0.250000  0.150000     48.000000
 -0.350000  0.250000  0.150000     48.000000
 -0.250000  0.250000  0.150000     48.000000
 -0.150000  0.250000  0.150000     48.000000
  0.350000  0.350000  0.150000     24.000000
  0.450000  0.350000  0.150000     48.000000
 -0.450000  0.350000  0.150000     48.000000
 -0.350000  0.350000  0.150000     48.000000
 -0.250000  0.350000  0.150000     48.000000
 -0.150000  0.350000  0.150000     48.000000
  0.450000  0.450000  0.150000     24.000000
 -0.450000  0.450000  0.150000     48.000000
 -0.350000  0.450000  0.150000     48.000000
 -0.250000  0.450000  0.150000     48.000000
 -0.150000  0.450000  0.150000     48.000000
 -0.450000 -0.450000  0.150000     24.000000
 -0.350000 -0.450000  0.150000     48.000000
 -0.250000 -0.450000  0.150000     48.000000
 -0.350000 -0.350000  0.150000     24.000000
 -0.250000 -0.350000  0.150000     48.000000
 -0.250000 -0.250000  0.150000     24.000000
  0.250000  0.250000  0.250000      8.000000
  0.350000  0.250000  0.250000     24.000000
  0.450000  0.250000  0.250000     24.000000
 -0.450000  0.250000  0.250000     24.000000
 -0.350000  0.250000  0.250000     24.000000
 -0.250000  0.250000  0.250000     24.000000
  0.350000  0.350000  0.250000     24.000000
  0.450000  0.350000  0.250000     48.000000
 -0.450000  0.350000  0.250000     48.000000
 -0.350000  0.350000  0.250000     48.000000
 -0.250000  0.350000  0.250000     48.000000
  0.450000  0.450000  0.250000     24.000000
 -0.450000  0.450000  0.250000     48.000000
 -0.350000  0.450000  0.250000     48.000000
 -0.250000  0.450000  0.250000     48.000000
 -0.450000 -0.450000  0.250000     24.000000
 -0.350000 -0.450000  0.250000     48.000000
 -0.350000 -0.350000  0.250000     24.000000
  0.350000  0.350000  0.350000      8.000000
  0.450000  0.350000  0.350000     24.000000
 -0.450000  0.350000  0.350000     24.000000
 -0.350000  0.350000  0.350000     24.000000
  0.450000  0.450000  0.350000     24.000000
 -0.450000  0.450000  0.350000     48.000000
 -0.350000  0.450000  0.350000     48.000000
 -0.450000 -0.450000  0.350000     24.000000
  0.450000  0.450000  0.450000      8.000000
 -0.450000  0.450000  0.450000     24.000000
 
 Following cartesian coordinates:
            Coordinates               Weight
  0.013440  0.013440  0.013440      8.000000
 -0.013440  0.040320  0.040320     24.000000
 -0.040320  0.067200  0.067200     24.000000
 -0.067200  0.094080  0.094080     24.000000
 -0.094080  0.120960  0.120960     24.000000
  0.147840 -0.120960 -0.120960     24.000000
  0.120960 -0.094080 -0.094080     24.000000
  0.094080 -0.067200 -0.067200     24.000000
  0.067200 -0.040320 -0.040320     24.000000
  0.040320 -0.013440 -0.013440     24.000000
  0.013440  0.013440  0.067200     24.000000
 -0.013440  0.040320  0.094080     48.000000
 -0.040320  0.067200  0.120960     48.000000
 -0.067200  0.094080  0.147840     48.000000
  0.174720 -0.147840 -0.094080     48.000000
  0.147840 -0.120960 -0.067200     48.000000
  0.120960 -0.094080 -0.040320     48.000000
  0.094080 -0.067200 -0.013440     48.000000
  0.067200 -0.040320  0.013440     48.000000
  0.013440  0.013440  0.120960     24.000000
 -0.013440  0.040320  0.147840     48.000000
 -0.040320  0.067200  0.174720     48.000000
  0.201600 -0.174720 -0.067200     48.000000
  0.174720 -0.147840 -0.040320     48.000000
  0.147840 -0.120960 -0.013440     48.000000
  0.120960 -0.094080  0.013440     48.000000
  0.094080 -0.067200  0.040320     48.000000
  0.013440  0.013440  0.174720     24.000000
 -0.013440  0.040320  0.201600     48.000000
  0.228480 -0.201600 -0.040320     48.000000
  0.201600 -0.174720 -0.013440     48.000000
  0.174720 -0.147840  0.013440     48.000000
  0.147840 -0.120960  0.040320     48.000000
  0.120960 -0.094080  0.067200     48.000000
  0.013440  0.013440  0.228480     24.000000
  0.255360 -0.228480 -0.013440     48.000000
  0.228480 -0.201600  0.013440     48.000000
  0.201600 -0.174720  0.040320     48.000000
  0.174720 -0.147840  0.067200     48.000000
  0.147840 -0.120960  0.094080     48.000000
  0.013440  0.013440 -0.255360     24.000000
 -0.013440  0.040320 -0.228480     48.000000
 -0.040320  0.067200 -0.201600     48.000000
 -0.067200  0.094080 -0.174720     48.000000
  0.013440  0.013440 -0.201600     24.000000
 -0.013440  0.040320 -0.174720     48.000000
 -0.040320  0.067200 -0.147840     48.000000
  0.013440  0.013440 -0.147840     24.000000
 -0.013440  0.040320 -0.120960     48.000000
  0.013440  0.013440 -0.094080     24.000000
  0.040320  0.040320  0.040320      8.000000
  0.013440  0.067200  0.067200     24.000000
 -0.013440  0.094080  0.094080     24.000000
 -0.040320  0.120960  0.120960     24.000000
  0.201600 -0.120960 -0.120960     24.000000
  0.174720 -0.094080 -0.094080     24.000000
  0.147840 -0.067200 -0.067200     24.000000
  0.120960 -0.040320 -0.040320     24.000000
  0.040320  0.040320  0.094080     24.000000
  0.013440  0.067200  0.120960     48.000000
 -0.013440  0.094080  0.147840     48.000000
  0.228480 -0.147840 -0.094080     48.000000
  0.201600 -0.120960 -0.067200     48.000000
  0.174720 -0.094080 -0.040320     48.000000
  0.147840 -0.067200 -0.013440     48.000000
  0.040320  0.040320  0.147840     24.000000
  0.013440  0.067200  0.174720     48.000000
  0.255360 -0.174720 -0.067200     48.000000
  0.228480 -0.147840 -0.040320     48.000000
  0.201600 -0.120960 -0.013440     48.000000
  0.174720 -0.094080  0.013440     48.000000
  0.040320  0.040320  0.201600     24.000000
  0.282240 -0.201600 -0.040320     48.000000
  0.255360 -0.174720 -0.013440     48.000000
  0.228480 -0.147840  0.013440     48.000000
  0.201600 -0.120960  0.040320     48.000000
  0.040320  0.040320 -0.282240     24.000000
  0.013440  0.067200 -0.255360     48.000000
 -0.013440  0.094080 -0.228480     48.000000
  0.040320  0.040320 -0.228480     24.000000
  0.013440  0.067200 -0.201600     48.000000
  0.040320  0.040320 -0.174720     24.000000
  0.067200  0.067200  0.067200      8.000000
  0.040320  0.094080  0.094080     24.000000
  0.013440  0.120960  0.120960     24.000000
  0.255360 -0.120960 -0.120960     24.000000
  0.228480 -0.094080 -0.094080     24.000000
  0.201600 -0.067200 -0.067200     24.000000
  0.067200  0.067200  0.120960     24.000000
  0.040320  0.094080  0.147840     48.000000
  0.282240 -0.147840 -0.094080     48.000000
  0.255360 -0.120960 -0.067200     48.000000
  0.228480 -0.094080 -0.040320     48.000000
  0.067200  0.067200  0.174720     24.000000
  0.309120 -0.174720 -0.067200     48.000000
  0.282240 -0.147840 -0.040320     48.000000
  0.255360 -0.120960 -0.013440     48.000000
  0.067200  0.067200 -0.309120     24.000000
  0.040320  0.094080 -0.282240     48.000000
  0.067200  0.067200 -0.255360     24.000000
  0.094080  0.094080  0.094080      8.000000
  0.067200  0.120960  0.120960     24.000000
  0.309120 -0.120960 -0.120960     24.000000
  0.282240 -0.094080 -0.094080     24.000000
  0.094080  0.094080  0.147840     24.000000
  0.336000 -0.147840 -0.094080     48.000000
  0.309120 -0.120960 -0.067200     48.000000
  0.094080  0.094080 -0.336000     24.000000
  0.120960  0.120960  0.120960      8.000000
  0.362880 -0.120960 -0.120960     24.000000
 


--------------------------------------------------------------------------------------------------------




 Dimension of arrays:
   k-points           NKPTS =    110   k-points in BZ     NKDIM =    110   number of bands    NBANDS=     24
   number of dos      NEDOS =    301   number of ions     NIONS =      1
   non local maximal  LDIM  =      6   non local SUM 2l+1 LMDIM =     18
   total plane-waves  NPLWV =   5832
   max r-space proj   IRMAX =      1   max aug-charges    IRDMAX=  15624
   dimension x,y,z NGX =    18 NGY =   18 NGZ =   18
   dimension x,y,z NGXF=    36 NGYF=   36 NGZF=   36
   support grid    NGXF=    36 NGYF=   36 NGZF=   36
   ions per type =               1
   NGX,Y,Z   is equivalent  to a cutoff of  11.38, 11.38, 11.38 a.u.
   NGXF,Y,Z  is equivalent  to a cutoff of  22.75, 22.75, 22.75 a.u.

 SYSTEM =  Pt-fcc                                  
 POSCAR =  Pt                                      

 Startparameter for this run:
   NWRITE =      2    write-flag & timer
   PREC   = accura    normal or accurate (medium, high low for compatibility)
   ISTART =      0    job   : 0-new  1-cont  2-samecut
   ICHARG =      2    charge: 1-file 2-atom 10-const
   ISPIN  =      1    spin polarized calculation?
   LNONCOLLINEAR =      F non collinear calculations
   LSORBIT =      F    spin-orbit coupling
   INIWAV =      1    electr: 0-lowe 1-rand  2-diag
   LASPH  =      F    aspherical Exc in radial PAW
 Electronic Relaxation 1
   ENCUT  =  425.0 eV  31.24 Ry    5.59 a.u.   4.42  4.42  4.42*2*pi/ulx,y,z
   ENINI  =  425.0     initial cutoff
   ENAUG  =  527.0 eV  augmentation charge cutoff
   NELM   =    100;   NELMIN=  2; NELMDL= -5     # of ELM steps 
   EDIFF  = 0.1E-05   stopping-criterion for ELM
   LREAL  =      F    real-space projection
   NLSPLINE    = F    spline interpolate recip. space projectors
   LCOMPAT=      F    compatible to vasp.4.4
   GGA_COMPAT  = T    GGA compatible to vasp.4.4-vasp.4.6
   LMAXPAW     = -100 max onsite density
   LMAXMIX     =    2 max onsite mixed and CHGCAR
   VOSKOWN=      0    Vosko Wilk Nusair interpolation
   ROPT   =    0.00000
 Ionic relaxation
   EDIFFG = -.2E-01   stopping-criterion for IOM
   NSW    =    100    number of steps for IOM
   NBLOCK =      1;   KBLOCK =    100    inner block; outer block 
   IBRION =      2    ionic relax: 0-MD 1-quasi-New 2-CG
   NFREE  =      1    steps in history (QN), initial steepest desc. (CG)
   ISIF   =      2    stress and relaxation
   IWAVPR =     11    prediction:  0-non 1-charg 2-wave 3-comb
   ISYM   =      1    0-nonsym 1-usesym 2-fastsym
   LCORR  =      T    Harris-Foulkes like correction to forces

   POTIM  = 0.5000    time-step for ionic-motion
   TEIN   =    0.0    initial temperature
   TEBEG  =    0.0;   TEEND  =   0.0 temperature during run
   SMASS  =  -3.00    Nose mass-parameter (am)
   estimated Nose-frequenzy (Omega)   =  0.10E-29 period in steps = 0.13E+47 mass=  -0.158E-27a.u.
   SCALEE = 1.0000    scale energy and forces
   NPACO  =    256;   APACO  = 10.0  distance and # of slots for P.C.
   PSTRESS=    0.0 pullay stress

  Mass of Ions in am
   POMASS = 195.08
  Ionic Valenz
   ZVAL   =  16.00
  Atomic Wigner-Seitz radii
   RWIGS  =  -1.00
  virtual crystal weights 
   VCA    =   1.00
   NELECT =      16.0000    total number of electrons
   NUPDOWN=      -1.0000    fix difference up-down

 DOS related values:
   EMIN   =  10.00;   EMAX   =-10.00  energy-range for DOS
   EFERMI =   0.00
   ISMEAR =     0;   SIGMA  =   0.05  broadening in eV -4-tet -1-fermi 0-gaus

 Electronic relaxation 2 (details)
   IALGO  =     38    algorithm
   LDIAG  =      T    sub-space diagonalisation (order eigenvalues)
   LSUBROT=      F    optimize rotation matrix (better conditioning)
   TURBO    =      0    0=normal 1=particle mesh
   IRESTART =      0    0=no restart 2=restart with 2 vectors
   NREBOOT  =      0    no. of reboots
   NMIN     =      0    reboot dimension
   EREF     =   0.00    reference energy to select bands
   IMIX   =      4    mixing-type and parameters
     AMIX     =   0.40;   BMIX     =  1.00
     AMIX_MAG =   1.60;   BMIX_MAG =  1.00
     AMIN     =   0.10
     WC   =   100.;   INIMIX=   1;  MIXPRE=   1;  MAXMIX= -45

 Intra band minimization:
   WEIMIN = 0.0010     energy-eigenvalue tresh-hold
   EBREAK =  0.10E-07  absolut break condition
   DEPER  =   0.30     relativ break condition  

   TIME   =   0.40     timestep for ELM

  volume/ion in A,a.u.               =      12.87        86.87
  Fermi-wavevector in a.u.,A,eV,Ry     =   1.760210  3.326314 42.155448  3.098338
  Thomas-Fermi vector in A             =   2.829020
 
 Write flags
   LWAVE        =      T    write WAVECAR
   LDOWNSAMPLE  =      F    k-point downsampling of WAVECAR
   LCHARG       =      T    write CHGCAR
   LVTOT        =      F    write LOCPOT, total local potential
   LVHAR        =      F    write LOCPOT, Hartree potential only
   LELF         =      F    write electronic localiz. function (ELF)
   LORBIT       =     11    0 simple, 1 ext, 2 COOP (PROOUT), +10 PAW based schemes


 Dipole corrections
   LMONO  =      F    monopole corrections only (constant potential shift)
   LDIPOL =      F    correct potential (dipole corrections)
   IDIPOL =      0    1-x, 2-y, 3-z, 4-all directions 
   EPSILON=  1.0000000 bulk dielectric constant

 Exchange correlation treatment:
   GGA     =    --    GGA type
   LEXCH   =     8    internal setting for exchange type
   LIBXC   =     F    Libxc                    
   VOSKOWN =     0    Vosko Wilk Nusair interpolation
   LHFCALC =     F    Hartree Fock is set to
   LHFONE  =     F    Hartree Fock one center treatment
   AEXX    =    0.0000 exact exchange contribution

 Linear response parameters
   LEPSILON=     F    determine dielectric tensor
   LRPA    =     F    only Hartree local field effects (RPA)
   LNABLA  =     F    use nabla operator in PAW spheres
   LVEL    =     F    velocity operator in full k-point grid
   CSHIFT  =0.1000    complex shift for real part using Kramers Kronig
   OMEGAMAX=  -1.0    maximum frequency
   DEG_THRESHOLD= 0.2000000E-02 threshold for treating states as degnerate
   RTIME   =   -0.100 relaxation time in fs
  (WPLASMAI=    0.000 imaginary part of plasma frequency in eV, 0.658/RTIME)
   DFIELD  = 0.0000000 0.0000000 0.0000000 field for delta impulse in time
 
  Optional k-point grid parameters
   LKPOINTS_OPT  =     F    use optional k-point grid
   KPOINTS_OPT_MODE=     1    mode for optional k-point grid
 
 Orbital magnetization related:
   ORBITALMAG=     F  switch on orbital magnetization
   LCHIMAG   =     F  perturbation theory with respect to B field
   DQ        =  0.001000  dq finite difference perturbation B field
   LLRAUG    =     F  two centre corrections for induced B field



--------------------------------------------------------------------------------------------------------


 conjugate gradient relaxation of ions
 charge density and potential will be updated during run
 non-spin polarized calculation
 Variant of blocked Davidson
 Davidson routine will perform the subspace rotation
 perform sub-space diagonalisation
    after iterative eigenvector-optimisation
 modified Broyden-mixing scheme, WC =      100.0
 initial mixing is a Kerker type mixing with AMIX =  0.4000 and BMIX =      1.0000
 Hartree-type preconditioning will be used
 using additional bands           16
 reciprocal scheme for non local part
 use partial core corrections
 calculate Harris-corrections to forces 
   (improved forces if not selfconsistent)
 use gradient corrections 
 use of overlap-Matrix (Vanderbilt PP)
 Gauss-broadening in eV      SIGMA  =   0.05


--------------------------------------------------------------------------------------------------------


  energy-cutoff  :      425.00
  volume of cell :       12.87
      direct lattice vectors                 reciprocal lattice vectors
     0.000000000  1.860117712  1.860117712    -0.268800193  0.268800193  0.268800193
     1.860117712  0.000000000  1.860117712     0.268800193 -0.268800193  0.268800193
     1.860117712  1.860117712  0.000000000     0.268800193  0.268800193 -0.268800193

  length of vectors
     2.630603695  2.630603695  2.630603695     0.465575591  0.465575591  0.465575591


 
 k-points in units of 2pi/SCALE and weight: Automatic mesh                          
   0.01344001  0.01344001  0.01344001       0.002
  -0.01344001  0.04032003  0.04032003       0.006
  -0.04032003  0.06720005  0.06720005       0.006
  -0.06720005  0.09408007  0.09408007       0.006
  -0.09408007  0.12096009  0.12096009       0.006
   0.14784011 -0.12096009 -0.12096009       0.006
   0.12096009 -0.09408007 -0.09408007       0.006
   0.09408007 -0.06720005 -0.06720005       0.006
   0.06720005 -0.04032003 -0.04032003       0.006
   0.04032003 -0.01344001 -0.01344001       0.006
   0.01344001  0.01344001  0.06720005       0.006
  -0.01344001  0.04032003  0.09408007       0.012
  -0.04032003  0.06720005  0.12096009       0.012
  -0.06720005  0.09408007  0.14784011       0.012
   0.17472013 -0.14784011 -0.09408007       0.012
   0.14784011 -0.12096009 -0.06720005       0.012
   0.12096009 -0.09408007 -0.04032003       0.012
   0.09408007 -0.06720005 -0.01344001       0.012
   0.06720005 -0.04032003  0.01344001       0.012
   0.01344001  0.01344001  0.12096009       0.006
  -0.01344001  0.04032003  0.14784011       0.012
  -0.04032003  0.06720005  0.17472013       0.012
   0.20160014 -0.17472013 -0.06720005       0.012
   0.17472013 -0.14784011 -0.04032003       0.012
   0.14784011 -0.12096009 -0.01344001       0.012
   0.12096009 -0.09408007  0.01344001       0.012
   0.09408007 -0.06720005  0.04032003       0.012
   0.01344001  0.01344001  0.17472013       0.006
  -0.01344001  0.04032003  0.20160014       0.012
   0.22848016 -0.20160014 -0.04032003       0.012
   0.20160014 -0.17472013 -0.01344001       0.012
   0.17472013 -0.14784011  0.01344001       0.012
   0.14784011 -0.12096009  0.04032003       0.012
   0.12096009 -0.09408007  0.06720005       0.012
   0.01344001  0.01344001  0.22848016       0.006
   0.25536018 -0.22848016 -0.01344001       0.012
   0.22848016 -0.20160014  0.01344001       0.012
   0.20160014 -0.17472013  0.04032003       0.012
   0.17472013 -0.14784011  0.06720005       0.012
   0.14784011 -0.12096009  0.09408007       0.012
   0.01344001  0.01344001 -0.25536018       0.006
  -0.01344001  0.04032003 -0.22848016       0.012
  -0.04032003  0.06720005 -0.20160014       0.012
  -0.06720005  0.09408007 -0.17472013       0.012
   0.01344001  0.01344001 -0.20160014       0.006
  -0.01344001  0.04032003 -0.17472013       0.012
  -0.04032003  0.06720005 -0.14784011       0.012
   0.01344001  0.01344001 -0.14784011       0.006
  -0.01344001  0.04032003 -0.12096009       0.012
   0.01344001  0.01344001 -0.09408007       0.006
   0.04032003  0.04032003  0.04032003       0.002
   0.01344001  0.06720005  0.06720005       0.006
  -0.01344001  0.09408007  0.09408007       0.006
  -0.04032003  0.12096009  0.12096009       0.006
   0.20160014 -0.12096009 -0.12096009       0.006
   0.17472013 -0.09408007 -0.09408007       0.006
   0.14784011 -0.06720005 -0.06720005       0.006
   0.12096009 -0.04032003 -0.04032003       0.006
   0.04032003  0.04032003  0.09408007       0.006
   0.01344001  0.06720005  0.12096009       0.012
  -0.01344001  0.09408007  0.14784011       0.012
   0.22848016 -0.14784011 -0.09408007       0.012
   0.20160014 -0.12096009 -0.06720005       0.012
   0.17472013 -0.09408007 -0.04032003       0.012
   0.14784011 -0.06720005 -0.01344001       0.012
   0.04032003  0.04032003  0.14784011       0.006
   0.01344001  0.06720005  0.17472013       0.012
   0.25536018 -0.17472013 -0.06720005       0.012
   0.22848016 -0.14784011 -0.04032003       0.012
   0.20160014 -0.12096009 -0.01344001       0.012
   0.17472013 -0.09408007  0.01344001       0.012
   0.04032003  0.04032003  0.20160014       0.006
   0.28224020 -0.20160014 -0.04032003       0.012
   0.25536018 -0.17472013 -0.01344001       0.012
   0.22848016 -0.14784011  0.01344001       0.012
   0.20160014 -0.12096009  0.04032003       0.012
   0.04032003  0.04032003 -0.28224020       0.006
   0.01344001  0.06720005 -0.25536018       0.012
  -0.01344001  0.09408007 -0.22848016       0.012
   0.04032003  0.04032003 -0.22848016       0.006
   0.01344001  0.06720005 -0.20160014       0.012
   0.04032003  0.04032003 -0.17472013       0.006
   0.06720005  0.06720005  0.06720005       0.002
   0.04032003  0.09408007  0.09408007       0.006
   0.01344001  0.12096009  0.12096009       0.006
   0.25536018 -0.12096009 -0.12096009       0.006
   0.22848016 -0.09408007 -0.09408007       0.006
   0.20160014 -0.06720005 -0.06720005       0.006
   0.06720005  0.06720005  0.12096009       0.006
   0.04032003  0.09408007  0.14784011       0.012
   0.28224020 -0.14784011 -0.09408007       0.012
   0.25536018 -0.12096009 -0.06720005       0.012
   0.22848016 -0.09408007 -0.04032003       0.012
   0.06720005  0.06720005  0.17472013       0.006
   0.30912022 -0.17472013 -0.06720005       0.012
   0.28224020 -0.14784011 -0.04032003       0.012
   0.25536018 -0.12096009 -0.01344001       0.012
   0.06720005  0.06720005 -0.30912022       0.006
   0.04032003  0.09408007 -0.28224020       0.012
   0.06720005  0.06720005 -0.25536018       0.006
   0.09408007  0.09408007  0.09408007       0.002
   0.06720005  0.12096009  0.12096009       0.006
   0.30912022 -0.12096009 -0.12096009       0.006
   0.28224020 -0.09408007 -0.09408007       0.006
   0.09408007  0.09408007  0.14784011       0.006
   0.33600024 -0.14784011 -0.09408007       0.012
   0.30912022 -0.12096009 -0.06720005       0.012
   0.09408007  0.09408007 -0.33600024       0.006
   0.12096009  0.12096009  0.12096009       0.002
   0.36288026 -0.12096009 -0.12096009       0.006
 
 k-points in reciprocal lattice and weights: Automatic mesh                          
   0.05000000  0.05000000  0.05000000       0.002
   0.15000000  0.05000000  0.05000000       0.006
   0.25000000  0.05000000  0.05000000       0.006
   0.35000000  0.05000000  0.05000000       0.006
   0.45000000  0.05000000  0.05000000       0.006
  -0.45000000  0.05000000  0.05000000       0.006
  -0.35000000  0.05000000  0.05000000       0.006
  -0.25000000  0.05000000  0.05000000       0.006
  -0.15000000  0.05000000  0.05000000       0.006
  -0.05000000  0.05000000  0.05000000       0.006
   0.15000000  0.15000000  0.05000000       0.006
   0.25000000  0.15000000  0.05000000       0.012
   0.35000000  0.15000000  0.05000000       0.012
   0.45000000  0.15000000  0.05000000       0.012
  -0.45000000  0.15000000  0.05000000       0.012
  -0.35000000  0.15000000  0.05000000       0.012
  -0.25000000  0.15000000  0.05000000       0.012
  -0.15000000  0.15000000  0.05000000       0.012
  -0.05000000  0.15000000  0.05000000       0.012
   0.25000000  0.25000000  0.05000000       0.006
   0.35000000  0.25000000  0.05000000       0.012
   0.45000000  0.25000000  0.05000000       0.012
  -0.45000000  0.25000000  0.05000000       0.012
  -0.35000000  0.25000000  0.05000000       0.012
  -0.25000000  0.25000000  0.05000000       0.012
  -0.15000000  0.25000000  0.05000000       0.012
  -0.05000000  0.25000000  0.05000000       0.012
   0.35000000  0.35000000  0.05000000       0.006
   0.45000000  0.35000000  0.05000000       0.012
  -0.45000000  0.35000000  0.05000000       0.012
  -0.35000000  0.35000000  0.05000000       0.012
  -0.25000000  0.35000000  0.05000000       0.012
  -0.15000000  0.35000000  0.05000000       0.012
  -0.05000000  0.35000000  0.05000000       0.012
   0.45000000  0.45000000  0.05000000       0.006
  -0.45000000  0.45000000  0.05000000       0.012
  -0.35000000  0.45000000  0.05000000       0.012
  -0.25000000  0.45000000  0.05000000       0.012
  -0.15000000  0.45000000  0.05000000       0.012
  -0.05000000  0.45000000  0.05000000       0.012
  -0.45000000 -0.45000000  0.05000000       0.006
  -0.35000000 -0.45000000  0.05000000       0.012
  -0.25000000 -0.45000000  0.05000000       0.012
  -0.15000000 -0.45000000  0.05000000       0.012
  -0.35000000 -0.35000000  0.05000000       0.006
  -0.25000000 -0.35000000  0.05000000       0.012
  -0.15000000 -0.35000000  0.05000000       0.012
  -0.25000000 -0.25000000  0.05000000       0.006
  -0.15000000 -0.25000000  0.05000000       0.012
  -0.15000000 -0.15000000  0.05000000       0.006
   0.15000000  0.15000000  0.15000000       0.002
   0.25000000  0.15000000  0.15000000       0.006
   0.35000000  0.15000000  0.15000000       0.006
   0.45000000  0.15000000  0.15000000       0.006
  -0.45000000  0.15000000  0.15000000       0.006
  -0.35000000  0.15000000  0.15000000       0.006
  -0.25000000  0.15000000  0.15000000       0.006
  -0.15000000  0.15000000  0.15000000       0.006
   0.25000000  0.25000000  0.15000000       0.006
   0.35000000  0.25000000  0.15000000       0.012
   0.45000000  0.25000000  0.15000000       0.012
  -0.45000000  0.25000000  0.15000000       0.012
  -0.35000000  0.25000000  0.15000000       0.012
  -0.25000000  0.25000000  0.15000000       0.012
  -0.15000000  0.25000000  0.15000000       0.012
   0.35000000  0.35000000  0.15000000       0.006
   0.45000000  0.35000000  0.15000000       0.012
  -0.45000000  0.35000000  0.15000000       0.012
  -0.35000000  0.35000000  0.15000000       0.012
  -0.25000000  0.35000000  0.15000000       0.012
  -0.15000000  0.35000000  0.15000000       0.012
   0.45000000  0.45000000  0.15000000       0.006
  -0.45000000  0.45000000  0.15000000       0.012
  -0.35000000  0.45000000  0.15000000       0.012
  -0.25000000  0.45000000  0.15000000       0.012
  -0.15000000  0.45000000  0.15000000       0.012
  -0.45000000 -0.45000000  0.15000000       0.006
  -0.35000000 -0.45000000  0.15000000       0.012
  -0.25000000 -0.45000000  0.15000000       0.012
  -0.35000000 -0.35000000  0.15000000       0.006
  -0.25000000 -0.35000000  0.15000000       0.012
  -0.25000000 -0.25000000  0.15000000       0.006
   0.25000000  0.25000000  0.25000000       0.002
   0.35000000  0.25000000  0.25000000       0.006
   0.45000000  0.25000000  0.25000000       0.006
  -0.45000000  0.25000000  0.25000000       0.006
  -0.35000000  0.25000000  0.25000000       0.006
  -0.25000000  0.25000000  0.25000000       0.006
   0.35000000  0.35000000  0.25000000       0.006
   0.45000000  0.35000000  0.25000000       0.012
  -0.45000000  0.35000000  0.25000000       0.012
  -0.35000000  0.35000000  0.25000000       0.012
  -0.25000000  0.35000000  0.25000000       0.012
   0.45000000  0.45000000  0.25000000       0.006
  -0.45000000  0.45000000  0.25000000       0.012
  -0.35000000  0.45000000  0.25000000       0.012
  -0.25000000  0.45000000  0.25000000       0.012
  -0.45000000 -0.45000000  0.25000000       0.006
  -0.35000000 -0.45000000  0.25000000       0.012
  -0.35000000 -0.35000000  0.25000000       0.006
   0.35000000  0.35000000  0.35000000       0.002
   0.45000000  0.35000000  0.35000000       0.006
  -0.45000000  0.35000000  0.35000000       0.006
  -0.35000000  0.35000000  0.35000000       0.006
   0.45000000  0.45000000  0.35000000       0.006
  -0.45000000  0.45000000  0.35000000       0.012
  -0.35000000  0.45000000  0.35000000       0.012
  -0.45000000 -0.45000000  0.35000000       0.006
   0.45000000  0.45000000  0.45000000       0.002
  -0.45000000  0.45000000  0.45000000       0.006
 
 position of ions in fractional coordinates (direct lattice) 
   0.00000000  0.00000000  0.00000000
 
 position of ions in cartesian coordinates  (Angst):
   0.00000000  0.00000000  0.00000000
 


--------------------------------------------------------------------------------------------------------


 k-point   1 :   0.0500 0.0500 0.0500  plane waves:     259
 k-point   2 :   0.1500 0.0500 0.0500  plane waves:     269
 k-point   3 :   0.2500 0.0500 0.0500  plane waves:     264
 k-point   4 :   0.3500 0.0500 0.0500  plane waves:     256
 k-point   5 :   0.4500 0.0500 0.0500  plane waves:     258
 k-point   6 :  -0.4500 0.0500 0.0500  plane waves:     258
 k-point   7 :  -0.3500 0.0500 0.0500  plane waves:     260
 k-point   8 :  -0.2500 0.0500 0.0500  plane waves:     259
 k-point   9 :  -0.1500 0.0500 0.0500  plane waves:     266
 k-point  10 :  -0.0500 0.0500 0.0500  plane waves:     265
 k-point  11 :   0.1500 0.1500 0.0500  plane waves:     265
 k-point  12 :   0.2500 0.1500 0.0500  plane waves:     261
 k-point  13 :   0.3500 0.1500 0.0500  plane waves:     259
 k-point  14 :   0.4500 0.1500 0.0500  plane waves:     258
 k-point  15 :  -0.4500 0.1500 0.0500  plane waves:     253
 k-point  16 :  -0.3500 0.1500 0.0500  plane waves:     255
 k-point  17 :  -0.2500 0.1500 0.0500  plane waves:     259
 k-point  18 :  -0.1500 0.1500 0.0500  plane waves:     262
 k-point  19 :  -0.0500 0.1500 0.0500  plane waves:     267
 k-point  20 :   0.2500 0.2500 0.0500  plane waves:     256
 k-point  21 :   0.3500 0.2500 0.0500  plane waves:     257
 k-point  22 :   0.4500 0.2500 0.0500  plane waves:     252
 k-point  23 :  -0.4500 0.2500 0.0500  plane waves:     253
 k-point  24 :  -0.3500 0.2500 0.0500  plane waves:     253
 k-point  25 :  -0.2500 0.2500 0.0500  plane waves:     256
 k-point  26 :  -0.1500 0.2500 0.0500  plane waves:     261
 k-point  27 :  -0.0500 0.2500 0.0500  plane waves:     258
 k-point  28 :   0.3500 0.3500 0.0500  plane waves:     255
 k-point  29 :   0.4500 0.3500 0.0500  plane waves:     254
 k-point  30 :  -0.4500 0.3500 0.0500  plane waves:     254
 k-point  31 :  -0.3500 0.3500 0.0500  plane waves:     257
 k-point  32 :  -0.2500 0.3500 0.0500  plane waves:     255
 k-point  33 :  -0.1500 0.3500 0.0500  plane waves:     255
 k-point  34 :  -0.0500 0.3500 0.0500  plane waves:     258
 k-point  35 :   0.4500 0.4500 0.0500  plane waves:     248
 k-point  36 :  -0.4500 0.4500 0.0500  plane waves:     250
 k-point  37 :  -0.3500 0.4500 0.0500  plane waves:     255
 k-point  38 :  -0.2500 0.4500 0.0500  plane waves:     252
 k-point  39 :  -0.1500 0.4500 0.0500  plane waves:     253
 k-point  40 :  -0.0500 0.4500 0.0500  plane waves:     256
 k-point  41 :  -0.4500-0.4500 0.0500  plane waves:     254
 k-point  42 :  -0.3500-0.4500 0.0500  plane waves:     248
 k-point  43 :  -0.2500-0.4500 0.0500  plane waves:     252
 k-point  44 :  -0.1500-0.4500 0.0500  plane waves:     255
 k-point  45 :  -0.3500-0.3500 0.0500  plane waves:     251
 k-point  46 :  -0.2500-0.3500 0.0500  plane waves:     255
 k-point  47 :  -0.1500-0.3500 0.0500  plane waves:     255
 k-point  48 :  -0.2500-0.2500 0.0500  plane waves:     255
 k-point  49 :  -0.1500-0.2500 0.0500  plane waves:     259
 k-point  50 :  -0.1500-0.1500 0.0500  plane waves:     261
 k-point  51 :   0.1500 0.1500 0.1500  plane waves:     271
 k-point  52 :   0.2500 0.1500 0.1500  plane waves:     263
 k-point  53 :   0.3500 0.1500 0.1500  plane waves:     262
 k-point  54 :   0.4500 0.1500 0.1500  plane waves:     256
 k-point  55 :  -0.4500 0.1500 0.1500  plane waves:     254
 k-point  56 :  -0.3500 0.1500 0.1500  plane waves:     253
 k-point  57 :  -0.2500 0.1500 0.1500  plane waves:     257
 k-point  58 :  -0.1500 0.1500 0.1500  plane waves:     259
 k-point  59 :   0.2500 0.2500 0.1500  plane waves:     263
 k-point  60 :   0.3500 0.2500 0.1500  plane waves:     261
 k-point  61 :   0.4500 0.2500 0.1500  plane waves:     259
 k-point  62 :  -0.4500 0.2500 0.1500  plane waves:     257
 k-point  63 :  -0.3500 0.2500 0.1500  plane waves:     252
 k-point  64 :  -0.2500 0.2500 0.1500  plane waves:     256
 k-point  65 :  -0.1500 0.2500 0.1500  plane waves:     259
 k-point  66 :   0.3500 0.3500 0.1500  plane waves:     256
 k-point  67 :   0.4500 0.3500 0.1500  plane waves:     256
 k-point  68 :  -0.4500 0.3500 0.1500  plane waves:     254
 k-point  69 :  -0.3500 0.3500 0.1500  plane waves:     256
 k-point  70 :  -0.2500 0.3500 0.1500  plane waves:     254
 k-point  71 :  -0.1500 0.3500 0.1500  plane waves:     255
 k-point  72 :   0.4500 0.4500 0.1500  plane waves:     251
 k-point  73 :  -0.4500 0.4500 0.1500  plane waves:     250
 k-point  74 :  -0.3500 0.4500 0.1500  plane waves:     256
 k-point  75 :  -0.2500 0.4500 0.1500  plane waves:     255
 k-point  76 :  -0.1500 0.4500 0.1500  plane waves:     254
 k-point  77 :  -0.4500-0.4500 0.1500  plane waves:     255
 k-point  78 :  -0.3500-0.4500 0.1500  plane waves:     252
 k-point  79 :  -0.2500-0.4500 0.1500  plane waves:     251
 k-point  80 :  -0.3500-0.3500 0.1500  plane waves:     251
 k-point  81 :  -0.2500-0.3500 0.1500  plane waves:     253
 k-point  82 :  -0.2500-0.2500 0.1500  plane waves:     255
 k-point  83 :   0.2500 0.2500 0.2500  plane waves:     259
 k-point  84 :   0.3500 0.2500 0.2500  plane waves:     260
 k-point  85 :   0.4500 0.2500 0.2500  plane waves:     258
 k-point  86 :  -0.4500 0.2500 0.2500  plane waves:     254
 k-point  87 :  -0.3500 0.2500 0.2500  plane waves:     253
 k-point  88 :  -0.2500 0.2500 0.2500  plane waves:     253
 k-point  89 :   0.3500 0.3500 0.2500  plane waves:     261
 k-point  90 :   0.4500 0.3500 0.2500  plane waves:     256
 k-point  91 :  -0.4500 0.3500 0.2500  plane waves:     253
 k-point  92 :  -0.3500 0.3500 0.2500  plane waves:     256
 k-point  93 :  -0.2500 0.3500 0.2500  plane waves:     255
 k-point  94 :   0.4500 0.4500 0.2500  plane waves:     254
 k-point  95 :  -0.4500 0.4500 0.2500  plane waves:     253
 k-point  96 :  -0.3500 0.4500 0.2500  plane waves:     256
 k-point  97 :  -0.2500 0.4500 0.2500  plane waves:     258
 k-point  98 :  -0.4500-0.4500 0.2500  plane waves:     255
 k-point  99 :  -0.3500-0.4500 0.2500  plane waves:     257
 k-point 100 :  -0.3500-0.3500 0.2500  plane waves:     255
 k-point 101 :   0.3500 0.3500 0.3500  plane waves:     256
 k-point 102 :   0.4500 0.3500 0.3500  plane waves:     253
 k-point 103 :  -0.4500 0.3500 0.3500  plane waves:     254
 k-point 104 :  -0.3500 0.3500 0.3500  plane waves:     259
 k-point 105 :   0.4500 0.4500 0.3500  plane waves:     257
 k-point 106 :  -0.4500 0.4500 0.3500  plane waves:     252
 k-point 107 :  -0.3500 0.4500 0.3500  plane waves:     253
 k-point 108 :  -0.4500-0.4500 0.3500  plane waves:     254
 k-point 109 :   0.4500 0.4500 0.4500  plane waves:     254
 k-point 110 :  -0.4500 0.4500 0.4500  plane waves:     256

 maximum and minimum number of plane-waves per node :       271      248

 maximum number of plane-waves:       271
 maximum index in each direction: 
   IXMAX=    4   IYMAX=    4   IZMAX=    4
   IXMIN=   -4   IYMIN=   -4   IZMIN=   -4


 serial   3D FFT for wavefunctions
 parallel 3D FFT for charge:
    minimum data exchange during FFTs selected (reduces bandwidth)


 total amount of memory used by VASP MPI-rank0    35610. kBytes
=======================================================================

   base      :      30000. kBytes
   nonl-proj :       4566. kBytes
   fftplans  :        113. kBytes
   grid      :        367. kBytes
   one-center:         15. kBytes
   wavefun   :        549. kBytes
 
     INWAV:  cpu time      0.0000: real time      0.0003
 Broyden mixing: mesh for mixing (old mesh)
   NGX =  9   NGY =  9   NGZ =  9
  (NGX  = 36   NGY  = 36   NGZ  = 36)
  gives a total of    729 points

 initial charge density was supplied:
 charge density of overlapping atoms calculated
 number of electron      16.0000000 magnetization 
 keeping initial charge density in first step


--------------------------------------------------------------------------------------------------------


 Maximum index for augmentation-charges          986 (set IRDMAX)


--------------------------------------------------------------------------------------------------------


 First call to EWALD:  gamma=   0.756
 Maximum number of real-space cells 3x 3x 3
 Maximum number of reciprocal cells 3x 3x 3

    FEWALD:  cpu time      0.0014: real time      0.0014


--------------------------------------- Iteration      1(   1)  ---------------------------------------


    POTLOK:  cpu time      0.0029: real time      0.0038
    SETDIJ:  cpu time      0.0022: real time      0.0023
     EDDAV:  cpu time      0.4832: real time      0.4859
       DOS:  cpu time      0.0010: real time      0.0010
    --------------------------------------------
      LOOP:  cpu time      0.4894: real time      0.4930

 eigenvalue-minimisations  :  6096
 total energy-change (2. order) : 0.1293253E+02  (-0.1185405E+04)
 number of electron      16.0000000 magnetization 
 augmentation part       16.0000000 magnetization 

 Free energy of the ion-electron system (eV)
  ---------------------------------------------------
  alpha Z        PSCENC =       186.39601950
  Ewald energy   TEWEN  =     -2271.54787490
  -Hartree energ DENC   =      -342.27416573
  -exchange      EXHF   =         0.00000000
  -V(xc)+E(xc)   XCENC  =        64.80233004
  PAW double counting   =      2065.75261637    -2030.83594803
  entropy T*S    EENTRO =        -0.00073790
  eigenvalues    EBANDS =       -87.55472369
  atomic energy  EATOM  =      2428.19501064
  Solvation  Ediel_sol  =         0.00000000
  ---------------------------------------------------
  free energy    TOTEN  =        12.93252630 eV

  energy without entropy =       12.93326420  energy(sigma->0) =       12.93289525


--------------------------------------------------------------------------------------------------------




--------------------------------------- Iteration      1(   2)  ---------------------------------------


     EDDAV:  cpu time      0.6070: real time      0.6111
       DOS:  cpu time      0.0005: real time      0.0005
    --------------------------------------------
      LOOP:  cpu time      0.6075: real time      0.6116

 eigenvalue-minimisations  :  7008
 total energy-change (2. order) :-0.1871211E+02  (-0.1843174E+02)
 number of electron      16.0000000 magnetization 
 augmentation part       16.0000000 magnetization 

 Free energy of the ion-electron system (eV)
  ---------------------------------------------------
  alpha Z        PSCENC =       186.39601950
  Ewald energy   TEWEN  =     -2271.54787490
  -Hartree energ DENC   =      -342.27416573
  -exchange      EXHF   =         0.00000000
  -V(xc)+E(xc)   XCENC  =        64.80233004
  PAW double counting   =      2065.75261637    -2030.83594803
  entropy T*S    EENTRO =        -0.00142642
  eigenvalues    EBANDS =      -106.26614409
  atomic energy  EATOM  =      2428.19501064
  Solvation  Ediel_sol  =         0.00000000
  ---------------------------------------------------
  free energy    TOTEN  =        -5.77958261 eV

  energy without entropy =       -5.77815619  energy(sigma->0) =       -5.77886940


--------------------------------------------------------------------------------------------------------




--------------------------------------- Iteration      1(   3)  ---------------------------------------


     EDDAV:  cpu time      0.6394: real time      0.6430
       DOS:  cpu time      0.0005: real time      0.0005
    --------------------------------------------
      LOOP:  cpu time      0.6398: real time      0.6435

 eigenvalue-minimisations  :  6936
 total energy-change (2. order) :-0.1953901E-01  (-0.1953881E-01)
 number of electron      16.0000000 magnetization 
 augmentation part       16.0000000 magnetization 

 Free energy of the ion-electron system (eV)
  ---------------------------------------------------
  alpha Z        PSCENC =       186.39601950
  Ewald energy   TEWEN  =     -2271.54787490
  -Hartree energ DENC   =      -342.27416573
  -exchange      EXHF   =         0.00000000
  -V(xc)+E(xc)   XCENC  =        64.80233004
  PAW double counting   =      2065.75261637    -2030.83594803
  entropy T*S    EENTRO =        -0.00142769
  eigenvalues    EBANDS =      -106.28568182
  atomic energy  EATOM  =      2428.19501064
  Solvation  Ediel_sol  =         0.00000000
  ---------------------------------------------------
  free energy    TOTEN  =        -5.79912162 eV

  energy without entropy =       -5.79769393  energy(sigma->0) =       -5.79840777


--------------------------------------------------------------------------------------------------------




--------------------------------------- Iteration      1(   4)  ---------------------------------------


     EDDAV:  cpu time      0.8217: real time      0.8267
       DOS:  cpu time      0.0005: real time      0.0005
    --------------------------------------------
      LOOP:  cpu time      0.8222: real time      0.8272

 eigenvalue-minimisations  :  8088
 total energy-change (2. order) :-0.9547257E-05  (-0.9546292E-05)
 number of electron      16.0000000 magnetization 
 augmentation part       16.0000000 magnetization 

 Free energy of the ion-electron system (eV)
  ---------------------------------------------------
  alpha Z        PSCENC =       186.39601950
  Ewald energy   TEWEN  =     -2271.54787490
  -Hartree energ DENC   =      -342.27416573
  -exchange      EXHF   =         0.00000000
  -V(xc)+E(xc)   XCENC  =        64.80233004
  PAW double counting   =      2065.75261637    -2030.83594803
  entropy T*S    EENTRO =        -0.00142769
  eigenvalues    EBANDS =      -106.28569137
  atomic energy  EATOM  =      2428.19501064
  Solvation  Ediel_sol  =         0.00000000
  ---------------------------------------------------
  free energy    TOTEN  =        -5.79913117 eV

  energy without entropy =       -5.79770347  energy(sigma->0) =       -5.79841732


--------------------------------------------------------------------------------------------------------




--------------------------------------- Iteration      1(   5)  ---------------------------------------


     EDDAV:  cpu time      0.6785: real time      0.6821
       DOS:  cpu time      0.0005: real time      0.0005
    CHARGE:  cpu time      0.0120: real time      0.0121
    MIXING:  cpu time      0.0002: real time      0.0002
    --------------------------------------------
      LOOP:  cpu time      0.6912: real time      0.6949

 eigenvalue-minimisations  :  7128
 total energy-change (2. order) : 0.1632998E-08  (-0.1670142E-09)
 number of electron      15.9999997 magnetization 
 augmentation part        4.0021198 magnetization 

 Broyden mixing:
  rms(total) = 0.22743E+01    rms(broyden)= 0.22742E+01
  rms(prec ) = 0.26324E+01
  weight for this iteration     100.00

 Free energy of the ion-electron system (eV)
  ---------------------------------------------------
  alpha Z        PSCENC =       186.39601950
  Ewald energy   TEWEN  =     -2271.54787490
  -Hartree energ DENC   =      -342.27416573
  -exchange      EXHF   =         0.00000000
  -V(xc)+E(xc)   XCENC  =        64.80233004
  PAW double counting   =      2065.75261637    -2030.83594803
  entropy T*S    EENTRO =        -0.00142769
  eigenvalues    EBANDS =      -106.28569137
  atomic energy  EATOM  =      2428.19501064
  Solvation  Ediel_sol  =         0.00000000
  ---------------------------------------------------
  free energy    TOTEN  =        -5.79913116 eV

  energy without entropy =       -5.79770347  energy(sigma->0) =       -5.79841732


--------------------------------------------------------------------------------------------------------




--------------------------------------- Iteration      1(   6)  ---------------------------------------


    POTLOK:  cpu time      0.0023: real time      0.0025
    SETDIJ:  cpu time      0.0020: real time      0.0020
     EDDAV:  cpu time      0.5037: real time      0.5066
       DOS:  cpu time      0.0005: real time      0.0005
    CHARGE:  cpu time      0.0115: real time      0.0115
    MIXING:  cpu time      0.0002: real time      0.0002
    --------------------------------------------
      LOOP:  cpu time      0.5202: real time      0.5233

 eigenvalue-minimisations  :  6144
 total energy-change (2. order) : 0.2718751E+00  (-0.7850543E-01)
 number of electron      15.9999997 magnetization 
 augmentation part        4.0889315 magnetization 

 Broyden mixing:
  rms(total) = 0.95387E+00    rms(broyden)= 0.95387E+00
  rms(prec ) = 0.10365E+01
  weight for this iteration     100.00

 eigenvalues of (default mixing * dielectric matrix)
  average eigenvalue GAMMA=   1.7120
  1.7120

 Free energy of the ion-electron system (eV)
  ---------------------------------------------------
  alpha Z        PSCENC =       186.39601950
  Ewald energy   TEWEN  =     -2271.54787490
  -Hartree energ DENC   =      -329.56916889
  -exchange      EXHF   =         0.00000000
  -V(xc)+E(xc)   XCENC  =        64.24261342
  PAW double counting   =      2374.50356302    -2341.80071486
  entropy T*S    EENTRO =        -0.00157227
  eigenvalues    EBANDS =      -115.94513172
  atomic energy  EATOM  =      2428.19501064
  Solvation  Ediel_sol  =         0.00000000
  ---------------------------------------------------
  free energy    TOTEN  =        -5.52725605 eV

  energy without entropy =       -5.52568378  energy(sigma->0) =       -5.52646992


--------------------------------------------------------------------------------------------------------




--------------------------------------- Iteration      1(   7)  ---------------------------------------


    POTLOK:  cpu time      0.0021: real time      0.0022
    SETDIJ:  cpu time      0.0018: real time      0.0018
     EDDAV:  cpu time      0.7500: real time      0.7540
       DOS:  cpu time      0.0005: real time      0.0005
    CHARGE:  cpu time      0.0113: real time      0.0113
    MIXING:  cpu time      0.0002: real time      0.0002
    --------------------------------------------
      LOOP:  cpu time      0.7658: real time      0.7701

 eigenvalue-minimisations  :  7824
 total energy-change (2. order) : 0.2851238E-01  (-0.1267531E-01)
 number of electron      15.9999997 magnetization 
 augmentation part        4.1228728 magnetization 

 Broyden mixing:
  rms(total) = 0.21234E+00    rms(broyden)= 0.21234E+00
  rms(prec ) = 0.23247E+00
  weight for this iteration     100.00

 eigenvalues of (default mixing * dielectric matrix)
  average eigenvalue GAMMA=   2.0083
  1.3147  2.7020

 Free energy of the ion-electron system (eV)
  ---------------------------------------------------
  alpha Z        PSCENC =       186.39601950
  Ewald energy   TEWEN  =     -2271.54787490
  -Hartree energ DENC   =      -324.18918072
  -exchange      EXHF   =         0.00000000
  -V(xc)+E(xc)   XCENC  =        63.99725797
  PAW double counting   =      2603.19910847    -2571.64793737
  entropy T*S    EENTRO =        -0.00180403
  eigenvalues    EBANDS =      -119.89934324
  atomic energy  EATOM  =      2428.19501064
  Solvation  Ediel_sol  =         0.00000000
  ---------------------------------------------------
  free energy    TOTEN  =        -5.49874368 eV

  energy without entropy =       -5.49693965  energy(sigma->0) =       -5.49784167


--------------------------------------------------------------------------------------------------------




--------------------------------------- Iteration      1(   8)  ---------------------------------------


    POTLOK:  cpu time      0.0020: real time      0.0022
    SETDIJ:  cpu time      0.0018: real time      0.0018
     EDDAV:  cpu time      0.4015: real time      0.4037
       DOS:  cpu time      0.0005: real time      0.0005
    CHARGE:  cpu time      0.0112: real time      0.0113
    MIXING:  cpu time      0.0002: real time      0.0002
    --------------------------------------------
      LOOP:  cpu time      0.4172: real time      0.4196

 eigenvalue-minimisations  :  5496
 total energy-change (2. order) : 0.2100719E-02  (-0.6767908E-03)
 number of electron      15.9999997 magnetization 
 augmentation part        4.1150754 magnetization 

 Broyden mixing:
  rms(total) = 0.29626E-01    rms(broyden)= 0.29625E-01
  rms(prec ) = 0.32097E-01
  weight for this iteration     100.00

 eigenvalues of (default mixing * dielectric matrix)
  average eigenvalue GAMMA=   1.6047
  1.0682  1.3004  2.4455

 Free energy of the ion-electron system (eV)
  ---------------------------------------------------
  alpha Z        PSCENC =       186.39601950
  Ewald energy   TEWEN  =     -2271.54787490
  -Hartree energ DENC   =      -324.60355572
  -exchange      EXHF   =         0.00000000
  -V(xc)+E(xc)   XCENC  =        64.00492966
  PAW double counting   =      2704.55599570    -2673.15206577
  entropy T*S    EENTRO =        -0.00180233
  eigenvalues    EBANDS =      -119.34329974
  atomic energy  EATOM  =      2428.19501064
  Solvation  Ediel_sol  =         0.00000000
  ---------------------------------------------------
  free energy    TOTEN  =        -5.49664296 eV

  energy without entropy =       -5.49484063  energy(sigma->0) =       -5.49574180


--------------------------------------------------------------------------------------------------------




--------------------------------------- Iteration      1(   9)  ---------------------------------------


    POTLOK:  cpu time      0.0020: real time      0.0022
    SETDIJ:  cpu time      0.0018: real time      0.0018
     EDDAV:  cpu time      0.6688: real time      0.6724
       DOS:  cpu time      0.0005: real time      0.0005
    CHARGE:  cpu time      0.0115: real time      0.0116
    MIXING:  cpu time      0.0003: real time      0.0003
    --------------------------------------------
      LOOP:  cpu time      0.6849: real time      0.6887

 eigenvalue-minimisations  :  7128
 total energy-change (2. order) : 0.8967251E-04  (-0.8909434E-05)
 number of electron      15.9999997 magnetization 
 augmentation part        4.1159127 magnetization 

 Broyden mixing:
  rms(total) = 0.14851E-02    rms(broyden)= 0.14844E-02
  rms(prec ) = 0.30465E-02
  weight for this iteration     100.00

 eigenvalues of (default mixing * dielectric matrix)
  average eigenvalue GAMMA=   1.8485
  1.0096  1.2898  2.6857  2.4088

 Free energy of the ion-electron system (eV)
  ---------------------------------------------------
  alpha Z        PSCENC =       186.39601950
  Ewald energy   TEWEN  =     -2271.54787490
  -Hartree energ DENC   =      -324.59395029
  -exchange      EXHF   =         0.00000000
  -V(xc)+E(xc)   XCENC  =        64.00568326
  PAW double counting   =      2692.91743072    -2661.47298957
  entropy T*S    EENTRO =        -0.00180130
  eigenvalues    EBANDS =      -119.39408135
  atomic energy  EATOM  =      2428.19501064
  Solvation  Ediel_sol  =         0.00000000
  ---------------------------------------------------
  free energy    TOTEN  =        -5.49655329 eV

  energy without entropy =       -5.49475198  energy(sigma->0) =       -5.49565264


--------------------------------------------------------------------------------------------------------




--------------------------------------- Iteration      1(  10)  ---------------------------------------


    POTLOK:  cpu time      0.0020: real time      0.0022
    SETDIJ:  cpu time      0.0019: real time      0.0019
     EDDAV:  cpu time      0.7306: real time      0.7345
       DOS:  cpu time      0.0004: real time      0.0004
    CHARGE:  cpu time      0.0113: real time      0.0113
    MIXING:  cpu time      0.0002: real time      0.0002
    --------------------------------------------
      LOOP:  cpu time      0.7464: real time      0.7506

 eigenvalue-minimisations  :  7608
 total energy-change (2. order) :-0.3401472E-05  (-0.2957080E-06)
 number of electron      15.9999997 magnetization 
 augmentation part        4.1159390 magnetization 

 Broyden mixing:
  rms(total) = 0.36949E-03    rms(broyden)= 0.36935E-03
  rms(prec ) = 0.40042E-03
  weight for this iteration     100.00

 eigenvalues of (default mixing * dielectric matrix)
  average eigenvalue GAMMA=   1.7422
  2.6645  2.3422  0.9831  1.4052  1.3157

 Free energy of the ion-electron system (eV)
  ---------------------------------------------------
  alpha Z        PSCENC =       186.39601950
  Ewald energy   TEWEN  =     -2271.54787490
  -Hartree energ DENC   =      -324.62453862
  -exchange      EXHF   =         0.00000000
  -V(xc)+E(xc)   XCENC  =        64.00692111
  PAW double counting   =      2694.76461562    -2663.29418266
  entropy T*S    EENTRO =        -0.00180035
  eigenvalues    EBANDS =      -119.39072703
  atomic energy  EATOM  =      2428.19501064
  Solvation  Ediel_sol  =         0.00000000
  ---------------------------------------------------
  free energy    TOTEN  =        -5.49655669 eV

  energy without entropy =       -5.49475634  energy(sigma->0) =       -5.49565651


--------------------------------------------------------------------------------------------------------




--------------------------------------- Iteration      1(  11)  ---------------------------------------


    POTLOK:  cpu time      0.0019: real time      0.0021
    SETDIJ:  cpu time      0.0018: real time      0.0018
     EDDAV:  cpu time      0.2289: real time      0.2302
       DOS:  cpu time      0.0005: real time      0.0005
    --------------------------------------------
      LOOP:  cpu time      0.2331: real time      0.2345

 eigenvalue-minimisations  :  3312
 total energy-change (2. order) :-0.6002665E-09  (-0.4841166E-09)
 number of electron      15.9999997 magnetization 
 augmentation part        4.1159390 magnetization 

 Free energy of the ion-electron system (eV)
  ---------------------------------------------------
  alpha Z        PSCENC =       186.39601950
  Ewald energy   TEWEN  =     -2271.54787490
  -Hartree energ DENC   =      -324.62466244
  -exchange      EXHF   =         0.00000000
  -V(xc)+E(xc)   XCENC  =        64.00691641
  PAW double counting   =      2694.71241906    -2663.24157838
  entropy T*S    EENTRO =        -0.00180034
  eigenvalues    EBANDS =      -119.39100625
  atomic energy  EATOM  =      2428.19501064
  Solvation  Ediel_sol  =         0.00000000
  ---------------------------------------------------
  free energy    TOTEN  =        -5.49655669 eV

  energy without entropy =       -5.49475635  energy(sigma->0) =       -5.49565652


--------------------------------------------------------------------------------------------------------




 average (electrostatic) potential at core
  the test charge radii are     0.9952
  (the norm of the test charge is              1.0000)
       1 -85.8982
 
 
 
 E-fermi :  15.5077     XC(G=0): -15.0572     alpha+bet :-20.3795

 Fermi energy:        15.5077407958

 k-point     1 :       0.0500    0.0500    0.0500
  band No.  band energies     occupation 
      1     -37.6022      2.00000
      2     -37.5836      2.00000
      3     -37.5836      2.00000
      4       3.4549      2.00000
      5      10.5134      2.00000
      6      10.6262      2.00000
      7      10.6262      2.00000
      8      13.3450      2.00000
      9      13.3450      2.00000
     10      29.7034      0.00000
     11      34.8097      0.00000
     12      35.5771      0.00000
     13      35.5771      0.00000
     14      42.0686      0.00000
     15      49.5751      0.00000
     16      50.3461      0.00000
     17      50.3461      0.00000
     18      54.8284      0.00000
     19      54.8284      0.00000
     20      55.5238      0.00000
     21      55.8656      0.00000
     22      61.0385      0.00000
     23      61.0385      0.00000
     24      67.7778      0.00000

 k-point     2 :       0.1500    0.0500    0.0500
  band No.  band energies     occupation 
      1     -37.7047      2.00000
      2     -37.6134      2.00000
      3     -37.5929      2.00000
      4       4.0687      2.00000
      5      10.2040      2.00000
      6      10.8535      2.00000
      7      10.9067      2.00000
      8      13.0290      2.00000
      9      13.4099      2.00000
     10      30.7033      0.00000
     11      33.0944      0.00000
     12      35.9452      0.00000
     13      36.9320      0.00000
     14      43.9419      0.00000
     15      46.3004      0.00000
     16      47.2703      0.00000
     17      49.1493      0.00000
     18      52.6688      0.00000
     19      55.5081      0.00000
     20      56.2667      0.00000
     21      58.5673      0.00000
     22      59.6969      0.00000
     23      62.2440      0.00000
     24      68.6471      0.00000

 k-point     3 :       0.2500    0.0500    0.0500
  band No.  band energies     occupation 
      1     -37.9286      2.00000
      2     -37.6520      2.00000
      3     -37.6210      2.00000
      4       5.3319      2.00000
      5       9.9300      2.00000
      6      11.0901      2.00000
      7      11.1383      2.00000
      8      12.9886      2.00000
      9      13.7415      2.00000
     10      30.3696      0.00000
     11      32.3353      0.00000
     12      37.6986      0.00000
     13      39.5411      0.00000
     14      40.2235      0.00000
     15      43.6580      0.00000
     16      44.4431      0.00000
     17      50.3777      0.00000
     18      52.8700      0.00000
     19      55.5189      0.00000
     20      56.7257      0.00000
     21      58.1486      0.00000
     22      61.6894      0.00000
     23      62.7428      0.00000
     24      69.0028      0.00000

 k-point     4 :       0.3500    0.0500    0.0500
  band No.  band energies     occupation 
      1     -38.1811      2.00000
      2     -37.6897      2.00000
      3     -37.6580      2.00000
      4       6.2939      2.00000
      5      10.7018      2.00000
      6      10.8947      2.00000
      7      10.9232      2.00000
      8      13.8554      2.00000
      9      14.7206      2.00000
     10      27.4938      0.00000
     11      31.4202      0.00000
     12      37.6207      0.00000
     13      39.9400      0.00000
     14      40.4669      0.00000
     15      42.9110      0.00000
     16      43.0628      0.00000
     17      53.0993      0.00000
     18      55.3879      0.00000
     19      55.5493      0.00000
     20      57.2421      0.00000
     21      58.2645      0.00000
     22      61.6073      0.00000
     23      63.3816      0.00000
     24      68.0720      0.00000

 k-point     5 :       0.4500    0.0500    0.0500
  band No.  band energies     occupation 
      1     -38.3672      2.00000
      2     -37.7133      2.00000
      3     -37.6905      2.00000
      4       6.4274      2.00000
      5      10.4984      2.00000
      6      10.6281      2.00000
      7      12.8260      2.00000
      8      14.9950      2.00000
      9      15.8314      0.00000
     10      24.1456      0.00000
     11      29.7643      0.00000
     12      35.6059      0.00000
     13      36.6749      0.00000
     14      44.2446      0.00000
     15      45.9226      0.00000
     16      45.9877      0.00000
     17      53.3267      0.00000
     18      55.0956      0.00000
     19      55.5194      0.00000
     20      55.9260      0.00000
     21      60.6515      0.00000
     22      63.3345      0.00000
     23      63.5672      0.00000
     24      65.1424      0.00000

 k-point     6 :      -0.4500    0.0500    0.0500
  band No.  band energies     occupation 
      1     -38.4185      2.00000
      2     -37.7135      2.00000
      3     -37.7061      2.00000
      4       6.4005      2.00000
      5      10.3791      2.00000
      6      10.5616      2.00000
      7      13.6747      2.00000
      8      15.5701      0.07765
      9      16.2202      0.00000
     10      22.6931      0.00000
     11      29.3524      0.00000
     12      35.3646      0.00000
     13      35.3713      0.00000
     14      46.2393      0.00000
     15      46.5533      0.00000
     16      47.9064      0.00000
     17      53.0727      0.00000
     18      53.7591      0.00000
     19      54.6781      0.00000
     20      55.5115      0.00000
     21      61.6780      0.00000
     22      62.2093      0.00000
     23      65.1401      0.00000
     24      65.6583      0.00000

 k-point     7 :      -0.3500    0.0500    0.0500
  band No.  band energies     occupation 
      1     -38.3181      2.00000
      2     -37.6976      2.00000
      3     -37.6917      2.00000
      4       6.4275      2.00000
      5      10.5484      2.00000
      6      10.7553      2.00000
      7      12.0674      2.00000
      8      15.0203      2.00000
      9      15.1664      2.00000
     10      25.2327      0.00000
     11      30.1852      0.00000
     12      36.3636      0.00000
     13      37.2889      0.00000
     14      43.8186      0.00000
     15      43.8730      0.00000
     16      45.3112      0.00000
     17      52.8168      0.00000
     18      55.5104      0.00000
     19      56.2585      0.00000
     20      56.7112      0.00000
     21      60.7157      0.00000
     22      61.0894      0.00000
     23      63.8503      0.00000
     24      66.0510      0.00000

 k-point     8 :      -0.2500    0.0500    0.0500
  band No.  band energies     occupation 
      1     -38.1003      2.00000
      2     -37.6692      2.00000
      3     -37.6547      2.00000
      4       6.0773      2.00000
      5      10.2658      2.00000
      6      10.9229      2.00000
      7      11.0646      2.00000
      8      13.6532      2.00000
      9      14.2123      2.00000
     10      28.5216      0.00000
     11      32.0500      0.00000
     12      38.5577      0.00000
     13      39.3011      0.00000
     14      41.4633      0.00000
     15      41.6205      0.00000
     16      42.5868      0.00000
     17      52.6714      0.00000
     18      54.4457      0.00000
     19      55.5230      0.00000
     20      56.6594      0.00000
     21      59.2464      0.00000
     22      60.1990      0.00000
     23      64.0498      0.00000
     24      69.2869      0.00000

 k-point     9 :      -0.1500    0.0500    0.0500
  band No.  band energies     occupation 
      1     -37.8449      2.00000
      2     -37.6323      2.00000
      3     -37.6175      2.00000
      4       4.8810      2.00000
      5       9.9380      2.00000
      6      11.0822      2.00000
      7      11.1151      2.00000
      8      12.9183      2.00000
      9      13.5437      2.00000
     10      31.2313      0.00000
     11      31.9916      0.00000
     12      37.2597      0.00000
     13      38.1083      0.00000
     14      41.9998      0.00000
     15      44.1152      0.00000
     16      46.2577      0.00000
     17      48.7606      0.00000
     18      52.6585      0.00000
     19      55.5180      0.00000
     20      56.7760      0.00000
     21      59.1285      0.00000
     22      59.5372      0.00000
     23      63.3274      0.00000
     24      68.8713      0.00000

 k-point    10 :      -0.0500    0.0500    0.0500
  band No.  band energies     occupation 
      1     -37.6491      2.00000
      2     -37.5991      2.00000
      3     -37.5941      2.00000
      4       3.7690      2.00000
      5      10.3032      2.00000
      6      10.7825      2.00000
      7      10.7929      2.00000
      8      13.0850      2.00000
      9      13.4442      2.00000
     10      30.2322      0.00000
     11      34.0417      0.00000
     12      35.7345      0.00000
     13      35.9871      0.00000
     14      43.5778      0.00000
     15      47.5537      0.00000
     16      47.9757      0.00000
     17      50.4468      0.00000
     18      52.3989      0.00000
     19      55.5169      0.00000
     20      56.8965      0.00000
     21      57.5203      0.00000
     22      59.2073      0.00000
     23      62.3689      0.00000
     24      68.4323      0.00000

 k-point    11 :       0.1500    0.1500    0.0500
  band No.  band energies     occupation 
      1     -37.7269      2.00000
      2     -37.6279      2.00000
      3     -37.6222      2.00000
      4       4.3716      2.00000
      5       9.8979      2.00000
      6      11.1134      2.00000
      7      11.1232      2.00000
      8      12.6351      2.00000
      9      13.6373      2.00000
     10      31.2314      0.00000
     11      33.3884      0.00000
     12      35.9252      0.00000
     13      36.2742      0.00000
     14      44.7248      0.00000
     15      45.5676      0.00000
     16      46.6688      0.00000
     17      48.8829      0.00000
     18      50.9575      0.00000
     19      55.5191      0.00000
     20      56.4584      0.00000
     21      59.1387      0.00000
     22      59.1949      0.00000
     23      63.5049      0.00000
     24      70.0586      0.00000

 k-point    12 :       0.2500    0.1500    0.0500
  band No.  band energies     occupation 
      1     -37.8827      2.00000
      2     -37.6835      2.00000
      3     -37.6443      2.00000
      4       5.4362      2.00000
      5       9.4408      2.00000
      6      11.2388      2.00000
      7      11.5863      2.00000
      8      12.4889      2.00000
      9      14.0023      2.00000
     10      31.8252      0.00000
     11      32.7926      0.00000
     12      35.9438      0.00000
     13      37.4166      0.00000
     14      41.4752      0.00000
     15      44.0141      0.00000
     16      46.4903      0.00000
     17      49.9656      0.00000
     18      50.4664      0.00000
     19      55.0412      0.00000
     20      55.5266      0.00000
     21      58.0894      0.00000
     22      62.2377      0.00000
     23      65.0811      0.00000
     24      70.1626      0.00000

 k-point    13 :       0.3500    0.1500    0.0500
  band No.  band energies     occupation 
      1     -38.1048      2.00000
      2     -37.7334      2.00000
      3     -37.6804      2.00000
      4       6.6300      2.00000
      5       9.5427      2.00000
      6      10.6678      2.00000
      7      11.5909      2.00000
      8      13.5928      2.00000
      9      14.9570      2.00000
     10      29.0208      0.00000
     11      32.6876      0.00000
     12      35.8073      0.00000
     13      37.3860      0.00000
     14      41.9267      0.00000
     15      43.2200      0.00000
     16      45.0312      0.00000
     17      49.1921      0.00000
     18      54.5069      0.00000
     19      55.5210      0.00000
     20      56.4591      0.00000
     21      57.7320      0.00000
     22      61.9725      0.00000
     23      66.4158      0.00000
     24      67.9295      0.00000

[...]
     13      38.3374      0.00000
     14      42.8143      0.00000
     15      44.8113      0.00000
     16      47.3083      0.00000
     17      52.8154      0.00000
     18      53.6140      0.00000
     19      55.5145      0.00000
     20      56.2960      0.00000
     21      58.8538      0.00000
     22      62.1719      0.00000
     23      64.3318      0.00000
     24      65.8735      0.00000

 k-point   100 :      -0.3500   -0.3500    0.2500
  band No.  band energies     occupation 
      1     -38.2495      2.00000
      2     -38.0676      2.00000
      3     -37.8291      2.00000
      4       7.4282      2.00000
      5       8.4773      2.00000
      6      11.7199      2.00000
      7      13.6454      2.00000
      8      15.3106      2.00000
      9      21.8825      0.00000
     10      22.8109      0.00000
     11      27.4942      0.00000
     12      31.4521      0.00000
     13      36.9526      0.00000
     14      44.1139      0.00000
     15      44.4575      0.00000
     16      45.6407      0.00000
     17      54.6830      0.00000
     18      55.3776      0.00000
     19      55.5138      0.00000
     20      56.1277      0.00000
     21      58.3929      0.00000
     22      61.8530      0.00000
     23      62.8157      0.00000
     24      65.3563      0.00000

 k-point   101 :       0.3500    0.3500    0.3500
  band No.  band energies     occupation 
      1     -38.2583      2.00000
      2     -37.6760      2.00000
      3     -37.6760      2.00000
      4       6.2934      2.00000
      5      10.7518      2.00000
      6      10.7518      2.00000
      7      11.6103      2.00000
      8      14.5723      2.00000
      9      14.5723      2.00000
     10      26.3358      0.00000
     11      30.6159      0.00000
     12      38.0064      0.00000
     13      38.0064      0.00000
     14      42.4275      0.00000
     15      43.2813      0.00000
     16      43.2813      0.00000
     17      55.0361      0.00000
     18      55.0361      0.00000
     19      55.5158      0.00000
     20      56.8483      0.00000
     21      59.6644      0.00000
     22      62.2059      0.00000
     23      62.2059      0.00000
     24      68.4165      0.00000

 k-point   102 :       0.4500    0.3500    0.3500
  band No.  band energies     occupation 
      1     -38.3029      2.00000
      2     -37.7559      2.00000
      3     -37.6843      2.00000
      4       6.7375      2.00000
      5      10.3896      2.00000
      6      10.9249      2.00000
      7      11.5786      2.00000
      8      14.3490      2.00000
      9      16.3543      0.00000
     10      25.3259      0.00000
     11      30.6493      0.00000
     12      34.8580      0.00000
     13      37.9634      0.00000
     14      41.8026      0.00000
     15      45.7030      0.00000
     16      46.2347      0.00000
     17      51.8249      0.00000
     18      55.4602      0.00000
     19      55.6099      0.00000
     20      57.1178      0.00000
     21      58.7961      0.00000
     22      62.3934      0.00000
     23      63.5636      0.00000
     24      65.3726      0.00000

 k-point   103 :      -0.4500    0.3500    0.3500
  band No.  band energies     occupation 
      1     -38.2829      2.00000
      2     -37.9166      2.00000
      3     -37.7237      2.00000
      4       7.7463      2.00000
      5       9.6445      2.00000
      6      10.8717      2.00000
      7      11.6854      2.00000
      8      14.2974      2.00000
      9      18.5621      0.00000
     10      24.6367      0.00000
     11      30.6934      0.00000
     12      32.9845      0.00000
     13      36.8389      0.00000
     14      41.4447      0.00000
     15      45.1679      0.00000
     16      49.3499      0.00000
     17      53.4207      0.00000
     18      54.7758      0.00000
     19      55.5190      0.00000
     20      56.3293      0.00000
     21      56.8322      0.00000
     22      60.3313      0.00000
     23      65.4102      0.00000
     24      66.2585      0.00000

 k-point   104 :      -0.3500    0.3500    0.3500
  band No.  band energies     occupation 
      1     -38.2006      2.00000
      2     -38.0986      2.00000
      3     -37.7794      2.00000
      4       8.0280      2.00000
      5       9.3064      2.00000
      6      10.5835      2.00000
      7      12.7615      2.00000
      8      14.5752      2.00000
      9      20.1285      0.00000
     10      25.0863      0.00000
     11      27.4475      0.00000
     12      34.3296      0.00000
     13      35.0114      0.00000
     14      42.6511      0.00000
     15      44.1530      0.00000
     16      47.6900      0.00000
     17      55.5050      0.00000
     18      55.6086      0.00000
     19      56.3732      0.00000
     20      57.0704      0.00000
     21      58.4643      0.00000
     22      58.6090      0.00000
     23      61.4145      0.00000
     24      66.9675      0.00000

 k-point   105 :       0.4500    0.4500    0.3500
  band No.  band energies     occupation 
      1     -38.3522      2.00000
      2     -37.7358      2.00000
      3     -37.7200      2.00000
      4       6.6978      2.00000
      5      10.2123      2.00000
      6      10.9331      2.00000
      7      11.9579      2.00000
      8      15.5431      0.31724
      9      16.2904      0.00000
     10      24.0802      0.00000
     11      30.2654      0.00000
     12      35.1629      0.00000
     13      36.1236      0.00000
     14      44.3354      0.00000
     15      45.7821      0.00000
     16      46.8603      0.00000
     17      50.8792      0.00000
     18      55.5090      0.00000
     19      55.6888      0.00000
     20      56.7368      0.00000
     21      59.3597      0.00000
     22      62.8984      0.00000
     23      63.7496      0.00000
     24      65.4653      0.00000

 k-point   106 :      -0.4500    0.4500    0.3500
  band No.  band energies     occupation 
      1     -38.3371      2.00000
      2     -37.8515      2.00000
      3     -37.7423      2.00000
      4       7.3697      2.00000
      5       9.6203      2.00000
      6      11.2791      2.00000
      7      11.5840      2.00000
      8      15.2062      2.00000
      9      18.6745      0.00000
     10      23.0654      0.00000
     11      31.0970      0.00000
     12      33.0019      0.00000
     13      35.7451      0.00000
     14      43.5218      0.00000
     15      46.0409      0.00000
     16      49.3221      0.00000
     17      50.9857      0.00000
     18      54.5493      0.00000
     19      55.5192      0.00000
     20      56.8845      0.00000
     21      57.2369      0.00000
     22      60.7191      0.00000
     23      65.1523      0.00000
     24      67.0038      0.00000

 k-point   107 :      -0.3500    0.4500    0.3500
  band No.  band energies     occupation 
      1     -38.2626      2.00000
      2     -38.0078      2.00000
      3     -37.7952      2.00000
      4       8.2168      2.00000
      5       9.0069      2.00000
      6      10.5536      2.00000
      7      12.4747      2.00000
      8      15.1066      2.00000
      9      20.9069      0.00000
     10      22.8337      0.00000
     11      29.5825      0.00000
     12      32.0279      0.00000
     13      36.2709      0.00000
     14      42.5830      0.00000
     15      45.9436      0.00000
     16      48.7783      0.00000
     17      51.8436      0.00000
     18      53.2122      0.00000
     19      55.5201      0.00000
     20      58.6280      0.00000
     21      58.8664      0.00000
     22      59.4215      0.00000
     23      63.3486      0.00000
     24      65.9614      0.00000

 k-point   108 :      -0.4500   -0.4500    0.3500
  band No.  band energies     occupation 
      1     -38.3306      2.00000
      2     -37.8961      2.00000
      3     -37.7594      2.00000
      4       7.5097      2.00000
      5       9.4430      2.00000
      6      11.2536      2.00000
      7      11.7457      2.00000
      8      15.4208      1.98606
      9      19.8121      0.00000
     10      22.1148      0.00000
     11      30.8662      0.00000
     12      33.9188      0.00000
     13      34.1952      0.00000
     14      44.6535      0.00000
     15      45.0845      0.00000
     16      49.0337      0.00000
     17      50.9602      0.00000
     18      55.0196      0.00000
     19      55.5179      0.00000
     20      56.7102      0.00000
     21      58.1471      0.00000
     22      60.1323      0.00000
     23      64.7091      0.00000
     24      67.3220      0.00000

 k-point   109 :       0.4500    0.4500    0.4500
  band No.  band energies     occupation 
      1     -38.4072      2.00000
      2     -37.6975      2.00000
      3     -37.6975      2.00000
      4       6.3126      2.00000
      5      10.5053      2.00000
      6      10.5053      2.00000
      7      13.8885      2.00000
      8      15.4325      1.96660
      9      15.4325      1.96660
     10      23.2638      0.00000
     11      29.2925      0.00000
     12      35.7626      0.00000
     13      35.7626      0.00000
     14      46.1357      0.00000
     15      46.1357      0.00000
     16      46.6729      0.00000
     17      54.1137      0.00000
     18      54.2862      0.00000
     19      54.2862      0.00000
     20      55.5213      0.00000
     21      63.0724      0.00000
     22      63.0724      0.00000
     23      64.8514      0.00000
     24      65.1722      0.00000

 k-point   110 :      -0.4500    0.4500    0.4500
  band No.  band energies     occupation 
      1     -38.3988      2.00000
      2     -37.7599      2.00000
      3     -37.7132      2.00000
      4       6.6861      2.00000
      5      10.1429      2.00000
      6      10.7928      2.00000
      7      12.8105      2.00000
      8      15.3806      1.99968
      9      17.4372      0.00000
     10      22.5764      0.00000
     11      29.9146      0.00000
     12      34.5341      0.00000
     13      35.5041      0.00000
     14      45.4288      0.00000
     15      46.1298      0.00000
     16      48.6466      0.00000
     17      53.1517      0.00000
     18      54.3078      0.00000
     19      54.5745      0.00000
     20      55.5137      0.00000
     21      59.8219      0.00000
     22      60.4868      0.00000
     23      65.7026      0.00000
     24      65.9914      0.00000


--------------------------------------------------------------------------------------------------------


 soft charge-density along one line, spin component           1
         0         1         2         3         4         5         6         7         8         9
 total charge-density along one line
 
 pseudopotential strength for first ion, spin component:           1
-30.381  -0.000  -0.000   9.429   0.000   0.000  -0.000   0.000
 -0.000 -30.381  -0.000   0.000   9.429   0.000  -0.000  -0.000
 -0.000  -0.000 -30.381   0.000   0.000   9.429  -0.000  -0.000
  9.429   0.000   0.000  16.778  -0.000  -0.000   0.000  -0.000
  0.000   9.429   0.000  -0.000  16.778  -0.000   0.000   0.000
  0.000   0.000   9.429  -0.000  -0.000  16.778   0.000   0.000
 -0.000  -0.000  -0.000   0.000   0.000   0.000  -2.861   0.000
  0.000  -0.000  -0.000  -0.000   0.000   0.000   0.000  -2.861
  0.000   0.000   0.000  -0.000  -0.000  -0.000   0.000  -0.000
 -0.000  -0.000   0.000   0.000   0.000  -0.000   0.000   0.000
  0.000   0.000  -0.000  -0.000  -0.000   0.000   0.000   0.000
 -0.000  -0.000  -0.000   0.000   0.000   0.000  -2.987   0.000
  0.000  -0.000  -0.000  -0.000   0.000   0.000   0.000  -2.987
  0.000   0.000   0.000  -0.000   0.000  -0.000   0.000  -0.000
 -0.000  -0.000   0.000   0.000   0.000  -0.000   0.000   0.000
  0.000   0.000  -0.000  -0.000  -0.000   0.000   0.000   0.000
  0.000  -0.000   0.000   0.000  -0.000   0.000   0.000   0.000
 -0.000   0.000  -0.000  -0.000   0.000  -0.000  -0.000  -0.000
 total augmentation occupancy for first ion, spin component:           1
  2.004   0.000   0.000  -0.023   0.000  -0.000   0.000   0.000   0.000   0.000   0.000   0.000   0.000   0.000   0.000   0.000
 -0.000   2.004   0.000  -0.000  -0.023   0.000   0.000   0.000   0.000   0.000   0.000   0.000   0.000   0.000   0.000   0.000
  0.000  -0.000   2.004   0.000   0.000  -0.023   0.000   0.000   0.000   0.000   0.000   0.000   0.000   0.000   0.000   0.000
 -0.023  -0.000   0.000   0.071   0.000   0.000   0.000   0.000   0.000   0.000   0.000   0.000   0.000   0.000   0.000   0.000
 -0.000  -0.023  -0.000   0.000   0.071   0.000   0.000   0.000   0.000   0.000   0.000   0.000   0.000   0.000   0.000   0.000
  0.000  -0.000  -0.023   0.000   0.000   0.071   0.000   0.000   0.000   0.000   0.000   0.000   0.000   0.000   0.000   0.000
  0.000   0.000   0.000   0.000   0.000   0.000   8.239   0.000   0.000  -0.000   0.000  -5.339  -0.000   0.000   0.000  -0.000
  0.000   0.000   0.000   0.000   0.000   0.000   0.000   8.239   0.000  -0.000  -0.000  -0.000  -5.339   0.000  -0.000   0.000
  0.000   0.000   0.000   0.000   0.000   0.000  -0.000   0.000   6.864  -0.000   0.000   0.000   0.000  -4.423  -0.000  -0.000
  0.000   0.000   0.000   0.000   0.000   0.000  -0.000  -0.000  -0.000   8.239  -0.000   0.000   0.000  -0.000  -5.339   0.000
  0.000   0.000   0.000   0.000   0.000   0.000   0.000  -0.000   0.000  -0.000   6.864  -0.000   0.000  -0.000   0.000  -4.423
  0.000   0.000   0.000   0.000   0.000   0.000  -5.339  -0.000   0.000   0.000  -0.000   4.263   0.000  -0.000  -0.000   0.000
  0.000   0.000   0.000   0.000   0.000   0.000  -0.000  -5.339   0.000   0.000   0.000   0.000   4.263   0.000  -0.000  -0.000
  0.000   0.000   0.000   0.000   0.000   0.000   0.000   0.000  -4.423  -0.000  -0.000  -0.000  -0.000   3.897  -0.000   0.000
  0.000   0.000   0.000   0.000   0.000   0.000   0.000   0.000   0.000  -5.339   0.000  -0.000  -0.000   0.000   4.263  -0.000
  0.000   0.000   0.000   0.000   0.000   0.000  -0.000   0.000  -0.000  -0.000  -4.423  -0.000  -0.000   0.000   0.000   3.897
  0.000   0.000   0.000   0.000   0.000   0.000  -0.000  -0.000  -0.000  -0.000  -0.000   0.000   0.000   0.000   0.000  -0.000
  0.000   0.000   0.000   0.000   0.000   0.000   0.000   0.000  -0.000  -0.000  -0.000  -0.000   0.000   0.000   0.000   0.000


------------------------ aborting loop because EDIFF is reached ----------------------------------------





 total charge

# of ion       s       p       d       tot
------------------------------------------
    1        0.394   6.140   7.141  13.675
 
    CHARGE:  cpu time      0.0112: real time      0.0113
    FORLOC:  cpu time      0.0001: real time      0.0001
    FORNL :  cpu time      0.0054: real time      0.0055
    STRESS:  cpu time      0.1022: real time      0.1026
    FORCOR:  cpu time      0.0017: real time      0.0017
    FORHAR:  cpu time      0.0004: real time      0.0004
    MIXING:  cpu time      0.0002: real time      0.0002
    OFIELD:  cpu time      0.0000: real time      0.0000

  FORCE on cell =-STRESS in cart. coord.  units (eV):
  Direction    XX          YY          ZZ          XY          YZ          ZX
  --------------------------------------------------------------------------------------
  Alpha Z   186.39602   186.39602   186.39602
  Ewald    -757.18265  -757.18265  -757.18265    -0.00000     0.00000     0.00000
  Hartree   108.20746   108.20746   108.20746     0.00000     0.00000     0.00000
  E(xc)     -86.41842   -86.41842   -86.41842     0.00000     0.00000     0.00000
  Local     155.27330   155.27330   155.27330    -0.00002    -0.00002    -0.00002
  n-local   -25.97363   -22.50051   -28.76902     3.62185    -3.50270     0.08080
  augment    73.20657    73.20657    73.20657     0.00002     0.00002     0.00002
  Kinetic   351.38846   358.16696   348.28787     5.31589    -4.77791    -0.63290
  Fock        0.00000     0.00000     0.00000     0.00000     0.00000     0.00000
  -------------------------------------------------------------------------------------
  Total       6.34899     6.34899     6.34899    -0.00000     0.00000     0.00000
  in kB     790.24896   790.24896   790.24896    -0.00000     0.00000     0.00000
  external pressure =      790.25 kB  Pullay stress =        0.00 kB


 VOLUME and BASIS-vectors are now :
 -----------------------------------------------------------------------------
  energy-cutoff  :      425.00
  volume of cell :       12.87
      direct lattice vectors                 reciprocal lattice vectors
     0.000000000  1.860117712  1.860117712    -0.268800193  0.268800193  0.268800193
     1.860117712  0.000000000  1.860117712     0.268800193 -0.268800193  0.268800193
     1.860117712  1.860117712  0.000000000     0.268800193  0.268800193 -0.268800193

  length of vectors
     2.630603695  2.630603695  2.630603695     0.465575591  0.465575591  0.465575591


 FORCES acting on ions
    electron-ion (+dipol)            ewald-force                    non-local-force                 convergence-correction
 -----------------------------------------------------------------------------------------------
   -.622E-14 -.591E-14 0.277E-15   0.158E-14 0.575E-15 -.109E-14   0.000E+00 0.000E+00 -.258E-25   -.652E-14 -.445E-13 0.238E-13
 -----------------------------------------------------------------------------------------------
   -.622E-14 -.591E-14 0.277E-15   0.158E-14 0.575E-15 -.109E-14   0.000E+00 0.000E+00 -.258E-25   -.652E-14 -.445E-13 0.238E-13
 
 
 POSITION                                       TOTAL-FORCE (eV/Angst)
 -----------------------------------------------------------------------------------
      0.00000      0.00000      0.00000        -0.000000      0.000000      0.000000
 -----------------------------------------------------------------------------------
    total drift:                               -0.000000     -0.000000      0.000000


--------------------------------------------------------------------------------------------------------



  FREE ENERGIE OF THE ION-ELECTRON SYSTEM (eV)
  ---------------------------------------------------
  free  energy   TOTEN  =        -5.49655669 eV

  energy  without entropy=       -5.49475635  energy(sigma->0) =       -5.49565652
 


--------------------------------------------------------------------------------------------------------


    POTLOK:  cpu time      0.0040: real time      0.0040


--------------------------------------------------------------------------------------------------------




--------------------------------------------------------------------------------------------------------


  
 reached required accuracy - stopping structural energy minimisation
 writing wavefunctions
     LOOP+:  cpu time      6.8201: real time      6.8954
    4ORBIT:  cpu time      0.0000: real time      0.0000



 total charge

# of ion       s       p       d       tot
------------------------------------------
    1        0.394   6.140   7.141  13.675
 

 total amount of memory used by VASP MPI-rank0    35610. kBytes
=======================================================================

   base      :      30000. kBytes
   nonl-proj :       4566. kBytes
   fftplans  :        113. kBytes
   grid      :        367. kBytes
   one-center:         15. kBytes
   wavefun   :        549. kBytes
 
  
  
 General timing and accounting informations for this job:
 ========================================================
  
                  Total CPU time used (sec):        7.926
                            User time (sec):        7.416
                          System time (sec):        0.510
                         Elapsed time (sec):       10.573
  
                   Maximum memory used (kb):      224940.
                   Average memory used (kb):          N/A
  
                          Minor page faults:        25332
                          Major page faults:           76
                 Voluntary context switches:         2620
