PROCAR lm decomposed
# of k-points:  110         # of bands:   24         # of ions:    1

 k-point     1 :    0.05000000 0.05000000 0.05000000     weight = 0.00200000

band     1 # energy  -37.60221733 # occ.  2.00000000
 
ion      s     py     pz     px    dxy    dyz    dz2    dxz  x2-y2    tot
    1  0.000  0.333  0.333  0.333  0.000  0.000  0.000  0.000  0.000  0.999
 
band     2 # energy  -37.58355196 # occ.  2.00000000
 
ion      s     py     pz     px    dxy    dyz    dz2    dxz  x2-y2    tot
    1  0.000  0.062  0.337  0.600  0.000  0.000  0.000  0.000  0.000  0.999
 
band     3 # energy  -37.58355196 # occ.  2.00000000
 
ion      s     py     pz     px    dxy    dyz    dz2    dxz  x2-y2    tot
    1  0.000  0.604  0.329  0.066  0.000  0.000  0.000  0.000  0.000  0.999
 
band     4 # energy    3.45485723 # occ.  2.00000000
 
ion      s     py     pz     px    dxy    dyz    dz2    dxz  x2-y2    tot
    1  0.468  0.001  0.001  0.001  0.000  0.000  0.000  0.000  0.000  0.470
 
band     5 # energy   10.51338294 # occ.  2.00000000
 
ion      s     py     pz     px    dxy    dyz    dz2    dxz  x2-y2    tot
    1  0.000  0.000  0.000  0.000  0.288  0.288  0.000  0.288  0.000  0.863
 
band     6 # energy   10.62620194 # occ.  2.00000000
 
ion      s     py     pz     px    dxy    dyz    dz2    dxz  x2-y2    tot
    1  0.000  0.000  0.000  0.000  0.579  0.144  0.000  0.145  0.000  0.869
 
band     7 # energy   10.62620194 # occ.  2.00000000
 
ion      s     py     pz     px    dxy    dyz    dz2    dxz  x2-y2    tot
    1  0.000  0.000  0.000  0.000  0.000  0.435  0.000  0.434  0.000  0.869
 
band     8 # energy   13.34497490 # occ.  2.00000000
 
ion      s     py     pz     px    dxy    dyz    dz2    dxz  x2-y2    tot
    1  0.000  0.000  0.000  0.000  0.000  0.000  0.927  0.000  0.000  0.927
 
band     9 # energy   13.34497490 # occ.  2.00000000
 
ion      s     py     pz     px    dxy    dyz    dz2    dxz  x2-y2    tot
    1  0.000  0.000  0.000  0.000  0.000  0.000  0.000  0.000  0.927  0.927
 
band    10 # energy   29.70342800 # occ.  0.00000000
 
ion      s     py     pz     px    dxy    dyz    dz2    dxz  x2-y2    tot
    1  0.000  0.000  0.000  0.000  0.002  0.002  0.000  0.002  0.000  0.007
 
band    11 # energy   34.80974444 # occ.  0.00000000
 
ion      s     py     pz     px    dxy    dyz    dz2    dxz  x2-y2    tot
    1  0.008  0.018  0.018  0.018  0.001  0.001  0.000  0.001  0.000  0.066
 
band    12 # energy   35.57711215 # occ.  0.00000000
 
ion      s     py     pz     px    dxy    dyz    dz2    dxz  x2-y2    tot
    1  0.000  0.008  0.039  0.012  0.001  0.000  0.004  0.000  0.000  0.065
 
band    13 # energy   35.57711215 # occ.  0.00000000
 
ion      s     py     pz     px    dxy    dyz    dz2    dxz  x2-y2    tot
    1  0.000  0.032  0.000  0.027  0.000  0.000  0.000  0.001  0.004  0.065
 
band    14 # energy   42.06858396 # occ.  0.00000000
 
ion      s     py     pz     px    dxy    dyz    dz2    dxz  x2-y2    tot
    1  0.042  0.004  0.004  0.004  0.000  0.000  0.000  0.000  0.000  0.055
 
band    15 # energy   49.57505672 # occ.  0.00000000
 
ion      s     py     pz     px    dxy    dyz    dz2    dxz  x2-y2    tot
    1  0.006  0.058  0.058  0.058  0.144  0.144  0.000  0.144  0.000  0.610
 
band    16 # energy   50.34608849 # occ.  0.00000000
 
ion      s     py     pz     px    dxy    dyz    dz2    dxz  x2-y2    tot
    1  0.000  0.010  0.051  0.016  0.350  0.111  0.002  0.067  0.000  0.607
 
band    17 # energy   50.34608849 # occ.  0.00000000
 
ion      s     py     pz     px    dxy    dyz    dz2    dxz  x2-y2    tot
    1  0.000  0.042  0.000  0.035  0.002  0.241  0.000  0.284  0.002  0.607
 
band    18 # energy   54.82836379 # occ.  0.00000000
 
ion      s     py     pz     px    dxy    dyz    dz2    dxz  x2-y2    tot
    1  0.000  0.085  0.458  0.150  0.053  0.017  0.028  0.010  0.000  0.800
 
band    19 # energy   54.82836379 # occ.  0.00000000
 
ion      s     py     pz     px    dxy    dyz    dz2    dxz  x2-y2    tot
    1  0.000  0.377  0.004  0.312  0.000  0.036  0.000  0.043  0.028  0.800
 
band    20 # energy   55.52380967 # occ.  0.00000000
 
ion      s     py     pz     px    dxy    dyz    dz2    dxz  x2-y2    tot
    1  6.267  0.001  0.001  0.001  0.001  0.001  0.000  0.001  0.000  6.273
 
band    21 # energy   55.86557531 # occ.  0.00000000
 
ion      s     py     pz     px    dxy    dyz    dz2    dxz  x2-y2    tot
    1  0.056  0.194  0.194  0.194  0.064  0.064  0.000  0.064  0.000  0.829
 
band    22 # energy   61.03847724 # occ.  0.00000000
 
ion      s     py     pz     px    dxy    dyz    dz2    dxz  x2-y2    tot
    1  0.000  0.009  0.029  0.006  0.000  0.000  0.520  0.000  0.001  0.565
 
band    23 # energy   61.03847724 # occ.  0.00000000
 
ion      s     py     pz     px    dxy    dyz    dz2    dxz  x2-y2    tot
    1  0.000  0.021  0.000  0.023  0.000  0.000  0.001  0.000  0.520  0.565
 
band    24 # energy   67.77777082 # occ.  0.00000000
 
ion      s     py     pz     px    dxy    dyz    dz2    dxz  x2-y2    tot
    1  0.000  0.000  0.000  0.000  0.000  0.000  0.000  0.000  0.000  0.000
 

 k-point     2 :    0.15000000 0.05000000 0.05000000     weight = 0.00600000

band     1 # energy  -37.70470912 # occ.  2.00000000
 
ion      s     py     pz     px    dxy    dyz    dz2    dxz  x2-y2    tot
    1  0.000  0.455  0.455  0.085  0.000  0.000  0.000  0.000  0.000  0.996
 
band     2 # energy  -37.61343768 # occ.  2.00000000
 
ion      s     py     pz     px    dxy    dyz    dz2    dxz  x2-y2    tot
    1  0.000  0.042  0.042  0.913  0.000  0.000  0.000  0.000  0.000  0.998
 
band     3 # energy  -37.59285681 # occ.  2.00000000
 
ion      s     py     pz     px    dxy    dyz    dz2    dxz  x2-y2    tot
    1  0.000  0.499  0.499  0.000  0.000  0.000  0.000  0.000  0.000  0.999
 
band     4 # energy    4.06869539 # occ.  2.00000000
 
ion      s     py     pz     px    dxy    dyz    dz2    dxz  x2-y2    tot
    1  0.451  0.005  0.005  0.001  0.000  0.003  0.000  0.000  0.000  0.466
 
band     5 # energy   10.20404177 # occ.  2.00000000
 
ion      s     py     pz     px    dxy    dyz    dz2    dxz  x2-y2    tot
    1  0.000  0.000  0.000  0.003  0.404  0.029  0.000  0.404  0.000  0.840
 
band     6 # energy   10.85350436 # occ.  2.00000000
 
ion      s     py     pz     px    dxy    dyz    dz2    dxz  x2-y2    tot
    1  0.000  0.000  0.000  0.000  0.433  0.000  0.004  0.433  0.001  0.871
 
band     7 # energy   10.90666358 # occ.  2.00000000
 
ion      s     py     pz     px    dxy    dyz    dz2    dxz  x2-y2    tot
    1  0.000  0.001  0.001  0.000  0.015  0.807  0.006  0.015  0.019  0.866
 
band     8 # energy   13.02903987 # occ.  2.00000000
 
ion      s     py     pz     px    dxy    dyz    dz2    dxz  x2-y2    tot
    1  0.000  0.000  0.000  0.000  0.002  0.000  0.680  0.002  0.227  0.911
 
band     9 # energy   13.40990505 # occ.  2.00000000
 
ion      s     py     pz     px    dxy    dyz    dz2    dxz  x2-y2    tot
    1  0.000  0.000  0.000  0.000  0.001  0.025  0.224  0.001  0.673  0.923
 
band    10 # energy   30.70327563 # occ.  0.00000000
 
ion      s     py     pz     px    dxy    dyz    dz2    dxz  x2-y2    tot
    1  0.000  0.000  0.000  0.000  0.019  0.002  0.000  0.019  0.000  0.041
 
band    11 # energy   33.09438944 # occ.  0.00000000
 
ion      s     py     pz     px    dxy    dyz    dz2    dxz  x2-y2    tot
    1  0.028  0.020  0.020  0.006  0.003  0.014  0.002  0.003  0.005  0.100
 
band    12 # energy   35.94515107 # occ.  0.00000000
 
ion      s     py     pz     px    dxy    dyz    dz2    dxz  x2-y2    tot
    1  0.000  0.002  0.002  0.073  0.009  0.002  0.002  0.009  0.005  0.104
 
band    13 # energy   36.93196745 # occ.  0.00000000
 
ion      s     py     pz     px    dxy    dyz    dz2    dxz  x2-y2    tot
    1  0.000  0.027  0.027  0.000  0.001  0.000  0.026  0.001  0.009  0.091
 
band    14 # energy   43.94192909 # occ.  0.00000000
 
ion      s     py     pz     px    dxy    dyz    dz2    dxz  x2-y2    tot
    1  0.000  0.086  0.086  0.010  0.006  0.091  0.000  0.006  0.000  0.285
 
band    15 # energy   46.30042657 # occ.  0.00000000
 
ion      s     py     pz     px    dxy    dyz    dz2    dxz  x2-y2    tot
    1  0.058  0.043  0.043  0.001  0.000  0.133  0.003  0.000  0.009  0.289
 
band    16 # energy   47.27033375 # occ.  0.00000000
 
ion      s     py     pz     px    dxy    dyz    dz2    dxz  x2-y2    tot
    1  0.005  0.000  0.000  0.219  0.136  0.011  0.001  0.136  0.002  0.510
 
band    17 # energy   49.14930724 # occ.  0.00000000
 
ion      s     py     pz     px    dxy    dyz    dz2    dxz  x2-y2    tot
    1  0.000  0.062  0.062  0.000  0.201  0.000  0.012  0.201  0.004  0.543
 
band    18 # energy   52.66875833 # occ.  0.00000000
 
ion      s     py     pz     px    dxy    dyz    dz2    dxz  x2-y2    tot
    1  0.000  0.251  0.251  0.000  0.065  0.000  0.070  0.065  0.023  0.726
 
band    19 # energy   55.50813288 # occ.  0.00000000
 
ion      s     py     pz     px    dxy    dyz    dz2    dxz  x2-y2    tot
    1  6.285  0.001  0.001  0.000  0.000  0.001  0.000  0.000  0.000  6.288
 
band    20 # energy   56.26668587 # occ.  0.00000000
 
ion      s     py     pz     px    dxy    dyz    dz2    dxz  x2-y2    tot
    1  0.077  0.150  0.150  0.040  0.000  0.294  0.011  0.000  0.033  0.756
 
band    21 # energy   58.56730337 # occ.  0.00000000
 
ion      s     py     pz     px    dxy    dyz    dz2    dxz  x2-y2    tot
    1  0.035  0.018  0.018  0.172  0.096  0.000  0.045  0.096  0.134  0.613
 
band    22 # energy   59.69690016 # occ.  0.00000000
 
ion      s     py     pz     px    dxy    dyz    dz2    dxz  x2-y2    tot
    1  0.001  0.003  0.003  0.330  0.066  0.021  0.037  0.066  0.110  0.637
 
band    23 # energy   62.24399018 # occ.  0.00000000
 
ion      s     py     pz     px    dxy    dyz    dz2    dxz  x2-y2    tot
    1  0.000  0.087  0.087  0.000  0.002  0.000  0.243  0.002  0.081  0.501
 
band    24 # energy   68.64707749 # occ.  0.00000000
 
ion      s     py     pz     px    dxy    dyz    dz2    dxz  x2-y2    tot
    1  0.000  0.001  0.001  0.000  0.013  0.000  0.041  0.013  0.014  0.083
 

 k-point     3 :    0.25000000 0.05000000 0.05000000     weight = 0.00600000

band     1 # energy  -37.92861621 # occ.  2.00000000
 
ion      s     py     pz     px    dxy    dyz    dz2    dxz  x2-y2    tot
    1  0.000  0.389  0.389  0.211  0.000  0.000  0.000  0.000  0.000  0.990
 
band     2 # energy  -37.65199724 # occ.  2.00000000
 
ion      s     py     pz     px    dxy    dyz    dz2    dxz  x2-y2    tot
    1  0.000  0.106  0.106  0.785  0.000  0.000  0.000  0.000  0.000  0.998
 
band     3 # energy  -37.62096074 # occ.  2.00000000
 
ion      s     py     pz     px    dxy    dyz    dz2    dxz  x2-y2    tot
    1  0.000  0.499  0.499  0.000  0.000  0.000  0.000  0.000  0.000  0.998
 
band     4 # energy    5.33187685 # occ.  2.00000000
 
ion      s     py     pz     px    dxy    dyz    dz2    dxz  x2-y2    tot
    1  0.396  0.011  0.011  0.003  0.016  0.028  0.000  0.016  0.001  0.481
 
band     5 # energy    9.93001386 # occ.  2.00000000
 
ion      s     py     pz     px    dxy    dyz    dz2    dxz  x2-y2    tot
    1  0.014  0.005  0.005  0.010  0.339  0.061  0.000  0.339  0.000  0.773
 
band     6 # energy   11.09007189 # occ.  2.00000000
 
ion      s     py     pz     px    dxy    dyz    dz2    dxz  x2-y2    tot
    1  0.001  0.002  0.002  0.000  0.035  0.581  0.050  0.035  0.151  0.858
 
band     7 # energy   11.13830067 # occ.  2.00000000
 
ion      s     py     pz     px    dxy    dyz    dz2    dxz  x2-y2    tot
    1  0.000  0.000  0.000  0.000  0.353  0.000  0.122  0.353  0.041  0.870
 
band     8 # energy   12.98859460 # occ.  2.00000000
 
ion      s     py     pz     px    dxy    dyz    dz2    dxz  x2-y2    tot
    1  0.000  0.000  0.000  0.000  0.085  0.000  0.546  0.085  0.182  0.898
 
band     9 # energy   13.74147038 # occ.  2.00000000
 
ion      s     py     pz     px    dxy    dyz    dz2    dxz  x2-y2    tot
    1  0.003  0.001  0.001  0.000  0.011  0.184  0.176  0.011  0.528  0.915
 
band    10 # energy   30.36958063 # occ.  0.00000000
 
ion      s     py     pz     px    dxy    dyz    dz2    dxz  x2-y2    tot
    1  0.061  0.018  0.018  0.014  0.008  0.025  0.002  0.008  0.005  0.158
 
band    11 # energy   32.33526794 # occ.  0.00000000
 
ion      s     py     pz     px    dxy    dyz    dz2    dxz  x2-y2    tot
    1  0.012  0.007  0.007  0.012  0.065  0.031  0.000  0.065  0.000  0.199
 
band    12 # energy   37.69856589 # occ.  0.00000000
 
ion      s     py     pz     px    dxy    dyz    dz2    dxz  x2-y2    tot
    1  0.000  0.005  0.005  0.110  0.018  0.014  0.009  0.018  0.027  0.205
 
band    13 # energy   39.54110019 # occ.  0.00000000
 
ion      s     py     pz     px    dxy    dyz    dz2    dxz  x2-y2    tot
    1  0.000  0.023  0.023  0.000  0.004  0.000  0.070  0.004  0.023  0.149
 
band    14 # energy   40.22351333 # occ.  0.00000000
 
ion      s     py     pz     px    dxy    dyz    dz2    dxz  x2-y2    tot
    1  0.046  0.109  0.109  0.002  0.000  0.079  0.001  0.000  0.003  0.349
 
band    15 # energy   43.65796943 # occ.  0.00000000
 
ion      s     py     pz     px    dxy    dyz    dz2    dxz  x2-y2    tot
    1  0.004  0.000  0.000  0.165  0.043  0.020  0.007  0.043  0.021  0.303
 
band    16 # energy   44.44313567 # occ.  0.00000000
 
ion      s     py     pz     px    dxy    dyz    dz2    dxz  x2-y2    tot
    1  0.000  0.115  0.115  0.000  0.087  0.000  0.026  0.087  0.009  0.438
 
band    17 # energy   50.37773297 # occ.  0.00000000
 
ion      s     py     pz     px    dxy    dyz    dz2    dxz  x2-y2    tot
    1  0.057  0.001  0.001  0.001  0.001  0.001  0.002  0.001  0.006  0.070
 
band    18 # energy   52.87001439 # occ.  0.00000000
 
ion      s     py     pz     px    dxy    dyz    dz2    dxz  x2-y2    tot
    1  0.000  0.161  0.161  0.000  0.127  0.000  0.074  0.127  0.025  0.675
 
band    19 # energy   55.51885709 # occ.  0.00000000
 
ion      s     py     pz     px    dxy    dyz    dz2    dxz  x2-y2    tot
    1  6.297  0.000  0.000  0.000  0.000  0.000  0.000  0.000  0.000  6.297
 
band    20 # energy   56.72565980 # occ.  0.00000000
 
ion      s     py     pz     px    dxy    dyz    dz2    dxz  x2-y2    tot
    1  0.051  0.069  0.069  0.100  0.004  0.309  0.030  0.004  0.089  0.725
 
band    21 # energy   58.14859190 # occ.  0.00000000
 
ion      s     py     pz     px    dxy    dyz    dz2    dxz  x2-y2    tot
    1  0.081  0.026  0.026  0.002  0.074  0.000  0.035  0.074  0.105  0.425
 
band    22 # energy   61.68942968 # occ.  0.00000000
 
ion      s     py     pz     px    dxy    dyz    dz2    dxz  x2-y2    tot
    1  0.053  0.012  0.012  0.327  0.121  0.052  0.002  0.121  0.007  0.706
 
band    23 # energy   62.74279413 # occ.  0.00000000
 
ion      s     py     pz     px    dxy    dyz    dz2    dxz  x2-y2    tot
    1  0.000  0.117  0.117  0.000  0.011  0.000  0.127  0.011  0.042  0.426
 
band    24 # energy   69.00277198 # occ.  0.00000000
 
ion      s     py     pz     px    dxy    dyz    dz2    dxz  x2-y2    tot
    1  0.000  0.000  0.000  0.000  0.006  0.000  0.049  0.006  0.016  0.079
 

 k-point     4 :    0.35000000 0.05000000 0.05000000     weight = 0.00600000

band     1 # energy  -38.18114842 # occ.  2.00000000
 
ion      s     py     pz     px    dxy    dyz    dz2    dxz  x2-y2    tot
    1  0.000  0.358  0.358  0.266  0.000  0.000  0.000  0.000  0.000  0.983
 
band     2 # energy  -37.68965216 # occ.  2.00000000
 
ion      s     py     pz     px    dxy    dyz    dz2    dxz  x2-y2    tot
    1  0.000  0.135  0.135  0.727  0.000  0.000  0.000  0.000  0.000  0.997
 
band     3 # energy  -37.65797706 # occ.  2.00000000
 
ion      s     py     pz     px    dxy    dyz    dz2    dxz  x2-y2    tot
    1  0.000  0.499  0.499  0.000  0.000  0.000  0.000  0.000  0.000  0.998
 
band     4 # energy    6.29387571 # occ.  2.00000000
 
ion      s     py     pz     px    dxy    dyz    dz2    dxz  x2-y2    tot
    1  0.264  0.008  0.008  0.001  0.098  0.107  0.000  0.098  0.001  0.586
 
band     5 # energy   10.70182900 # occ.  2.00000000
 
ion      s     py     pz     px    dxy    dyz    dz2    dxz  x2-y2    tot
    1  0.046  0.012  0.012  0.021  0.248  0.038  0.021  0.248  0.063  0.708
 
band     6 # energy   10.89469030 # occ.  2.00000000
 
ion      s     py     pz     px    dxy    dyz    dz2    dxz  x2-y2    tot
    1  0.027  0.014  0.014  0.007  0.006  0.335  0.082  0.006  0.247  0.738
 
band     7 # energy   10.92320339 # occ.  2.00000000
 
ion      s     py     pz     px    dxy    dyz    dz2    dxz  x2-y2    tot
    1  0.000  0.000  0.000  0.000  0.219  0.000  0.316  0.219  0.105  0.861
 
band     8 # energy   13.85542342 # occ.  2.00000000
 
ion      s     py     pz     px    dxy    dyz    dz2    dxz  x2-y2    tot
    1  0.000  0.001  0.001  0.000  0.225  0.000  0.343  0.225  0.114  0.910
 
band     9 # energy   14.72058092 # occ.  2.00000000
 
ion      s     py     pz     px    dxy    dyz    dz2    dxz  x2-y2    tot
    1  0.008  0.003  0.003  0.000  0.028  0.365  0.120  0.028  0.360  0.916
 
band    10 # energy   27.49375860 # occ.  0.00000000
 
ion      s     py     pz     px    dxy    dyz    dz2    dxz  x2-y2    tot
    1  0.161  0.026  0.026  0.027  0.050  0.067  0.001  0.050  0.003  0.412
 
band    11 # energy   31.42019968 # occ.  0.00000000
 
ion      s     py     pz     px    dxy    dyz    dz2    dxz  x2-y2    tot
    1  0.026  0.016  0.016  0.020  0.053  0.024  0.000  0.053  0.001  0.210
 
band    12 # energy   37.62069477 # occ.  0.00000000
 
ion      s     py     pz     px    dxy    dyz    dz2    dxz  x2-y2    tot
    1  0.010  0.054  0.054  0.130  0.033  0.036  0.000  0.033  0.000  0.349
 
band    13 # energy   39.94000670 # occ.  0.00000000
 
ion      s     py     pz     px    dxy    dyz    dz2    dxz  x2-y2    tot
    1  0.000  0.104  0.104  0.000  0.035  0.000  0.030  0.035  0.010  0.320
 
band    14 # energy   40.46685268 # occ.  0.00000000
 
ion      s     py     pz     px    dxy    dyz    dz2    dxz  x2-y2    tot
    1  0.014  0.004  0.004  0.067  0.000  0.017  0.016  0.000  0.048  0.170
 
band    15 # energy   42.91104021 # occ.  0.00000000
 
ion      s     py     pz     px    dxy    dyz    dz2    dxz  x2-y2    tot
    1  0.000  0.027  0.027  0.000  0.023  0.000  0.126  0.023  0.042  0.266
 
band    16 # energy   43.06277466 # occ.  0.00000000
 
ion      s     py     pz     px    dxy    dyz    dz2    dxz  x2-y2    tot
    1  0.023  0.011  0.011  0.024  0.002  0.000  0.018  0.002  0.055  0.146
 
band    17 # energy   53.09929288 # occ.  0.00000000
 
ion      s     py     pz     px    dxy    dyz    dz2    dxz  x2-y2    tot
    1  0.000  0.157  0.157  0.000  0.107  0.000  0.065  0.107  0.022  0.614
 
band    18 # energy   55.38793256 # occ.  0.00000000
 
ion      s     py     pz     px    dxy    dyz    dz2    dxz  x2-y2    tot
    1  1.281  0.002  0.002  0.031  0.000  0.116  0.014  0.000  0.041  1.487
 
band    19 # energy   55.54934163 # occ.  0.00000000
 
ion      s     py     pz     px    dxy    dyz    dz2    dxz  x2-y2    tot
    1  5.130  0.000  0.000  0.006  0.000  0.022  0.003  0.000  0.009  5.170
 
band    20 # energy   57.24207265 # occ.  0.00000000
 
ion      s     py     pz     px    dxy    dyz    dz2    dxz  x2-y2    tot
    1  0.001  0.047  0.047  0.095  0.022  0.114  0.026  0.022  0.077  0.450
 
band    21 # energy   58.26449898 # occ.  0.00000000
 
ion      s     py     pz     px    dxy    dyz    dz2    dxz  x2-y2    tot
    1  0.084  0.012  0.012  0.028  0.091  0.008  0.012  0.091  0.035  0.372
 
band    22 # energy   61.60728094 # occ.  0.00000000
 
ion      s     py     pz     px    dxy    dyz    dz2    dxz  x2-y2    tot
    1  0.017  0.053  0.053  0.178  0.043  0.089  0.000  0.043  0.001  0.478
 
band    23 # energy   63.38159999 # occ.  0.00000000
 
ion      s     py     pz     px    dxy    dyz    dz2    dxz  x2-y2    tot
    1  0.000  0.128  0.128  0.000  0.017  0.000  0.070  0.017  0.023  0.384
 
band    24 # energy   68.07196158 # occ.  0.00000000
 
ion      s     py     pz     px    dxy    dyz    dz2    dxz  x2-y2    tot
    1  0.000  0.002  0.002  0.000  0.034  0.000  0.076  0.034  0.025  0.173
 

 k-point     5 :    0.45000000 0.05000000 0.05000000     weight = 0.00600000

band     1 # energy  -38.36718864 # occ.  2.00000000
 
ion      s     py     pz     px    dxy    dyz    dz2    dxz  x2-y2    tot
    1  0.000  0.338  0.338  0.302  0.000  0.000  0.000  0.000  0.000  0.978
 
band     2 # energy  -37.71333766 # occ.  2.00000000
 
ion      s     py     pz     px    dxy    dyz    dz2    dxz  x2-y2    tot
    1  0.000  0.154  0.154  0.688  0.000  0.000  0.000  0.000  0.000  0.996
 
band     3 # energy  -37.69047096 # occ.  2.00000000
 
ion      s     py     pz     px    dxy    dyz    dz2    dxz  x2-y2    tot
    1  0.000  0.498  0.498  0.000  0.000  0.000  0.000  0.000  0.000  0.997
 
band     4 # energy    6.42741113 # occ.  2.00000000
 
ion      s     py     pz     px    dxy    dyz    dz2    dxz  x2-y2    tot
    1  0.171  0.002  0.002  0.000  0.164  0.167  0.000  0.164  0.000  0.669
 
band     5 # energy   10.49836266 # occ.  2.00000000
 
ion      s     py     pz     px    dxy    dyz    dz2    dxz  x2-y2    tot
    1  0.000  0.000  0.000  0.000  0.055  0.249  0.121  0.055  0.363  0.845
 
band     6 # energy   10.62806567 # occ.  2.00000000
 
ion      s     py     pz     px    dxy    dyz    dz2    dxz  x2-y2    tot
    1  0.000  0.000  0.000  0.000  0.176  0.000  0.376  0.176  0.125  0.853
 
band     7 # energy   12.82598462 # occ.  2.00000000
 
ion      s     py     pz     px    dxy    dyz    dz2    dxz  x2-y2    tot
    1  0.050  0.049  0.049  0.050  0.096  0.007  0.012  0.096  0.035  0.444
 
band     8 # energy   14.99499646 # occ.  2.00000000
 
ion      s     py     pz     px    dxy    dyz    dz2    dxz  x2-y2    tot
    1  0.000  0.001  0.001  0.000  0.281  0.000  0.283  0.281  0.094  0.941
 
band     9 # energy   15.83139271 # occ.  0.00000000
 
ion      s     py     pz     px    dxy    dyz    dz2    dxz  x2-y2    tot
    1  0.015  0.011  0.011  0.006  0.034  0.406  0.089  0.034  0.267  0.875
 
band    10 # energy   24.14559777 # occ.  0.00000000
 
ion      s     py     pz     px    dxy    dyz    dz2    dxz  x2-y2    tot
    1  0.321  0.016  0.016  0.019  0.111  0.107  0.001  0.111  0.002  0.704
 
band    11 # energy   29.76434262 # occ.  0.00000000
 
ion      s     py     pz     px    dxy    dyz    dz2    dxz  x2-y2    tot
    1  0.006  0.007  0.007  0.008  0.013  0.001  0.001  0.013  0.003  0.057
 
band    12 # energy   35.60593514 # occ.  0.00000000
 
ion      s     py     pz     px    dxy    dyz    dz2    dxz  x2-y2    tot
    1  0.003  0.038  0.038  0.147  0.016  0.003  0.000  0.016  0.000  0.262
 
band    13 # energy   36.67486802 # occ.  0.00000000
 
ion      s     py     pz     px    dxy    dyz    dz2    dxz  x2-y2    tot
    1  0.000  0.107  0.107  0.000  0.009  0.000  0.015  0.009  0.005  0.251
 
band    14 # energy   44.24459961 # occ.  0.00000000
 
ion      s     py     pz     px    dxy    dyz    dz2    dxz  x2-y2    tot
    1  0.007  0.000  0.000  0.039  0.000  0.073  0.041  0.000  0.124  0.284
 
band    15 # energy   45.92263977 # occ.  0.00000000
 
ion      s     py     pz     px    dxy    dyz    dz2    dxz  x2-y2    tot
    1  0.000  0.005  0.005  0.000  0.053  0.000  0.228  0.053  0.076  0.420
 
band    16 # energy   45.98772373 # occ.  0.00000000
 
ion      s     py     pz     px    dxy    dyz    dz2    dxz  x2-y2    tot
    1  0.050  0.012  0.012  0.005  0.051  0.003  0.017  0.051  0.052  0.252
 
band    17 # energy   53.32671038 # occ.  0.00000000
 
ion      s     py     pz     px    dxy    dyz    dz2    dxz  x2-y2    tot
    1  0.000  0.182  0.182  0.000  0.038  0.000  0.015  0.038  0.005  0.460
 
band    18 # energy   55.09564280 # occ.  0.00000000
 
ion      s     py     pz     px    dxy    dyz    dz2    dxz  x2-y2    tot
    1  0.231  0.001  0.001  0.133  0.009  0.150  0.013  0.009  0.040  0.589
 
band    19 # energy   55.51944267 # occ.  0.00000000
 
ion      s     py     pz     px    dxy    dyz    dz2    dxz  x2-y2    tot
    1  6.144  0.000  0.000  0.003  0.000  0.002  0.000  0.000  0.001  6.151
 
band    20 # energy   55.92602555 # occ.  0.00000000
 
ion      s     py     pz     px    dxy    dyz    dz2    dxz  x2-y2    tot
    1  0.011  0.071  0.071  0.059  0.047  0.001  0.017  0.047  0.050  0.374
 
band    21 # energy   60.65145193 # occ.  0.00000000
 
ion      s     py     pz     px    dxy    dyz    dz2    dxz  x2-y2    tot
    1  0.006  0.056  0.056  0.119  0.012  0.065  0.002  0.012  0.005  0.332
 
band    22 # energy   63.33450426 # occ.  0.00000000
 
ion      s     py     pz     px    dxy    dyz    dz2    dxz  x2-y2    tot
    1  0.042  0.002  0.002  0.000  0.001  0.002  0.000  0.001  0.000  0.049
 
band    23 # energy   63.56721318 # occ.  0.00000000
 
ion      s     py     pz     px    dxy    dyz    dz2    dxz  x2-y2    tot
    1  0.000  0.092  0.092  0.000  0.003  0.000  0.032  0.003  0.011  0.231
 
band    24 # energy   65.14243373 # occ.  0.00000000
 
ion      s     py     pz     px    dxy    dyz    dz2    dxz  x2-y2    tot
    1  0.000  0.039  0.039  0.000  0.129  0.000  0.001  0.129  0.000  0.335
 

 k-point     6 :   -0.45000000 0.05000000 0.05000000     weight = 0.00600000

band     1 # energy  -38.41848192 # occ.  2.00000000
 
ion      s     py     pz     px    dxy    dyz    dz2    dxz  x2-y2    tot
    1  0.000  0.322  0.322  0.333  0.000  0.000  0.000  0.000  0.000  0.976
 
band     2 # energy  -37.71354252 # occ.  2.00000000
 
ion      s     py     pz     px    dxy    dyz    dz2    dxz  x2-y2    tot
    1  0.000  0.170  0.170  0.657  0.000  0.000  0.000  0.000  0.000  0.996
 
band     3 # energy  -37.70612400 # occ.  2.00000000
 
ion      s     py     pz     px    dxy    dyz    dz2    dxz  x2-y2    tot
    1  0.000  0.498  0.498  0.000  0.000  0.000  0.000  0.000  0.000  0.996
 
band     4 # energy    6.40054848 # occ.  2.00000000
 
ion      s     py     pz     px    dxy    dyz    dz2    dxz  x2-y2    tot
    1  0.154  0.000  0.000  0.001  0.173  0.184  0.000  0.173  0.000  0.685
 
band     5 # energy   10.37908468 # occ.  2.00000000
 
ion      s     py     pz     px    dxy    dyz    dz2    dxz  x2-y2    tot
    1  0.000  0.000  0.000  0.000  0.059  0.210  0.128  0.059  0.384  0.842
 
band     6 # energy   10.56158097 # occ.  2.00000000
 
ion      s     py     pz     px    dxy    dyz    dz2    dxz  x2-y2    tot
    1  0.000  0.000  0.000  0.000  0.172  0.000  0.379  0.172  0.126  0.851
 
band     7 # energy   13.67474202 # occ.  2.00000000
 
ion      s     py     pz     px    dxy    dyz    dz2    dxz  x2-y2    tot
    1  0.003  0.053  0.053  0.052  0.022  0.164  0.021  0.022  0.063  0.454
 
band     8 # energy   15.57012521 # occ.  0.07764822
 
ion      s     py     pz     px    dxy    dyz    dz2    dxz  x2-y2    tot
    1  0.000  0.000  0.000  0.000  0.290  0.000  0.286  0.290  0.095  0.961
 
band     9 # energy   16.22015282 # occ.  0.00000000
 
ion      s     py     pz     px    dxy    dyz    dz2    dxz  x2-y2    tot
    1  0.001  0.023  0.023  0.028  0.080  0.230  0.071  0.080  0.214  0.752
 
band    10 # energy   22.69310670 # occ.  0.00000000
 
ion      s     py     pz     px    dxy    dyz    dz2    dxz  x2-y2    tot
    1  0.412  0.001  0.001  0.000  0.138  0.139  0.000  0.138  0.000  0.832
 
band    11 # energy   29.35244689 # occ.  0.00000000
 
ion      s     py     pz     px    dxy    dyz    dz2    dxz  x2-y2    tot
    1  0.000  0.004  0.004  0.006  0.000  0.005  0.001  0.000  0.003  0.025
 
band    12 # energy   35.36455075 # occ.  0.00000000
 
ion      s     py     pz     px    dxy    dyz    dz2    dxz  x2-y2    tot
    1  0.000  0.109  0.109  0.000  0.001  0.000  0.004  0.001  0.001  0.224
 
band    13 # energy   35.37132942 # occ.  0.00000000
 
ion      s     py     pz     px    dxy    dyz    dz2    dxz  x2-y2    tot
    1  0.002  0.036  0.036  0.142  0.003  0.008  0.002  0.003  0.006  0.239
 
band    14 # energy   46.23929890 # occ.  0.00000000
 
ion      s     py     pz     px    dxy    dyz    dz2    dxz  x2-y2    tot
    1  0.000  0.004  0.004  0.000  0.059  0.000  0.238  0.059  0.079  0.445
 
band    15 # energy   46.55327748 # occ.  0.00000000
 
ion      s     py     pz     px    dxy    dyz    dz2    dxz  x2-y2    tot
    1  0.000  0.000  0.000  0.003  0.019  0.084  0.084  0.019  0.252  0.462
 
band    16 # energy   47.90643724 # occ.  0.00000000
 
ion      s     py     pz     px    dxy    dyz    dz2    dxz  x2-y2    tot
    1  0.092  0.004  0.004  0.000  0.074  0.081  0.000  0.074  0.000  0.329
 
band    17 # energy   53.07273402 # occ.  0.00000000
 
ion      s     py     pz     px    dxy    dyz    dz2    dxz  x2-y2    tot
    1  0.020  0.080  0.080  0.005  0.014  0.000  0.000  0.014  0.001  0.213
 
band    18 # energy   53.75910666 # occ.  0.00000000
 
ion      s     py     pz     px    dxy    dyz    dz2    dxz  x2-y2    tot
    1  0.009  0.016  0.016  0.266  0.000  0.000  0.003  0.000  0.008  0.319
 
band    19 # energy   54.67809011 # occ.  0.00000000
 
ion      s     py     pz     px    dxy    dyz    dz2    dxz  x2-y2    tot
    1  0.000  0.179  0.179  0.000  0.004  0.000  0.026  0.004  0.009  0.403
 
band    20 # energy   55.51148284 # occ.  0.00000000
 
ion      s     py     pz     px    dxy    dyz    dz2    dxz  x2-y2    tot
    1  6.283  0.000  0.000  0.000  0.000  0.000  0.000  0.000  0.000  6.283
 
band    21 # energy   61.67803726 # occ.  0.00000000
 
ion      s     py     pz     px    dxy    dyz    dz2    dxz  x2-y2    tot
    1  0.000  0.080  0.080  0.000  0.061  0.000  0.000  0.061  0.000  0.281
 
band    22 # energy   62.20930637 # occ.  0.00000000
 
ion      s     py     pz     px    dxy    dyz    dz2    dxz  x2-y2    tot
    1  0.011  0.020  0.020  0.081  0.012  0.056  0.001  0.012  0.002  0.215
 