<?xml version="1.0" encoding="ISO-8859-1"?>
<modeling>
 <generator>
  <i name="program" type="string">vasp </i>
  <i name="version" type="string">6.3.2  </i>
  <i name="subversion" type="string">27Jun22 (build Aug 12 2022 00:53:59) complex                          parallel </i>
  <i name="platform" type="string">tv2STD </i>
  <i name="date" type="string">2024 12 03 </i>
  <i name="time" type="string">01:38:22 </i>
 </generator>
 <incar>
  <i type="string" name="SYSTEM">Pt-fcc</i>
  <i type="int" name="ISTART">     0</i>
  <i type="string" name="PREC">accurate      normal | accurate</i>
  <i type="string" name="ALGO">Normal     Normal, Fast, Very_Fast</i>
  <i type="logical" name="ADDGRID"> F  </i>
  <i type="int" name="ICHARG">     2</i>
  <i type="int" name="INIWAV">     1</i>
  <i type="int" name="NELM">   100</i>
  <i type="int" name="IBRION">     2</i>
  <i name="EDIFF">      0.00000100</i>
  <i name="EDIFFG">     -0.02000000</i>
  <i type="int" name="NSW">   100</i>
  <i type="int" name="ISIF">     2</i>
  <i type="int" name="ISYM">     1</i>
  <i name="ENCUT">    425.00000000</i>
  <i type="logical" name="LREAL"> F  </i>
  <i type="int" name="ISMEAR">     0</i>
  <i name="SIGMA">      0.05000000</i>
  <i type="int" name="NWRITE">     2</i>
  <i type="logical" name="LWAVE"> T  </i>
  <i type="logical" name="LCHARG"> T  </i>
  <i type="int" name="LORBIT">    11</i>
 </incar>
 <primitive_cell>
  <structure name="primitive_cell" >
   <crystal>
    <varray name="basis" >
     <v>       0.00000000       1.86011771       1.86011771 </v>
     <v>       1.86011771       0.00000000       1.86011771 </v>
     <v>       1.86011771       1.86011771       0.00000000 </v>
    </varray>
    <i name="volume">     12.87215557 </i>
    <varray name="rec_basis" >
     <v>      -0.26880019       0.26880019       0.26880019 </v>
     <v>       0.26880019      -0.26880019       0.26880019 </v>
     <v>       0.26880019       0.26880019      -0.26880019 </v>
    </varray>
   </crystal>
   <varray name="positions" >
    <v>       0.00000000       0.00000000       0.00000000 </v>
   </varray>
  </structure>
  <varray name="primitive_index" >
   <v type="int" >        1 </v>
  </varray>
 </primitive_cell>
 <kpoints>
  <generation param="Monkhorst-Pack">
   <v type="int" name="divisions">      10       10       10 </v>
   <v name="usershift">      0.00000000       0.00000000       0.00000000 </v>
   <v name="genvec1">      0.10000000      -0.00000000      -0.00000000 </v>
   <v name="genvec2">      0.00000000       0.10000000       0.00000000 </v>
   <v name="genvec3">      0.00000000       0.00000000       0.10000000 </v>
   <v name="shift">      0.50000000       0.50000000       0.50000000 </v>
  </generation>
  <varray name="kpointlist" >
   <v>       0.05000000       0.05000000       0.05000000 </v>
   <v>       0.15000000       0.05000000       0.05000000 </v>
   <v>       0.25000000       0.05000000       0.05000000 </v>
   <v>       0.35000000       0.05000000       0.05000000 </v>
   <v>       0.45000000       0.05000000       0.05000000 </v>
   <v>      -0.45000000       0.05000000       0.05000000 </v>
   <v>      -0.35000000       0.05000000       0.05000000 </v>
   <v>      -0.25000000       0.05000000       0.05000000 </v>
   <v>      -0.15000000       0.05000000       0.05000000 </v>
   <v>      -0.05000000       0.05000000       0.05000000 </v>
   <v>       0.15000000       0.15000000       0.05000000 </v>
   <v>       0.25000000       0.15000000       0.05000000 </v>
   <v>       0.35000000       0.15000000       0.05000000 </v>
   <v>       0.45000000       0.15000000       0.05000000 </v>
   <v>      -0.45000000       0.15000000       0.05000000 </v>
   <v>      -0.35000000       0.15000000       0.05000000 </v>
   <v>      -0.25000000       0.15000000       0.05000000 </v>
   <v>      -0.15000000       0.15000000       0.05000000 </v>
   <v>      -0.05000000       0.15000000       0.05000000 </v>
   <v>       0.25000000       0.25000000       0.05000000 </v>
   <v>       0.35000000       0.25000000       0.05000000 </v>
   <v>       0.45000000       0.25000000       0.05000000 </v>
   <v>      -0.45000000       0.25000000       0.05000000 </v>
   <v>      -0.35000000       0.25000000       0.05000000 </v>
   <v>      -0.25000000       0.25000000       0.05000000 </v>
   <v>      -0.15000000       0.25000000       0.05000000 </v>
   <v>      -0.05000000       0.25000000       0.05000000 </v>
   <v>       0.35000000       0.35000000       0.05000000 </v>
   <v>       0.45000000       0.35000000       0.05000000 </v>
   <v>      -0.45000000       0.35000000       0.05000000 </v>
   <v>      -0.35000000       0.35000000       0.05000000 </v>
   <v>      -0.25000000       0.35000000       0.05000000 </v>
   <v>      -0.15000000       0.35000000       0.05000000 </v>
   <v>      -0.05000000       0.35000000       0.05000000 </v>
   <v>       0.45000000       0.45000000       0.05000000 </v>
   <v>      -0.45000000       0.45000000       0.05000000 </v>
   <v>      -0.35000000       0.45000000       0.05000000 </v>
   <v>      -0.25000000       0.45000000       0.05000000 </v>
   <v>      -0.15000000       0.45000000       0.05000000 </v>
   <v>      -0.05000000       0.45000000       0.05000000 </v>
   <v>      -0.45000000      -0.45000000       0.05000000 </v>
   <v>      -0.35000000      -0.45000000       0.05000000 </v>
   <v>      -0.25000000      -0.45000000       0.05000000 </v>
   <v>      -0.15000000      -0.45000000       0.05000000 </v>
   <v>      -0.35000000      -0.35000000       0.05000000 </v>
   <v>      -0.25000000      -0.35000000       0.05000000 </v>
   <v>      -0.15000000      -0.35000000       0.05000000 </v>
   <v>      -0.25000000      -0.25000000       0.05000000 </v>
   <v>      -0.15000000      -0.25000000       0.05000000 </v>
   <v>      -0.15000000      -0.15000000       0.05000000 </v>
   <v>       0.15000000       0.15000000       0.15000000 </v>
   <v>       0.25000000       0.15000000       0.15000000 </v>
   <v>       0.35000000       0.15000000       0.15000000 </v>
   <v>       0.45000000       0.15000000       0.15000000 </v>
   <v>      -0.45000000       0.15000000       0.15000000 </v>
   <v>      -0.35000000       0.15000000       0.15000000 </v>
   <v>      -0.25000000       0.15000000       0.15000000 </v>
   <v>      -0.15000000       0.15000000       0.15000000 </v>
   <v>       0.25000000       0.25000000       0.15000000 </v>
   <v>       0.35000000       0.25000000       0.15000000 </v>
   <v>       0.45000000       0.25000000       0.15000000 </v>
   <v>      -0.45000000       0.25000000       0.15000000 </v>
   <v>      -0.35000000       0.25000000       0.15000000 </v>
   <v>      -0.25000000       0.25000000       0.15000000 </v>
   <v>      -0.15000000       0.25000000       0.15000000 </v>
   <v>       0.35000000       0.35000000       0.15000000 </v>
   <v>       0.45000000       0.35000000       0.15000000 </v>
   <v>      -0.45000000       0.35000000       0.15000000 </v>
   <v>      -0.35000000       0.35000000       0.15000000 </v>
   <v>      -0.25000000       0.35000000       0.15000000 </v>
   <v>      -0.15000000       0.35000000       0.15000000 </v>
   <v>       0.45000000       0.45000000       0.15000000 </v>
   <v>      -0.45000000       0.45000000       0.15000000 </v>
   <v>      -0.35000000       0.45000000       0.15000000 </v>
   <v>      -0.25000000       0.45000000       0.15000000 </v>
   <v>      -0.15000000       0.45000000       0.15000000 </v>
   <v>      -0.45000000      -0.45000000       0.15000000 </v>
   <v>      -0.35000000      -0.45000000       0.15000000 </v>
   <v>      -0.25000000      -0.45000000       0.15000000 </v>
   <v>      -0.35000000      -0.35000000       0.15000000 </v>
   <v>      -0.25000000      -0.35000000       0.15000000 </v>
   <v>      -0.25000000      -0.25000000       0.15000000 </v>
   <v>       0.25000000       0.25000000       0.25000000 </v>
   <v>       0.35000000       0.25000000       0.25000000 </v>
   <v>       0.45000000       0.25000000       0.25000000 </v>
   <v>      -0.45000000       0.25000000       0.25000000 </v>
   <v>      -0.35000000       0.25000000       0.25000000 </v>
   <v>      -0.25000000       0.25000000       0.25000000 </v>
   <v>       0.35000000       0.35000000       0.25000000 </v>
   <v>       0.45000000       0.35000000       0.25000000 </v>
   <v>      -0.45000000       0.35000000       0.25000000 </v>
   <v>      -0.35000000       0.35000000       0.25000000 </v>
   <v>      -0.25000000       0.35000000       0.25000000 </v>
   <v>       0.45000000       0.45000000       0.25000000 </v>
   <v>      -0.45000000       0.45000000       0.25000000 </v>
   <v>      -0.35000000       0.45000000       0.25000000 </v>
   <v>      -0.25000000       0.45000000       0.25000000 </v>
   <v>      -0.45000000      -0.45000000       0.25000000 </v>
   <v>      -0.35000000      -0.45000000       0.25000000 </v>
   <v>      -0.35000000      -0.35000000       0.25000000 </v>
   <v>       0.35000000       0.35000000       0.35000000 </v>
   <v>       0.45000000       0.35000000       0.35000000 </v>
   <v>      -0.45000000       0.35000000       0.35000000 </v>
   <v>      -0.35000000       0.35000000       0.35000000 </v>
   <v>       0.45000000       0.45000000       0.35000000 </v>
   <v>      -0.45000000       0.45000000       0.35000000 </v>
   <v>      -0.35000000       0.45000000       0.35000000 </v>
   <v>      -0.45000000      -0.45000000       0.35000000 </v>
   <v>       0.45000000       0.45000000       0.45000000 </v>
   <v>      -0.45000000       0.45000000       0.45000000 </v>
  </varray>
  <varray name="weights" >
   <v>       0.00200000 </v>
   <v>       0.00600000 </v>
   <v>       0.00600000 </v>
   <v>       0.00600000 </v>
   <v>       0.00600000 </v>
   <v>       0.00600000 </v>
   <v>       0.00600000 </v>
   <v>       0.00600000 </v>
   <v>       0.00600000 </v>
   <v>       0.00600000 </v>
   <v>       0.00600000 </v>
   <v>       0.01200000 </v>
   <v>       0.01200000 </v>
   <v>       0.01200000 </v>
   <v>       0.01200000 </v>
   <v>       0.01200000 </v>
   <v>       0.01200000 </v>
   <v>       0.01200000 </v>
   <v>       0.01200000 </v>
   <v>       0.00600000 </v>
   <v>       0.01200000 </v>
   <v>       0.01200000 </v>
   <v>       0.01200000 </v>
   <v>       0.01200000 </v>
   <v>       0.01200000 </v>
   <v>       0.01200000 </v>
   <v>       0.01200000 </v>
   <v>       0.00600000 </v>
   <v>       0.01200000 </v>
   <v>       0.01200000 </v>
   <v>       0.01200000 </v>
   <v>       0.01200000 </v>
   <v>       0.01200000 </v>
   <v>       0.01200000 </v>
   <v>       0.00600000 </v>
   <v>       0.01200000 </v>
   <v>       0.01200000 </v>
   <v>       0.01200000 </v>
   <v>       0.01200000 </v>
   <v>       0.01200000 </v>
   <v>       0.00600000 </v>
   <v>       0.01200000 </v>
   <v>       0.01200000 </v>
   <v>       0.01200000 </v>
   <v>       0.00600000 </v>
   <v>       0.01200000 </v>
   <v>       0.01200000 </v>
   <v>       0.00600000 </v>
   <v>       0.01200000 </v>
   <v>       0.00600000 </v>
   <v>       0.00200000 </v>
   <v>       0.00600000 </v>
   <v>       0.00600000 </v>
   <v>       0.00600000 </v>
   <v>       0.00600000 </v>
   <v>       0.00600000 </v>
   <v>       0.00600000 </v>
   <v>       0.00600000 </v>
   <v>       0.00600000 </v>
   <v>       0.01200000 </v>
   <v>       0.01200000 </v>
   <v>       0.01200000 </v>
   <v>       0.01200000 </v>
   <v>       0.01200000 </v>
   <v>       0.01200000 </v>
   <v>       0.00600000 </v>
   <v>       0.01200000 </v>
   <v>       0.01200000 </v>
   <v>       0.01200000 </v>
   <v>       0.01200000 </v>
   <v>       0.01200000 </v>
   <v>       0.00600000 </v>
   <v>       0.01200000 </v>
   <v>       0.01200000 </v>
   <v>       0.01200000 </v>
   <v>       0.01200000 </v>
   <v>       0.00600000 </v>
   <v>       0.01200000 </v>
   <v>       0.01200000 </v>
   <v>       0.00600000 </v>
   <v>       0.01200000 </v>
   <v>       0.00600000 </v>
   <v>       0.00200000 </v>
   <v>       0.00600000 </v>
   <v>       0.00600000 </v>
   <v>       0.00600000 </v>
   <v>       0.00600000 </v>
   <v>       0.00600000 </v>
   <v>       0.00600000 </v>
   <v>       0.01200000 </v>
   <v>       0.01200000 </v>
   <v>       0.01200000 </v>
   <v>       0.01200000 </v>
   <v>       0.00600000 </v>
   <v>       0.01200000 </v>
   <v>       0.01200000 </v>
   <v>       0.01200000 </v>
   <v>       0.00600000 </v>
   <v>       0.01200000 </v>
   <v>       0.00600000 </v>
   <v>       0.00200000 </v>
   <v>       0.00600000 </v>
   <v>       0.00600000 </v>
   <v>       0.00600000 </v>
   <v>       0.00600000 </v>
   <v>       0.01200000 </v>
   <v>       0.01200000 </v>
   <v>       0.00600000 </v>
   <v>       0.00200000 </v>
   <v>       0.00600000 </v>
  </varray>
 </kpoints>
 <parameters>
  <separator name="general" >
   <i type="string" name="SYSTEM">Pt-fcc</i>
   <i type="logical" name="LCOMPAT"> F  </i>
  </separator>
  <separator name="electronic" >
   <i type="string" name="PREC">accura</i>
   <i name="ENMAX">    425.00000000</i>
   <i name="ENAUG">    527.01400000</i>
   <i name="EDIFF">      0.00000100</i>
   <i type="int" name="IALGO">    38</i>
   <i type="int" name="IWAVPR">    11</i>
   <i type="int" name="NBANDS">    24</i>
   <i type="int" name="NBANDSLOW">    -1</i>
   <i type="int" name="NBANDSHIGH">    -1</i>
   <i name="NELECT">     16.00000000</i>
   <i type="int" name="TURBO">     0</i>
   <i type="int" name="IRESTART">     0</i>
   <i type="int" name="NREBOOT">     0</i>
   <i type="int" name="NMIN">     0</i>
   <i name="EREF">      0.00000000</i>
   <separator name="electronic smearing" >
    <i type="int" name="ISMEAR">     0</i>
    <i name="SIGMA">      0.05000000</i>
    <i name="KSPACING">      0.50000000</i>
    <i type="logical" name="KGAMMA"> T  </i>
    <i type="logical" name="KBLOWUP"> T  </i>
   </separator>
   <separator name="electronic projectors" >
    <i type="logical" name="LREAL"> F  </i>
    <v name="ROPT">      0.00000000</v>
    <i type="int" name="LMAXPAW">  -100</i>
    <i type="int" name="LMAXMIX">     2</i>
    <i type="logical" name="NLSPLINE"> F  </i>
   </separator>
   <separator name="electronic startup" >
    <i type="int" name="ISTART">     0</i>
    <i type="int" name="ICHARG">     2</i>
    <i type="int" name="INIWAV">     1</i>
   </separator>
   <separator name="electronic spin" >
    <i type="int" name="ISPIN">     1</i>
    <i type="logical" name="LNONCOLLINEAR"> F  </i>
    <v name="MAGMOM">      1.00000000</v>
    <i name="NUPDOWN">     -1.00000000</i>
    <i type="logical" name="LSORBIT"> F  </i>
    <v name="SAXIS">      0.00000000      0.00000000      1.00000000</v>
    <i type="logical" name="LSPIRAL"> F  </i>
    <v name="QSPIRAL">      0.00000000      0.00000000      0.00000000</v>
    <i type="logical" name="LZEROZ"> F  </i>
   </separator>
   <separator name="electronic exchange-correlation" >
    <i type="logical" name="LASPH"> F  </i>
    <i type="logical" name="LMETAGGA"> F  </i>
   </separator>
   <separator name="electronic convergence" >
    <i type="int" name="NELM">   100</i>
    <i type="int" name="NELMDL">    -5</i>
    <i type="int" name="NELMIN">     2</i>
    <i name="ENINI">    425.00000000</i>
    <separator name="electronic convergence detail" >
     <i type="logical" name="LDIAG"> T  </i>
     <i type="logical" name="LSUBROT"> F  </i>
     <i name="WEIMIN">      0.00100000</i>
     <i name="EBREAK">      0.00000001</i>
     <i name="DEPER">      0.30000000</i>
     <i type="int" name="NRMM">     4</i>
     <i name="TIME">      0.40000000</i>
    </separator>
   </separator>
   <separator name="electronic mixer" >
    <i name="AMIX">      0.40000000</i>
    <i name="BMIX">      1.00000000</i>
    <i name="AMIN">      0.10000000</i>
    <i name="AMIX_MAG">      1.60000000</i>
    <i name="BMIX_MAG">      1.00000000</i>
    <separator name="electronic mixer details" >
     <i type="int" name="IMIX">     4</i>
     <i type="logical" name="MIXFIRST"> F  </i>
     <i type="int" name="MAXMIX">   -45</i>
     <i name="WC">    100.00000000</i>
     <i type="int" name="INIMIX">     1</i>
     <i type="int" name="MIXPRE">     1</i>
     <i type="int" name="MREMOVE">     5</i>
    </separator>
   </separator>
   <separator name="electronic dipolcorrection" >
    <i type="logical" name="LDIPOL"> F  </i>
    <i type="logical" name="LMONO"> F  </i>
    <i type="int" name="IDIPOL">     0</i>
    <i name="EPSILON">      1.00000000</i>
    <v name="DIPOL">   -100.00000000   -100.00000000   -100.00000000</v>
    <i name="EFIELD">      0.00000000</i>
   </separator>
  </separator>
  <separator name="grids" >
   <i type="int" name="NGX">    18</i>
   <i type="int" name="NGY">    18</i>
   <i type="int" name="NGZ">    18</i>
   <i type="int" name="NGXF">    36</i>
   <i type="int" name="NGYF">    36</i>
   <i type="int" name="NGZF">    36</i>
   <i type="logical" name="ADDGRID"> F  </i>
  </separator>
  <separator name="ionic" >
   <i type="int" name="NSW">   100</i>
   <i type="int" name="IBRION">     2</i>
   <i type="int" name="MDALGO">     0</i>
   <i type="int" name="ISIF">     2</i>
   <i name="PSTRESS">      0.00000000</i>
   <i name="EDIFFG">     -0.02000000</i>
   <i type="int" name="NFREE">     1</i>
   <i name="POTIM">      0.50000000</i>
   <i name="SMASS">     -3.00000000</i>
   <i name="SCALEE">      1.00000000</i>
  </separator>
  <separator name="ionic md" >
   <i name="TEBEG">      0.00010000</i>
   <i name="TEEND">      0.00010000</i>
   <i type="int" name="NBLOCK">     1</i>
   <i type="int" name="KBLOCK">   100</i>
   <i type="int" name="NPACO">   256</i>
   <i name="APACO">     10.00000000</i>
  </separator>
  <separator name="symmetry" >
   <i type="int" name="ISYM">     1</i>
   <i name="SYMPREC">      0.00001000</i>
  </separator>
  <separator name="dos" >
   <i type="int" name="LORBIT">    11</i>
   <v name="RWIGS">     -1.00000000</v>
   <i type="int" name="NEDOS">   301</i>
   <i name="EMIN">     10.00000000</i>
   <i name="EMAX">    -10.00000000</i>
   <i name="EFERMI">      0.00000000</i>
  </separator>
  <separator name="writing" >
   <i type="int" name="NWRITE">     2</i>
   <i type="logical" name="LWAVE"> T  </i>
   <i type="logical" name="LDOWNSAMPLE"> F  </i>
   <i type="logical" name="LCHARG"> T  </i>
   <i type="logical" name="LPARD"> F  </i>
   <i type="logical" name="LVTOT"> F  </i>
   <i type="logical" name="LVHAR"> F  </i>
   <i type="logical" name="LELF"> F  </i>
   <i type="logical" name="LOPTICS"> F  </i>
   <v name="STM">      0.00000000      0.00000000      0.00000000      0.00000000      0.00000000      0.00000000      0.00000000</v>
  </separator>
  <separator name="performance" >
   <i type="int" name="NPAR">    24</i>
   <i type="int" name="NSIM">     4</i>
   <i type="int" name="NBLK">    -1</i>
   <i type="logical" name="LPLANE"> T  </i>
   <i type="logical" name="LSCALAPACK"> T  </i>
   <i type="logical" name="LSCAAWARE"> T  </i>
   <i type="logical" name="LSCALU"> F  </i>
   <i type="logical" name="LASYNC"> F  </i>
   <i type="logical" name="LORBITALREAL"> F  </i>
  </separator>
  <separator name="miscellaneous" >
   <i type="int" name="IDIOT">     3</i>
   <i type="int" name="PHON_NSTRUCT">    -1</i>
   <i type="logical" name="LMUSIC"> F  </i>
   <v name="POMASS">    195.08000000</v>
   <v name="DARWINR">      0.00000000</v>
   <v name="DARWINV">      1.00000000</v>
   <i type="logical" name="LCORR"> T  </i>
  </separator>
  <i type="logical" name="GGA_COMPAT"> T  </i>
  <i type="logical" name="LBERRY"> F  </i>
  <i type="int" name="ICORELEVEL">     0</i>
  <i type="logical" name="LDAU"> F  </i>
  <i type="int" name="I_CONSTRAINED_M">     0</i>
  <separator name="electronic exchange-correlation" >
   <i type="string" name="GGA">--</i>
   <i type="int" name="VOSKOWN">     0</i>
   <i type="logical" name="LHFCALC"> F  </i>
   <i type="string" name="PRECFOCK"></i>
   <i type="logical" name="LSYMGRAD"> F  </i>
   <i type="logical" name="LHFONE"> F  </i>
   <i type="logical" name="LRHFCALC"> F  </i>
   <i type="logical" name="LTHOMAS"> F  </i>
   <i type="logical" name="LMODELHF"> F  </i>
   <i type="logical" name="LFOCKACE"> F  </i>
   <i name="ENCUT4O">     -1.00000000</i>
   <i type="int" name="EXXOEP">     0</i>
   <i type="int" name="FOURORBIT">     0</i>
   <i name="AEXX">      0.00000000</i>
   <i name="HFALPHA">      0.00000000</i>
   <i name="MCALPHA">      0.00000000</i>
   <i name="ALDAX">      1.00000000</i>
   <i name="AGGAX">      1.00000000</i>
   <i name="ALDAC">      1.00000000</i>
   <i name="AGGAC">      1.00000000</i>
   <i type="int" name="NKREDX">     1</i>
   <i type="int" name="NKREDY">     1</i>
   <i type="int" name="NKREDZ">     1</i>
   <i type="logical" name="SHIFTRED"> F  </i>
   <i type="logical" name="ODDONLY"> F  </i>
   <i type="logical" name="EVENONLY"> F  </i>
   <i type="int" name="LMAXFOCK">     0</i>
   <i type="int" name="NMAXFOCKAE">     0</i>
   <i type="logical" name="LFOCKAEDFT"> F  </i>
   <i name="HFSCREEN">      0.00000000</i>
   <i name="HFSCREENC">      0.00000000</i>
   <i type="int" name="NBANDSGWLOW">     0</i>
  </separator>
  <separator name="vdW DFT" >
   <i type="logical" name="LUSE_VDW"> F  </i>
   <i name="Zab_VDW">     -0.84910000</i>
   <i name="PARAM1">      0.12340000</i>
   <i name="PARAM2">      1.00000000</i>
   <i name="PARAM3">      0.00000000</i>
  </separator>
  <separator name="model GW" >
   <i type="int" name="MODEL_GW">     0</i>
   <i name="MODEL_EPS0">      7.72329334</i>
   <i name="MODEL_ALPHA">      1.00000000</i>
  </separator>
  <separator name="linear response parameters" >
   <i type="logical" name="LEPSILON"> F  </i>
   <i type="logical" name="LRPA"> F  </i>
   <i type="logical" name="LNABLA"> F  </i>
   <i type="logical" name="LVEL"> F  </i>
   <i name="CSHIFT">      0.10000000</i>
   <i name="OMEGAMAX">     -1.00000000</i>
   <i name="DEG_THRESHOLD">      0.00200000</i>
   <i name="RTIME">     -0.10000000</i>
   <i name="WPLASMAI">      0.00000000</i>
   <v name="DFIELD">      0.00000000      0.00000000      0.00000000</v>
   <v name="WPLASMA">      0.00000000      0.00000000      0.00000000      0.00000000      0.00000000      0.00000000      0.00000000      0.00000000      0.00000000</v>
  </separator>
  <separator name="orbital magnetization" >
   <i type="logical" name="NUCIND"> F  </i>
   <v name="MAGPOS">      0.00000000      0.00000000      0.00000000</v>
   <i type="logical" name="LNICSALL"> T  </i>
   <i type="logical" name="ORBITALMAG"> F  </i>
   <i type="logical" name="LMAGBLOCH"> F  </i>
   <i type="logical" name="LCHIMAG"> F  </i>
   <i type="logical" name="LGAUGE"> T  </i>
   <i type="int" name="MAGATOM">     0</i>
   <v name="MAGDIPOL">      0.00000000      0.00000000      0.00000000</v>
   <v name="AVECCONST">      0.00000000      0.00000000      0.00000000</v>
  </separator>
  <separator name="response functions" >
   <i type="logical" name="LFINITE_TEMPERATURE"> F  </i>
   <i type="logical" name="LADDER"> F  </i>
   <i type="logical" name="LRPAFORCE"> F  </i>
   <i type="logical" name="LFXC"> F  </i>
   <i type="logical" name="LHARTREE"> T  </i>
   <i type="int" name="IBSE">     0</i>
   <v type="int" name="KPOINT">    -1     0     0     0</v>
   <i type="logical" name="LTCTC"> F  </i>
   <i type="logical" name="LTCTE"> F  </i>
   <i type="logical" name="LTETE"> F  </i>
   <i type="logical" name="LTRIPLET"> F  </i>
   <i type="logical" name="LFXCEPS"> F  </i>
   <i type="logical" name="LFXHEG"> F  </i>
   <i type="int" name="NATURALO">     2</i>
   <i type="logical" name="LHOLEGF"> F  </i>
   <i type="logical" name="L2ORDER"> F  </i>
   <i type="logical" name="LDMP1"> F  </i>
   <i type="logical" name="LMP2LT"> F  </i>
   <i type="logical" name="LSMP2LT"> F  </i>
   <i type="logical" name="LGWLF"> F  </i>
   <i name="ENCUTGW">     -2.00000000</i>
   <i name="ENCUTGWSOFT">     -2.00000000</i>
   <i name="ENCUTLF">     -1.00000000</i>
   <i type="logical" name="LESF_SPLINES"> F  </i>
   <i type="int" name="LMAXMP2">    -1</i>
   <i name="SCISSOR">      0.00000000</i>
   <i type="int" name="NOMEGA">     0</i>
   <i type="int" name="NOMEGAR">     0</i>
   <i type="int" name="NBANDSGW">    -1</i>
   <i type="int" name="NBANDSO">    -1</i>
   <i type="int" name="NBANDSV">    -1</i>
   <i type="int" name="NELMGW">     1</i>
   <i type="int" name="NELMHF">     1</i>
   <i type="int" name="DIM">     3</i>
   <i type="int" name="IESPILON">     4</i>
   <i type="int" name="ANTIRES">     0</i>
   <i name="OMEGAMAX">    -30.00000000</i>
   <i name="OMEGAMIN">    -30.00000000</i>
   <i name="OMEGATL">   -200.00000000</i>
   <i type="int" name="OMEGAGRID">     0</i>
   <i name="CSHIFT">     -0.10000000</i>
   <i type="logical" name="LSELFENERGY"> F  </i>
   <i type="logical" name="LSPECTRAL"> F  </i>
   <i type="logical" name="LSPECTRALGW"> F  </i>
   <i type="logical" name="LSINGLES"> F  </i>
   <i type="logical" name="LFERMIGW"> F  </i>
   <i type="logical" name="ODDONLYGW"> F  </i>
   <i type="logical" name="EVENONLYGW"> F  </i>
   <i type="int" name="NKREDLFX">     1</i>
   <i type="int" name="NKREDLFY">     1</i>
   <i type="int" name="NKREDLFZ">     1</i>
   <i type="int" name="MAXMEM">  2800</i>
   <i type="int" name="TELESCOPE">     0</i>
   <i type="int" name="NTAUPAR">    -1</i>
   <i type="int" name="NOMEGAPAR">    -1</i>
   <i name="DAMP_NEWTON">      0.80000001</i>
   <i name="LAMBDA">      1.00000000</i>
  </separator>
  <separator name="External order field" >
   <i name="OFIELD_KAPPA">      0.00000000</i>
   <v name="OFIELD_K">      0.00000000      0.00000000      0.00000000</v>
   <i name="OFIELD_Q6_NEAR">      0.00000000</i>
   <i name="OFIELD_Q6_FAR">      0.00000000</i>
   <i name="OFIELD_A">      0.00000000</i>
  </separator>
  <separator name="optional k-points parameters" >
   <i type="int" name="KPOINTS_OPT_MODE">     1</i>
   <i type="logical" name="LKPOINTS_OPT"> F  </i>
  </separator>
 </parameters>
 <atominfo>
  <atoms>       1 </atoms>
  <types>       1 </types>
  <array name="atoms" >
   <dimension dim="1">ion</dimension>
   <field type="string">element</field>
   <field type="int">atomtype</field>
   <set>
    <rc><c>Pt</c><c>   1</c></rc>
   </set>
  </array>
  <array name="atomtypes" >
   <dimension dim="1">type</dimension>
   <field type="int">atomspertype</field>
   <field type="string">element</field>
   <field>mass</field>
   <field>valence</field>
   <field type="string">pseudopotential</field>
   <set>
    <rc><c>   1</c><c>Pt</c><c>    195.08000000</c><c>     16.00000000</c><c>  PAW_PBE Pt_pv 12Dec2005               </c></rc>
   </set>
  </array>
 </atominfo>
 <structure name="initialpos" >
  <crystal>
   <varray name="basis" >
    <v>       0.00000000       1.86011771       1.86011771 </v>
    <v>       1.86011771       0.00000000       1.86011771 </v>
    <v>       1.86011771       1.86011771       0.00000000 </v>
   </varray>
   <i name="volume">     12.87215557 </i>
   <varray name="rec_basis" >
    <v>      -0.26880019       0.26880019       0.26880019 </v>
    <v>       0.26880019      -0.26880019       0.26880019 </v>
    <v>       0.26880019       0.26880019      -0.26880019 </v>
   </varray>
  </crystal>
  <varray name="positions" >
   <v>       0.00000000       0.00000000       0.00000000 </v>
  </varray>
 </structure>
 <calculation>
  <scstep>
   <time name="dav">    0.48    0.49</time>
   <time name="total">    0.49    0.49</time>
   <energy>
    <i name="alphaZ">    186.39601950 </i>
    <i name="ewald">  -2271.54787490 </i>
    <i name="hartreedc">   -342.27416573 </i>
    <i name="XCdc">     64.80233004 </i>
    <i name="pawpsdc">   2065.75261637 </i>
    <i name="pawaedc">  -2030.83594803 </i>
    <i name="eentropy">     -0.00073790 </i>
    <i name="bandstr">    -87.55472369 </i>
    <i name="atom">   2428.19501064 </i>
    <i name="e_fr_energy">     12.93252630 </i>
    <i name="e_wo_entrp">     12.93326420 </i>
    <i name="e_0_energy">     12.93289525 </i>
   </energy>
  </scstep>
  <scstep>
   <time name="dav">    0.61    0.61</time>
   <time name="total">    0.61    0.61</time>
   <energy>
    <i name="e_fr_energy">     -5.77958261 </i>
    <i name="e_wo_entrp">     -5.77815619 </i>
    <i name="e_0_energy">     -5.77886940 </i>
   </energy>
  </scstep>
  <scstep>
   <time name="dav">    0.64    0.64</time>
   <time name="total">    0.64    0.64</time>
   <energy>
    <i name="e_fr_energy">     -5.79912162 </i>
    <i name="e_wo_entrp">     -5.79769393 </i>
    <i name="e_0_energy">     -5.79840777 </i>
   </energy>
  </scstep>
  <scstep>
   <time name="dav">    0.82    0.83</time>
   <time name="total">    0.82    0.83</time>
   <energy>
    <i name="e_fr_energy">     -5.79913117 </i>
    <i name="e_wo_entrp">     -5.79770347 </i>
    <i name="e_0_energy">     -5.79841732 </i>
   </energy>
  </scstep>
  <scstep>
   <time name="dav">    0.68    0.68</time>
   <time name="total">    0.69    0.69</time>
   <energy>
    <i name="e_fr_energy">     -5.79913116 </i>
    <i name="e_wo_entrp">     -5.79770347 </i>
    <i name="e_0_energy">     -5.79841732 </i>
   </energy>
  </scstep>
  <scstep>
   <time name="dav">    0.50    0.51</time>
   <time name="total">    0.52    0.52</time>
   <energy>
    <i name="e_fr_energy">     -5.52725605 </i>
    <i name="e_wo_entrp">     -5.52568378 </i>
    <i name="e_0_energy">     -5.52646992 </i>
   </energy>
  </scstep>
  <scstep>
   <time name="dav">    0.75    0.75</time>
   <time name="total">    0.77    0.77</time>
   <energy>
    <i name="e_fr_energy">     -5.49874368 </i>
    <i name="e_wo_entrp">     -5.49693965 </i>
    <i name="e_0_energy">     -5.49784167 </i>
   </energy>
  </scstep>
  <scstep>
   <time name="dav">    0.40    0.40</time>
   <time name="total">    0.42    0.42</time>
   <energy>
    <i name="e_fr_energy">     -5.49664296 </i>
    <i name="e_wo_entrp">     -5.49484063 </i>
    <i name="e_0_energy">     -5.49574180 </i>
   </energy>
  </scstep>
  <scstep>
   <time name="dav">    0.67    0.67</time>
   <time name="total">    0.68    0.69</time>
   <energy>
    <i name="e_fr_energy">     -5.49655329 </i>
    <i name="e_wo_entrp">     -5.49475198 </i>
    <i name="e_0_energy">     -5.49565264 </i>
   </energy>
  </scstep>
  <scstep>
   <time name="dav">    0.73    0.73</time>
   <time name="total">    0.75    0.75</time>
   <energy>
    <i name="e_fr_energy">     -5.49655669 </i>
    <i name="e_wo_entrp">     -5.49475634 </i>
    <i name="e_0_energy">     -5.49565651 </i>
   </energy>
  </scstep>
  <scstep>
   <time name="dav">    0.23    0.23</time>
   <time name="total">    0.23    0.23</time>
   <energy>
    <i name="alphaZ">    186.39601950 </i>
    <i name="ewald">  -2271.54787490 </i>
    <i name="hartreedc">   -324.62466244 </i>
    <i name="XCdc">     64.00691641 </i>
    <i name="pawpsdc">   2694.71241906 </i>
    <i name="pawaedc">  -2663.24157838 </i>
    <i name="eentropy">     -0.00180034 </i>
    <i name="bandstr">   -119.39100625 </i>
    <i name="atom">   2428.19501064 </i>
    <i name="e_fr_energy">     -5.49655669 </i>
    <i name="e_wo_entrp">     -5.49475635 </i>
    <i name="e_0_energy">     -5.49565652 </i>
   </energy>
  </scstep>
  <structure>
   <crystal>
    <varray name="basis" >
     <v>       0.00000000       1.86011771       1.86011771 </v>
     <v>       1.86011771       0.00000000       1.86011771 </v>
     <v>       1.86011771       1.86011771       0.00000000 </v>
    </varray>
    <i name="volume">     12.87215557 </i>
    <varray name="rec_basis" >
     <v>      -0.26880019       0.26880019       0.26880019 </v>
     <v>       0.26880019      -0.26880019       0.26880019 </v>
     <v>       0.26880019       0.26880019      -0.26880019 </v>
    </varray>
   </crystal>
   <varray name="positions" >
    <v>       0.00000000       0.00000000       0.00000000 </v>
   </varray>
  </structure>
  <varray name="forces" >
   <v>      -0.00000000       0.00000000       0.00000000 </v>
  </varray>
  <varray name="stress" >
   <v>     790.24896318       0.00000000       0.00000000 </v>
   <v>      -0.00000000     790.24896318       0.00000000 </v>
   <v>       0.00000000       0.00000000     790.24896318 </v>
  </varray>
  <energy>
   <i name="e_fr_energy">     -5.49655669 </i>
   <i name="e_wo_entrp">     -5.49475635 </i>
   <i name="e_0_energy">     -5.49565652 </i>
  </energy>
  <time name="totalsc">    6.82    6.90</time>
  <eigenvalues>
   <array>
    <dimension dim="1">band</dimension>
    <dimension dim="2">kpoint</dimension>
    <dimension dim="3">spin</dimension>
    <field>eigene</field>
    <field>occ</field>
    <set>
     <set comment="spin 1">
      <set comment="kpoint 1">
       <r>  -37.6022    1.0000 </r>
       <r>  -37.5836    1.0000 </r>
       <r>  -37.5836    1.0000 </r>
       <r>    3.4549    1.0000 </r>
       <r>   10.5134    1.0000 </r>
       <r>   10.6262    1.0000 </r>
       <r>   10.6262    1.0000 </r>
       <r>   13.3450    1.0000 </r>
       <r>   13.3450    1.0000 </r>
       <r>   29.7034    0.0000 </r>
       <r>   34.8097    0.0000 </r>
       <r>   35.5771    0.0000 </r>
       <r>   35.5771    0.0000 </r>
       <r>   42.0686    0.0000 </r>
       <r>   49.5751    0.0000 </r>
       <r>   50.3461    0.0000 </r>
       <r>   50.3461    0.0000 </r>
       <r>   54.8284    0.0000 </r>
       <r>   54.8284    0.0000 </r>
       <r>   55.5238    0.0000 </r>
       <r>   55.8656    0.0000 </r>
       <r>   61.0385    0.0000 </r>
       <r>   61.0385    0.0000 </r>
       <r>   67.7778    0.0000 </r>
      </set>
      <set comment="kpoint 2">
       <r>  -37.7047    1.0000 </r>
       <r>  -37.6134    1.0000 </r>
       <r>  -37.5929    1.0000 </r>
       <r>    4.0687    1.0000 </r>
       <r>   10.2040    1.0000 </r>
       <r>   10.8535    1.0000 </r>
       <r>   10.9067    1.0000 </r>
       <r>   13.0290    1.0000 </r>
       <r>   13.4099    1.0000 </r>
       <r>   30.7033    0.0000 </r>
       <r>   33.0944    0.0000 </r>
       <r>   35.9452    0.0000 </r>
       <r>   36.9320    0.0000 </r>
       <r>   43.9419    0.0000 </r>
       <r>   46.3004    0.0000 </r>
       <r>   47.2703    0.0000 </r>
       <r>   49.1493    0.0000 </r>
       <r>   52.6688    0.0000 </r>
       <r>   55.5081    0.0000 </r>
       <r>   56.2667    0.0000 </r>
       <r>   58.5673    0.0000 </r>
       <r>   59.6969    0.0000 </r>
       <r>   62.2440    0.0000 </r>
       <r>   68.6471    0.0000 </r>
      </set>
      <set comment="kpoint 3">
       <r>  -37.9286    1.0000 </r>
       <r>  -37.6520    1.0000 </r>
       <r>  -37.6210    1.0000 </r>
       <r>    5.3319    1.0000 </r>
       <r>    9.9300    1.0000 </r>
       <r>   11.0901    1.0000 </r>
       <r>   11.1383    1.0000 </r>
       <r>   12.9886    1.0000 </r>
       <r>   13.7415    1.0000 </r>
       <r>   30.3696    0.0000 </r>
       <r>   32.3353    0.0000 </r>
       <r>   37.6986    0.0000 </r>
       <r>   39.5411    0.0000 </r>
       <r>   40.2235    0.0000 </r>
       <r>   43.6580    0.0000 </r>
       <r>   44.4431    0.0000 </r>
       <r>   50.3777    0.0000 </r>
       <r>   52.8700    0.0000 </r>
       <r>   55.5189    0.0000 </r>
       <r>   56.7257    0.0000 </r>
       <r>   58.1486    0.0000 </r>
       <r>   61.6894    0.0000 </r>
       <r>   62.7428    0.0000 </r>
       <r>   69.0028    0.0000 </r>
      </set>
      <set comment="kpoint 4">
       <r>  -38.1811    1.0000 </r>
       <r>  -37.6897    1.0000 </r>
       <r>  -37.6580    1.0000 </r>
       <r>    6.2939    1.0000 </r>
       <r>   10.7018    1.0000 </r>
       <r>   10.8947    1.0000 </r>
       <r>   10.9232    1.0000 </r>
       <r>   13.8554    1.0000 </r>
       <r>   14.7206    1.0000 </r>
       <r>   27.4938    0.0000 </r>
       <r>   31.4202    0.0000 </r>
       <r>   37.6207    0.0000 </r>
       <r>   39.9400    0.0000 </r>
       <r>   40.4669    0.0000 </r>
       <r>   42.9110    0.0000 </r>
       <r>   43.0628    0.0000 </r>
       <r>   53.0993    0.0000 </r>
       <r>   55.3879    0.0000 </r>
       <r>   55.5493    0.0000 </r>
       <r>   57.2421    0.0000 </r>
       <r>   58.2645    0.0000 </r>
       <r>   61.6073    0.0000 </r>
       <r>   63.3816    0.0000 </r>
       <r>   68.0720    0.0000 </r>
      </set>
      <set comment="kpoint 5">
       <r>  -38.3672    1.0000 </r>
       <r>  -37.7133    1.0000 </r>
       <r>  -37.6905    1.0000 </r>
       <r>    6.4274    1.0000 </r>
       <r>   10.4984    1.0000 </r>
       <r>   10.6281    1.0000 </r>
       <r>   12.8260    1.0000 </r>
       <r>   14.9950    1.0000 </r>
       <r>   15.8314    0.0000 </r>
       <r>   24.1456    0.0000 </r>
       <r>   29.7643    0.0000 </r>
       <r>   35.6059    0.0000 </r>
       <r>   36.6749    0.0000 </r>
       <r>   44.2446    0.0000 </r>
       <r>   45.9226    0.0000 </r>
       <r>   45.9877    0.0000 </r>
       <r>   53.3267    0.0000 </r>
       <r>   55.0956    0.0000 </r>
       <r>   55.5194    0.0000 </r>
       <r>   55.9260    0.0000 </r>
       <r>   60.6515    0.0000 </r>
       <r>   63.3345    0.0000 </r>
       <r>   63.5672    0.0000 </r>
       <r>   65.1424    0.0000 </r>
      </set>
      <set comment="kpoint 6">
       <r>  -38.4185    1.0000 </r>
       <r>  -37.7135    1.0000 </r>
       <r>  -37.7061    1.0000 </r>
       <r>    6.4005    1.0000 </r>
       <r>   10.3791    1.0000 </r>
       <r>   10.5616    1.0000 </r>
       <r>   13.6747    1.0000 </r>
       <r>   15.5701    0.0388 </r>
       <r>   16.2202    0.0000 </r>
       <r>   22.6931    0.0000 </r>
       <r>   29.3524    0.0000 </r>
       <r>   35.3646    0.0000 </r>
       <r>   35.3713    0.0000 </r>
       <r>   46.2393    0.0000 </r>
       <r>   46.5533    0.0000 </r>
       <r>   47.9064    0.0000 </r>
       <r>   53.0727    0.0000 </r>
       <r>   53.7591    0.0000 </r>
       <r>   54.6781    0.0000 </r>
       <r>   55.5115    0.0000 </r>
       <r>   61.6780    0.0000 </r>
       <r>   62.2093    0.0000 </r>
       <r>   65.1401    0.0000 </r>
       <r>   65.6583    0.0000 </r>
      </set>
      <set comment="kpoint 7">
       <r>  -38.3181    1.0000 </r>
       <r>  -37.6976    1.0000 </r>
       <r>  -37.6917    1.0000 </r>
       <r>    6.4275    1.0000 </r>
       <r>   10.5484    1.0000 </r>
       <r>   10.7553    1.0000 </r>
       <r>   12.0674    1.0000 </r>
       <r>   15.0203    1.0000 </r>
       <r>   15.1664    1.0000 </r>
       <r>   25.2327    0.0000 </r>
       <r>   30.1852    0.0000 </r>
       <r>   36.3636    0.0000 </r>
       <r>   37.2889    0.0000 </r>
       <r>   43.8186    0.0000 </r>
       <r>   43.8730    0.0000 </r>
       <r>   45.3112    0.0000 </r>
       <r>   52.8168    0.0000 </r>
       <r>   55.5104    0.0000 </r>
       <r>   56.2585    0.0000 </r>
       <r>   56.7112    0.0000 </r>
       <r>   60.7157    0.0000 </r>
       <r>   61.0894    0.0000 </r>
       <r>   63.8503    0.0000 </r>
       <r>   66.0510    0.0000 </r>
      </set>
      <set comment="kpoint 8">
       <r>  -38.1003    1.0000 </r>
       <r>  -37.6692    1.0000 </r>
       <r>  -37.6547    1.0000 </r>
       <r>    6.0773    1.0000 </r>
       <r>   10.2658    1.0000 </r>
       <r>   10.9229    1.0000 </r>
       <r>   11.0646    1.0000 </r>
       <r>   13.6532    1.0000 </r>
       <r>   14.2123    1.0000 </r>
       <r>   28.5216    0.0000 </r>
       <r>   32.0500    0.0000 </r>
       <r>   38.5577    0.0000 </r>
       <r>   39.3011    0.0000 </r>
       <r>   41.4633    0.0000 </r>
       <r>   41.6205    0.0000 </r>
       <r>   42.5868    0.0000 </r>
       <r>   52.6714    0.0000 </r>
       <r>   54.4457    0.0000 </r>
       <r>   55.5230    0.0000 </r>
       <r>   56.6594    0.0000 </r>
       <r>   59.2464    0.0000 </r>
       <r>   60.1990    0.0000 </r>
       <r>   64.0498    0.0000 </r>
       <r>   69.2869    0.0000 </r>
      </set>
      <set comment="kpoint 9">
       <r>  -37.8449    1.0000 </r>
       <r>  -37.6323    1.0000 </r>
       <r>  -37.6175    1.0000 </r>
       <r>    4.8810    1.0000 </r>
       <r>    9.9380    1.0000 </r>
       <r>   11.0822    1.0000 </r>
       <r>   11.1151    1.0000 </r>
       <r>   12.9183    1.0000 </r>
       <r>   13.5437    1.0000 </r>
       <r>   31.2313    0.0000 </r>
       <r>   31.9916    0.0000 </r>
       <r>   37.2597    0.0000 </r>
       <r>   38.1083    0.0000 </r>
       <r>   41.9998    0.0000 </r>
       <r>   44.1152    0.0000 </r>
       <r>   46.2577    0.0000 </r>
       <r>   48.7606    0.0000 </r>
       <r>   52.6585    0.0000 </r>
       <r>   55.5180    0.0000 </r>
       <r>   56.7760    0.0000 </r>
       <r>   59.1285    0.0000 </r>
       <r>   59.5372    0.0000 </r>
       <r>   63.3274    0.0000 </r>
       <r>   68.8713    0.0000 </r>
      </set>
      <set comment="kpoint 10">
       <r>  -37.6491    1.0000 </r>
       <r>  -37.5991    1.0000 </r>
       <r>  -37.5941    1.0000 </r>
       <r>    3.7690    1.0000 </r>
       <r>   10.3032    1.0000 </r>
       <r>   10.7825    1.0000 </r>
       <r>   10.7929    1.0000 </r>
       <r>   13.0850    1.0000 </r>
       <r>   13.4442    1.0000 </r>
       <r>   30.2322    0.0000 </r>
       <r>   34.0417    0.0000 </r>
       <r>   35.7345    0.0000 </r>
       <r>   35.9871    0.0000 </r>
       <r>   43.5778    0.0000 </r>
       <r>   47.5537    0.0000 </r>
       <r>   47.9757    0.0000 </r>
       <r>   50.4468    0.0000 </r>
       <r>   52.3989    0.0000 </r>
       <r>   55.5169    0.0000 </r>
       <r>   56.8965    0.0000 </r>
       <r>   57.5203    0.0000 </r>
       <r>   59.2073    0.0000 </r>
       <r>   62.3689    0.0000 </r>
       <r>   68.4323    0.0000 </r>
      </set>
      <set comment="kpoint 11">
       <r>  -37.7269    1.0000 </r>
       <r>  -37.6279    1.0000 </r>
       <r>  -37.6222    1.0000 </r>
       <r>    4.3716    1.0000 </r>
       <r>    9.8979    1.0000 </r>
       <r>   11.1134    1.0000 </r>
       <r>   11.1232    1.0000 </r>
       <r>   12.6351    1.0000 </r>
       <r>   13.6373    1.0000 </r>
       <r>   31.2314    0.0000 </r>
       <r>   33.3884    0.0000 </r>
       <r>   35.9252    0.0000 </r>
       <r>   36.2742    0.0000 </r>
       <r>   44.7248    0.0000 </r>
       <r>   45.5676    0.0000 </r>
       <r>   46.6688    0.0000 </r>
       <r>   48.8829    0.0000 </r>
       <r>   50.9575    0.0000 </r>
       <r>   55.5191    0.0000 </r>
       <r>   56.4584    0.0000 </r>
       <r>   59.1387    0.0000 </r>
       <r>   59.1949    0.0000 </r>
       <r>   63.5049    0.0000 </r>
       <r>   70.0586    0.0000 </r>
      </set>
      <set comment="kpoint 12">
       <r>  -37.8827    1.0000 </r>
       <r>  -37.6835    1.0000 </r>
       <r>  -37.6443    1.0000 </r>
       <r>    5.4362    1.0000 </r>
       <r>    9.4408    1.0000 </r>
       <r>   11.2388    1.0000 </r>
       <r>   11.5863    1.0000 </r>
       <r>   12.4889    1.0000 </r>
       <r>   14.0023    1.0000 </r>
       <r>   31.8252    0.0000 </r>
       <r>   32.7926    0.0000 </r>
       <r>   35.9438    0.0000 </r>
       <r>   37.4166    0.0000 </r>
       <r>   41.4752    0.0000 </r>
       <r>   44.0141    0.0000 </r>
       <r>   46.4903    0.0000 </r>
       <r>   49.9656    0.0000 </r>
       <r>   50.4664    0.0000 </r>
       <r>   55.0412    0.0000 </r>
       <r>   55.5266    0.0000 </r>
       <r>   58.0894    0.0000 </r>
       <r>   62.2377    0.0000 </r>
       <r>   65.0811    0.0000 </r>
       <r>   70.1626    0.0000 </r>
      </set>
      <set comment="kpoint 13">
       <r>  -38.1048    1.0000 </r>
       <r>  -37.7334    1.0000 </r>
       <r>  -37.6804    1.0000 </r>
       <r>    6.6300    1.0000 </r>
       <r>    9.5427    1.0000 </r>
       <r>   10.6678    1.0000 </r>
       <r>   11.5909    1.0000 </r>
       <r>   13.5928    1.0000 </r>
       <r>   14.9570    1.0000 </r>
       <r>   29.0208    0.0000 </r>
       <r>   32.6876    0.0000 </r>
       <r>   35.8073    0.0000 </r>
       <r>   37.3860    0.0000 </r>
       <r>   41.9267    0.0000 </r>
       <r>   43.2200    0.0000 </r>
       <r>   45.0312    0.0000 </r>
       <r>   49.1921    0.0000 </r>
       <r>   54.5069    0.0000 </r>
       <r>   55.5210    0.0000 </r>
       <r>   56.4591    0.0000 </r>
       <r>   57.7320    0.0000 </r>
       <r>   61.9725    0.0000 </r>
       <r>   66.4158    0.0000 </r>
       <r>   67.9295    0.0000 </r>
      </set>
      <set comment="kpoint 14">
       <r>  -38.2944    1.0000 </r>
       <r>  -37.7706    1.0000 </r>
       <r>  -37.7174    1.0000 </r>
       <r>    6.9645    1.0000 </r>
       <r>   10.1164    1.0000 </r>
       <r>   10.9161    1.0000 </r>
       <r>   11.3109    1.0000 </r>
       <r>   15.0367    1.0000 </r>
       <r>   16.4377    0.0000 </r>
       <r>   25.2834    0.0000 </r>
       <r>   31.0460    0.0000 </r>
       <r>   34.5293    0.0000 </r>
       <r>   36.9386    0.0000 </r>
       <r>   42.7469    0.0000 </r>
       <r>   45.7053    0.0000 </r>
       <r>   46.7007    0.0000 </r>
       <r>   49.5781    0.0000 </r>
       <r>   55.5141    0.0000 </r>
       <r>   56.0019    0.0000 </r>
       <r>   56.6373    0.0000 </r>
       <r>   59.2388    0.0000 </r>
       <r>   62.2104    0.0000 </r>
       <r>   63.9690    0.0000 </r>
       <r>   66.1191    0.0000 </r>
      </set>
      <set comment="kpoint 15">
       <r>  -38.3805    1.0000 </r>
       <r>  -37.7939    1.0000 </r>
       <r>  -37.7289    1.0000 </r>
       <r>    6.9445    1.0000 </r>
       <r>    9.9025    1.0000 </r>
       <r>   11.0574    1.0000 </r>
       <r>   12.2064    1.0000 </r>
       <r>   15.4626    0.8991 </r>
       <r>   18.1675    0.0000 </r>
       <r>   22.4279    0.0000 </r>
       <r>   30.3939    0.0000 </r>
       <r>   34.1675    0.0000 </r>
       <r>   35.1803    0.0000 </r>
       <r>   45.1025    0.0000 </r>
       <r>   45.9488    0.0000 </r>
       <r>   49.1025    0.0000 </r>
       <r>   51.8211    0.0000 </r>
       <r>   54.0082    0.0000 </r>
       <r>   55.5177    0.0000 </r>
       <r>   56.3041    0.0000 </r>
       <r>   58.6628    0.0000 </r>
       <r>   60.1721    0.0000 </r>
       <r>   64.9546    0.0000 </r>
       <r>   67.1082    0.0000 </r>
      </set>
      <set comment="kpoint 16">
       <r>  -38.3340    1.0000 </r>
       <r>  -37.7973    1.0000 </r>
       <r>  -37.7087    1.0000 </r>
       <r>    6.9988    1.0000 </r>
       <r>   10.0518    1.0000 </r>
       <r>   11.0941    1.0000 </r>
       <r>   11.6565    1.0000 </r>
       <r>   14.7983    1.0000 </r>
       <r>   17.3485    0.0000 </r>
       <r>   24.1821    0.0000 </r>
       <r>   30.7240    0.0000 </r>
       <r>   33.8605    0.0000 </r>
       <r>   36.8137    0.0000 </r>
       <r>   42.7663    0.0000 </r>
       <r>   46.1389    0.0000 </r>
       <r>   47.8786    0.0000 </r>
       <r>   51.5610    0.0000 </r>
       <r>   55.5027    0.0000 </r>
       <r>   55.6966    0.0000 </r>
       <r>   56.6620    0.0000 </r>
       <r>   57.2732    0.0000 </r>
       <r>   62.0121    0.0000 </r>
       <r>   64.5663    0.0000 </r>
       <r>   65.7637    0.0000 </r>
      </set>
      <set comment="kpoint 17">
       <r>  -38.1726    1.0000 </r>
       <r>  -37.7713    1.0000 </r>
       <r>  -37.6704    1.0000 </r>
       <r>    6.8965    1.0000 </r>
       <r>   10.0032    1.0000 </r>
       <r>   10.5261    1.0000 </r>
       <r>   11.4260    1.0000 </r>
       <r>   13.4896    1.0000 </r>
       <r>   15.7969    0.0000 </r>
       <r>   27.8528    0.0000 </r>
       <r>   32.0504    0.0000 </r>
       <r>   34.9128    0.0000 </r>
       <r>   38.3345    0.0000 </r>
       <r>   40.8791    0.0000 </r>
       <r>   44.6643    0.0000 </r>
       <r>   45.8454    0.0000 </r>
       <r>   49.4260    0.0000 </r>
       <r>   54.8802    0.0000 </r>
       <r>   55.5104    0.0000 </r>
       <r>   56.1468    0.0000 </r>
       <r>   58.9978    0.0000 </r>
       <r>   62.2165    0.0000 </r>
       <r>   65.4519    0.0000 </r>
       <r>   66.4251    0.0000 </r>
      </set>
      <set comment="kpoint 18">
       <r>  -37.9594    1.0000 </r>
       <r>  -37.7164    1.0000 </r>
       <r>  -37.6319    1.0000 </r>
       <r>    5.8867    1.0000 </r>
       <r>    9.5047    1.0000 </r>
       <r>   11.0356    1.0000 </r>
       <r>   11.6215    1.0000 </r>
       <r>   12.4886    1.0000 </r>
       <r>   14.4212    1.0000 </r>
       <r>   30.7340    0.0000 </r>
       <r>   33.0495    0.0000 </r>
       <r>   36.0221    0.0000 </r>
       <r>   37.4637    0.0000 </r>
       <r>   40.9648    0.0000 </r>
       <r>   44.7158    0.0000 </r>
       <r>   46.3069    0.0000 </r>
       <r>   48.8153    0.0000 </r>
       <r>   51.6016    0.0000 </r>
       <r>   55.4976    0.0000 </r>
       <r>   55.7034    0.0000 </r>
       <r>   57.0636    0.0000 </r>
       <r>   64.0975    0.0000 </r>
       <r>   65.2514    0.0000 </r>
       <r>   68.8718    0.0000 </r>
      </set>
      <set comment="kpoint 19">
       <r>  -37.7859    1.0000 </r>
       <r>  -37.6429    1.0000 </r>
       <r>  -37.6093    1.0000 </r>
       <r>    4.6440    1.0000 </r>
       <r>    9.8920    1.0000 </r>
       <r>   11.1098    1.0000 </r>
       <r>   11.1355    1.0000 </r>
       <r>   12.7078    1.0000 </r>
       <r>   13.6280    1.0000 </r>
       <r>   31.5791    0.0000 </r>
       <r>   32.3333    0.0000 </r>
       <r>   36.1009    0.0000 </r>
       <r>   37.7026    0.0000 </r>
       <r>   42.5463    0.0000 </r>
       <r>   45.4525    0.0000 </r>
       <r>   47.5758    0.0000 </r>
       <r>   48.6181    0.0000 </r>
       <r>   50.6996    0.0000 </r>
       <r>   55.5151    0.0000 </r>
       <r>   56.9515    0.0000 </r>
       <r>   57.5038    0.0000 </r>
       <r>   60.9791    0.0000 </r>
       <r>   63.6359    0.0000 </r>
       <r>   69.6284    0.0000 </r>
      </set>
      <set comment="kpoint 20">
       <r>  -37.9450    1.0000 </r>
       <r>  -37.7138    1.0000 </r>
       <r>  -37.7122    1.0000 </r>
       <r>    6.1070    1.0000 </r>
       <r>    8.8258    1.0000 </r>
       <r>   11.4270    1.0000 </r>
       <r>   12.2363    1.0000 </r>
       <r>   12.5332    1.0000 </r>
       <r>   14.2466    1.0000 </r>
       <r>   32.8481    0.0000 </r>
       <r>   34.1661    0.0000 </r>
       <r>   34.9371    0.0000 </r>
       <r>   35.3484    0.0000 </r>
       <r>   41.3797    0.0000 </r>
       <r>   43.3115    0.0000 </r>
       <r>   43.8036    0.0000 </r>
       <r>   51.7178    0.0000 </r>
       <r>   51.7721    0.0000 </r>
       <r>   53.1242    0.0000 </r>
       <r>   55.5340    0.0000 </r>
       <r>   60.6887    0.0000 </r>
       <r>   61.7684    0.0000 </r>
       <r>   63.4130    0.0000 </r>
       <r>   73.3952    0.0000 </r>
      </set>
      <set comment="kpoint 21">
       <r>  -38.0931    1.0000 </r>
       <r>  -37.7833    1.0000 </r>
       <r>  -37.7453    1.0000 </r>
       <r>    7.0279    1.0000 </r>
       <r>    8.4476    1.0000 </r>
       <r>   10.9457    1.0000 </r>
       <r>   12.8279    1.0000 </r>
       <r>   13.6171    1.0000 </r>
       <r>   15.0217    1.0000 </r>
       <r>   30.8516    0.0000 </r>
       <r>   33.1340    0.0000 </r>
       <r>   33.9261    0.0000 </r>
       <r>   36.3389    0.0000 </r>
       <r>   40.3578    0.0000 </r>
       <r>   43.4489    0.0000 </r>
       <r>   44.8916    0.0000 </r>
       <r>   50.8003    0.0000 </r>
       <r>   51.1638    0.0000 </r>
       <r>   55.5233    0.0000 </r>
       <r>   56.3703    0.0000 </r>
       <r>   59.9720    0.0000 </r>
       <r>   62.3628    0.0000 </r>
       <r>   64.4080    0.0000 </r>
       <r>   70.8666    0.0000 </r>
      </set>
      <set comment="kpoint 22">
       <r>  -38.2330    1.0000 </r>
       <r>  -37.8524    1.0000 </r>
       <r>  -37.7780    1.0000 </r>
       <r>    7.5008    1.0000 </r>
       <r>    8.8340    1.0000 </r>
       <r>   10.5297    1.0000 </r>
       <r>   12.5822    1.0000 </r>
       <r>   15.2266    1.0000 </r>
       <r>   16.8158    0.0000 </r>
       <r>   26.6197    0.0000 </r>
       <r>   32.1679    0.0000 </r>
       <r>   32.3452    0.0000 </r>
       <r>   36.7042    0.0000 </r>
       <r>   42.0342    0.0000 </r>
       <r>   44.5236    0.0000 </r>
       <r>   46.8965    0.0000 </r>
       <r>   49.9778    0.0000 </r>
       <r>   52.3529    0.0000 </r>
       <r>   55.5232    0.0000 </r>
       <r>   56.0448    0.0000 </r>
       <r>   60.4688    0.0000 </r>
       <r>   63.7300    0.0000 </r>
       <r>   64.5200    0.0000 </r>
       <r>   67.9909    0.0000 </r>
      </set>
      <set comment="kpoint 23">
       <r>  -38.3024    1.0000 </r>
       <r>  -37.9235    1.0000 </r>
       <r>  -37.7823    1.0000 </r>
       <r>    7.6576    1.0000 </r>
       <r>    9.2181    1.0000 </r>
       <r>   10.8182    1.0000 </r>
       <r>   12.2208    1.0000 </r>
       <r>   15.5194    0.3712 </r>
       <r>   19.7821    0.0000 </r>
       <r>   22.7216    0.0000 </r>
       <r>   30.9620    0.0000 </r>
       <r>   32.5999    0.0000 </r>
       <r>   35.2631    0.0000 </r>
       <r>   43.7531    0.0000 </r>
       <r>   46.0457    0.0000 </r>
       <r>   47.7287    0.0000 </r>
       <r>   50.7098    0.0000 </r>
       <r>   54.6775    0.0000 </r>
       <r>   55.4047    0.0000 </r>
       <r>   55.5194    0.0000 </r>
       <r>   59.4473    0.0000 </r>
       <r>   61.6021    0.0000 </r>
       <r>   64.9758    0.0000 </r>
       <r>   67.3976    0.0000 </r>
      </set>
      <set comment="kpoint 24">
       <r>  -38.2818    1.0000 </r>
       <r>  -37.9638    1.0000 </r>
       <r>  -37.7546    1.0000 </r>
       <r>    7.9630    1.0000 </r>
       <r>    9.3352    1.0000 </r>
       <r>   10.8024    1.0000 </r>
       <r>   12.0346    1.0000 </r>
       <r>   14.7225    1.0000 </r>
       <r>   19.5647    0.0000 </r>
       <r>   23.7277    0.0000 </r>
       <r>   30.0603    0.0000 </r>
       <r>   33.1367    0.0000 </r>
       <r>   35.7881    0.0000 </r>
       <r>   42.4106    0.0000 </r>
       <r>   45.0224    0.0000 </r>
       <r>   49.2630    0.0000 </r>
       <r>   53.7237    0.0000 </r>
       <r>   54.4356    0.0000 </r>
       <r>   55.5199    0.0000 </r>
       <r>   57.0377    0.0000 </r>
       <r>   57.3706    0.0000 </r>
       <r>   59.2008    0.0000 </r>
       <r>   64.2075    0.0000 </r>
       <r>   66.6926    0.0000 </r>
      </set>
      <set comment="kpoint 25">
       <r>  -38.2032    1.0000 </r>
       <r>  -37.9306    1.0000 </r>
       <r>  -37.7091    1.0000 </r>
       <r>    8.1781    1.0000 </r>
       <r>    9.5626    1.0000 </r>
       <r>    9.8548    1.0000 </r>
       <r>   12.1625    1.0000 </r>
       <r>   13.4343    1.0000 </r>
       <r>   17.8007    0.0000 </r>
       <r>   27.0445    0.0000 </r>
       <r>   30.5074    0.0000 </r>
       <r>   33.2856    0.0000 </r>
       <r>   38.5777    0.0000 </r>
       <r>   39.2916    0.0000 </r>
       <r>   45.2952    0.0000 </r>
       <r>   50.0316    0.0000 </r>
       <r>   50.2210    0.0000 </r>
       <r>   52.1605    0.0000 </r>
       <r>   55.5146    0.0000 </r>
       <r>   56.5434    0.0000 </r>
       <r>   59.8877    0.0000 </r>
       <r>   63.1517    0.0000 </r>
       <r>   63.7983    0.0000 </r>
       <r>   65.2912    0.0000 </r>
      </set>
      <set comment="kpoint 26">
       <r>  -38.1139    1.0000 </r>
       <r>  -37.8150    1.0000 </r>
       <r>  -37.6654    1.0000 </r>
       <r>    7.1967    1.0000 </r>
       <r>    9.3631    1.0000 </r>
       <r>   10.4849    1.0000 </r>
       <r>   11.9829    1.0000 </r>
       <r>   12.7161    1.0000 </r>
       <r>   15.9693    0.0000 </r>
       <r>   29.0569    0.0000 </r>
       <r>   32.6394    0.0000 </r>
       <r>   34.2740    0.0000 </r>
       <r>   36.8784    0.0000 </r>
       <r>   41.5914    0.0000 </r>
       <r>   45.4529    0.0000 </r>
       <r>   46.8600    0.0000 </r>
       <r>   47.8173    0.0000 </r>
       <r>   52.7711    0.0000 </r>
       <r>   55.5011    0.0000 </r>
       <r>   55.8741    0.0000 </r>
       <r>   58.9019    0.0000 </r>
       <r>   63.8551    0.0000 </r>
       <r>   66.2190    0.0000 </r>
       <r>   66.6978    0.0000 </r>
      </set>
      <set comment="kpoint 27">
       <r>  -38.0184    1.0000 </r>
       <r>  -37.6878    1.0000 </r>
       <r>  -37.6409    1.0000 </r>
       <r>    5.9460    1.0000 </r>
       <r>    9.7846    1.0000 </r>
       <r>   10.9993    1.0000 </r>
       <r>   11.2961    1.0000 </r>
       <r>   13.0594    1.0000 </r>
       <r>   14.2926    1.0000 </r>
       <r>   29.6869    0.0000 </r>
       <r>   32.6579    0.0000 </r>
       <r>   37.4042    0.0000 </r>
       <r>   38.1954    0.0000 </r>
       <r>   41.2378    0.0000 </r>
       <r>   42.8019    0.0000 </r>
       <r>   44.4146    0.0000 </r>
       <r>   50.9206    0.0000 </r>
       <r>   52.8023    0.0000 </r>
       <r>   55.5260    0.0000 </r>
       <r>   56.8995    0.0000 </r>
       <r>   57.3512    0.0000 </r>
       <r>   61.9274    0.0000 </r>
       <r>   65.0106    0.0000 </r>
       <r>   69.1240    0.0000 </r>
      </set>
      <set comment="kpoint 28">
       <r>  -38.1764    1.0000 </r>
       <r>  -37.8140    1.0000 </r>
       <r>  -37.8081    1.0000 </r>
       <r>    7.0238    1.0000 </r>
       <r>    7.8202    1.0000 </r>
       <r>   12.1897    1.0000 </r>
       <r>   13.7828    1.0000 </r>
       <r>   14.3198    1.0000 </r>
       <r>   15.0036    1.0000 </r>
       <r>   30.8052    0.0000 </r>
       <r>   31.5068    0.0000 </r>
       <r>   32.7877    0.0000 </r>
       <r>   36.9479    0.0000 </r>
       <r>   37.9609    0.0000 </r>
       <r>   45.3484    0.0000 </r>
       <r>   45.8937    0.0000 </r>
       <r>   48.2819    0.0000 </r>
       <r>   53.1373    0.0000 </r>
       <r>   55.5217    0.0000 </r>
       <r>   56.2797    0.0000 </r>
       <r>   62.4488    0.0000 </r>
       <r>   63.3412    0.0000 </r>
       <r>   63.5922    0.0000 </r>
       <r>   68.2641    0.0000 </r>
      </set>
      <set comment="kpoint 29">
       <r>  -38.2648    1.0000 </r>
       <r>  -37.8781    1.0000 </r>
       <r>  -37.8408    1.0000 </r>
       <r>    7.1091    1.0000 </r>
       <r>    7.6524    1.0000 </r>
       <r>   12.3460    1.0000 </r>
       <r>   14.2990    1.0000 </r>
       <r>   15.2506    1.0000 </r>
       <r>   16.7320    0.0000 </r>
       <r>   27.7758    0.0000 </r>
       <r>   29.7756    0.0000 </r>
       <r>   31.1040    0.0000 </r>
       <r>   37.7792    0.0000 </r>
       <r>   39.6491    0.0000 </r>
       <r>   45.0975    0.0000 </r>
       <r>   48.1941    0.0000 </r>
       <r>   49.6174    0.0000 </r>
       <r>   53.4614    0.0000 </r>
       <r>   54.5469    0.0000 </r>
       <r>   55.5203    0.0000 </r>
       <r>   61.2830    0.0000 </r>
       <r>   63.4590    0.0000 </r>
       <r>   65.1978    0.0000 </r>
       <r>   65.8321    0.0000 </r>
      </set>
      <set comment="kpoint 30">
       <r>  -38.2823    1.0000 </r>
       <r>  -37.9822    1.0000 </r>
       <r>  -37.8436    1.0000 </r>
       <r>    7.3322    1.0000 </r>
       <r>    8.1474    1.0000 </r>
       <r>   11.8079    1.0000 </r>
       <r>   13.7512    1.0000 </r>
       <r>   15.7060    0.0000 </r>
       <r>   20.0989    0.0000 </r>
       <r>   23.8739    0.0000 </r>
       <r>   29.0939    0.0000 </r>
       <r>   30.4143    0.0000 </r>
       <r>   37.5748    0.0000 </r>
       <r>   42.5762    0.0000 </r>
       <r>   44.4264    0.0000 </r>
       <r>   47.9175    0.0000 </r>
       <r>   52.2537    0.0000 </r>
       <r>   54.1086    0.0000 </r>
       <r>   54.7810    0.0000 </r>
       <r>   55.5191    0.0000 </r>
       <r>   59.6521    0.0000 </r>
       <r>   61.9699    0.0000 </r>
       <r>   64.1299    0.0000 </r>
       <r>   65.5875    0.0000 </r>
      </set>
      <set comment="kpoint 31">
       <r>  -38.2068    1.0000 </r>
       <r>  -38.1054    1.0000 </r>
       <r>  -37.8120    1.0000 </r>
       <r>    7.8107    1.0000 </r>
       <r>    8.9491    1.0000 </r>
       <r>   10.9491    1.0000 </r>
       <r>   13.1415    1.0000 </r>
       <r>   15.0525    1.0000 </r>
       <r>   21.0806    0.0000 </r>
       <r>   24.0674    0.0000 </r>
       <r>   27.2793    0.0000 </r>
       <r>   32.3278    0.0000 </r>
       <r>   36.5095    0.0000 </r>
       <r>   43.1188    0.0000 </r>
       <r>   45.1508    0.0000 </r>
       <r>   46.3048    0.0000 </r>
       <r>   54.2780    0.0000 </r>
       <r>   54.8657    0.0000 </r>
       <r>   55.5181    0.0000 </r>
       <r>   57.6014    0.0000 </r>
       <r>   58.6493    0.0000 </r>
       <r>   60.6590    0.0000 </r>
       <r>   62.9127    0.0000 </r>
       <r>   65.1285    0.0000 </r>
      </set>
      <set comment="kpoint 32">
       <r>  -38.2130    1.0000 </r>
       <r>  -38.0491    1.0000 </r>
       <r>  -37.7602    1.0000 </r>
       <r>    8.3616    1.0000 </r>
       <r>    9.3877    1.0000 </r>
       <r>   10.1311    1.0000 </r>
       <r>   12.5000    1.0000 </r>
       <r>   14.2647    1.0000 </r>
       <r>   19.4530    0.0000 </r>
       <r>   25.7092    0.0000 </r>
       <r>   28.1415    0.0000 </r>
       <r>   33.6685    0.0000 </r>
       <r>   36.3837    0.0000 </r>
       <r>   41.1618    0.0000 </r>
       <r>   44.7052    0.0000 </r>
       <r>   49.0240    0.0000 </r>
       <r>   53.6919    0.0000 </r>
       <r>   55.5178    0.0000 </r>
       <r>   55.9872    0.0000 </r>
       <r>   56.4315    0.0000 </r>
       <r>   57.6880    0.0000 </r>
       <r>   60.0523    0.0000 </r>
       <r>   62.1189    0.0000 </r>
       <r>   66.8059    0.0000 </r>
      </set>
      <set comment="kpoint 33">
       <r>  -38.2637    1.0000 </r>
       <r>  -37.8691    1.0000 </r>
       <r>  -37.7088    1.0000 </r>
       <r>    7.5602    1.0000 </r>
       <r>    9.8568    1.0000 </r>
       <r>   10.5455    1.0000 </r>
       <r>   11.6399    1.0000 </r>
       <r>   14.0910    1.0000 </r>
       <r>   17.6694    0.0000 </r>
       <r>   25.6132    0.0000 </r>
       <r>   31.3653    0.0000 </r>
       <r>   32.9170    0.0000 </r>
       <r>   37.8657    0.0000 </r>
       <r>   40.6735    0.0000 </r>
       <r>   45.7083    0.0000 </r>
       <r>   48.7453    0.0000 </r>
       <r>   50.6338    0.0000 </r>
       <r>   54.3728    0.0000 </r>
       <r>   55.5170    0.0000 </r>
       <r>   56.4975    0.0000 </r>
       <r>   58.3856    0.0000 </r>
       <r>   62.4668    0.0000 </r>
       <r>   63.9560    0.0000 </r>
       <r>   66.2347    0.0000 </r>
      </set>
      <set comment="kpoint 34">
       <r>  -38.2490    1.0000 </r>
       <r>  -37.7241    1.0000 </r>
       <r>  -37.6798    1.0000 </r>
       <r>    6.5963    1.0000 </r>
       <r>   10.5395    1.0000 </r>
       <r>   10.9398    1.0000 </r>
       <r>   11.0745    1.0000 </r>
       <r>   14.3003    1.0000 </r>
       <r>   15.4781    0.7991 </r>
       <r>   26.4710    0.0000 </r>
       <r>   31.0208    0.0000 </r>
       <r>   35.9789    0.0000 </r>
       <r>   38.3959    0.0000 </r>
       <r>   41.6154    0.0000 </r>
       <r>   44.2290    0.0000 </r>
       <r>   45.0081    0.0000 </r>
       <r>   51.3395    0.0000 </r>
       <r>   55.5150    0.0000 </r>
       <r>   56.3990    0.0000 </r>
       <r>   57.2933    0.0000 </r>
       <r>   59.0932    0.0000 </r>
       <r>   60.7093    0.0000 </r>
       <r>   64.7053    0.0000 </r>
       <r>   66.2179    0.0000 </r>
      </set>
      <set comment="kpoint 35">
       <r>  -38.3345    1.0000 </r>
       <r>  -37.8857    1.0000 </r>
       <r>  -37.8754    1.0000 </r>
       <r>    6.6471    1.0000 </r>
       <r>    7.1829    1.0000 </r>
       <r>   14.5888    1.0000 </r>
       <r>   15.1373    1.0000 </r>
       <r>   15.7701    0.0000 </r>
       <r>   16.6868    0.0000 </r>
       <r>   27.2940    0.0000 </r>
       <r>   28.4391    0.0000 </r>
       <r>   28.7923    0.0000 </r>
       <r>   37.3646    0.0000 </r>
       <r>   40.7651    0.0000 </r>
       <r>   45.2853    0.0000 </r>
       <r>   50.1591    0.0000 </r>
       <r>   50.5790    0.0000 </r>
       <r>   53.0371    0.0000 </r>
       <r>   55.1249    0.0000 </r>
       <r>   55.5272    0.0000 </r>
       <r>   60.9234    0.0000 </r>
       <r>   61.0650    0.0000 </r>
       <r>   63.4433    0.0000 </r>
       <r>   64.3792    0.0000 </r>
      </set>
      <set comment="kpoint 36">
       <r>  -38.3478    1.0000 </r>
       <r>  -37.9287    1.0000 </r>
       <r>  -37.8876    1.0000 </r>
       <r>    6.7325    1.0000 </r>
       <r>    7.2747    1.0000 </r>
       <r>   13.9593    1.0000 </r>
       <r>   15.0147    1.0000 </r>
       <r>   16.0520    0.0000 </r>
       <r>   19.1528    0.0000 </r>
       <r>   25.1208    0.0000 </r>
       <r>   27.5213    0.0000 </r>
       <r>   28.4447    0.0000 </r>
       <r>   38.5675    0.0000 </r>
       <r>   41.2484    0.0000 </r>
       <r>   44.5696    0.0000 </r>
       <r>   50.1899    0.0000 </r>
       <r>   53.0499    0.0000 </r>
       <r>   53.5976    0.0000 </r>
       <r>   55.2554    0.0000 </r>
       <r>   55.5252    0.0000 </r>
       <r>   59.0995    0.0000 </r>
       <r>   60.4684    0.0000 </r>
       <r>   61.3059    0.0000 </r>
       <r>   63.2859    0.0000 </r>
      </set>
      <set comment="kpoint 37">
       <r>  -38.2860    1.0000 </r>
       <r>  -38.0186    1.0000 </r>
       <r>  -37.8573    1.0000 </r>
       <r>    7.2201    1.0000 </r>
       <r>    8.0122    1.0000 </r>
       <r>   12.2869    1.0000 </r>
       <r>   14.0773    1.0000 </r>
       <r>   15.6858    0.0000 </r>
       <r>   21.5719    0.0000 </r>
       <r>   23.0784    0.0000 </r>
       <r>   27.6035    0.0000 </r>
       <r>   29.9680    0.0000 </r>
       <r>   38.2098    0.0000 </r>
       <r>   42.8927    0.0000 </r>
       <r>   44.0233    0.0000 </r>
       <r>   47.5053    0.0000 </r>
       <r>   53.7634    0.0000 </r>
       <r>   54.3925    0.0000 </r>
       <r>   55.5166    0.0000 </r>
       <r>   56.0927    0.0000 </r>
       <r>   58.2441    0.0000 </r>
       <r>   61.6698    0.0000 </r>
       <r>   62.7017    0.0000 </r>
       <r>   64.7554    0.0000 </r>
      </set>
      <set comment="kpoint 38">
       <r>  -38.2644    1.0000 </r>
       <r>  -38.0174    1.0000 </r>
       <r>  -37.8016    1.0000 </r>
       <r>    7.8003    1.0000 </r>
       <r>    9.0036    1.0000 </r>
       <r>   10.8750    1.0000 </r>
       <r>   12.7513    1.0000 </r>
       <r>   15.3038    1.0000 </r>
       <r>   21.5203    0.0000 </r>
       <r>   22.1030    0.0000 </r>
       <r>   29.2991    0.0000 </r>
       <r>   32.3797    0.0000 </r>
       <r>   35.8114    0.0000 </r>
       <r>   43.5031    0.0000 </r>
       <r>   45.4968    0.0000 </r>
       <r>   46.9670    0.0000 </r>
       <r>   52.5724    0.0000 </r>
       <r>   54.7173    0.0000 </r>
       <r>   55.5228    0.0000 </r>
       <r>   56.3473    0.0000 </r>
       <r>   59.5916    0.0000 </r>
       <r>   60.7469    0.0000 </r>
       <r>   64.1038    0.0000 </r>
       <r>   66.3378    0.0000 </r>
      </set>
      <set comment="kpoint 39">
       <r>  -38.3431    1.0000 </r>
       <r>  -37.8720    1.0000 </r>
       <r>  -37.7443    1.0000 </r>
       <r>    7.4218    1.0000 </r>
       <r>    9.5609    1.0000 </r>
       <r>   11.4991    1.0000 </r>
       <r>   11.5320    1.0000 </r>
       <r>   15.1988    1.0000 </r>
       <r>   19.3339    0.0000 </r>
       <r>   22.4024    0.0000 </r>
       <r>   30.9385    0.0000 </r>
       <r>   33.1396    0.0000 </r>
       <r>   35.2454    0.0000 </r>
       <r>   44.0487    0.0000 </r>
       <r>   45.4187    0.0000 </r>
       <r>   49.6299    0.0000 </r>
       <r>   52.4252    0.0000 </r>
       <r>   53.9321    0.0000 </r>
       <r>   55.5182    0.0000 </r>
       <r>   56.8641    0.0000 </r>
       <r>   58.2099    0.0000 </r>
       <r>   58.7968    0.0000 </r>
       <r>   65.1336    0.0000 </r>
       <r>   66.9951    0.0000 </r>
      </set>
      <set comment="kpoint 40">
       <r>  -38.3889    1.0000 </r>
       <r>  -37.7416    1.0000 </r>
       <r>  -37.7082    1.0000 </r>
       <r>    6.6032    1.0000 </r>
       <r>   10.2466    1.0000 </r>
       <r>   10.7550    1.0000 </r>
       <r>   12.7464    1.0000 </r>
       <r>   15.3577    1.0000 </r>
       <r>   16.7881    0.0000 </r>
       <r>   23.1751    0.0000 </r>
       <r>   29.8586    0.0000 </r>
       <r>   34.8454    0.0000 </r>
       <r>   35.8946    0.0000 </r>
       <r>   44.8949    0.0000 </r>
       <r>   46.4218    0.0000 </r>
       <r>   47.6276    0.0000 </r>
       <r>   52.5018    0.0000 </r>
       <r>   54.5075    0.0000 </r>
       <r>   55.5123    0.0000 </r>
       <r>   55.7338    0.0000 </r>
       <r>   59.5952    0.0000 </r>
       <r>   62.0313    0.0000 </r>
       <r>   65.0340    0.0000 </r>
       <r>   65.6474    0.0000 </r>
      </set>
      <set comment="kpoint 41">
       <r>  -38.3699    1.0000 </r>
       <r>  -37.9022    1.0000 </r>
       <r>  -37.8903    1.0000 </r>
       <r>    6.5033    1.0000 </r>
       <r>    7.0492    1.0000 </r>
       <r>   15.2862    1.0000 </r>
       <r>   15.3943    0.9993 </r>
       <r>   16.0797    0.0000 </r>
       <r>   17.6950    0.0000 </r>
       <r>   26.0282    0.0000 </r>
       <r>   27.6780    0.0000 </r>
       <r>   27.6803    0.0000 </r>
       <r>   37.7755    0.0000 </r>
       <r>   41.4392    0.0000 </r>
       <r>   44.8674    0.0000 </r>
       <r>   51.3802    0.0000 </r>
       <r>   52.9079    0.0000 </r>
       <r>   53.0827    0.0000 </r>
       <r>   55.5159    0.0000 </r>
       <r>   55.7069    0.0000 </r>
       <r>   57.9518    0.0000 </r>
       <r>   58.5739    0.0000 </r>
       <r>   63.1226    0.0000 </r>
       <r>   64.5805    0.0000 </r>
      </set>
      <set comment="kpoint 42">
       <r>  -38.3188    1.0000 </r>
       <r>  -37.9111    1.0000 </r>
       <r>  -37.8712    1.0000 </r>
       <r>    6.8788    1.0000 </r>
       <r>    7.4024    1.0000 </r>
       <r>   13.3059    1.0000 </r>
       <r>   14.8330    1.0000 </r>
       <r>   15.7389    0.0000 </r>
       <r>   18.0526    0.0000 </r>
       <r>   26.2159    0.0000 </r>
       <r>   28.4030    0.0000 </r>
       <r>   29.4353    0.0000 </r>
       <r>   38.1700    0.0000 </r>
       <r>   40.6686    0.0000 </r>
       <r>   44.8638    0.0000 </r>
       <r>   49.8156    0.0000 </r>
       <r>   50.9814    0.0000 </r>
       <r>   53.3696    0.0000 </r>
       <r>   54.8870    0.0000 </r>
       <r>   55.5287    0.0000 </r>
       <r>   60.6489    0.0000 </r>
       <r>   61.3655    0.0000 </r>
       <r>   62.9005    0.0000 </r>
       <r>   64.2622    0.0000 </r>
      </set>
      <set comment="kpoint 43">
       <r>  -38.2670    1.0000 </r>
       <r>  -37.9216    1.0000 </r>
       <r>  -37.8166    1.0000 </r>
       <r>    7.4776    1.0000 </r>
       <r>    8.4286    1.0000 </r>
       <r>   11.1188    1.0000 </r>
       <r>   13.1962    1.0000 </r>
       <r>   15.6100    0.0019 </r>
       <r>   18.3547    0.0000 </r>
       <r>   25.1364    0.0000 </r>
       <r>   30.8163    0.0000 </r>
       <r>   31.2960    0.0000 </r>
       <r>   36.8802    0.0000 </r>
       <r>   42.2407    0.0000 </r>
       <r>   44.6848    0.0000 </r>
       <r>   47.7656    0.0000 </r>
       <r>   51.2064    0.0000 </r>
       <r>   52.8805    0.0000 </r>
       <r>   54.6346    0.0000 </r>
       <r>   55.5218    0.0000 </r>
       <r>   60.3684    0.0000 </r>
       <r>   63.0027    0.0000 </r>
       <r>   65.6086    0.0000 </r>
       <r>   67.2199    0.0000 </r>
      </set>
      <set comment="kpoint 44">
       <r>  -38.3129    1.0000 </r>
       <r>  -37.8377    1.0000 </r>
       <r>  -37.7539    1.0000 </r>
       <r>    7.3478    1.0000 </r>
       <r>    9.6249    1.0000 </r>
       <r>   10.8388    1.0000 </r>
       <r>   11.7120    1.0000 </r>
       <r>   15.4805    0.7795 </r>
       <r>   17.8980    0.0000 </r>
       <r>   23.9721    0.0000 </r>
       <r>   31.3202    0.0000 </r>
       <r>   33.3721    0.0000 </r>
       <r>   35.7156    0.0000 </r>
       <r>   43.5289    0.0000 </r>
       <r>   46.6089    0.0000 </r>
       <r>   47.4675    0.0000 </r>
       <r>   49.3813    0.0000 </r>
       <r>   55.1657    0.0000 </r>
       <r>   55.5162    0.0000 </r>
       <r>   55.6030    0.0000 </r>
       <r>   59.1249    0.0000 </r>
       <r>   62.6712    0.0000 </r>
       <r>   64.5397    0.0000 </r>
       <r>   67.3212    0.0000 </r>
      </set>
      <set comment="kpoint 45">
       <r>  -38.2688    1.0000 </r>
       <r>  -37.8557    1.0000 </r>
       <r>  -37.8468    1.0000 </r>
       <r>    6.8734    1.0000 </r>
       <r>    7.4440    1.0000 </r>
       <r>   13.4064    1.0000 </r>
       <r>   14.5613    1.0000 </r>
       <r>   15.3822    0.9998 </r>
       <r>   15.4493    0.9510 </r>
       <r>   28.9908    0.0000 </r>
       <r>   29.7901    0.0000 </r>
       <r>   30.7787    0.0000 </r>
       <r>   36.8643    0.0000 </r>
       <r>   39.5319    0.0000 </r>
       <r>   45.9035    0.0000 </r>
       <r>   47.9257    0.0000 </r>
       <r>   48.4649    0.0000 </r>
       <r>   54.0915    0.0000 </r>
       <r>   54.5736    0.0000 </r>
       <r>   55.5259    0.0000 </r>
       <r>   63.2790    0.0000 </r>
       <r>   63.7907    0.0000 </r>
       <r>   64.5237    0.0000 </r>
       <r>   64.7277    0.0000 </r>
      </set>
      <set comment="kpoint 46">
       <r>  -38.1876    1.0000 </r>
       <r>  -37.8336    1.0000 </r>
       <r>  -37.7971    1.0000 </r>
       <r>    7.2590    1.0000 </r>
       <r>    8.0097    1.0000 </r>
       <r>   11.4217    1.0000 </r>
       <r>   13.5701    1.0000 </r>
       <r>   14.5178    1.0000 </r>
       <r>   15.7081    0.0000 </r>
       <r>   29.4693    0.0000 </r>
       <r>   31.4426    0.0000 </r>
       <r>   32.6744    0.0000 </r>
       <r>   37.5293    0.0000 </r>
       <r>   38.9616    0.0000 </r>
       <r>   44.5632    0.0000 </r>
       <r>   46.3652    0.0000 </r>
       <r>   49.6172    0.0000 </r>
       <r>   52.1519    0.0000 </r>
       <r>   55.5197    0.0000 </r>
       <r>   56.1114    0.0000 </r>
       <r>   61.4148    0.0000 </r>
       <r>   63.3091    0.0000 </r>
       <r>   64.4890    0.0000 </r>
       <r>   67.9911    0.0000 </r>
      </set>
      <set comment="kpoint 47">
       <r>  -38.1782    1.0000 </r>
       <r>  -37.7879    1.0000 </r>
       <r>  -37.7300    1.0000 </r>
       <r>    7.2171    1.0000 </r>
       <r>    9.2399    1.0000 </r>
       <r>   10.3695    1.0000 </r>
       <r>   12.0273    1.0000 </r>
       <r>   14.4596    1.0000 </r>
       <r>   15.7246    0.0000 </r>
       <r>   28.0154    0.0000 </r>
       <r>   32.5123    0.0000 </r>
       <r>   33.9989    0.0000 </r>
       <r>   36.9946    0.0000 </r>
       <r>   42.0126    0.0000 </r>
       <r>   44.0553    0.0000 </r>
       <r>   45.8804    0.0000 </r>
       <r>   48.8603    0.0000 </r>
       <r>   53.2645    0.0000 </r>
       <r>   55.5234    0.0000 </r>
       <r>   57.1450    0.0000 </r>
       <r>   60.0556    0.0000 </r>
       <r>   61.2506    0.0000 </r>
       <r>   65.2691    0.0000 </r>
       <r>   68.4190    0.0000 </r>
      </set>
      <set comment="kpoint 48">
       <r>  -38.0650    1.0000 </r>
       <r>  -37.7642    1.0000 </r>
       <r>  -37.7623    1.0000 </r>
       <r>    6.8099    1.0000 </r>
       <r>    8.2911    1.0000 </r>
       <r>   11.4658    1.0000 </r>
       <r>   12.9767    1.0000 </r>
       <r>   13.3361    1.0000 </r>
       <r>   14.6197    1.0000 </r>
       <r>   32.3342    0.0000 </r>
       <r>   33.3427    0.0000 </r>
       <r>   33.9336    0.0000 </r>
       <r>   36.1168    0.0000 </r>
       <r>   38.7621    0.0000 </r>
       <r>   44.0080    0.0000 </r>
       <r>   44.3483    0.0000 </r>
       <r>   49.7786    0.0000 </r>
       <r>   52.3482    0.0000 </r>
       <r>   55.5282    0.0000 </r>
       <r>   56.1893    0.0000 </r>
       <r>   60.6656    0.0000 </r>
       <r>   62.6387    0.0000 </r>
       <r>   63.1230    0.0000 </r>
       <r>   71.6970    0.0000 </r>
      </set>
      <set comment="kpoint 49">
       <r>  -37.9885    1.0000 </r>
       <r>  -37.7319    1.0000 </r>
       <r>  -37.6919    1.0000 </r>
       <r>    6.3185    1.0000 </r>
       <r>    8.9384    1.0000 </r>
       <r>   11.0395    1.0000 </r>
       <r>   12.1576    1.0000 </r>
       <r>   12.8462    1.0000 </r>
       <r>   14.4727    1.0000 </r>
       <r>   31.5010    0.0000 </r>
       <r>   33.8558    0.0000 </r>
       <r>   35.2640    0.0000 </r>
       <r>   35.9323    0.0000 </r>
       <r>   41.7316    0.0000 </r>
       <r>   43.1934    0.0000 </r>
       <r>   44.4135    0.0000 </r>
       <r>   50.3602    0.0000 </r>
       <r>   52.5214    0.0000 </r>
       <r>   54.0464    0.0000 </r>
       <r>   55.5272    0.0000 </r>
       <r>   58.7561    0.0000 </r>
       <r>   62.9352    0.0000 </r>
       <r>   64.7862    0.0000 </r>
       <r>   71.1055    0.0000 </r>
      </set>
      <set comment="kpoint 50">
       <r>  -37.8287    1.0000 </r>
       <r>  -37.6672    1.0000 </r>
       <r>  -37.6634    1.0000 </r>
       <r>    5.1986    1.0000 </r>
       <r>    9.3813    1.0000 </r>
       <r>   11.5002    1.0000 </r>
       <r>   11.6095    1.0000 </r>
       <r>   12.2144    1.0000 </r>
       <r>   13.9113    1.0000 </r>
       <r>   32.6004    0.0000 </r>
       <r>   33.0188    0.0000 </r>
       <r>   35.8132    0.0000 </r>
       <r>   36.1711    0.0000 </r>
       <r>   43.1394    0.0000 </r>
       <r>   43.8269    0.0000 </r>
       <r>   45.7013    0.0000 </r>
       <r>   49.6284    0.0000 </r>
       <r>   51.2493    0.0000 </r>
       <r>   54.0525    0.0000 </r>
       <r>   55.5290    0.0000 </r>
       <r>   60.2084    0.0000 </r>
       <r>   60.6555    0.0000 </r>
       <r>   63.8512    0.0000 </r>
       <r>   72.3100    0.0000 </r>
      </set>
      <set comment="kpoint 51">
       <r>  -37.7622    1.0000 </r>
       <r>  -37.6066    1.0000 </r>
       <r>  -37.6066    1.0000 </r>
       <r>    4.3474    1.0000 </r>
       <r>   10.1550    1.0000 </r>
       <r>   10.9363    1.0000 </r>
       <r>   10.9363    1.0000 </r>
       <r>   13.2092    1.0000 </r>
       <r>   13.2092    1.0000 </r>
       <r>   31.0630    0.0000 </r>
       <r>   32.2412    0.0000 </r>
       <r>   37.0901    0.0000 </r>
       <r>   37.0901    0.0000 </r>
       <r>   43.3536    0.0000 </r>
       <r>   46.5359    0.0000 </r>
       <r>   46.5359    0.0000 </r>
       <r>   47.0773    0.0000 </r>
       <r>   55.1315    0.0000 </r>
       <r>   55.1315    0.0000 </r>
       <r>   55.5083    0.0000 </r>
       <r>   58.6280    0.0000 </r>
       <r>   60.9784    0.0000 </r>
       <r>   60.9784    0.0000 </r>
       <r>   68.1346    0.0000 </r>
      </set>
      <set comment="kpoint 52">
       <r>  -37.8677    1.0000 </r>
       <r>  -37.6737    1.0000 </r>
       <r>  -37.6102    1.0000 </r>
       <r>    5.1661    1.0000 </r>
       <r>    9.7782    1.0000 </r>
       <r>   11.1222    1.0000 </r>
       <r>   11.2786    1.0000 </r>
       <r>   12.5987    1.0000 </r>
       <r>   13.8838    1.0000 </r>
       <r>   31.3628    0.0000 </r>
       <r>   32.2872    0.0000 </r>
       <r>   36.1784    0.0000 </r>
       <r>   39.3515    0.0000 </r>
       <r>   39.9753    0.0000 </r>
       <r>   45.2956    0.0000 </r>
       <r>   47.2040    0.0000 </r>
       <r>   49.3201    0.0000 </r>
       <r>   50.1074    0.0000 </r>
       <r>   55.5138    0.0000 </r>
       <r>   56.0506    0.0000 </r>
       <r>   57.6819    0.0000 </r>
[...]
       </set>
       <set comment="band 3">
        <r>  0.0000  0.4980  0.0000  0.4980  0.0000  0.0000  0.0000  0.0000  0.0000 </r>
       </set>
       <set comment="band 4">
        <r>  0.1596  0.0000  0.0076  0.0000  0.2065  0.1461  0.0048  0.1461  0.0000 </r>
       </set>
       <set comment="band 5">
        <r>  0.0001  0.0018  0.0000  0.0018  0.1220  0.0748  0.5428  0.0748  0.0000 </r>
       </set>
       <set comment="band 6">
        <r>  0.0000  0.0010  0.0000  0.0010  0.0000  0.1845  0.0000  0.1845  0.4827 </r>
       </set>
       <set comment="band 7">
        <r>  0.0395  0.0334  0.0341  0.0334  0.3521  0.0087  0.0609  0.0087  0.0000 </r>
       </set>
       <set comment="band 8">
        <r>  0.0000  0.0001  0.0000  0.0001  0.0000  0.2744  0.0000  0.2744  0.4115 </r>
       </set>
       <set comment="band 9">
        <r>  0.0335  0.0179  0.0366  0.0179  0.1018  0.1435  0.2505  0.1435  0.0000 </r>
       </set>
       <set comment="band 10">
        <r>  0.3194  0.0216  0.0136  0.0216  0.1050  0.1023  0.0033  0.1023  0.0000 </r>
       </set>
       <set comment="band 11">
        <r>  0.0047  0.0045  0.0119  0.0045  0.0266  0.0002  0.0210  0.0002  0.0000 </r>
       </set>
       <set comment="band 12">
        <r>  0.0000  0.1186  0.0000  0.1186  0.0000  0.0131  0.0000  0.0131  0.0117 </r>
       </set>
       <set comment="band 13">
        <r>  0.0114  0.0334  0.1344  0.0334  0.0570  0.0059  0.0430  0.0059  0.0000 </r>
       </set>
       <set comment="band 14">
        <r>  0.0000  0.0071  0.0000  0.0071  0.0000  0.0325  0.0000  0.0325  0.1956 </r>
       </set>
       <set comment="band 15">
        <r>  0.0104  0.0332  0.0021  0.0332  0.0065  0.0300  0.1040  0.0300  0.0000 </r>
       </set>
       <set comment="band 16">
        <r>  0.0275  0.0103  0.0001  0.0103  0.1300  0.0016  0.1836  0.0016  0.0000 </r>
       </set>
       <set comment="band 17">
        <r>  0.1059  0.0496  0.1567  0.0496  0.0147  0.0393  0.0012  0.0393  0.0000 </r>
       </set>
       <set comment="band 18">
        <r>  6.1219  0.0001  0.0028  0.0001  0.0007  0.0013  0.0000  0.0013  0.0000 </r>
       </set>
       <set comment="band 19">
        <r>  0.1930  0.0037  0.0678  0.0037  0.0165  0.0440  0.0001  0.0440  0.0000 </r>
       </set>
       <set comment="band 20">
        <r>  0.0000  0.0544  0.0000  0.0544  0.0000  0.0672  0.0000  0.0672  0.1136 </r>
       </set>
       <set comment="band 21">
        <r>  0.0000  0.2129  0.0000  0.2129  0.0000  0.0087  0.0000  0.0087  0.0222 </r>
       </set>
       <set comment="band 22">
        <r>  0.0000  0.0086  0.1045  0.0086  0.0272  0.0030  0.0534  0.0030  0.0000 </r>
       </set>
       <set comment="band 23">
        <r>  0.0001  0.0009  0.0314  0.0009  0.0900  0.0037  0.0007  0.0037  0.0000 </r>
       </set>
       <set comment="band 24">
        <r>  0.1192  0.0018  0.0089  0.0018  0.1920  0.0082  0.0012  0.0082  0.0000 </r>
       </set>
      </set>
      <set comment="kpoint 106">
       <set comment="band 1">
        <r>  0.0000  0.2956  0.4024  0.2806  0.0000  0.0000  0.0000  0.0000  0.0000 </r>
       </set>
       <set comment="band 2">
        <r>  0.0000  0.0038  0.3665  0.6219  0.0001  0.0000  0.0000  0.0001  0.0000 </r>
       </set>
       <set comment="band 3">
        <r>  0.0000  0.6909  0.2184  0.0862  0.0000  0.0000  0.0000  0.0000  0.0000 </r>
       </set>
       <set comment="band 4">
        <r>  0.1219  0.0004  0.0095  0.0048  0.2371  0.1942  0.0070  0.1087  0.0014 </r>
       </set>
       <set comment="band 5">
        <r>  0.0001  0.0084  0.0002  0.0004  0.0622  0.1303  0.4472  0.0013  0.1214 </r>
       </set>
       <set comment="band 6">
        <r>  0.0091  0.0155  0.0135  0.0276  0.1572  0.1761  0.1469  0.0844  0.0727 </r>
       </set>
       <set comment="band 7">
        <r>  0.0051  0.0089  0.0189  0.0027  0.1829  0.0058  0.0303  0.1624  0.3649 </r>
       </set>
       <set comment="band 8">
        <r>  0.0010  0.0003  0.0021  0.0009  0.0891  0.0830  0.0717  0.4523  0.2375 </r>
       </set>
       <set comment="band 9">
        <r>  0.0588  0.0265  0.0516  0.0275  0.0304  0.2705  0.1392  0.0096  0.0676 </r>
       </set>
       <set comment="band 10">
        <r>  0.3459  0.0143  0.0078  0.0263  0.1203  0.0593  0.0049  0.1078  0.0183 </r>
       </set>
       <set comment="band 11">
        <r>  0.0002  0.0018  0.0119  0.0207  0.0333  0.0183  0.0558  0.0033  0.0167 </r>
       </set>
       <set comment="band 12">
        <r>  0.0260  0.0166  0.0700  0.1421  0.0340  0.0117  0.0095  0.0400  0.0343 </r>
       </set>
       <set comment="band 13">
        <r>  0.0039  0.1442  0.0702  0.0036  0.0194  0.0023  0.0540  0.0002  0.0002 </r>
       </set>
       <set comment="band 14">
        <r>  0.0014  0.0020  0.0058  0.0252  0.0235  0.0555  0.0010  0.0126  0.1116 </r>
       </set>
       <set comment="band 15">
        <r>  0.0014  0.0003  0.0100  0.0030  0.0979  0.0046  0.1595  0.0224  0.0001 </r>
       </set>
       <set comment="band 16">
        <r>  0.0864  0.0347  0.0002  0.0066  0.0429  0.0013  0.0088  0.0573  0.0064 </r>
       </set>
       <set comment="band 17">
        <r>  0.1179  0.1039  0.0695  0.0250  0.0012  0.0558  0.0299  0.0033  0.0470 </r>
       </set>
       <set comment="band 18">
        <r>  0.0076  0.0592  0.0765  0.0148  0.0061  0.0212  0.0046  0.0231  0.0309 </r>
       </set>
       <set comment="band 19">
        <r>  6.2797  0.0000  0.0001  0.0000  0.0000  0.0000  0.0001  0.0000  0.0000 </r>
       </set>
       <set comment="band 20">
        <r>  0.0008  0.0169  0.0025  0.0328  0.0001  0.0765  0.0066  0.0033  0.0000 </r>
       </set>
       <set comment="band 21">
        <r>  0.0306  0.1300  0.0178  0.0899  0.0013  0.0356  0.0499  0.0023  0.0730 </r>
       </set>
       <set comment="band 22">
        <r>  0.0005  0.0016  0.0220  0.0034  0.0668  0.0016  0.0124  0.0002  0.0139 </r>
       </set>
       <set comment="band 23">
        <r>  0.0212  0.0191  0.0415  0.0011  0.0190  0.0001  0.0069  0.0331  0.0515 </r>
       </set>
       <set comment="band 24">
        <r>  0.0103  0.0088  0.0971  0.0359  0.0278  0.0549  0.0078  0.0030  0.0055 </r>
       </set>
      </set>
      <set comment="kpoint 107">
       <set comment="band 1">
        <r>  0.0000  0.2468  0.3543  0.3796  0.0001  0.0001  0.0000  0.0000  0.0000 </r>
       </set>
       <set comment="band 2">
        <r>  0.0000  0.0519  0.3569  0.5791  0.0001  0.0001  0.0000  0.0001  0.0000 </r>
       </set>
       <set comment="band 3">
        <r>  0.0000  0.6916  0.2758  0.0267  0.0000  0.0000  0.0001  0.0000  0.0000 </r>
       </set>
       <set comment="band 4">
        <r>  0.0623  0.0001  0.0078  0.0069  0.0773  0.4071  0.0395  0.0350  0.0854 </r>
       </set>
       <set comment="band 5">
        <r>  0.0089  0.0180  0.0091  0.0020  0.1172  0.0098  0.3331  0.0206  0.1747 </r>
       </set>
       <set comment="band 6">
        <r>  0.0002  0.0104  0.0148  0.0334  0.3714  0.2081  0.0134  0.0307  0.0133 </r>
       </set>
       <set comment="band 7">
        <r>  0.0022  0.0004  0.0058  0.0030  0.0069  0.0006  0.2890  0.1393  0.4061 </r>
       </set>
       <set comment="band 8">
        <r>  0.0072  0.0000  0.0000  0.0007  0.1539  0.0305  0.0589  0.6050  0.0794 </r>
       </set>
       <set comment="band 9">
        <r>  0.2061  0.0223  0.0565  0.0184  0.0019  0.2128  0.0739  0.0135  0.0131 </r>
       </set>
       <set comment="band 10">
        <r>  0.2176  0.0145  0.0136  0.0736  0.1546  0.0006  0.0220  0.0861  0.0749 </r>
       </set>
       <set comment="band 11">
        <r>  0.0619  0.0185  0.0374  0.1295  0.0682  0.0055  0.0169  0.0424  0.1184 </r>
       </set>
       <set comment="band 12">
        <r>  0.0137  0.0348  0.1175  0.0010  0.0005  0.0590  0.1493  0.0042  0.0011 </r>
       </set>
       <set comment="band 13">
        <r>  0.0005  0.1284  0.0112  0.0061  0.0058  0.0450  0.0144  0.0000  0.0041 </r>
       </set>
       <set comment="band 14">
        <r>  0.0036  0.0004  0.0034  0.0119  0.0803  0.0534  0.0045  0.0084  0.0337 </r>
       </set>
       <set comment="band 15">
        <r>  0.0002  0.0001  0.0030  0.0129  0.0364  0.0136  0.0406  0.0155  0.0048 </r>
       </set>
       <set comment="band 16">
        <r>  0.1448  0.1000  0.0061  0.0021  0.0289  0.0262  0.0013  0.0055  0.0221 </r>
       </set>
       <set comment="band 17">
        <r>  0.0784  0.1212  0.0001  0.0003  0.0003  0.0529  0.0232  0.0154  0.0107 </r>
       </set>
       <set comment="band 18">
        <r>  0.0599  0.0117  0.0518  0.0239  0.0002  0.0428  0.0011  0.0146  0.1233 </r>
       </set>
       <set comment="band 19">
        <r>  6.2711  0.0000  0.0000  0.0000  0.0000  0.0000  0.0000  0.0000  0.0001 </r>
       </set>
       <set comment="band 20">
        <r>  0.0018  0.0088  0.0315  0.0001  0.0118  0.0053  0.0349  0.0012  0.0022 </r>
       </set>
       <set comment="band 21">
        <r>  0.0009  0.0201  0.0028  0.0362  0.0251  0.0183  0.0047  0.0075  0.0368 </r>
       </set>
       <set comment="band 22">
        <r>  0.0020  0.0664  0.0578  0.0000  0.0000  0.0477  0.1140  0.0036  0.0059 </r>
       </set>
       <set comment="band 23">
        <r>  0.0093  0.0000  0.0446  0.0568  0.0214  0.0324  0.0045  0.0184  0.0128 </r>
       </set>
       <set comment="band 24">
        <r>  0.0104  0.0070  0.0431  0.0050  0.0028  0.0006  0.0155  0.0164  0.0279 </r>
       </set>
      </set>
      <set comment="kpoint 108">
       <set comment="band 1">
        <r>  0.0000  0.2819  0.4151  0.2819  0.0001  0.0000  0.0001  0.0000  0.0000 </r>
       </set>
       <set comment="band 2">
        <r>  0.0001  0.2101  0.5707  0.2101  0.0000  0.0001  0.0001  0.0001  0.0000 </r>
       </set>
       <set comment="band 3">
        <r>  0.0000  0.4975  0.0000  0.4975  0.0000  0.0000  0.0000  0.0000  0.0000 </r>
       </set>
       <set comment="band 4">
        <r>  0.0997  0.0017  0.0089  0.0017  0.3569  0.0940  0.0450  0.0940  0.0000 </r>
       </set>
       <set comment="band 5">
        <r>  0.0019  0.0098  0.0006  0.0098  0.0056  0.0679  0.5678  0.0679  0.0000 </r>
       </set>
       <set comment="band 6">
        <r>  0.0082  0.0179  0.0362  0.0179  0.3032  0.1258  0.0317  0.1258  0.0000 </r>
       </set>
       <set comment="band 7">
        <r>  0.0000  0.0023  0.0000  0.0023  0.0000  0.1417  0.0000  0.1417  0.5688 </r>
       </set>
       <set comment="band 8">
        <r>  0.0000  0.0001  0.0000  0.0001  0.0000  0.3228  0.0000  0.3228  0.3079 </r>
       </set>
       <set comment="band 9">
        <r>  0.0005  0.0446  0.0739  0.0446  0.1140  0.0513  0.1823  0.0513  0.0000 </r>
       </set>
       <set comment="band 10">
        <r>  0.4215  0.0028  0.0026  0.0028  0.0922  0.1201  0.0056  0.1201  0.0000 </r>
       </set>
       <set comment="band 11">
        <r>  0.0176  0.0047  0.0767  0.0047  0.0035  0.0291  0.1310  0.0291  0.0000 </r>
       </set>
       <set comment="band 12">
        <r>  0.0248  0.0435  0.0650  0.0435  0.0970  0.0097  0.0063  0.0097  0.0000 </r>
       </set>
       <set comment="band 13">
        <r>  0.0000  0.1254  0.0000  0.1254  0.0000  0.0019  0.0000  0.0019  0.0803 </r>
       </set>
       <set comment="band 14">
        <r>  0.0000  0.0046  0.0000  0.0046  0.0000  0.0571  0.0000  0.0571  0.1128 </r>
       </set>
       <set comment="band 15">
        <r>  0.0033  0.0011  0.0337  0.0011  0.1062  0.0000  0.1048  0.0000  0.0000 </r>
       </set>
       <set comment="band 16">
        <r>  0.1791  0.0434  0.0162  0.0434  0.0033  0.0231  0.0392  0.0231  0.0000 </r>
       </set>
       <set comment="band 17">
        <r>  0.0258  0.0390  0.0112  0.0390  0.0179  0.0294  0.0136  0.0294  0.0000 </r>
       </set>
       <set comment="band 18">
        <r>  0.0643  0.0033  0.0519  0.0033  0.0885  0.0052  0.1037  0.0052  0.0000 </r>
       </set>
       <set comment="band 19">
        <r>  6.2454  0.0000  0.0002  0.0000  0.0002  0.0000  0.0004  0.0000  0.0000 </r>
       </set>
       <set comment="band 20">
        <r>  0.0000  0.0077  0.0000  0.0077  0.0000  0.0219  0.0000  0.0219  0.0044 </r>
       </set>
       <set comment="band 21">
        <r>  0.0000  0.2080  0.0000  0.2080  0.0000  0.0007  0.0000  0.0007  0.1539 </r>
       </set>
       <set comment="band 22">
        <r>  0.0002  0.0033  0.0290  0.0033  0.0664  0.0042  0.0056  0.0042  0.0000 </r>
       </set>
       <set comment="band 23">
        <r>  0.0541  0.0083  0.0348  0.0083  0.1297  0.0232  0.0015  0.0232  0.0000 </r>
       </set>
       <set comment="band 24">
        <r>  0.0000  0.0553  0.0000  0.0553  0.0000  0.0099  0.0000  0.0099  0.0374 </r>
       </set>
      </set>
      <set comment="kpoint 109">
       <set comment="band 1">
        <r>  0.0000  0.3255  0.3255  0.3255  0.0000  0.0000  0.0000  0.0000  0.0000 </r>
       </set>
       <set comment="band 2">
        <r>  0.0000  0.0282  0.5295  0.4389  0.0000  0.0000  0.0000  0.0000  0.0000 </r>
       </set>
       <set comment="band 3">
        <r>  0.0000  0.6362  0.1349  0.2255  0.0000  0.0000  0.0000  0.0000  0.0000 </r>
       </set>
       <set comment="band 4">
        <r>  0.1625  0.0003  0.0003  0.0003  0.1722  0.1722  0.0000  0.1722  0.0000 </r>
       </set>
       <set comment="band 5">
        <r>  0.0000  0.0000  0.0000  0.0000  0.2351  0.0588  0.4984  0.0588  0.0000 </r>
       </set>
       <set comment="band 6">
        <r>  0.0000  0.0000  0.0000  0.0000  0.0000  0.1763  0.0000  0.1764  0.4984 </r>
       </set>
       <set comment="band 7">
        <r>  0.0302  0.0702  0.0702  0.0702  0.0165  0.0165  0.0000  0.0165  0.0000 </r>
       </set>
       <set comment="band 8">
        <r>  0.0000  0.0001  0.0002  0.0001  0.3789  0.0947  0.3876  0.0947  0.0000 </r>
       </set>
       <set comment="band 9">
        <r>  0.0000  0.0002  0.0000  0.0002  0.0000  0.2842  0.0000  0.2842  0.3876 </r>
       </set>
       <set comment="band 10">
        <r>  0.3757  0.0076  0.0076  0.0076  0.1293  0.1293  0.0000  0.1293  0.0000 </r>
       </set>
       <set comment="band 11">
        <r>  0.0023  0.0056  0.0056  0.0056  0.0026  0.0026  0.0000  0.0026  0.0000 </r>
       </set>
       <set comment="band 12">
        <r>  0.0000  0.0239  0.1413  0.0497  0.0051  0.0018  0.0012  0.0009  0.0000 </r>
       </set>
       <set comment="band 13">
        <r>  0.0000  0.1194  0.0019  0.0936  0.0001  0.0034  0.0000  0.0043  0.0012 </r>
       </set>
       <set comment="band 14">
        <r>  0.0000  0.0015  0.0063  0.0016  0.0710  0.0181  0.3237  0.0175  0.0000 </r>
       </set>
       <set comment="band 15">
        <r>  0.0000  0.0047  0.0000  0.0047  0.0000  0.0530  0.0000  0.0536  0.3237 </r>
       </set>
       <set comment="band 16">
        <r>  0.0722  0.0084  0.0084  0.0084  0.0582  0.0582  0.0000  0.0582  0.0000 </r>
       </set>
       <set comment="band 17">
        <r>  0.0487  0.0275  0.0275  0.0275  0.0313  0.0313  0.0000  0.0313  0.0000 </r>
       </set>
       <set comment="band 18">
        <r>  0.0000  0.0339  0.2331  0.0910  0.0255  0.0100  0.0310  0.0037  0.0007 </r>
       </set>
       <set comment="band 19">
        <r>  0.0000  0.2048  0.0056  0.1477  0.0006  0.0161  0.0007  0.0224  0.0310 </r>
       </set>
       <set comment="band 20">
        <r>  6.2832  0.0000  0.0000  0.0000  0.0000  0.0000  0.0000  0.0000  0.0000 </r>
       </set>
       <set comment="band 21">
        <r>  0.0000  0.0066  0.1437  0.1122  0.0300  0.0234  0.0064  0.0014  0.0014 </r>
       </set>
       <set comment="band 22">
        <r>  0.0000  0.1684  0.0313  0.0628  0.0065  0.0131  0.0014  0.0351  0.0064 </r>
       </set>
       <set comment="band 23">
        <r>  0.1104  0.0013  0.0013  0.0013  0.0078  0.0078  0.0000  0.0078  0.0000 </r>
       </set>
       <set comment="band 24">
        <r>  0.0000  0.0003  0.0062  0.0049  0.1813  0.1433  0.0037  0.0082  0.0008 </r>
       </set>
      </set>
      <set comment="kpoint 110">
       <set comment="band 1">
        <r>  0.0000  0.3260  0.3260  0.3248  0.0000  0.0000  0.0000  0.0000  0.0000 </r>
       </set>
       <set comment="band 2">
        <r>  0.0000  0.1654  0.1654  0.6641  0.0000  0.0000  0.0000  0.0000  0.0000 </r>
       </set>
       <set comment="band 3">
        <r>  0.0000  0.4981  0.4981  0.0000  0.0000  0.0000  0.0000  0.0000  0.0000 </r>
       </set>
       <set comment="band 4">
        <r>  0.1438  0.0013  0.0013  0.0029  0.1652  0.2052  0.0001  0.1652  0.0004 </r>
       </set>
       <set comment="band 5">
        <r>  0.0000  0.0017  0.0017  0.0001  0.0563  0.1787  0.1309  0.0563  0.3927 </r>
       </set>
       <set comment="band 6">
        <r>  0.0000  0.0005  0.0005  0.0000  0.1633  0.0000  0.3928  0.1633  0.1309 </r>
       </set>
       <set comment="band 7">
        <r>  0.0012  0.0405  0.0405  0.0414  0.0716  0.1820  0.0248  0.0716  0.0745 </r>
       </set>
       <set comment="band 8">
        <r>  0.0000  0.0002  0.0002  0.0000  0.2987  0.0000  0.2668  0.2987  0.0889 </r>
       </set>
       <set comment="band 9">
        <r>  0.0070  0.0355  0.0355  0.0378  0.0326  0.2407  0.0628  0.0326  0.1883 </r>
       </set>
       <set comment="band 10">
        <r>  0.4110  0.0007  0.0007  0.0045  0.1387  0.1168  0.0008  0.1387  0.0024 </r>
       </set>
       <set comment="band 11">
        <r>  0.0000  0.0032  0.0032  0.0098  0.0062  0.0096  0.0045  0.0062  0.0134 </r>
       </set>
       <set comment="band 12">
        <r>  0.0084  0.0391  0.0391  0.1428  0.0172  0.0097  0.0043  0.0172  0.0130 </r>
       </set>
       <set comment="band 13">
        <r>  0.0000  0.1118  0.1118  0.0000  0.0001  0.0000  0.0230  0.0001  0.0077 </r>
       </set>
       <set comment="band 14">
        <r>  0.0002  0.0002  0.0002  0.0271  0.0017  0.0939  0.0555  0.0017  0.1665 </r>
       </set>
       <set comment="band 15">
        <r>  0.0000  0.0045  0.0045  0.0000  0.0688  0.0000  0.2079  0.0688  0.0693 </r>
       </set>
       <set comment="band 16">
        <r>  0.1065  0.0005  0.0005  0.0015  0.0858  0.0248  0.0034  0.0858  0.0103 </r>
       </set>
       <set comment="band 17">
        <r>  0.0048  0.0898  0.0898  0.0113  0.0001  0.0201  0.0009  0.0001  0.0028 </r>
       </set>
       <set comment="band 18">
        <r>  0.0754  0.0082  0.0082  0.1872  0.0002  0.0443  0.0240  0.0002  0.0719 </r>
       </set>
       <set comment="band 19">
        <r>  0.0000  0.1860  0.1860  0.0000  0.0001  0.0000  0.0329  0.0001  0.0110 </r>
       </set>
       <set comment="band 20">
        <r>  6.2666  0.0000  0.0000  0.0003  0.0000  0.0000  0.0000  0.0000  0.0001 </r>
       </set>
       <set comment="band 21">
        <r>  0.0083  0.0129  0.0129  0.0438  0.0080  0.0821  0.0002  0.0080  0.0005 </r>
       </set>
       <set comment="band 22">
        <r>  0.0000  0.0333  0.0333  0.0000  0.0499  0.0000  0.0061  0.0499  0.0020 </r>
       </set>
       <set comment="band 23">
        <r>  0.0749  0.0011  0.0011  0.0131  0.0101  0.1585  0.0001  0.0101  0.0002 </r>
       </set>
       <set comment="band 24">
        <r>  0.0000  0.0815  0.0815  0.0000  0.0486  0.0000  0.0006  0.0486  0.0002 </r>
       </set>
      </set>
     </set>
    </set>
   </array>
  </projected>
 </calculation>
 <structure name="finalpos" >
  <crystal>
   <varray name="basis" >
    <v>       0.00000000       1.86011771       1.86011771 </v>
    <v>       1.86011771       0.00000000       1.86011771 </v>
    <v>       1.86011771       1.86011771       0.00000000 </v>
   </varray>
   <i name="volume">     12.87215557 </i>
   <varray name="rec_basis" >
    <v>      -0.26880019       0.26880019       0.26880019 </v>
    <v>       0.26880019      -0.26880019       0.26880019 </v>
    <v>       0.26880019       0.26880019      -0.26880019 </v>
   </varray>
  </crystal>
  <varray name="positions" >
   <v>       0.00000000       0.00000000       0.00000000 </v>
  </varray>
 </structure>
</modeling>
