Pt-hcc                                  
   1.00000000000000     
     2.798111    0.000000    0.000000
    -1.399055    2.423235    0.000000
     0.000000    0.000000    4.847662
   Pt
     2
Direct
  0.000000  0.000000  0.000000
  0.333333  0.666667  0.500000
 
   40   40   72
  287.74      287.39      285.64      280.76      270.58      253.41      228.79      197.89      163.36      128.61    
  96.945      70.706      50.869      37.034      27.841      21.594      17.359      14.634      12.980      12.106    
  11.831      12.106      12.980      14.634      17.359      21.594      27.839      37.037      50.867      70.707    
  96.945      128.61      163.36      197.89      228.79      253.41      270.58      280.76      285.64      287.39    
  287.39      287.39      286.33      282.98      275.35      261.47      240.29      212.18      179.14      144.26    
  110.97      82.125      59.350      42.863      31.719      24.263      19.145      15.759      13.636      12.412    
  11.857      11.856      12.413      13.635      15.761      19.143      24.266      31.717      42.862      59.350    
  82.125      110.97      144.26      179.14      212.18      240.29      261.47      275.35      282.98      286.33    
  285.64      286.33      285.64      282.98      276.80      265.25      246.94      221.68      190.76      156.80    
  123.07      92.638      67.621      48.820      35.743      27.013      21.030      16.970      14.354      12.763    
  11.920      11.656      11.920      12.763      14.353      16.971      21.029      27.012      35.745      48.818    
  67.623      92.636      123.07      156.80      190.76      221.68      246.94      265.25      276.80      282.98    
  280.76      283.00      283.00      280.76      275.35      265.25      249.11      226.38      197.83      165.51    
  132.34      101.37      74.984      54.437      39.690      29.712      22.914      18.217      15.108      13.149    
  12.017      11.501      11.501      12.017      13.149      15.109      18.216      22.917      29.709      39.692    
  54.436      74.984      101.37      132.34      165.51      197.83      226.38      249.11      265.25      275.35    
  270.58      275.37      276.84      275.37      270.58      261.47      246.94      226.38      200.20      169.96    
  138.15      107.60      80.778      59.210      43.250      32.206      24.689      19.433      15.866      13.553    
  12.142      11.387      11.151      11.386      12.142      13.553      15.867      19.431      24.690      32.205    
  43.250      59.210      80.777      107.60      138.15      169.96      200.20      226.38      246.94      261.47    
  253.41      261.51      265.30      265.30      261.51      253.41      240.29      221.68      197.83      169.96    
  140.12      110.84      84.478      62.682      46.090      34.318      26.235      20.539      16.582      13.954    
  12.282      11.309      10.860      10.861      11.308      12.283      13.953      16.584      20.538      26.235    
  34.318      46.089      62.683      84.477      110.84      140.12      169.96      197.83      221.68      240.29    
  228.79      240.32      247.00      249.17      247.00      240.32      228.79      212.18      190.76      165.51    
  138.15      110.84      85.749      64.510      47.924      35.857      27.440      21.455      17.210      14.323    
  12.428      11.259      10.625      10.427      10.625      11.259      12.428      14.322      17.210      21.455    
  27.439      35.858      47.923      64.511      85.748      110.84      138.15      165.51      190.76      212.18    
  197.89      212.20      221.72      226.44      226.44      221.72      212.20      197.89      179.14      156.80    
  132.34      107.60      84.478      64.510      48.558      36.670      28.207      22.110      17.700      14.631    
  12.563      11.232      10.440      10.073      10.073      10.440      11.231      12.564      14.632      17.700    
  22.111      28.207      36.671      48.557      64.511      84.477      107.60      132.34      156.80      179.14    
  163.36      179.14      190.77      197.86      200.23      197.86      190.77      179.14      163.36      144.26    
  123.07      101.37      80.778      62.682      47.924      36.670      28.471      22.452      18.013      14.855    
  12.673      11.219      10.299      9.7948      9.6324      9.7948      10.299      11.219      12.673      14.855    
  18.012      22.453      28.470      36.671      47.923      62.683      80.777      101.37      123.07      144.26    
  128.61      144.24      156.78      165.49      169.94      169.94      165.49      156.78      144.24      128.61    
  110.97      92.637      74.985      59.209      46.091      35.857      28.207      22.452      18.120      14.972    
  12.745      11.214      10.201      9.5863      9.2953      9.2953      9.5864      10.201      11.215      12.745    
  14.972      18.120      22.453      28.207      35.858      46.089      59.210      74.984      92.636      110.97    
  96.945      110.94      123.01      132.27      138.07      140.05      138.08      132.27      123.01      110.94    
  96.945      82.126      67.622      54.435      43.251      34.317      27.440      22.110      18.013      14.972    
  12.770      11.214      10.143      9.4479      9.0546      8.9287      9.0546      9.4480      10.142      11.214    
  12.769      14.972      18.012      22.111      27.439      34.318      43.250      54.436      67.623      82.125    
  70.707      82.079      92.553      101.26      107.48      110.71      110.71      107.48      101.26      92.554    
  82.080      70.707      59.349      48.819      39.692      32.204      26.236      21.454      17.701      14.854    
  12.745      11.214      10.124      9.3779      8.9110      8.6854      8.6858      8.9106      9.3785      10.123    
  11.214      12.745      14.855      17.700      21.455      26.235      32.205      39.692      48.818      59.350    
  50.867      59.300      67.527      74.851      80.618      84.303      85.569      84.303      80.619      74.852    
  67.526      59.299      50.867      42.865      35.743      29.710      24.691      20.537      17.211      14.631    
  12.674      11.214      10.143      9.3781      8.8626      8.5646      8.4665      8.5647      8.8623      9.3785    
  10.142      11.215      12.673      14.632      17.210      20.538      24.690      29.709      35.745      42.862    
  37.037      42.815      48.723      54.297      59.036      62.485      64.301      64.300      62.484      59.035    
  54.296      48.724      42.817      37.035      31.716      27.016      22.915      19.432      16.584      14.321    
  12.564      11.218      10.202      9.4473      8.9110      8.5643      8.3942      8.3939      8.5647      8.9106    
  9.4480      10.201      11.219      12.564      14.322      16.584      19.431      22.917      27.012      31.717    
  27.839      31.677      35.660      39.561      43.080      45.890      47.705      48.333      47.706      45.891    
  43.082      39.562      35.657      31.676      27.842      24.265      21.027      18.218      15.866      13.953    
  12.429      11.231      10.300      9.5863      9.0550      8.6856      8.4666      8.3942      8.4665      8.6858    
  9.0546      9.5864      10.299      11.231      12.428      13.953      15.867      18.216      21.029      24.266    
  21.594      24.233      26.941      29.598      32.058      34.139      35.655      36.456      36.456      35.654    
  34.137      32.057      29.599      26.944      24.233      21.592      19.145      16.971      15.108      13.553    
  12.283      11.259      10.441      9.7942      9.2954      8.9282      8.6856      8.5643      8.5646      8.6854    
  8.9287      9.2953      9.7948      10.440      11.259      12.283      13.553      15.109      16.971      19.143    
  17.359      19.118      20.974      22.829      24.570      26.083      27.262      28.015      28.273      28.015    
  27.263      26.084      24.570      22.827      20.972      19.120      17.361      15.760      14.353      13.150    
  12.142      11.308      10.626      10.073      9.6329      9.2954      9.0550      8.9110      8.8626      8.9110    
  9.0546      9.2953      9.6324      10.073      10.625      11.308      12.142      13.149      14.353      15.761    
  14.634      15.742      16.929      18.148      19.337      20.418      21.314      21.954      22.289      22.288    
  21.954      21.312      20.417      19.338      18.150      16.930      15.741      14.633      13.636      12.764    
  12.017      11.387      10.861      10.426      10.073      9.7942      9.5863      9.4473      9.3781      9.3779    
  9.4479      9.5863      9.7948      10.073      10.427      10.861      11.386      12.017      12.763      13.635    
  12.980      13.621      14.322      15.058      15.796      16.493      17.102      17.579      17.882      17.986    
  17.882      17.580      17.104      16.493      15.795      15.057      14.321      13.622      12.981      12.412    
  11.920      11.501      11.150      10.861      10.626      10.441      10.300      10.202      10.143      10.124    
  10.143      10.201      10.299      10.440      10.625      10.860      11.151      11.501      11.920      12.413    
  12.106      12.402      12.740      13.111      13.501      13.887      14.243      14.542      14.758      14.871    
  14.870      14.757      14.541      14.242      13.887      13.501      13.112      12.740      12.401      12.105    
  11.857      11.656      11.501      11.387      11.308      11.259      11.231      11.218      11.214      11.214    
  11.214      11.214      11.219      11.232      11.259      11.309      11.387      11.501      11.656      11.856    
  11.831      11.846      11.901      11.988      12.103      12.235      12.372      12.500      12.604      12.673    
  12.697      12.673      12.605      12.500      12.372      12.235      12.102      11.987      11.900      11.847    
  11.832      11.857      11.920      12.017      12.142      12.283      12.429      12.564      12.674      12.745    
  12.770      12.745      12.673      12.563      12.428      12.282      12.142      12.017      11.920      11.857    
  12.106      11.847      11.637      11.475      11.354      11.271      11.218      11.187      11.172      11.167    
  11.165      11.165      11.166      11.172      11.187      11.218      11.271      11.355      11.475      11.638    
  11.847      12.105      12.412      12.764      13.150      13.553      13.953      14.321      14.631      14.854    
  14.972      14.972      14.855      14.631      14.323      13.954      13.553      13.149      12.763      12.412    
  12.980      12.401      11.901      11.475      11.121      10.830      10.593      10.409      10.269      10.171    
  10.114      10.095      10.114      10.172      10.269      10.409      10.594      10.829      11.121      11.475    
  11.900      12.401      12.981      13.636      14.353      15.108      15.866      16.584      17.211      17.701    
  18.013      18.120      18.013      17.700      17.210      16.582      15.866      15.108      14.354      13.636    
  14.634      13.622      12.739      11.988      11.355      10.829      10.398      10.047      9.7730      9.5685    
  9.4325      9.3646      9.3644      9.4324      9.5683      9.7726      10.047      10.397      10.829      11.355    
  11.987      12.740      13.622      14.633      15.760      16.971      18.218      19.432      20.537      21.454    
  22.110      22.452      22.452      22.110      21.455      20.539      19.433      18.217      16.970      15.759    
  17.359      15.740      14.323      13.112      12.103      11.272      10.593      10.047      9.6139      9.2830    
  9.0484      8.9077      8.8611      8.9078      9.0484      9.2832      9.6142      10.047      10.594      11.271    
  12.102      13.112      14.321      15.741      17.361      19.145      21.027      22.915      24.691      26.236    
  27.440      28.207      28.471      28.207      27.440      26.235      24.689      22.914      21.030      19.145    
  21.594      19.120      16.928      15.058      13.501      12.234      11.218      10.409      9.7730      9.2834    
  8.9244      8.6877      8.5695      8.5696      8.6876      8.9244      9.2832      9.7726      10.409      11.218    
  12.235      13.501      15.057      16.930      19.120      21.592      24.265      27.016      29.710      32.204    
  34.317      35.857      36.670      36.670      35.857      34.318      32.206      29.712      27.013      24.263    
  27.841      24.230      20.974      18.149      15.795      13.888      12.371      11.187      10.269      9.5682    
  9.0484      8.6875      8.4744      8.4036      8.4742      8.6876      9.0484      9.5683      10.269      11.187    
  12.372      13.887      15.795      18.150      20.972      24.233      27.842      31.716      35.743      39.692    
  43.251      46.091      47.924      48.558      47.924      46.090      43.250      39.690      35.743      31.719    
  37.034      31.679      26.942      22.826      19.339      16.492      14.244      12.500      11.172      10.172    
  9.4325      8.9079      8.5696      8.4035      8.4036      8.5696      8.9078      9.4324      10.172      11.172    
  12.500      14.242      16.493      19.338      22.827      26.944      31.676      37.035      42.865      48.819    
  54.435      59.209      62.682      64.510      64.510      62.682      59.210      54.437      48.820      42.863    
  50.869      42.815      35.658      29.601      24.568      20.419      17.103      14.541      12.605      11.166    
  10.115      9.3642      8.8612      8.5696      8.4744      8.5695      8.8611      9.3644      10.114      11.166    
  12.605      14.541      17.104      20.417      24.570      29.599      35.657      42.817      50.867      59.349    
  67.622      74.985      80.778      84.478      85.749      84.478      80.778      74.984      67.621      59.350    
  70.706      59.300      48.725      39.560      32.059      26.083      21.313      17.579      14.757      12.674    
  11.164      10.096      9.3642      8.9079      8.6875      8.6877      8.9077      9.3646      10.095      11.165    
  12.673      14.757      17.580      21.312      26.084      32.057      39.562      48.724      59.299      70.707    
  82.126      92.637      101.37      107.60      110.84      110.84      107.60      101.37      92.638      82.125    
  96.945      82.079      67.526      54.298      43.081      34.138      27.263      21.953      17.883      14.870    
  12.697      11.164      10.115      9.4325      9.0484      8.9244      9.0484      9.4325      10.114      11.165    
  12.697      14.870      17.882      21.954      27.263      34.137      43.082      54.296      67.526      82.080    
  96.945      110.97      123.07      132.34      138.15      140.12      138.15      132.34      123.07      110.97    
  128.61      110.94      92.554      74.851      59.036      45.891      35.654      28.016      22.288      17.987    
  14.870      12.674      11.166      10.172      9.5682      9.2834      9.2830      9.5685      10.171      11.167    
  12.673      14.871      17.986      22.288      28.015      35.654      45.891      59.035      74.852      92.554    
  110.94      128.61      144.26      156.80      165.51      169.96      169.96      165.51      156.80      144.26    
  163.36      144.24      123.01      101.26      80.619      62.484      47.706      36.455      28.274      22.288    
  17.883      14.757      12.605      11.172      10.269      9.7730      9.6139      9.7730      10.269      11.172    
  12.604      14.758      17.882      22.289      28.273      36.456      47.706      62.484      80.619      101.26    
  123.01      144.24      163.36      179.14      190.76      197.83      200.20      197.83      190.76      179.14    
  197.89      179.14      156.78      132.27      107.48      84.304      64.300      48.334      36.455      28.016    
  21.953      17.579      14.541      12.500      11.187      10.409      10.047      10.047      10.409      11.187    
  12.500      14.542      17.579      21.954      28.015      36.456      48.333      64.300      84.303      107.48    
  132.27      156.78      179.14      197.89      212.18      221.68      226.38      226.38      221.68      212.18    
  228.79      212.20      190.77      165.49      138.07      110.71      85.570      64.300      47.706      35.654    
  27.263      21.313      17.103      14.244      12.371      11.218      10.593      10.398      10.593      11.218    
  12.372      14.243      17.102      21.314      27.262      35.655      47.705      64.301      85.569      110.71    
  138.08      165.49      190.77      212.20      228.79      240.29      246.94      249.11      246.94      240.29    
  253.41      240.32      221.72      197.86      169.94      140.05      110.71      84.304      62.484      45.891    
  34.138      26.083      20.419      16.492      13.888      12.234      11.272      10.829      10.830      11.271    
  12.235      13.887      16.493      20.418      26.083      34.139      45.890      62.485      84.303      110.71    
  140.05      169.94      197.86      221.72      240.32      253.41      261.47      265.25      265.25      261.47    
  270.58      261.51      247.00      226.44      200.23      169.94      138.07      107.48      80.619      59.036    
  43.081      32.059      24.568      19.339      15.795      13.501      12.103      11.355      11.121      11.354    
  12.103      13.501      15.796      19.337      24.570      32.058      43.080      59.036      80.618      107.48    
  138.07      169.94      200.23      226.44      247.00      261.51      270.58      275.35      276.80      275.35    
  280.76      275.37      265.30      249.17      226.44      197.86      165.49      132.27      101.26      74.851    
  54.298      39.560      29.601      22.826      18.149      15.058      13.112      11.988      11.475      11.475    
  11.988      13.111      15.058      18.148      22.829      29.598      39.561      54.297      74.851      101.26    
  132.27      165.49      197.86      226.44      249.17      265.30      275.37      280.76      282.98      282.98    
  285.64      283.00      276.84      265.30      247.00      221.72      190.77      156.78      123.01      92.554    
  67.526      48.725      35.658      26.942      20.974      16.928      14.323      12.739      11.901      11.637    
  11.901      12.740      14.322      16.929      20.974      26.941      35.660      48.723      67.527      92.553    
  123.01      156.78      190.77      221.72      247.00      265.30      276.84      283.00      285.64      286.33    
  287.39      286.33      283.00      275.37      261.51      240.32      212.20      179.14      144.24      110.94    
  82.079      59.300      42.815      31.679      24.230      19.120      15.740      13.622      12.401      11.847    
  11.846      12.402      13.621      15.742      19.118      24.233      31.677      42.815      59.300      82.079    
  110.94      144.24      179.14      212.20      240.32      261.51      275.37      283.00      286.33      287.39    
  287.58      287.14      285.18      279.98      269.45      251.96      227.12      196.16      161.71      127.17    
  95.782      69.846      50.281      36.653      27.591      21.418      17.232      14.539      12.903      12.038    
  11.767      12.038      12.903      14.538      17.233      21.417      27.589      36.656      50.279      69.847    
  95.782      127.17      161.71      196.16      227.12      251.96      269.45      279.98      285.18      287.14    
  287.14      287.14      285.94      282.32      274.35      260.14      238.70      210.46      177.43      142.70    
  109.67      81.123      58.639      42.392      31.416      24.054      18.996      15.650      13.551      12.340    
  11.791      11.790      12.341      13.550      15.651      18.994      24.057      31.414      42.392      58.640    
  81.123      109.67      142.70      177.43      210.46      238.70      260.15      274.35      282.32      285.94    
  285.18      285.94      285.18      282.32      275.85      263.99      245.41      219.98      189.03      155.18    
  121.66      91.516      66.798      48.258      35.379      26.771      20.857      16.845      14.259      12.686    
  11.852      11.591      11.852      12.687      14.259      16.846      20.856      26.770      35.381      48.256    
  66.799      91.514      121.66      155.17      189.03      219.98      245.41      263.99      275.86      282.32    
  279.98      282.34      282.34      279.98      274.35      263.99      247.60      224.70      196.09      163.84    
  130.86      100.15      74.064      53.793      39.264      29.433      22.719      18.077      15.004      13.067    
  11.947      11.436      11.436      11.948      13.067      15.005      18.075      22.722      29.430      39.267    
  53.791      74.065      100.15      130.86      163.84      196.09      224.70      247.60      263.99      274.35    
  269.45      274.38      275.90      274.38      269.45      260.15      245.41      224.70      198.46      168.27    
  136.62      106.32      79.787      58.497      42.769      31.891      24.472      19.277      15.752      13.466    
  12.070      11.322      11.088      11.321      12.070      13.465      15.753      19.275      24.474      31.890    
  42.769      58.497      79.787      106.32      136.62      168.27      198.46      224.70      245.41      260.15    
  251.96      260.18      264.05      264.05      260.18      251.96      238.70      219.98      196.09      168.27    
  138.59      109.53      83.443      61.921      45.565      33.971      25.999      20.369      16.459      13.861    
  12.208      11.244      10.800      10.800      11.243      12.209      13.860      16.461      20.368      25.999    
  33.971      45.565      61.921      83.443      109.54      138.58      168.27      196.09      219.98      238.70    
  227.12      238.73      245.47      247.67      245.47      238.73      227.12      210.46      189.03      163.84    
  136.62      109.53      84.700      63.723      47.371      35.486      27.188      21.274      17.079      14.225    
  12.351      11.194      10.566      10.369      10.566      11.194      12.351      14.224      17.079      21.275    
  27.187      35.487      47.370      63.724      84.699      109.54      136.62      163.84      189.03      210.46    
  196.16      210.48      220.03      224.77      224.77      220.03      210.48      196.16      177.43      155.17    
  130.86      106.32      83.444      63.723      47.996      36.287      27.946      21.921      17.563      14.530    
  12.484      11.166      10.382      10.018      10.018      10.382      11.166      12.484      14.530      17.563    
  21.922      27.945      36.288      47.995      63.725      83.443      106.33      130.86      155.17      177.43    
  161.71      177.43      189.05      196.13      198.50      196.13      189.05      177.43      161.71      142.70    
  121.66      100.15      79.788      61.920      47.371      36.287      28.206      22.259      17.871      14.750    
  12.592      11.153      10.242      9.7418      9.5808      9.7418      10.242      11.153      12.592      14.751    
  17.871      22.260      28.205      36.287      47.370      61.921      79.787      100.15      121.66      142.70    
  127.17      142.69      155.16      163.83      168.27      168.27      163.83      155.16      142.69      127.17    
  109.67      91.515      74.066      58.495      45.566      35.486      27.946      22.259      17.978      14.866    
  12.663      11.148      10.145      9.5346      9.2461      9.2459      9.5349      10.144      11.149      12.663    
  14.866      17.977      22.260      27.945      35.488      45.565      58.497      74.065      91.514      109.67    
  95.782      109.64      121.62      130.81      136.57      138.53      136.57      130.81      121.62      109.64    
  95.782      81.124      66.798      53.790      42.770      33.970      27.189      21.921      17.872      14.866    
  12.688      11.148      10.086      9.3973      9.0071      8.8820      9.0070      9.3974      10.086      11.148    
  12.687      14.866      17.871      21.922      27.187      33.971      42.769      53.791      66.799      81.123    
  69.847      81.082      91.441      100.06      106.22      109.42      109.42      106.22      100.06      91.441    
  81.083      69.847      58.638      48.257      39.266      31.890      26.000      21.273      17.564      14.750    
  12.664      11.147      10.068      9.3277      8.8645      8.6403      8.6409      8.8639      9.3284      10.067    
  11.148      12.663      14.751      17.563      21.275      25.999      31.891      39.266      48.256      58.640    
  50.279      58.594      66.712      73.945      79.644      83.287      84.540      83.288      79.645      73.946    
  66.711      58.593      50.279      42.394      35.378      29.432      24.474      20.368      17.080      14.529    
  12.593      11.148      10.087      9.3280      8.8163      8.5205      8.4229      8.5206      8.8161      9.3283    
  10.086      11.149      12.592      14.530      17.079      20.368      24.473      29.431      35.381      42.392    
  36.656      42.349      48.170      53.665      58.339      61.742      63.534      63.533      61.741      58.338    
  53.664      48.171      42.351      36.654      31.412      26.773      22.719      19.276      16.461      14.224    
  12.485      11.152      10.145      9.3967      8.8644      8.5202      8.3512      8.3509      8.5204      8.8642    
  9.3974      10.145      11.153      12.485      14.224      16.461      19.275      22.721      26.770      31.414    
  27.589      31.377      35.303      39.147      42.614      45.383      47.171      47.790      47.172      45.384    
  42.615      39.147      35.300      31.376      27.592      24.056      20.855      18.077      15.752      13.860    
  12.352      11.166      10.242      9.5347      9.0074      8.6406      8.4230      8.3512      8.4230      8.6407    
  9.0070      9.5347      10.242      11.166      12.351      13.860      15.753      18.076      20.856      24.057    
  21.418      24.028      26.705      29.329      31.756      33.808      35.303      36.091      36.091      35.301    
  33.806      31.755      29.330      26.709      24.027      21.415      18.996      16.847      15.004      13.466    
  12.208      11.193      10.382      9.7412      9.2461      8.8815      8.6407      8.5201      8.5204      8.6405    
  8.8821      9.2460      9.7418      10.382      11.194      12.209      13.465      15.004      16.846      18.994    
  17.232      18.972      20.807      22.642      24.364      25.861      27.027      27.770      28.026      27.771    
  27.028      25.863      24.365      22.639      20.805      18.973      17.234      15.650      14.258      13.068    
  12.069      11.243      10.567      10.018      9.5812      9.2461      9.0074      8.8645      8.8164      8.8643    
  9.0070      9.2460      9.5807      10.018      10.566      11.243      12.070      13.067      14.259      15.651    
  14.538      15.635      16.809      18.016      19.191      20.261      21.148      21.781      22.112      22.112    
  21.780      21.146      20.260      19.192      18.018      16.810      15.634      14.537      13.551      12.687    
  11.947      11.322      10.800      10.369      10.018      9.7412      9.5347      9.3967      9.3279      9.3279    
  9.3973      9.5348      9.7418      10.018      10.369      10.801      11.322      11.947      12.687      13.550    
  12.903      13.538      14.232      14.961      15.692      16.382      16.985      17.456      17.756      17.859    
  17.757      17.457      16.986      16.382      15.691      14.960      14.232      13.539      12.904      12.341    
  11.852      11.436      11.088      10.800      10.567      10.382      10.242      10.145      10.087      10.068    
  10.086      10.145      10.242      10.382      10.566      10.800      11.088      11.436      11.852      12.341    
  12.038      12.332      12.667      13.036      13.422      13.804      14.157      14.453      14.667      14.779    
  14.779      14.666      14.452      14.157      13.804      13.422      13.036      12.667      12.331      12.038    
  11.791      11.591      11.436      11.322      11.243      11.193      11.166      11.152      11.148      11.147    
  11.148      11.148      11.153      11.166      11.194      11.244      11.322      11.436      11.590      11.790    
  11.766      11.782      11.837      11.924      12.039      12.170      12.306      12.433      12.537      12.605    
  12.629      12.605      12.538      12.434      12.306      12.170      12.038      11.924      11.836      11.783    
  11.767      11.791      11.852      11.947      12.069      12.208      12.352      12.485      12.593      12.663    
  12.688      12.663      12.592      12.484      12.351      12.208      12.069      11.947      11.852      11.791    
  12.038      11.783      11.576      11.417      11.298      11.215      11.164      11.133      11.119      11.114    