   2   2   1   0
  0.1643474E+02  0.2798111E-09  0.2798111E-09  0.4847662E-09  0.5000000E-15
  1.000000000000000E-004
  CAR 
 Pt-hcc                                  
     34.65031562    -45.90083797  301     10.39616751      1.00000000
    -45.901  0.0000E+00  0.0000E+00
    -45.632  0.0000E+00  0.0000E+00
    -45.364  0.0000E+00  0.0000E+00
    -45.095  0.0000E+00  0.0000E+00
    -44.827  0.0000E+00  0.0000E+00
    -44.558  0.0000E+00  0.0000E+00
    -44.290  0.0000E+00  0.0000E+00
    -44.021  0.0000E+00  0.0000E+00
    -43.753  0.0000E+00  0.0000E+00
    -43.484  0.0000E+00  0.0000E+00
    -43.216  0.0000E+00  0.0000E+00
    -42.947  0.0000E+00  0.0000E+00
    -42.679  0.0000E+00  0.0000E+00
    -42.410  0.1782E-08  0.4785E-09
    -42.142  0.7795E-01  0.2093E-01
    -41.873  0.2730E+00  0.9424E-01
    -41.605  0.9594E-01  0.1200E+00
    -41.336  0.0000E+00  0.1200E+00
    -41.068  0.0000E+00  0.1200E+00
    -40.799  0.0000E+00  0.1200E+00
    -40.531  0.0000E+00  0.1200E+00
    -40.262  0.0000E+00  0.1200E+00
    -39.994  0.0000E+00  0.1200E+00
    -39.725  0.0000E+00  0.1200E+00
    -39.457  0.0000E+00  0.1200E+00
    -39.188  0.0000E+00  0.1200E+00
    -38.920  0.0000E+00  0.1200E+00
    -38.651  0.0000E+00  0.1200E+00
    -38.383  0.0000E+00  0.1200E+00
    -38.114  0.0000E+00  0.1200E+00
    -37.846  0.0000E+00  0.1200E+00
    -37.577  0.0000E+00  0.1200E+00
    -37.309  0.0000E+00  0.1200E+00
    -37.040  0.0000E+00  0.1200E+00
    -36.772  0.0000E+00  0.1200E+00
    -36.503  0.0000E+00  0.1200E+00
    -36.235  0.0000E+00  0.1200E+00
    -35.966  0.0000E+00  0.1200E+00
    -35.698  0.0000E+00  0.1200E+00
    -35.429  0.0000E+00  0.1200E+00
    -35.161  0.0000E+00  0.1200E+00
    -34.892  0.0000E+00  0.1200E+00
    -34.624  0.0000E+00  0.1200E+00
    -34.355  0.0000E+00  0.1200E+00
    -34.087  0.0000E+00  0.1200E+00
    -33.818  0.0000E+00  0.1200E+00
    -33.550  0.0000E+00  0.1200E+00
    -33.281  0.0000E+00  0.1200E+00
    -33.013  0.0000E+00  0.1200E+00
    -32.744  0.0000E+00  0.1200E+00
    -32.476  0.0000E+00  0.1200E+00
    -32.207  0.0000E+00  0.1200E+00
    -31.939  0.0000E+00  0.1200E+00
    -31.670  0.0000E+00  0.1200E+00
    -31.402  0.0000E+00  0.1200E+00
    -31.133  0.0000E+00  0.1200E+00
    -30.865  0.0000E+00  0.1200E+00
    -30.596  0.0000E+00  0.1200E+00
    -30.328  0.0000E+00  0.1200E+00
    -30.059  0.0000E+00  0.1200E+00
    -29.791  0.0000E+00  0.1200E+00
    -29.522  0.0000E+00  0.1200E+00
    -29.254  0.0000E+00  0.1200E+00
    -28.985  0.0000E+00  0.1200E+00
    -28.717  0.0000E+00  0.1200E+00
    -28.448  0.0000E+00  0.1200E+00
    -28.180  0.0000E+00  0.1200E+00
    -27.911  0.0000E+00  0.1200E+00
    -27.643  0.0000E+00  0.1200E+00
    -27.374  0.0000E+00  0.1200E+00
    -27.106  0.0000E+00  0.1200E+00
    -26.837  0.0000E+00  0.1200E+00
    -26.569  0.0000E+00  0.1200E+00
    -26.300  0.0000E+00  0.1200E+00
    -26.032  0.0000E+00  0.1200E+00
    -25.763  0.0000E+00  0.1200E+00
    -25.495  0.0000E+00  0.1200E+00
    -25.226  0.0000E+00  0.1200E+00
    -24.958  0.0000E+00  0.1200E+00
    -24.689  0.0000E+00  0.1200E+00
    -24.421  0.0000E+00  0.1200E+00
    -24.152  0.0000E+00  0.1200E+00
    -23.884  0.0000E+00  0.1200E+00
    -23.615  0.0000E+00  0.1200E+00
    -23.347  0.0000E+00  0.1200E+00
    -23.078  0.0000E+00  0.1200E+00
    -22.810  0.0000E+00  0.1200E+00
    -22.541  0.0000E+00  0.1200E+00
    -22.272  0.0000E+00  0.1200E+00
    -22.004  0.0000E+00  0.1200E+00
    -21.735  0.0000E+00  0.1200E+00
    -21.467  0.0000E+00  0.1200E+00
    -21.198  0.0000E+00  0.1200E+00
    -20.930  0.0000E+00  0.1200E+00
    -20.661  0.0000E+00  0.1200E+00
    -20.393  0.0000E+00  0.1200E+00
    -20.124  0.0000E+00  0.1200E+00
    -19.856  0.0000E+00  0.1200E+00
    -19.587  0.0000E+00  0.1200E+00
    -19.319  0.0000E+00  0.1200E+00
    -19.050  0.0000E+00  0.1200E+00
    -18.782  0.0000E+00  0.1200E+00
    -18.513  0.0000E+00  0.1200E+00
    -18.245  0.0000E+00  0.1200E+00
    -17.976  0.0000E+00  0.1200E+00
    -17.708  0.0000E+00  0.1200E+00
    -17.439  0.0000E+00  0.1200E+00
    -17.171  0.0000E+00  0.1200E+00
    -16.902  0.0000E+00  0.1200E+00
    -16.634  0.0000E+00  0.1200E+00
    -16.365  0.0000E+00  0.1200E+00
    -16.097  0.0000E+00  0.1200E+00
    -15.828  0.0000E+00  0.1200E+00
    -15.560  0.0000E+00  0.1200E+00
    -15.291  0.0000E+00  0.1200E+00
    -15.023  0.0000E+00  0.1200E+00
    -14.754  0.0000E+00  0.1200E+00
    -14.486  0.0000E+00  0.1200E+00
    -14.217  0.0000E+00  0.1200E+00
    -13.949  0.0000E+00  0.1200E+00
    -13.680  0.0000E+00  0.1200E+00
    -13.412  0.0000E+00  0.1200E+00
    -13.143  0.0000E+00  0.1200E+00
    -12.875  0.0000E+00  0.1200E+00
    -12.606  0.0000E+00  0.1200E+00
    -12.338  0.0000E+00  0.1200E+00
    -12.069  0.0000E+00  0.1200E+00
    -11.801  0.0000E+00  0.1200E+00
    -11.532  0.0000E+00  0.1200E+00
    -11.264  0.0000E+00  0.1200E+00
    -10.995  0.0000E+00  0.1200E+00
    -10.727  0.0000E+00  0.1200E+00
    -10.458  0.0000E+00  0.1200E+00
    -10.190  0.0000E+00  0.1200E+00
     -9.921  0.0000E+00  0.1200E+00
     -9.653  0.0000E+00  0.1200E+00
     -9.384  0.0000E+00  0.1200E+00
     -9.116  0.0000E+00  0.1200E+00
     -8.847  0.0000E+00  0.1200E+00
     -8.579  0.0000E+00  0.1200E+00
     -8.310  0.0000E+00  0.1200E+00
     -8.042  0.0000E+00  0.1200E+00
     -7.773  0.0000E+00  0.1200E+00
     -7.505  0.0000E+00  0.1200E+00
     -7.236  0.0000E+00  0.1200E+00
     -6.968  0.0000E+00  0.1200E+00
     -6.699  0.0000E+00  0.1200E+00
     -6.431  0.0000E+00  0.1200E+00
     -6.162  0.0000E+00  0.1200E+00
     -5.894  0.0000E+00  0.1200E+00
     -5.625  0.0000E+00  0.1200E+00
     -5.357  0.0000E+00  0.1200E+00
     -5.088  0.0000E+00  0.1200E+00
     -4.820  0.0000E+00  0.1200E+00
     -4.551  0.0000E+00  0.1200E+00
     -4.283  0.0000E+00  0.1200E+00
     -4.014  0.0000E+00  0.1200E+00
     -3.746  0.0000E+00  0.1200E+00
     -3.477  0.0000E+00  0.1200E+00
     -3.209  0.0000E+00  0.1200E+00
     -2.940  0.0000E+00  0.1200E+00
     -2.672  0.0000E+00  0.1200E+00
     -2.403  0.0000E+00  0.1200E+00
     -2.135  0.0000E+00  0.1200E+00
     -1.866  0.0000E+00  0.1200E+00
     -1.598  0.0000E+00  0.1200E+00
     -1.329  0.0000E+00  0.1200E+00
     -1.061  0.0000E+00  0.1200E+00
     -0.792  0.0000E+00  0.1200E+00
     -0.524  0.0000E+00  0.1200E+00
     -0.255  0.0000E+00  0.1200E+00
      0.013  0.0000E+00  0.1200E+00
      0.282  0.0000E+00  0.1200E+00
      0.550  0.0000E+00  0.1200E+00
      0.819  0.1034E-19  0.1200E+00
      1.087  0.2424E-04  0.1200E+00
      1.356  0.2561E-03  0.1201E+00
      1.624  0.1656E-02  0.1205E+00
      1.893  0.2674E-03  0.1206E+00
      2.161  0.1663E-02  0.1210E+00
      2.430  0.1690E-02  0.1215E+00
      2.698  0.3476E-02  0.1224E+00
      2.967  0.1303E-02  0.1228E+00
      3.235  0.2649E-02  0.1235E+00
      3.504  0.4257E-02  0.1246E+00
      3.772  0.6635E-02  0.1264E+00
      4.041  0.6546E-02  0.1282E+00
      4.309  0.1293E-01  0.1316E+00
      4.578  0.2673E-01  0.1388E+00
      4.846  0.2020E-01  0.1442E+00
      5.115  0.2643E-01  0.1513E+00
      5.383  0.1746E-01  0.1560E+00
      5.652  0.3330E-01  0.1650E+00
      5.920  0.3526E-01  0.1744E+00
      6.189  0.2803E-01  0.1820E+00
      6.457  0.3434E-01  0.1912E+00
      6.726  0.2901E-01  0.1990E+00
      6.994  0.3030E-01  0.2071E+00
      7.263  0.3614E-01  0.2168E+00
      7.531  0.4267E-01  0.2283E+00
      7.800  0.2948E-01  0.2362E+00
      8.068  0.4755E-01  0.2489E+00
      8.337  0.3682E-01  0.2588E+00
      8.605  0.1772E-01  0.2636E+00
      8.874  0.2567E-01  0.2705E+00
      9.142  0.2722E-01  0.2778E+00
      9.411  0.3073E-01  0.2860E+00
      9.679  0.2462E-01  0.2927E+00
      9.948  0.2832E-01  0.3003E+00
     10.216  0.3910E-01  0.3108E+00
     10.485  0.4790E-01  0.3236E+00
     10.753  0.2636E-01  0.3307E+00
     11.022  0.1204E-01  0.3339E+00
     11.290  0.7054E-02  0.3358E+00
     11.559  0.3466E-02  0.3368E+00
     11.827  0.1632E-02  0.3372E+00
     12.096  0.2431E-02  0.3378E+00
     12.364  0.1365E-01  0.3415E+00
     12.633  0.8226E-02  0.3437E+00
     12.902  0.5526E-02  0.3452E+00
     13.170  0.1587E-02  0.3456E+00
     13.439  0.4677E-02  0.3469E+00
     13.707  0.6650E-02  0.3487E+00
     13.976  0.3030E-02  0.3495E+00
     14.244  0.5425E-02  0.3509E+00
     14.513  0.5992E-02  0.3525E+00
     14.781  0.7491E-02  0.3546E+00
     15.050  0.7451E-02  0.3566E+00
     15.318  0.4875E-02  0.3579E+00
     15.587  0.4494E-02  0.3591E+00
     15.855  0.2979E-02  0.3599E+00
     16.124  0.1106E-02  0.3602E+00
     16.392  0.3267E-02  0.3610E+00
     16.661  0.7909E-02  0.3632E+00
     16.929  0.1400E-01  0.3669E+00
     17.198  0.6963E-02  0.3688E+00
     17.466  0.8189E-02  0.3710E+00
     17.735  0.4197E-02  0.3721E+00
     18.003  0.1077E-01  0.3750E+00
     18.272  0.5947E-02  0.3766E+00
     18.540  0.5114E-02  0.3780E+00
     18.809  0.7460E-02  0.3800E+00
     19.077  0.6262E-02  0.3817E+00
     19.346  0.1238E-01  0.3850E+00
     19.614  0.6760E-02  0.3868E+00
     19.883  0.3501E-02  0.3878E+00
     20.151  0.6843E-02  0.3896E+00
     20.420  0.8676E-02  0.3919E+00
     20.688  0.9641E-02  0.3945E+00
     20.957  0.2911E-02  0.3953E+00
     21.225  0.4829E-02  0.3966E+00
     21.494  0.9441E-02  0.3991E+00
     21.762  0.5284E-02  0.4005E+00
     22.031  0.3594E-02  0.4015E+00
     22.299  0.1136E-01  0.4046E+00
     22.568  0.1150E-01  0.4076E+00
     22.836  0.1079E-01  0.4105E+00
     23.105  0.6042E-02  0.4122E+00
     23.373  0.8814E-02  0.4145E+00
     23.642  0.3416E-02  0.4154E+00
     23.910  0.6245E-02  0.4171E+00
     24.179  0.1613E-01  0.4215E+00
     24.447  0.1944E-01  0.4267E+00
     24.716  0.1668E-01  0.4312E+00
     24.984  0.1079E-01  0.4341E+00
     25.253  0.1668E-01  0.4385E+00
     25.521  0.7937E-02  0.4407E+00
     25.790  0.1233E-01  0.4440E+00
     26.058  0.2271E-01  0.4501E+00
     26.327  0.1134E-01  0.4531E+00
     26.595  0.1747E-01  0.4578E+00
     26.864  0.8909E-02  0.4602E+00
     27.132  0.1424E-01  0.4640E+00
     27.401  0.1250E-01  0.4674E+00
     27.669  0.5072E-02  0.4687E+00
     27.938  0.1005E-01  0.4714E+00
     28.206  0.6483E-02  0.4732E+00
     28.475  0.4325E-02  0.4743E+00
     28.743  0.5507E-02  0.4758E+00
     29.012  0.4654E-02  0.4771E+00
     29.280  0.1845E-02  0.4776E+00
     29.549  0.6282E-02  0.4793E+00
     29.817  0.1286E-02  0.4796E+00
     30.086  0.2898E-03  0.4797E+00
     30.354  0.4590E-03  0.4798E+00
     30.623  0.5497E-03  0.4799E+00
     30.891  0.9458E-05  0.4800E+00
     31.160  0.1857E-03  0.4800E+00
     31.428  0.0000E+00  0.4800E+00
     31.697  0.0000E+00  0.4800E+00
     31.965  0.0000E+00  0.4800E+00
     32.234  0.0000E+00  0.4800E+00
     32.502  0.0000E+00  0.4800E+00
     32.771  0.0000E+00  0.4800E+00
     33.039  0.0000E+00  0.4800E+00
     33.308  0.0000E+00  0.4800E+00
     33.576  0.0000E+00  0.4800E+00
     33.845  0.0000E+00  0.4800E+00
     34.113  0.0000E+00  0.4800E+00
     34.382  0.0000E+00  0.4800E+00
     34.650  0.0000E+00  0.4800E+00
     34.65031562    -45.90083797  301     10.39616751      1.00000000
    -45.901  0.0000E+00  0.0000E+00  0.0000E+00  0.0000E+00  0.0000E+00  0.0000E+00  0.0000E+00  0.0000E+00  0.0000E+00
    -45.632  0.0000E+00  0.0000E+00  0.0000E+00  0.0000E+00  0.0000E+00  0.0000E+00  0.0000E+00  0.0000E+00  0.0000E+00
    -45.364  0.0000E+00  0.0000E+00  0.0000E+00  0.0000E+00  0.0000E+00  0.0000E+00  0.0000E+00  0.0000E+00  0.0000E+00
    -45.095  0.0000E+00  0.0000E+00  0.0000E+00  0.0000E+00  0.0000E+00  0.0000E+00  0.0000E+00  0.0000E+00  0.0000E+00
    -44.827  0.0000E+00  0.0000E+00  0.0000E+00  0.0000E+00  0.0000E+00  0.0000E+00  0.0000E+00  0.0000E+00  0.0000E+00
    -44.558  0.0000E+00  0.0000E+00  0.0000E+00  0.0000E+00  0.0000E+00  0.0000E+00  0.0000E+00  0.0000E+00  0.0000E+00
    -44.290  0.0000E+00  0.0000E+00  0.0000E+00  0.0000E+00  0.0000E+00  0.0000E+00  0.0000E+00  0.0000E+00  0.0000E+00
    -44.021  0.0000E+00  0.0000E+00  0.0000E+00  0.0000E+00  0.0000E+00  0.0000E+00  0.0000E+00  0.0000E+00  0.0000E+00
    -43.753  0.0000E+00  0.0000E+00  0.0000E+00  0.0000E+00  0.0000E+00  0.0000E+00  0.0000E+00  0.0000E+00  0.0000E+00
    -43.484  0.0000E+00  0.0000E+00  0.0000E+00  0.0000E+00  0.0000E+00  0.0000E+00  0.0000E+00  0.0000E+00  0.0000E+00
    -43.216  0.0000E+00  0.0000E+00  0.0000E+00  0.0000E+00  0.0000E+00  0.0000E+00  0.0000E+00  0.0000E+00  0.0000E+00
    -42.947  0.0000E+00  0.0000E+00  0.0000E+00  0.0000E+00  0.0000E+00  0.0000E+00  0.0000E+00  0.0000E+00  0.0000E+00
    -42.679  0.0000E+00  0.0000E+00  0.0000E+00  0.0000E+00  0.0000E+00  0.0000E+00  0.0000E+00  0.0000E+00  0.0000E+00
    -42.410  0.3532E-12  0.4301E-07  0.1672E-08  0.4301E-07  0.9802E-13  0.2490E-13  0.3606E-12  0.2490E-13  0.9802E-13
    -42.142  0.6181E-04  0.1881E+01  0.8024E-01  0.1881E+01  0.2656E-04  0.2191E-05  0.3449E-04  0.2191E-05  0.2656E-04
    -41.873  0.1576E-03  0.5283E+01  0.2967E+01  0.5283E+01  0.1101E-03  0.3033E-04  0.7554E-04  0.3033E-04  0.1101E-03
    -41.605  0.1284E-04  0.2146E+00  0.4333E+01  0.2146E+00  0.2535E-05  0.1567E-04  0.1726E-04  0.1567E-04  0.2535E-05
    -41.336  0.0000E+00  0.0000E+00  0.0000E+00  0.0000E+00  0.0000E+00  0.0000E+00  0.0000E+00  0.0000E+00  0.0000E+00
    -41.068  0.0000E+00  0.0000E+00  0.0000E+00  0.0000E+00  0.0000E+00  0.0000E+00  0.0000E+00  0.0000E+00  0.0000E+00
    -40.799  0.0000E+00  0.0000E+00  0.0000E+00  0.0000E+00  0.0000E+00  0.0000E+00  0.0000E+00  0.0000E+00  0.0000E+00
    -40.531  0.0000E+00  0.0000E+00  0.0000E+00  0.0000E+00  0.0000E+00  0.0000E+00  0.0000E+00  0.0000E+00  0.0000E+00
    -40.262  0.0000E+00  0.0000E+00  0.0000E+00  0.0000E+00  0.0000E+00  0.0000E+00  0.0000E+00  0.0000E+00  0.0000E+00
    -39.994  0.0000E+00  0.0000E+00  0.0000E+00  0.0000E+00  0.0000E+00  0.0000E+00  0.0000E+00  0.0000E+00  0.0000E+00
    -39.725  0.0000E+00  0.0000E+00  0.0000E+00  0.0000E+00  0.0000E+00  0.0000E+00  0.0000E+00  0.0000E+00  0.0000E+00
    -39.457  0.0000E+00  0.0000E+00  0.0000E+00  0.0000E+00  0.0000E+00  0.0000E+00  0.0000E+00  0.0000E+00  0.0000E+00
    -39.188  0.0000E+00  0.0000E+00  0.0000E+00  0.0000E+00  0.0000E+00  0.0000E+00  0.0000E+00  0.0000E+00  0.0000E+00
    -38.920  0.0000E+00  0.0000E+00  0.0000E+00  0.0000E+00  0.0000E+00  0.0000E+00  0.0000E+00  0.0000E+00  0.0000E+00
    -38.651  0.0000E+00  0.0000E+00  0.0000E+00  0.0000E+00  0.0000E+00  0.0000E+00  0.0000E+00  0.0000E+00  0.0000E+00
    -38.383  0.0000E+00  0.0000E+00  0.0000E+00  0.0000E+00  0.0000E+00  0.0000E+00  0.0000E+00  0.0000E+00  0.0000E+00
    -38.114  0.0000E+00  0.0000E+00  0.0000E+00  0.0000E+00  0.0000E+00  0.0000E+00  0.0000E+00  0.0000E+00  0.0000E+00
    -37.846  0.0000E+00  0.0000E+00  0.0000E+00  0.0000E+00  0.0000E+00  0.0000E+00  0.0000E+00  0.0000E+00  0.0000E+00
    -37.577  0.0000E+00  0.0000E+00  0.0000E+00  0.0000E+00  0.0000E+00  0.0000E+00  0.0000E+00  0.0000E+00  0.0000E+00
    -37.309  0.0000E+00  0.0000E+00  0.0000E+00  0.0000E+00  0.0000E+00  0.0000E+00  0.0000E+00  0.0000E+00  0.0000E+00
    -37.040  0.0000E+00  0.0000E+00  0.0000E+00  0.0000E+00  0.0000E+00  0.0000E+00  0.0000E+00  0.0000E+00  0.0000E+00
    -36.772  0.0000E+00  0.0000E+00  0.0000E+00  0.0000E+00  0.0000E+00  0.0000E+00  0.0000E+00  0.0000E+00  0.0000E+00
    -36.503  0.0000E+00  0.0000E+00  0.0000E+00  0.0000E+00  0.0000E+00  0.0000E+00  0.0000E+00  0.0000E+00  0.0000E+00
    -36.235  0.0000E+00  0.0000E+00  0.0000E+00  0.0000E+00  0.0000E+00  0.0000E+00  0.0000E+00  0.0000E+00  0.0000E+00
    -35.966  0.0000E+00  0.0000E+00  0.0000E+00  0.0000E+00  0.0000E+00  0.0000E+00  0.0000E+00  0.0000E+00  0.0000E+00
    -35.698  0.0000E+00  0.0000E+00  0.0000E+00  0.0000E+00  0.0000E+00  0.0000E+00  0.0000E+00  0.0000E+00  0.0000E+00
    -35.429  0.0000E+00  0.0000E+00  0.0000E+00  0.0000E+00  0.0000E+00  0.0000E+00  0.0000E+00  0.0000E+00  0.0000E+00
    -35.161  0.0000E+00  0.0000E+00  0.0000E+00  0.0000E+00  0.0000E+00  0.0000E+00  0.0000E+00  0.0000E+00  0.0000E+00
    -34.892  0.0000E+00  0.0000E+00  0.0000E+00  0.0000E+00  0.0000E+00  0.0000E+00  0.0000E+00  0.0000E+00  0.0000E+00
    -34.624  0.0000E+00  0.0000E+00  0.0000E+00  0.0000E+00  0.0000E+00  0.0000E+00  0.0000E+00  0.0000E+00  0.0000E+00
    -34.355  0.0000E+00  0.0000E+00  0.0000E+00  0.0000E+00  0.0000E+00  0.0000E+00  0.0000E+00  0.0000E+00  0.0000E+00
    -34.087  0.0000E+00  0.0000E+00  0.0000E+00  0.0000E+00  0.0000E+00  0.0000E+00  0.0000E+00  0.0000E+00  0.0000E+00
    -33.818  0.0000E+00  0.0000E+00  0.0000E+00  0.0000E+00  0.0000E+00  0.0000E+00  0.0000E+00  0.0000E+00  0.0000E+00
    -33.550  0.0000E+00  0.0000E+00  0.0000E+00  0.0000E+00  0.0000E+00  0.0000E+00  0.0000E+00  0.0000E+00  0.0000E+00
    -33.281  0.0000E+00  0.0000E+00  0.0000E+00  0.0000E+00  0.0000E+00  0.0000E+00  0.0000E+00  0.0000E+00  0.0000E+00
    -33.013  0.0000E+00  0.0000E+00  0.0000E+00  0.0000E+00  0.0000E+00  0.0000E+00  0.0000E+00  0.0000E+00  0.0000E+00
    -32.744  0.0000E+00  0.0000E+00  0.0000E+00  0.0000E+00  0.0000E+00  0.0000E+00  0.0000E+00  0.0000E+00  0.0000E+00
    -32.476  0.0000E+00  0.0000E+00  0.0000E+00  0.0000E+00  0.0000E+00  0.0000E+00  0.0000E+00  0.0000E+00  0.0000E+00
    -32.207  0.0000E+00  0.0000E+00  0.0000E+00  0.0000E+00  0.0000E+00  0.0000E+00  0.0000E+00  0.0000E+00  0.0000E+00
    -31.939  0.0000E+00  0.0000E+00  0.0000E+00  0.0000E+00  0.0000E+00  0.0000E+00  0.0000E+00  0.0000E+00  0.0000E+00
    -31.670  0.0000E+00  0.0000E+00  0.0000E+00  0.0000E+00  0.0000E+00  0.0000E+00  0.0000E+00  0.0000E+00  0.0000E+00
    -31.402  0.0000E+00  0.0000E+00  0.0000E+00  0.0000E+00  0.0000E+00  0.0000E+00  0.0000E+00  0.0000E+00  0.0000E+00
    -31.133  0.0000E+00  0.0000E+00  0.0000E+00  0.0000E+00  0.0000E+00  0.0000E+00  0.0000E+00  0.0000E+00  0.0000E+00
    -30.865  0.0000E+00  0.0000E+00  0.0000E+00  0.0000E+00  0.0000E+00  0.0000E+00  0.0000E+00  0.0000E+00  0.0000E+00
    -30.596  0.0000E+00  0.0000E+00  0.0000E+00  0.0000E+00  0.0000E+00  0.0000E+00  0.0000E+00  0.0000E+00  0.0000E+00
    -30.328  0.0000E+00  0.0000E+00  0.0000E+00  0.0000E+00  0.0000E+00  0.0000E+00  0.0000E+00  0.0000E+00  0.0000E+00
    -30.059  0.0000E+00  0.0000E+00  0.0000E+00  0.0000E+00  0.0000E+00  0.0000E+00  0.0000E+00  0.0000E+00  0.0000E+00
    -29.791  0.0000E+00  0.0000E+00  0.0000E+00  0.0000E+00  0.0000E+00  0.0000E+00  0.0000E+00  0.0000E+00  0.0000E+00
    -29.522  0.0000E+00  0.0000E+00  0.0000E+00  0.0000E+00  0.0000E+00  0.0000E+00  0.0000E+00  0.0000E+00  0.0000E+00
    -29.254  0.0000E+00  0.0000E+00  0.0000E+00  0.0000E+00  0.0000E+00  0.0000E+00  0.0000E+00  0.0000E+00  0.0000E+00
    -28.985  0.0000E+00  0.0000E+00  0.0000E+00  0.0000E+00  0.0000E+00  0.0000E+00  0.0000E+00  0.0000E+00  0.0000E+00
    -28.717  0.0000E+00  0.0000E+00  0.0000E+00  0.0000E+00  0.0000E+00  0.0000E+00  0.0000E+00  0.0000E+00  0.0000E+00
    -28.448  0.0000E+00  0.0000E+00  0.0000E+00  0.0000E+00  0.0000E+00  0.0000E+00  0.0000E+00  0.0000E+00  0.0000E+00
    -28.180  0.0000E+00  0.0000E+00  0.0000E+00  0.0000E+00  0.0000E+00  0.0000E+00  0.0000E+00  0.0000E+00  0.0000E+00
    -27.911  0.0000E+00  0.0000E+00  0.0000E+00  0.0000E+00  0.0000E+00  0.0000E+00  0.0000E+00  0.0000E+00  0.0000E+00
    -27.643  0.0000E+00  0.0000E+00  0.0000E+00  0.0000E+00  0.0000E+00  0.0000E+00  0.0000E+00  0.0000E+00  0.0000E+00
    -27.374  0.0000E+00  0.0000E+00  0.0000E+00  0.0000E+00  0.0000E+00  0.0000E+00  0.0000E+00  0.0000E+00  0.0000E+00
    -27.106  0.0000E+00  0.0000E+00  0.0000E+00  0.0000E+00  0.0000E+00  0.0000E+00  0.0000E+00  0.0000E+00  0.0000E+00
    -26.837  0.0000E+00  0.0000E+00  0.0000E+00  0.0000E+00  0.0000E+00  0.0000E+00  0.0000E+00  0.0000E+00  0.0000E+00
    -26.569  0.0000E+00  0.0000E+00  0.0000E+00  0.0000E+00  0.0000E+00  0.0000E+00  0.0000E+00  0.0000E+00  0.0000E+00
    -26.300  0.0000E+00  0.0000E+00  0.0000E+00  0.0000E+00  0.0000E+00  0.0000E+00  0.0000E+00  0.0000E+00  0.0000E+00
    -26.032  0.0000E+00  0.0000E+00  0.0000E+00  0.0000E+00  0.0000E+00  0.0000E+00  0.0000E+00  0.0000E+00  0.0000E+00
    -25.763  0.0000E+00  0.0000E+00  0.0000E+00  0.0000E+00  0.0000E+00  0.0000E+00  0.0000E+00  0.0000E+00  0.0000E+00
    -25.495  0.0000E+00  0.0000E+00  0.0000E+00  0.0000E+00  0.0000E+00  0.0000E+00  0.0000E+00  0.0000E+00  0.0000E+00
    -25.226  0.0000E+00  0.0000E+00  0.0000E+00  0.0000E+00  0.0000E+00  0.0000E+00  0.0000E+00  0.0000E+00  0.0000E+00
    -24.958  0.0000E+00  0.0000E+00  0.0000E+00  0.0000E+00  0.0000E+00  0.0000E+00  0.0000E+00  0.0000E+00  0.0000E+00
    -24.689  0.0000E+00  0.0000E+00  0.0000E+00  0.0000E+00  0.0000E+00  0.0000E+00  0.0000E+00  0.0000E+00  0.0000E+00
    -24.421  0.0000E+00  0.0000E+00  0.0000E+00  0.0000E+00  0.0000E+00  0.0000E+00  0.0000E+00  0.0000E+00  0.0000E+00
    -24.152  0.0000E+00  0.0000E+00  0.0000E+00  0.0000E+00  0.0000E+00  0.0000E+00  0.0000E+00  0.0000E+00  0.0000E+00
    -23.884  0.0000E+00  0.0000E+00  0.0000E+00  0.0000E+00  0.0000E+00  0.0000E+00  0.0000E+00  0.0000E+00  0.0000E+00
    -23.615  0.0000E+00  0.0000E+00  0.0000E+00  0.0000E+00  0.0000E+00  0.0000E+00  0.0000E+00  0.0000E+00  0.0000E+00
    -23.347  0.0000E+00  0.0000E+00  0.0000E+00  0.0000E+00  0.0000E+00  0.0000E+00  0.0000E+00  0.0000E+00  0.0000E+00
    -23.078  0.0000E+00  0.0000E+00  0.0000E+00  0.0000E+00  0.0000E+00  0.0000E+00  0.0000E+00  0.0000E+00  0.0000E+00
    -22.810  0.0000E+00  0.0000E+00  0.0000E+00  0.0000E+00  0.0000E+00  0.0000E+00  0.0000E+00  0.0000E+00  0.0000E+00
    -22.541  0.0000E+00  0.0000E+00  0.0000E+00  0.0000E+00  0.0000E+00  0.0000E+00  0.0000E+00  0.0000E+00  0.0000E+00
    -22.272  0.0000E+00  0.0000E+00  0.0000E+00  0.0000E+00  0.0000E+00  0.0000E+00  0.0000E+00  0.0000E+00  0.0000E+00
    -22.004  0.0000E+00  0.0000E+00  0.0000E+00  0.0000E+00  0.0000E+00  0.0000E+00  0.0000E+00  0.0000E+00  0.0000E+00
    -21.735  0.0000E+00  0.0000E+00  0.0000E+00  0.0000E+00  0.0000E+00  0.0000E+00  0.0000E+00  0.0000E+00  0.0000E+00
    -21.467  0.0000E+00  0.0000E+00  0.0000E+00  0.0000E+00  0.0000E+00  0.0000E+00  0.0000E+00  0.0000E+00  0.0000E+00
    -21.198  0.0000E+00  0.0000E+00  0.0000E+00  0.0000E+00  0.0000E+00  0.0000E+00  0.0000E+00  0.0000E+00  0.0000E+00
    -20.930  0.0000E+00  0.0000E+00  0.0000E+00  0.0000E+00  0.0000E+00  0.0000E+00  0.0000E+00  0.0000E+00  0.0000E+00
    -20.661  0.0000E+00  0.0000E+00  0.0000E+00  0.0000E+00  0.0000E+00  0.0000E+00  0.0000E+00  0.0000E+00  0.0000E+00
    -20.393  0.0000E+00  0.0000E+00  0.0000E+00  0.0000E+00  0.0000E+00  0.0000E+00  0.0000E+00  0.0000E+00  0.0000E+00
    -20.124  0.0000E+00  0.0000E+00  0.0000E+00  0.0000E+00  0.0000E+00  0.0000E+00  0.0000E+00  0.0000E+00  0.0000E+00
    -19.856  0.0000E+00  0.0000E+00  0.0000E+00  0.0000E+00  0.0000E+00  0.0000E+00  0.0000E+00  0.0000E+00  0.0000E+00
    -19.587  0.0000E+00  0.0000E+00  0.0000E+00  0.0000E+00  0.0000E+00  0.0000E+00  0.0000E+00  0.0000E+00  0.0000E+00
    -19.319  0.0000E+00  0.0000E+00  0.0000E+00  0.0000E+00  0.0000E+00  0.0000E+00  0.0000E+00  0.0000E+00  0.0000E+00
    -19.050  0.0000E+00  0.0000E+00  0.0000E+00  0.0000E+00  0.0000E+00  0.0000E+00  0.0000E+00  0.0000E+00  0.0000E+00
    -18.782  0.0000E+00  0.0000E+00  0.0000E+00  0.0000E+00  0.0000E+00  0.0000E+00  0.0000E+00  0.0000E+00  0.0000E+00
    -18.513  0.0000E+00  0.0000E+00  0.0000E+00  0.0000E+00  0.0000E+00  0.0000E+00  0.0000E+00  0.0000E+00  0.0000E+00
    -18.245  0.0000E+00  0.0000E+00  0.0000E+00  0.0000E+00  0.0000E+00  0.0000E+00  0.0000E+00  0.0000E+00  0.0000E+00
    -17.976  0.0000E+00  0.0000E+00  0.0000E+00  0.0000E+00  0.0000E+00  0.0000E+00  0.0000E+00  0.0000E+00  0.0000E+00
    -17.708  0.0000E+00  0.0000E+00  0.0000E+00  0.0000E+00  0.0000E+00  0.0000E+00  0.0000E+00  0.0000E+00  0.0000E+00
    -17.439  0.0000E+00  0.0000E+00  0.0000E+00  0.0000E+00  0.0000E+00  0.0000E+00  0.0000E+00  0.0000E+00  0.0000E+00
    -17.171  0.0000E+00  0.0000E+00  0.0000E+00  0.0000E+00  0.0000E+00  0.0000E+00  0.0000E+00  0.0000E+00  0.0000E+00
    -16.902  0.0000E+00  0.0000E+00  0.0000E+00  0.0000E+00  0.0000E+00  0.0000E+00  0.0000E+00  0.0000E+00  0.0000E+00
    -16.634  0.0000E+00  0.0000E+00  0.0000E+00  0.0000E+00  0.0000E+00  0.0000E+00  0.0000E+00  0.0000E+00  0.0000E+00
    -16.365  0.0000E+00  0.0000E+00  0.0000E+00  0.0000E+00  0.0000E+00  0.0000E+00  0.0000E+00  0.0000E+00  0.0000E+00
    -16.097  0.0000E+00  0.0000E+00  0.0000E+00  0.0000E+00  0.0000E+00  0.0000E+00  0.0000E+00  0.0000E+00  0.0000E+00
    -15.828  0.0000E+00  0.0000E+00  0.0000E+00  0.0000E+00  0.0000E+00  0.0000E+00  0.0000E+00  0.0000E+00  0.0000E+00
    -15.560  0.0000E+00  0.0000E+00  0.0000E+00  0.0000E+00  0.0000E+00  0.0000E+00  0.0000E+00  0.0000E+00  0.0000E+00
    -15.291  0.0000E+00  0.0000E+00  0.0000E+00  0.0000E+00  0.0000E+00  0.0000E+00  0.0000E+00  0.0000E+00  0.0000E+00
    -15.023  0.0000E+00  0.0000E+00  0.0000E+00  0.0000E+00  0.0000E+00  0.0000E+00  0.0000E+00  0.0000E+00  0.0000E+00
    -14.754  0.0000E+00  0.0000E+00  0.0000E+00  0.0000E+00  0.0000E+00  0.0000E+00  0.0000E+00  0.0000E+00  0.0000E+00
    -14.486  0.0000E+00  0.0000E+00  0.0000E+00  0.0000E+00  0.0000E+00  0.0000E+00  0.0000E+00  0.0000E+00  0.0000E+00
    -14.217  0.0000E+00  0.0000E+00  0.0000E+00  0.0000E+00  0.0000E+00  0.0000E+00  0.0000E+00  0.0000E+00  0.0000E+00
    -13.949  0.0000E+00  0.0000E+00  0.0000E+00  0.0000E+00  0.0000E+00  0.0000E+00  0.0000E+00  0.0000E+00  0.0000E+00
    -13.680  0.0000E+00  0.0000E+00  0.0000E+00  0.0000E+00  0.0000E+00  0.0000E+00  0.0000E+00  0.0000E+00  0.0000E+00
    -13.412  0.0000E+00  0.0000E+00  0.0000E+00  0.0000E+00  0.0000E+00  0.0000E+00  0.0000E+00  0.0000E+00  0.0000E+00
    -13.143  0.0000E+00  0.0000E+00  0.0000E+00  0.0000E+00  0.0000E+00  0.0000E+00  0.0000E+00  0.0000E+00  0.0000E+00
    -12.875  0.0000E+00  0.0000E+00  0.0000E+00  0.0000E+00  0.0000E+00  0.0000E+00  0.0000E+00  0.0000E+00  0.0000E+00
    -12.606  0.0000E+00  0.0000E+00  0.0000E+00  0.0000E+00  0.0000E+00  0.0000E+00  0.0000E+00  0.0000E+00  0.0000E+00
    -12.338  0.0000E+00  0.0000E+00  0.0000E+00  0.0000E+00  0.0000E+00  0.0000E+00  0.0000E+00  0.0000E+00  0.0000E+00
    -12.069  0.0000E+00  0.0000E+00  0.0000E+00  0.0000E+00  0.0000E+00  0.0000E+00  0.0000E+00  0.0000E+00  0.0000E+00
    -11.801  0.0000E+00  0.0000E+00  0.0000E+00  0.0000E+00  0.0000E+00  0.0000E+00  0.0000E+00  0.0000E+00  0.0000E+00
    -11.532  0.0000E+00  0.0000E+00  0.0000E+00  0.0000E+00  0.0000E+00  0.0000E+00  0.0000E+00  0.0000E+00  0.0000E+00
    -11.264  0.0000E+00  0.0000E+00  0.0000E+00  0.0000E+00  0.0000E+00  0.0000E+00  0.0000E+00  0.0000E+00  0.0000E+00
    -10.995  0.0000E+00  0.0000E+00  0.0000E+00  0.0000E+00  0.0000E+00  0.0000E+00  0.0000E+00  0.0000E+00  0.0000E+00
    -10.727  0.0000E+00  0.0000E+00  0.0000E+00  0.0000E+00  0.0000E+00  0.0000E+00  0.0000E+00  0.0000E+00  0.0000E+00
    -10.458  0.0000E+00  0.0000E+00  0.0000E+00  0.0000E+00  0.0000E+00  0.0000E+00  0.0000E+00  0.0000E+00  0.0000E+00
    -10.190  0.0000E+00  0.0000E+00  0.0000E+00  0.0000E+00  0.0000E+00  0.0000E+00  0.0000E+00  0.0000E+00  0.0000E+00
     -9.921  0.0000E+00  0.0000E+00  0.0000E+00  0.0000E+00  0.0000E+00  0.0000E+00  0.0000E+00  0.0000E+00  0.0000E+00
     -9.653  0.0000E+00  0.0000E+00  0.0000E+00  0.0000E+00  0.0000E+00  0.0000E+00  0.0000E+00  0.0000E+00  0.0000E+00
     -9.384  0.0000E+00  0.0000E+00  0.0000E+00  0.0000E+00  0.0000E+00  0.0000E+00  0.0000E+00  0.0000E+00  0.0000E+00
     -9.116  0.0000E+00  0.0000E+00  0.0000E+00  0.0000E+00  0.0000E+00  0.0000E+00  0.0000E+00  0.0000E+00  0.0000E+00
     -8.847  0.0000E+00  0.0000E+00  0.0000E+00  0.0000E+00  0.0000E+00  0.0000E+00  0.0000E+00  0.0000E+00  0.0000E+00
     -8.579  0.0000E+00  0.0000E+00  0.0000E+00  0.0000E+00  0.0000E+00  0.0000E+00  0.0000E+00  0.0000E+00  0.0000E+00
     -8.310  0.0000E+00  0.0000E+00  0.0000E+00  0.0000E+00  0.0000E+00  0.0000E+00  0.0000E+00  0.0000E+00  0.0000E+00
     -8.042  0.0000E+00  0.0000E+00  0.0000E+00  0.0000E+00  0.0000E+00  0.0000E+00  0.0000E+00  0.0000E+00  0.0000E+00
     -7.773  0.0000E+00  0.0000E+00  0.0000E+00  0.0000E+00  0.0000E+00  0.0000E+00  0.0000E+00  0.0000E+00  0.0000E+00
     -7.505  0.0000E+00  0.0000E+00  0.0000E+00  0.0000E+00  0.0000E+00  0.0000E+00  0.0000E+00  0.0000E+00  0.0000E+00
     -7.236  0.0000E+00  0.0000E+00  0.0000E+00  0.0000E+00  0.0000E+00  0.0000E+00  0.0000E+00  0.0000E+00  0.0000E+00
     -6.968  0.0000E+00  0.0000E+00  0.0000E+00  0.0000E+00  0.0000E+00  0.0000E+00  0.0000E+00  0.0000E+00  0.0000E+00
     -6.699  0.0000E+00  0.0000E+00  0.0000E+00  0.0000E+00  0.0000E+00  0.0000E+00  0.0000E+00  0.0000E+00  0.0000E+00
     -6.431  0.0000E+00  0.0000E+00  0.0000E+00  0.0000E+00  0.0000E+00  0.0000E+00  0.0000E+00  0.0000E+00  0.0000E+00
     -6.162  0.0000E+00  0.0000E+00  0.0000E+00  0.0000E+00  0.0000E+00  0.0000E+00  0.0000E+00  0.0000E+00  0.0000E+00
     -5.894  0.0000E+00  0.0000E+00  0.0000E+00  0.0000E+00  0.0000E+00  0.0000E+00  0.0000E+00  0.0000E+00  0.0000E+00
     -5.625  0.0000E+00  0.0000E+00  0.0000E+00  0.0000E+00  0.0000E+00  0.0000E+00  0.0000E+00  0.0000E+00  0.0000E+00
     -5.357  0.0000E+00  0.0000E+00  0.0000E+00  0.0000E+00  0.0000E+00  0.0000E+00  0.0000E+00  0.0000E+00  0.0000E+00
     -5.088  0.0000E+00  0.0000E+00  0.0000E+00  0.0000E+00  0.0000E+00  0.0000E+00  0.0000E+00  0.0000E+00  0.0000E+00
     -4.820  0.0000E+00  0.0000E+00  0.0000E+00  0.0000E+00  0.0000E+00  0.0000E+00  0.0000E+00  0.0000E+00  0.0000E+00
     -4.551  0.0000E+00  0.0000E+00  0.0000E+00  0.0000E+00  0.0000E+00  0.0000E+00  0.0000E+00  0.0000E+00  0.0000E+00
     -4.283  0.0000E+00  0.0000E+00  0.0000E+00  0.0000E+00  0.0000E+00  0.0000E+00  0.0000E+00  0.0000E+00  0.0000E+00
     -4.014  0.0000E+00  0.0000E+00  0.0000E+00  0.0000E+00  0.0000E+00  0.0000E+00  0.0000E+00  0.0000E+00  0.0000E+00