    2    2  100    1
  0.1643474E+02  0.2798111E-09  0.2798111E-09  0.4847662E-09  0.5000000E-15
  1.000000000000000E-004
  CAR 
 Pt-hcc                                  
     32     70     24
 
  0.0000000E+00  0.0000000E+00  0.0000000E+00  0.1250000E-02
      1        -42.041446   1.000000
      2        -41.914772   1.000000
      3        -41.914771   1.000000
      4        -41.879537   1.000000
      5        -41.879536   1.000000
      6        -41.757820   1.000000
      7          1.110046   1.000000
      8          3.724770   1.000000
      9          6.734711   1.000000
     10          7.198734   1.000000
     11          7.198735   1.000000
     12          7.541206   1.000000
     13          7.541207   1.000000
     14          8.723492   1.000000
     15          8.723492   1.000000
     16          9.881354   1.000000
     17         10.207490   1.000000
     18         10.207490   1.000000
     19         14.855038   0.000000
     20         25.542302   0.000000
     21         26.102523   0.000000
     22         27.633937   0.000000
     23         30.988899   0.000000
     24         30.988900   0.000000
 
  0.1000000E+00  0.0000000E+00  0.0000000E+00  0.7500000E-02
      1        -42.031314   1.000000
      2        -41.945157   1.000000
      3        -41.923729   1.000000
      4        -41.911252   1.000000
      5        -41.885877   1.000000
      6        -41.760259   1.000000
      7          1.457310   1.000000
      8          4.037510   1.000000
      9          6.670051   1.000000
     10          7.212322   1.000000
     11          7.404407   1.000000
     12          7.458139   1.000000
     13          7.787558   1.000000
     14          8.206021   1.000000
     15          8.565697   1.000000
     16          8.731408   1.000000
     17         10.264539   0.999902
     18         11.958890   0.000000
     19         14.824696   0.000000
     20         25.898193   0.000000
     21         26.607632   0.000000
     22         27.830155   0.000000
     23         29.501213   0.000000
     24         29.511238   0.000000
 
  0.2000000E+00  0.0000000E+00  0.0000000E+00  0.7500000E-02
      1        -42.026101   1.000000
      2        -42.003673   1.000000
      3        -41.992737   1.000000
      4        -41.946646   1.000000
      5        -41.903293   1.000000
      6        -41.768134   1.000000
      7          2.408173   1.000000
      8          4.730625   1.000000
      9          6.454907   1.000000
     10          6.925094   1.000000
     11          6.947757   1.000000
     12          7.796401   1.000000
     13          8.191774   1.000000
     14          8.213443   1.000000
     15          8.240756   1.000000
     16          8.478407   1.000000
     17         10.356222   0.870728
     18         14.052654   0.000000
     19         14.775793   0.000000
     20         24.101459   0.000000
     21         27.142532   0.000000
     22         27.202734   0.000000
     23         28.190608   0.000000
     24         28.429269   0.000000
 
  0.3000000E+00 -0.2775558E-16  0.0000000E+00  0.7500000E-02
      1        -42.126252   1.000000
      2        -42.092034   1.000000
      3        -41.974413   1.000000
      4        -41.964247   1.000000
      5        -41.925038   1.000000
      6        -41.781972   1.000000
      7          3.587401   1.000000
      8          4.868581   1.000000
      9          5.929664   1.000000
     10          6.703385   1.000000
     11          7.035351   1.000000
     12          7.764461   1.000000
     13          7.849187   1.000000
     14          8.872814   1.000000
     15          9.240563   1.000000
     16          9.453545   1.000000
     17         10.406699   0.382900
     18         14.926937   0.000000
     19         16.198022   0.000000
     20         20.395834   0.000000
     21         24.836704   0.000000
     22         25.620267   0.000000
     23         26.761595   0.000000
     24         28.116145   0.000000
 
  0.4000000E+00 -0.2775558E-16  0.0000000E+00  0.7500000E-02
      1        -42.207189   1.000000
      2        -42.170717   1.000000
      3        -41.996822   1.000000
      4        -41.942581   1.000000
      5        -41.924926   1.000000
      6        -41.801191   1.000000
      7          4.260190   1.000000
      8          4.573551   1.000000
      9          5.314448   1.000000
     10          7.191433   1.000000
     11          7.415090   1.000000
     12          7.589287   1.000000
     13          7.804152   1.000000
     14         10.243953   0.999992
     15         10.408724   0.361233
     16         10.417868   0.269676
     17         10.636616   0.000000
     18         15.773121   0.000000
     19         16.805506   0.000000
     20         18.127433   0.000000
     21         22.401782   0.000000
     22         23.010487   0.000000
     23         24.212216   0.000000
     24         26.856119   0.000000
 
  0.5000000E+00  0.0000000E+00  0.0000000E+00  0.3750000E-02
      1        -42.237432   1.000000
      2        -42.201050   1.000000
      3        -42.005391   1.000000
      4        -41.949267   1.000000
      5        -41.905174   1.000000
      6        -41.813148   1.000000
      7          4.384783   1.000000
      8          4.428930   1.000000
      9          5.106518   1.000000
     10          7.288296   1.000000
     11          7.495999   1.000000
     12          7.680852   1.000000
     13          8.008175   1.000000
     14         10.417451   0.273591
     15         10.663792   0.000000
     16         10.851174   0.000000
     17         12.599389   0.000000
     18         14.003648   0.000000
     19         17.480305   0.000000
     20         19.075236   0.000000
     21         19.551933   0.000000
     22         22.272078   0.000000
     23         23.512330   0.000000
     24         26.317770   0.000000
 
  0.1000000E+00  0.1000000E+00  0.0000000E+00  0.7500000E-02
      1        -42.012429   1.000000
      2        -41.996040   1.000000
      3        -41.973692   1.000000
      4        -41.934707   1.000000
      5        -41.902071   1.000000
      6        -41.765382   1.000000
      7          2.113958   1.000000
      8          4.584760   1.000000
      9          6.418694   1.000000
     10          7.129423   1.000000
     11          7.306470   1.000000
     12          7.422148   1.000000
     13          8.005738   1.000000
     14          8.028969   1.000000
     15          8.338050   1.000000
     16          8.632112   1.000000
     17         10.285071   0.999162
     18         13.497682   0.000000
     19         14.786935   0.000000
     20         25.624504   0.000000
     21         26.067029   0.000000
     22         27.476218   0.000000
     23         28.425813   0.000000
     24         29.041493   0.000000
 
  0.2000000E+00  0.1000000E+00  0.0000000E+00  0.1500000E-01
      1        -42.079790   1.000000
      2        -42.057483   1.000000
      3        -41.978969   1.000000
      4        -41.966967   1.000000
      5        -41.927586   1.000000
      6        -41.776282   1.000000
      7          3.247467   1.000000
      8          5.179622   1.000000
      9          6.249598   1.000000
     10          6.315729   1.000000
     11          6.875943   1.000000
     12          7.570329   1.000000
     13          7.994204   1.000000
     14          8.289844   1.000000
     15          8.995033   1.000000
     16          9.369137   1.000000
     17         10.286265   0.999060
     18         14.856037   0.000000
     19         15.511849   0.000000
     20         22.278607   0.000000
     21         24.195406   0.000000
     22         26.589606   0.000000
     23         28.390625   0.000000
     24         28.805285   0.000000
 
  0.3000000E+00  0.1000000E+00  0.0000000E+00  0.1500000E-01
      1        -42.166940   1.000000
      2        -42.136314   1.000000
      3        -42.000429   1.000000
      4        -41.952135   1.000000
      5        -41.938348   1.000000
      6        -41.793638   1.000000
      7          4.292647   1.000000
      8          4.966016   1.000000
      9          5.588201   1.000000
     10          6.714940   1.000000
     11          7.294021   1.000000
     12          7.296719   1.000000
     13          7.832949   1.000000
     14          9.020450   1.000000
     15         10.003325   1.000000
     16         10.274633   0.999706
     17         10.703149   0.000000
     18         15.465956   0.000000
     19         17.586770   0.000000
     20         18.517892   0.000000
     21         22.148293   0.000000
     22         25.087467   0.000000
     23         25.105568   0.000000
     24         27.242100   0.000000
 
  0.4000000E+00  0.1000000E+00  0.0000000E+00  0.1500000E-01
      1        -42.221111   1.000000
      2        -42.185080   1.000000
      3        -42.020879   1.000000
      4        -41.967427   1.000000
      5        -41.905447   1.000000
      6        -41.812695   1.000000
      7          4.626658   1.000000
      8          4.712205   1.000000
      9          5.210429   1.000000
     10          7.242773   1.000000
     11          7.457499   1.000000
     12          7.461710   1.000000
     13          7.769809   1.000000
     14         10.167167   1.000000
     15         10.259319   0.999946
     16         10.515253   0.000378
     17         12.334589   0.000000
     18         15.190949   0.000000
     19         17.123281   0.000000
     20         19.234278   0.000000
     21         19.947112   0.000000
     22         22.266142   0.000000
     23         23.953815   0.000000
     24         26.230725   0.000000
 
  0.2000000E+00  0.2000000E+00  0.0000000E+00  0.7500000E-02
      1        -42.129020   1.000000
      2        -42.128631   1.000000
      3        -42.005027   1.000000
      4        -41.970447   1.000000
      5        -41.943442   1.000000
      6        -41.791466   1.000000
      7          4.422875   1.000000
      8          5.757069   1.000000
      9          5.778584   1.000000
     10          5.827614   1.000000
     11          7.075792   1.000000
     12          7.115913   1.000000
     13          8.014032   1.000000
     14          8.332555   1.000000
     15          9.990139   1.000000
     16         10.120806   1.000000
     17         10.779125   0.000000
     18         15.427401   0.000000
     19         17.453903   0.000000
     20         19.969879   0.000000
     21         20.892141   0.000000
     22         25.842582   0.000000
     23         26.748951   0.000000
     24         27.344254   0.000000
 
  0.3000000E+00  0.2000000E+00  0.0000000E+00  0.1500000E-01
      1        -42.181774   1.000000
      2        -42.157277   1.000000
      3        -42.048962   1.000000
      4        -42.007377   1.000000
      5        -41.905958   1.000000
      6        -41.812112   1.000000
      7          5.202149   1.000000
      8          5.418485   1.000000
      9          5.434980   1.000000
     10          6.511830   1.000000
     11          6.980380   1.000000
     12          7.561355   1.000000
     13          7.594044   1.000000
     14          9.071015   1.000000
     15          9.994263   1.000000
     16         10.397988   0.479462
     17         12.366689   0.000000
     18         16.404503   0.000000
     19         17.370262   0.000000
     20         19.009272   0.000000
     21         19.484777   0.000000
     22         23.743705   0.000000
     23         24.962655   0.000000
     24         25.887879   0.000000
 
  0.4000000E+00  0.2000000E+00  0.0000000E+00  0.7500000E-02
      1        -42.201479   1.000000
      2        -42.164804   1.000000
      3        -42.070199   1.000000
      4        -42.021296   1.000000
      5        -41.884656   1.000000
      6        -41.827324   1.000000
      7          5.292150   1.000000
      8          5.292387   1.000000
      9          5.321665   1.000000
     10          7.055922   1.000000
     11          7.108144   1.000000
     12          7.210927   1.000000
     13          7.845781   1.000000
     14          9.780030   1.000000
     15          9.948201   1.000000
     16         10.218156   1.000000
     17         13.943862   0.000000
     18         14.400352   0.000000
     19         17.725345   0.000000
     20         19.220217   0.000000
     21         20.680381   0.000000
     22         21.601692   0.000000
     23         24.051583   0.000000
     24         25.479065   0.000000
 
  0.3000000E+00  0.3000000E+00  0.0000000E+00  0.7500000E-02
      1        -42.170149   1.000000
      2        -42.142291   1.000000
      3        -42.102230   1.000000
      4        -42.066354   1.000000
      5        -41.872664   1.000000
      6        -41.836812   1.000000
      7          5.381309   1.000000
      8          5.739264   1.000000
      9          5.986064   1.000000
     10          6.404648   1.000000
     11          6.936258   1.000000
     12          7.187940   1.000000
     13          7.930040   1.000000
     14          9.406748   1.000000
     15          9.794842   1.000000
     16         10.070843   1.000000
     17         13.928503   0.000000
     18         15.194680   0.000000
     19         16.626590   0.000000
     20         19.991703   0.000000
     21         21.560780   0.000000
     22         22.712655   0.000000
     23         23.479173   0.000000
     24         23.934388   0.000000
 
  0.0000000E+00  0.0000000E+00  0.1250000E+00  0.2500000E-02
      1        -42.030851   1.000000
      2        -41.913435   1.000000
      3        -41.913434   1.000000
      4        -41.880819   1.000000
      5        -41.880818   1.000000
      6        -41.768682   1.000000
      7          1.239005   1.000000
      8          3.702706   1.000000
      9          6.703723   1.000000
     10          7.180296   1.000000
     11          7.180296   1.000000
     12          7.505045   1.000000
     13          7.505045   1.000000
     14          8.815353   1.000000
     15          8.815353   1.000000
     16          9.261746   1.000000
     17         10.181376   1.000000
     18         10.181377   1.000000
     19         15.724388   0.000000
     20         25.088979   0.000000
     21         26.567000   0.000000
     22         27.358804   0.000000
     23         30.552767   0.000000
     24         30.552767   0.000000
 
  0.1000000E+00  0.0000000E+00  0.1250000E+00  0.1500000E-01
      1        -42.021951   1.000000
      2        -41.943168   1.000000
      3        -41.922260   1.000000
      4        -41.912909   1.000000
      5        -41.887388   1.000000
      6        -41.770076   1.000000
      7          1.583868   1.000000
      8          4.021891   1.000000
      9          6.673189   1.000000
     10          7.131558   1.000000
     11          7.309671   1.000000
     12          7.431232   1.000000
     13          7.747361   1.000000
     14          8.165825   1.000000
     15          8.674053   1.000000
     16          8.716008   1.000000
     17         10.228468   0.999999
     18         11.407297   0.000000
     19         15.820281   0.000000
     20         25.534160   0.000000
     21         26.939448   0.000000
     22         27.654108   0.000000
     23         28.944526   0.000000
     24         29.467392   0.000000
 
  0.2000000E+00  0.0000000E+00  0.1250000E+00  0.1500000E-01
      1        -42.031600   1.000000
      2        -41.996377   1.000000
      3        -41.986433   1.000000
      4        -41.944790   1.000000
      5        -41.904649   1.000000
      6        -41.775633   1.000000
      7          2.520720   1.000000
      8          4.737481   1.000000
      9          6.484988   1.000000
     10          6.676062   1.000000
     11          6.959357   1.000000
     12          7.694304   1.000000
     13          8.040380   1.000000
     14          8.363105   1.000000
     15          8.433670   1.000000
     16          8.526376   1.000000
     17         10.300451   0.996608
     18         12.854598   0.000000
     19         16.256424   0.000000
     20         24.202763   0.000000
     21         26.956950   0.000000
     22         27.298096   0.000000
     23         27.684255   0.000000
     24         28.796908   0.000000
 
  0.3000000E+00 -0.2775558E-16  0.1250000E+00  0.1500000E-01
      1        -42.127726   1.000000
      2        -42.095046   1.000000
      3        -41.972649   1.000000
      4        -41.954525   1.000000
      5        -41.926880   1.000000
      6        -41.787397   1.000000
      7          3.642491   1.000000
      8          4.894115   1.000000
      9          5.907417   1.000000
     10          6.550974   1.000000
     11          7.061019   1.000000
     12          7.862013   1.000000
     13          7.907084   1.000000
     14          8.923366   1.000000
     15          9.261028   1.000000
     16          9.408533   1.000000
     17         10.341254   0.939810
     18         13.899891   0.000000
     19         17.269202   0.000000
     20         20.656584   0.000000
     21         25.065779   0.000000
     22         25.191467   0.000000
     23         26.679513   0.000000
     24         28.537522   0.000000
 
  0.4000000E+00 -0.2775558E-16  0.1250000E+00  0.1500000E-01
      1        -42.208041   1.000000
      2        -42.173886   1.000000
      3        -41.994674   1.000000
      4        -41.944566   1.000000
      5        -41.917882   1.000000
      6        -41.804084   1.000000
      7          4.202312   1.000000
      8          4.583437   1.000000
      9          5.455839   1.000000
     10          6.599209   1.000000
     11          7.610880   1.000000
     12          7.669010   1.000000
     13          8.330028   1.000000
     14         10.174833   1.000000
     15         10.258974   0.999948
     16         10.502583   0.001307
     17         10.553733   0.000004
     18         14.946401   0.000000
     19         16.848498   0.000000
     20         18.922757   0.000000
     21         22.140607   0.000000
     22         23.273171   0.000000
     23         24.523930   0.000000
     24         27.081746   0.000000
 
  0.5000000E+00  0.0000000E+00  0.1250000E+00  0.7500000E-02
      1        -42.238008   1.000000
      2        -42.204022   1.000000
      3        -42.003176   1.000000
      4        -41.951322   1.000000
      5        -41.899529   1.000000
      6        -41.814756   1.000000
      7          4.288144   1.000000
      8          4.412232   1.000000
      9          5.311845   1.000000
     10          6.661157   1.000000
     11          7.580780   1.000000
     12          7.752072   1.000000
     13          8.761834   1.000000
     14         10.253165   0.999974
     15         10.683037   0.000000
     16         10.845425   0.000000
     17         12.385556   0.000000
     18         13.905384   0.000000
     19         17.325968   0.000000
     20         18.016019   0.000000
     21         20.862316   0.000000
     22         22.547171   0.000000
     23         23.649992   0.000000
     24         26.591973   0.000000
 
  0.1000000E+00  0.1000000E+00  0.1250000E+00  0.1500000E-01
      1        -42.013810   1.000000
      2        -41.984157   1.000000
      3        -41.974776   1.000000
      4        -41.934275   1.000000
      5        -41.903479   1.000000
      6        -41.773650   1.000000
      7          2.233091   1.000000
      8          4.584005   1.000000
      9          6.448028   1.000000
     10          6.875097   1.000000
     11          7.211758   1.000000
     12          7.431489   1.000000
     13          7.942373   1.000000
     14          8.151317   1.000000
     15          8.424166   1.000000
     16          8.696201   1.000000
     17         10.237205   0.999997
     18         12.519645   0.000000
     19         16.092975   0.000000
     20         25.607846   0.000000
     21         26.143952   0.000000
     22         27.304530   0.000000
     23         27.968145   0.000000
     24         29.307219   0.000000
 
  0.2000000E+00  0.1000000E+00  0.1250000E+00  0.3000000E-01
      1        -42.082038   1.000000
      2        -42.059774   1.000000
      3        -41.968594   1.000000
      4        -41.964957   1.000000
      5        -41.929168   1.000000
      6        -41.782368   1.000000
      7          3.336971   1.000000
      8          5.210775   1.000000
      9          6.142715   1.000000
     10          6.312500   1.000000
     11          6.851772   1.000000
     12          7.472396   1.000000
     13          8.136960   1.000000
     14          8.275910   1.000000
     15          9.099226   1.000000
     16          9.320441   1.000000
     17         10.238634   0.999996
     18         13.629679   0.000000
     19         16.912598   0.000000
     20         22.453552   0.000000
     21         24.321953   0.000000
     22         26.450989   0.000000
     23         27.714785   0.000000
     24         29.450364   0.000000
 
  0.3000000E+00  0.1000000E+00  0.1250000E+00  0.3000000E-01
      1        -42.168046   1.000000
      2        -42.139363   1.000000
      3        -41.999272   1.000000
      4        -41.954718   1.000000
      5        -41.929885   1.000000
      6        -41.797434   1.000000
      7          4.283381   1.000000
      8          4.998345   1.000000
      9          5.643219   1.000000
     10          6.459158   1.000000
     11          7.258975   1.000000
     12          7.619814   1.000000
     13          7.846319   1.000000
     14          9.035804   1.000000
     15         10.046891   1.000000
     16         10.100903   1.000000
     17         10.757119   0.000000
     18         14.700189   0.000000
     19         17.819943   0.000000
     20         19.274044   0.000000
     21         22.241453   0.000000
     22         24.369908   0.000000
     23         25.674039   0.000000
     24         27.402016   0.000000
 
  0.4000000E+00  0.1000000E+00  0.1250000E+00  0.3000000E-01
      1        -42.221600   1.000000
      2        -42.187944   1.000000
      3        -42.019316   1.000000
      4        -41.969788   1.000000
      5        -41.899287   1.000000
      6        -41.814345   1.000000
      7          4.504780   1.000000
      8          4.714422   1.000000
      9          5.444520   1.000000
     10          6.604504   1.000000
     11          7.339682   1.000000
     12          7.867833   1.000000
     13          8.259900   1.000000
     14         10.064301   1.000000
     15         10.172298   1.000000
     16         10.554644   0.000004
     17         12.293926   0.000000
     18         15.028777   0.000000
     19         16.741235   0.000000
     20         19.093515   0.000000
     21         20.471214   0.000000
     22         22.526864   0.000000
     23         24.179848   0.000000
     24         26.274979   0.000000
 
  0.2000000E+00  0.2000000E+00  0.1250000E+00  0.1500000E-01
      1        -42.131279   1.000000
      2        -42.129811   1.000000
      3        -42.005012   1.000000
      4        -41.973060   1.000000
      5        -41.933861   1.000000
      6        -41.794986   1.000000
      7          4.459313   1.000000
      8          5.619834   1.000000
      9          5.845972   1.000000
     10          5.915821   1.000000
     11          7.086551   1.000000
     12          7.097210   1.000000
     13          7.902622   1.000000
     14          8.476216   1.000000
     15          9.923731   1.000000
     16         10.092746   1.000000
     17         10.845330   0.000000
     18         14.681464   0.000000
     19         18.058760   0.000000
     20         20.394185   0.000000
     21         21.046337   0.000000
     22         25.629531   0.000000
     23         25.914051   0.000000
     24         27.985291   0.000000
 
  0.3000000E+00  0.2000000E+00  0.1250000E+00  0.3000000E-01
      1        -42.182274   1.000000
      2        -42.159828   1.000000
      3        -42.048836   1.000000
      4        -42.009727   1.000000
      5        -41.899193   1.000000
      6        -41.813351   1.000000
      7          5.067126   1.000000
      8          5.448916   1.000000
      9          5.608239   1.000000
     10          6.328845   1.000000
     11          7.107268   1.000000
     12          7.462450   1.000000
     13          7.726762   1.000000
     14          9.128914   1.000000
     15          9.807965   1.000000
     16         10.492364   0.003256
     17         12.408195   0.000000
     18         16.404605   0.000000
     19         16.741153   0.000000
     20         19.075806   0.000000
     21         20.293060   0.000000
     22         23.250398   0.000000
     23         24.960680   0.000000
     24         25.850720   0.000000
 
  0.4000000E+00  0.2000000E+00  0.1250000E+00  0.1500000E-01
      1        -42.201474   1.000000
      2        -42.167950   1.000000
      3        -42.069730   1.000000
      4        -42.023947   1.000000
      5        -41.879135   1.000000
      6        -41.826811   1.000000
      7          5.029682   1.000000
      8          5.336257   1.000000
      9          5.694354   1.000000
     10          6.537538   1.000000
     11          6.977699   1.000000
     12          7.644425   1.000000
     13          8.003161   1.000000
     14          9.754765   1.000000
     15          9.803649   1.000000
     16         10.288173   0.998873
     17         14.025708   0.000000
     18         14.436230   0.000000
     19         17.767778   0.000000
     20         18.896476   0.000000
     21         19.867094   0.000000
     22         22.728418   0.000000
     23         24.289675   0.000000
     24         24.650495   0.000000
 
  0.3000000E+00  0.3000000E+00  0.1250000E+00  0.1500000E-01
      1        -42.169222   1.000000
      2        -42.145026   1.000000
      3        -42.103751   1.000000
      4        -42.069076   1.000000
      5        -41.867970   1.000000
      6        -41.835345   1.000000
      7          5.411688   1.000000
      8          5.720959   1.000000
      9          6.021260   1.000000
     10          6.300288   1.000000
     11          7.051561   1.000000
     12          7.092549   1.000000
     13          7.939139   1.000000
     14          9.493400   1.000000
     15          9.599407   1.000000
     16         10.158021   1.000000
     17         14.021071   0.000000
     18         15.335411   0.000000
     19         16.863145   0.000000
     20         19.137587   0.000000
     21         21.707371   0.000000
     22         21.842895   0.000000
     23         23.632829   0.000000
     24         24.949349   0.000000
 
  0.0000000E+00  0.0000000E+00  0.2500000E+00  0.2500000E-02
      1        -42.000126   1.000000
      2        -41.909607   1.000000
      3        -41.909606   1.000000
      4        -41.884763   1.000000
      5        -41.884762   1.000000
      6        -41.799858   1.000000
      7          1.610451   1.000000
      8          3.599866   1.000000
      9          6.633588   1.000000
     10          7.151042   1.000000
     11          7.151042   1.000000
     12          7.412112   1.000000
     13          7.412113   1.000000
     14          8.134922   1.000000
     15          9.052706   1.000000
     16          9.052706   1.000000
     17         10.092174   1.000000
     18         10.092175   1.000000
     19         17.619318   0.000000
     20         24.535596   0.000000
     21         26.765771   0.000000
     22         26.769093   0.000000
     23         30.114242   0.000000
     24         30.114242   0.000000
 
  0.1000000E+00  0.0000000E+00  0.2500000E+00  0.1500000E-01
      1        -41.996330   1.000000
      2        -41.935915   1.000000
      3        -41.918187   1.000000
      4        -41.917937   1.000000
      5        -41.891477   1.000000
      6        -41.797864   1.000000
      7          1.949256   1.000000
      8          3.933141   1.000000
      9          6.660590   1.000000
     10          6.988088   1.000000
     11          7.064021   1.000000
     12          7.389117   1.000000
     13          7.648915   1.000000
     14          7.776862   1.000000
     15          8.942610   1.000000
     16          8.947340   1.000000
     17         10.113074   1.000000
     18         10.698410   0.000000
     19         17.779114   0.000000
     20         24.993527   0.000000
     21         27.034810   0.000000
     22         27.156472   0.000000
     23         28.658504   0.000000
     24         29.477252   0.000000
 
  0.2000000E+00  0.0000000E+00  0.2500000E+00  0.1500000E-01
      1        -42.034375   1.000000
      2        -42.002532   1.000000
      3        -41.954810   1.000000
      4        -41.940086   1.000000
      5        -41.909277   1.000000
      6        -41.797816   1.000000
      7          2.846841   1.000000
      8          4.702960   1.000000
      9          6.320126   1.000000
     10          6.586166   1.000000
     11          6.745734   1.000000
     12          7.507259   1.000000
     13          7.962688   1.000000
     14          8.294676   1.000000
     15          8.812887   1.000000
     16          8.840889   1.000000
     17         10.135247   1.000000
     18         11.667363   0.000000
     19         18.254317   0.000000
     20         24.500010   0.000000
     21         26.283819   0.000000
     22         26.987724   0.000000
     23         27.765012   0.000000
     24         28.889298   0.000000
 
  0.3000000E+00 -0.2775558E-16  0.2500000E+00  0.1500000E-01
      1        -42.129742   1.000000
      2        -42.103090   1.000000
      3        -41.967252   1.000000
      4        -41.932275   1.000000
      5        -41.928893   1.000000
      6        -41.803137   1.000000
      7          3.807461   1.000000