PROCAR lm decomposed
# of k-points:   70         # of bands:   24         # of ions:    2

 k-point     1 :    0.00000000 0.00000000 0.00000000     weight = 0.00125000

band     1 # energy  -42.04144613 # occ.  2.00000000
 
ion      s     py     pz     px    dxy    dyz    dz2    dxz  x2-y2    tot
    1  0.000  0.000  0.492  0.000  0.000  0.000  0.000  0.000  0.000  0.492
    2  0.000  0.000  0.492  0.000  0.000  0.000  0.000  0.000  0.000  0.492
tot    0.000  0.000  0.984  0.000  0.000  0.000  0.000  0.000  0.000  0.984
 
band     2 # energy  -41.91477198 # occ.  2.00000000
 
ion      s     py     pz     px    dxy    dyz    dz2    dxz  x2-y2    tot
    1  0.000  0.124  0.000  0.373  0.000  0.000  0.000  0.000  0.000  0.498
    2  0.000  0.124  0.000  0.373  0.000  0.000  0.000  0.000  0.000  0.497
tot    0.000  0.249  0.000  0.746  0.000  0.000  0.000  0.000  0.000  0.995
 
band     3 # energy  -41.91477102 # occ.  2.00000000
 
ion      s     py     pz     px    dxy    dyz    dz2    dxz  x2-y2    tot
    1  0.000  0.373  0.000  0.124  0.000  0.000  0.000  0.000  0.000  0.498
    2  0.000  0.373  0.000  0.124  0.000  0.000  0.000  0.000  0.000  0.497
tot    0.000  0.746  0.000  0.249  0.000  0.000  0.000  0.000  0.000  0.995
 
band     4 # energy  -41.87953687 # occ.  2.00000000
 
ion      s     py     pz     px    dxy    dyz    dz2    dxz  x2-y2    tot
    1  0.000  0.125  0.000  0.374  0.000  0.000  0.000  0.000  0.000  0.498
    2  0.000  0.125  0.000  0.374  0.000  0.000  0.000  0.000  0.000  0.498
tot    0.000  0.249  0.000  0.747  0.000  0.000  0.000  0.000  0.000  0.996
 
band     5 # energy  -41.87953592 # occ.  2.00000000
 
ion      s     py     pz     px    dxy    dyz    dz2    dxz  x2-y2    tot
    1  0.000  0.374  0.000  0.125  0.000  0.000  0.000  0.000  0.000  0.498
    2  0.000  0.374  0.000  0.125  0.000  0.000  0.000  0.000  0.000  0.498
tot    0.000  0.747  0.000  0.249  0.000  0.000  0.000  0.000  0.000  0.996
 
band     6 # energy  -41.75782041 # occ.  2.00000000
 
ion      s     py     pz     px    dxy    dyz    dz2    dxz  x2-y2    tot
    1  0.000  0.000  0.497  0.000  0.000  0.000  0.000  0.000  0.000  0.497
    2  0.000  0.000  0.497  0.000  0.000  0.000  0.000  0.000  0.000  0.497
tot    0.000  0.000  0.995  0.000  0.000  0.000  0.000  0.000  0.000  0.995
 
band     7 # energy    1.11004638 # occ.  2.00000000
 
ion      s     py     pz     px    dxy    dyz    dz2    dxz  x2-y2    tot
    1  0.186  0.000  0.000  0.000  0.000  0.000  0.000  0.000  0.000  0.187
    2  0.186  0.000  0.000  0.000  0.000  0.000  0.000  0.000  0.000  0.187
tot    0.372  0.000  0.000  0.000  0.000  0.000  0.001  0.000  0.000  0.373
 
band     8 # energy    3.72477006 # occ.  2.00000000
 
ion      s     py     pz     px    dxy    dyz    dz2    dxz  x2-y2    tot
    1  0.079  0.000  0.000  0.000  0.000  0.000  0.229  0.000  0.000  0.308
    2  0.079  0.000  0.000  0.000  0.000  0.000  0.229  0.000  0.000  0.308
tot    0.158  0.000  0.000  0.000  0.000  0.000  0.458  0.000  0.000  0.615
 
band     9 # energy    6.73471105 # occ.  2.00000000
 
ion      s     py     pz     px    dxy    dyz    dz2    dxz  x2-y2    tot
    1  0.000  0.000  0.000  0.000  0.000  0.000  0.411  0.000  0.000  0.411
    2  0.000  0.000  0.000  0.000  0.000  0.000  0.411  0.000  0.000  0.411
tot    0.000  0.000  0.000  0.000  0.000  0.000  0.822  0.000  0.000  0.822
 
band    10 # energy    7.19873444 # occ.  2.00000000
 
ion      s     py     pz     px    dxy    dyz    dz2    dxz  x2-y2    tot
    1  0.000  0.000  0.000  0.000  0.105  0.000  0.000  0.000  0.315  0.420
    2  0.000  0.000  0.000  0.000  0.105  0.000  0.000  0.000  0.315  0.420
tot    0.000  0.000  0.000  0.000  0.210  0.000  0.000  0.000  0.630  0.840
 
band    11 # energy    7.19873514 # occ.  2.00000000
 
ion      s     py     pz     px    dxy    dyz    dz2    dxz  x2-y2    tot
    1  0.000  0.000  0.000  0.000  0.315  0.000  0.000  0.000  0.105  0.420
    2  0.000  0.000  0.000  0.000  0.315  0.000  0.000  0.000  0.105  0.420
tot    0.000  0.000  0.000  0.000  0.630  0.000  0.000  0.000  0.210  0.840
 
band    12 # energy    7.54120623 # occ.  2.00000000
 
ion      s     py     pz     px    dxy    dyz    dz2    dxz  x2-y2    tot
    1  0.000  0.000  0.000  0.000  0.107  0.000  0.000  0.000  0.322  0.430
    2  0.000  0.000  0.000  0.000  0.107  0.000  0.000  0.000  0.322  0.430
tot    0.000  0.000  0.000  0.000  0.215  0.000  0.000  0.000  0.644  0.859
 
band    13 # energy    7.54120696 # occ.  2.00000000
 
ion      s     py     pz     px    dxy    dyz    dz2    dxz  x2-y2    tot
    1  0.000  0.000  0.000  0.000  0.322  0.000  0.000  0.000  0.107  0.430
    2  0.000  0.000  0.000  0.000  0.322  0.000  0.000  0.000  0.107  0.430
tot    0.000  0.000  0.000  0.000  0.644  0.000  0.000  0.000  0.215  0.859
 
band    14 # energy    8.72349165 # occ.  2.00000000
 
ion      s     py     pz     px    dxy    dyz    dz2    dxz  x2-y2    tot
    1  0.000  0.000  0.000  0.000  0.000  0.111  0.000  0.332  0.000  0.442
    2  0.000  0.000  0.000  0.000  0.000  0.111  0.000  0.332  0.000  0.442
tot    0.000  0.000  0.000  0.000  0.000  0.221  0.000  0.664  0.000  0.885
 
band    15 # energy    8.72349191 # occ.  2.00000000
 
ion      s     py     pz     px    dxy    dyz    dz2    dxz  x2-y2    tot
    1  0.000  0.000  0.000  0.000  0.000  0.332  0.000  0.111  0.000  0.442
    2  0.000  0.000  0.000  0.000  0.000  0.332  0.000  0.111  0.000  0.442
tot    0.000  0.000  0.000  0.000  0.000  0.664  0.000  0.221  0.000  0.885
 
band    16 # energy    9.88135401 # occ.  2.00000000
 
ion      s     py     pz     px    dxy    dyz    dz2    dxz  x2-y2    tot
    1  0.000  0.000  0.081  0.000  0.000  0.000  0.000  0.000  0.000  0.081
    2  0.000  0.000  0.081  0.000  0.000  0.000  0.000  0.000  0.000  0.081
tot    0.000  0.000  0.161  0.000  0.000  0.000  0.000  0.000  0.000  0.161
 
band    17 # energy   10.20748977 # occ.  1.99999991
 
ion      s     py     pz     px    dxy    dyz    dz2    dxz  x2-y2    tot
    1  0.000  0.000  0.000  0.000  0.000  0.116  0.000  0.348  0.000  0.464
    2  0.000  0.000  0.000  0.000  0.000  0.116  0.000  0.348  0.000  0.464
tot    0.000  0.000  0.000  0.000  0.000  0.232  0.000  0.696  0.000  0.928
 
band    18 # energy   10.20749006 # occ.  1.99999991
 
ion      s     py     pz     px    dxy    dyz    dz2    dxz  x2-y2    tot
    1  0.000  0.000  0.000  0.000  0.000  0.348  0.000  0.116  0.000  0.464
    2  0.000  0.000  0.000  0.000  0.000  0.348  0.000  0.116  0.000  0.464
tot    0.000  0.000  0.000  0.000  0.000  0.696  0.000  0.232  0.000  0.928
 
band    19 # energy   14.85503823 # occ.  0.00000000
 
ion      s     py     pz     px    dxy    dyz    dz2    dxz  x2-y2    tot
    1  0.173  0.000  0.000  0.000  0.000  0.000  0.226  0.000  0.000  0.399
    2  0.173  0.000  0.000  0.000  0.000  0.000  0.226  0.000  0.000  0.399
tot    0.346  0.000  0.000  0.000  0.000  0.000  0.452  0.000  0.000  0.798
 
band    20 # energy   25.54230157 # occ.  0.00000000
 
ion      s     py     pz     px    dxy    dyz    dz2    dxz  x2-y2    tot
    1  0.003  0.000  0.000  0.000  0.000  0.000  0.002  0.000  0.000  0.005
    2  0.003  0.000  0.000  0.000  0.000  0.000  0.002  0.000  0.000  0.005
tot    0.006  0.000  0.000  0.000  0.000  0.000  0.004  0.000  0.000  0.011
 
band    21 # energy   26.10252304 # occ.  0.00000000
 
ion      s     py     pz     px    dxy    dyz    dz2    dxz  x2-y2    tot
    1  0.000  0.000  0.021  0.000  0.000  0.000  0.000  0.000  0.000  0.021
    2  0.000  0.000  0.021  0.000  0.000  0.000  0.000  0.000  0.000  0.021
tot    0.000  0.000  0.043  0.000  0.000  0.000  0.000  0.000  0.000  0.043
 
band    22 # energy   27.63393718 # occ.  0.00000000
 
ion      s     py     pz     px    dxy    dyz    dz2    dxz  x2-y2    tot
    1  0.000  0.000  0.000  0.000  0.000  0.000  0.016  0.000  0.000  0.017
    2  0.000  0.000  0.000  0.000  0.000  0.000  0.016  0.000  0.000  0.017
tot    0.001  0.000  0.000  0.000  0.000  0.000  0.032  0.000  0.000  0.033
 
band    23 # energy   30.98889934 # occ.  0.00000000
 
ion      s     py     pz     px    dxy    dyz    dz2    dxz  x2-y2    tot
    1  0.000  0.032  0.000  0.093  0.015  0.000  0.000  0.000  0.005  0.145
    2  0.000  0.032  0.000  0.093  0.015  0.000  0.000  0.000  0.005  0.145
tot    0.000  0.064  0.000  0.186  0.029  0.000  0.000  0.000  0.010  0.290
 
band    24 # energy   30.98889955 # occ.  0.00000000
 
ion      s     py     pz     px    dxy    dyz    dz2    dxz  x2-y2    tot
    1  0.000  0.093  0.000  0.032  0.005  0.000  0.000  0.000  0.015  0.145
    2  0.000  0.093  0.000  0.032  0.005  0.000  0.000  0.000  0.015  0.145
tot    0.000  0.186  0.000  0.064  0.010  0.000  0.000  0.000  0.029  0.290
 

 k-point     2 :    0.10000000 0.00000000 0.00000000     weight = 0.00750000

band     1 # energy  -42.03131381 # occ.  2.00000000
 
ion      s     py     pz     px    dxy    dyz    dz2    dxz  x2-y2    tot
    1  0.000  0.000  0.492  0.000  0.000  0.000  0.000  0.000  0.000  0.492
    2  0.000  0.000  0.492  0.000  0.000  0.000  0.000  0.000  0.000  0.492
tot    0.000  0.000  0.985  0.000  0.000  0.000  0.000  0.000  0.000  0.985
 
band     2 # energy  -41.94515731 # occ.  2.00000000
 
ion      s     py     pz     px    dxy    dyz    dz2    dxz  x2-y2    tot
    1  0.000  0.124  0.000  0.373  0.000  0.000  0.000  0.000  0.000  0.497
    2  0.000  0.124  0.000  0.373  0.000  0.000  0.000  0.000  0.000  0.497
tot    0.000  0.248  0.000  0.745  0.000  0.000  0.000  0.000  0.000  0.994
 
band     3 # energy  -41.92372896 # occ.  2.00000000
 
ion      s     py     pz     px    dxy    dyz    dz2    dxz  x2-y2    tot
    1  0.000  0.373  0.000  0.124  0.000  0.000  0.000  0.000  0.000  0.497
    2  0.000  0.373  0.000  0.124  0.000  0.000  0.000  0.000  0.000  0.497
tot    0.000  0.746  0.000  0.249  0.000  0.000  0.000  0.000  0.000  0.995
 
band     4 # energy  -41.91125181 # occ.  2.00000000
 
ion      s     py     pz     px    dxy    dyz    dz2    dxz  x2-y2    tot
    1  0.000  0.124  0.000  0.373  0.000  0.000  0.000  0.000  0.000  0.498
    2  0.000  0.124  0.000  0.373  0.000  0.000  0.000  0.000  0.000  0.498
tot    0.000  0.249  0.000  0.746  0.000  0.000  0.000  0.000  0.000  0.995
 
band     5 # energy  -41.88587661 # occ.  2.00000000
 
ion      s     py     pz     px    dxy    dyz    dz2    dxz  x2-y2    tot
    1  0.000  0.373  0.000  0.124  0.000  0.000  0.000  0.000  0.000  0.498
    2  0.000  0.374  0.000  0.124  0.000  0.000  0.000  0.000  0.000  0.498
tot    0.000  0.747  0.000  0.249  0.000  0.000  0.000  0.000  0.000  0.996
 
band     6 # energy  -41.76025881 # occ.  2.00000000
 
ion      s     py     pz     px    dxy    dyz    dz2    dxz  x2-y2    tot
    1  0.000  0.000  0.497  0.000  0.000  0.000  0.000  0.000  0.000  0.497
    2  0.000  0.000  0.497  0.000  0.000  0.000  0.000  0.000  0.000  0.497
tot    0.000  0.000  0.995  0.000  0.000  0.000  0.000  0.000  0.000  0.995
 
band     7 # energy    1.45731003 # occ.  2.00000000
 
ion      s     py     pz     px    dxy    dyz    dz2    dxz  x2-y2    tot
    1  0.183  0.001  0.000  0.002  0.000  0.000  0.000  0.000  0.000  0.185
    2  0.183  0.001  0.000  0.002  0.000  0.000  0.000  0.000  0.000  0.185
tot    0.365  0.001  0.000  0.003  0.001  0.000  0.000  0.000  0.000  0.370
 
band     8 # energy    4.03751016 # occ.  2.00000000
 
ion      s     py     pz     px    dxy    dyz    dz2    dxz  x2-y2    tot
    1  0.072  0.000  0.000  0.001  0.002  0.000  0.233  0.000  0.001  0.310
    2  0.072  0.000  0.000  0.001  0.002  0.000  0.233  0.000  0.001  0.310
tot    0.144  0.001  0.000  0.003  0.003  0.000  0.467  0.000  0.001  0.619
 
band     9 # energy    6.67005107 # occ.  2.00000000
 
ion      s     py     pz     px    dxy    dyz    dz2    dxz  x2-y2    tot
    1  0.000  0.000  0.000  0.000  0.116  0.000  0.252  0.000  0.039  0.407
    2  0.000  0.000  0.000  0.000  0.116  0.000  0.252  0.000  0.039  0.407
tot    0.000  0.000  0.000  0.001  0.232  0.000  0.503  0.000  0.077  0.814
 
band    10 # energy    7.21232249 # occ.  2.00000000
 
ion      s     py     pz     px    dxy    dyz    dz2    dxz  x2-y2    tot
    1  0.000  0.000  0.000  0.000  0.211  0.000  0.137  0.000  0.070  0.418
    2  0.000  0.000  0.000  0.000  0.211  0.000  0.137  0.000  0.070  0.418
tot    0.000  0.000  0.000  0.001  0.421  0.000  0.273  0.000  0.140  0.835
 
band    11 # energy    7.40440710 # occ.  2.00000000
 
ion      s     py     pz     px    dxy    dyz    dz2    dxz  x2-y2    tot
    1  0.002  0.000  0.000  0.000  0.297  0.000  0.026  0.000  0.099  0.423
    2  0.002  0.000  0.000  0.000  0.297  0.000  0.026  0.000  0.099  0.423
tot    0.003  0.000  0.000  0.001  0.593  0.000  0.051  0.000  0.198  0.846
 
band    12 # energy    7.45813887 # occ.  2.00000000
 
ion      s     py     pz     px    dxy    dyz    dz2    dxz  x2-y2    tot
    1  0.000  0.000  0.000  0.000  0.105  0.000  0.000  0.000  0.316  0.422
    2  0.000  0.000  0.000  0.000  0.105  0.000  0.000  0.000  0.316  0.422
tot    0.000  0.001  0.000  0.000  0.211  0.000  0.000  0.000  0.633  0.844
 
band    13 # energy    7.78755805 # occ.  2.00000000
 
ion      s     py     pz     px    dxy    dyz    dz2    dxz  x2-y2    tot
    1  0.000  0.000  0.000  0.000  0.108  0.000  0.000  0.000  0.323  0.432
    2  0.000  0.000  0.000  0.000  0.108  0.000  0.000  0.000  0.323  0.432
tot    0.000  0.001  0.000  0.000  0.216  0.000  0.000  0.000  0.647  0.863
 
band    14 # energy    8.20602077 # occ.  2.00000000
 
ion      s     py     pz     px    dxy    dyz    dz2    dxz  x2-y2    tot
    1  0.000  0.000  0.016  0.000  0.000  0.083  0.000  0.250  0.000  0.350
    2  0.000  0.000  0.016  0.000  0.000  0.083  0.000  0.250  0.000  0.350
tot    0.000  0.000  0.033  0.000  0.000  0.167  0.000  0.500  0.000  0.699
 
band    15 # energy    8.56569730 # occ.  2.00000000
 
ion      s     py     pz     px    dxy    dyz    dz2    dxz  x2-y2    tot
    1  0.000  0.000  0.000  0.000  0.000  0.328  0.000  0.109  0.000  0.438
    2  0.000  0.000  0.000  0.000  0.000  0.328  0.000  0.109  0.000  0.438
tot    0.000  0.000  0.000  0.000  0.000  0.657  0.000  0.219  0.000  0.876
 
band    16 # energy    8.73140849 # occ.  2.00000000
 
ion      s     py     pz     px    dxy    dyz    dz2    dxz  x2-y2    tot
    1  0.000  0.000  0.019  0.000  0.000  0.083  0.000  0.250  0.000  0.352
    2  0.000  0.000  0.019  0.000  0.000  0.083  0.000  0.250  0.000  0.352
tot    0.000  0.000  0.038  0.000  0.000  0.167  0.000  0.500  0.000  0.704
 
band    17 # energy   10.26453898 # occ.  1.99980314
 
ion      s     py     pz     px    dxy    dyz    dz2    dxz  x2-y2    tot
    1  0.000  0.000  0.000  0.000  0.000  0.350  0.000  0.117  0.000  0.466
    2  0.000  0.000  0.000  0.000  0.000  0.350  0.000  0.117  0.000  0.466
tot    0.000  0.000  0.000  0.000  0.000  0.699  0.000  0.233  0.000  0.932
 
band    18 # energy   11.95888997 # occ.  0.00000000
 
ion      s     py     pz     px    dxy    dyz    dz2    dxz  x2-y2    tot
    1  0.000  0.000  0.046  0.000  0.000  0.058  0.000  0.174  0.000  0.278
    2  0.000  0.000  0.046  0.000  0.000  0.058  0.000  0.174  0.000  0.278
tot    0.000  0.000  0.092  0.000  0.000  0.116  0.000  0.348  0.000  0.557
 
band    19 # energy   14.82469618 # occ.  0.00000000
 
ion      s     py     pz     px    dxy    dyz    dz2    dxz  x2-y2    tot
    1  0.174  0.000  0.000  0.001  0.001  0.000  0.217  0.000  0.000  0.394
    2  0.174  0.000  0.000  0.001  0.001  0.000  0.217  0.000  0.000  0.394
tot    0.348  0.000  0.000  0.001  0.003  0.000  0.435  0.000  0.001  0.788
 
band    20 # energy   25.89819290 # occ.  0.00000000
 
ion      s     py     pz     px    dxy    dyz    dz2    dxz  x2-y2    tot
    1  0.005  0.001  0.000  0.004  0.018  0.000  0.003  0.000  0.006  0.038
    2  0.005  0.001  0.000  0.004  0.018  0.000  0.003  0.000  0.006  0.038
tot    0.011  0.003  0.000  0.008  0.037  0.000  0.006  0.000  0.012  0.075
 
band    21 # energy   26.60763172 # occ.  0.00000000
 
ion      s     py     pz     px    dxy    dyz    dz2    dxz  x2-y2    tot
    1  0.000  0.000  0.019  0.000  0.000  0.002  0.000  0.005  0.000  0.026
    2  0.000  0.000  0.019  0.000  0.000  0.002  0.000  0.005  0.000  0.026
tot    0.000  0.000  0.037  0.000  0.000  0.003  0.000  0.010  0.000  0.051
 
band    22 # energy   27.83015464 # occ.  0.00000000
 
ion      s     py     pz     px    dxy    dyz    dz2    dxz  x2-y2    tot
    1  0.004  0.006  0.000  0.017  0.018  0.000  0.023  0.000  0.006  0.073
    2  0.004  0.006  0.000  0.017  0.018  0.000  0.023  0.000  0.006  0.073
tot    0.008  0.011  0.000  0.034  0.035  0.000  0.047  0.000  0.012  0.147
 
band    23 # energy   29.50121326 # occ.  0.00000000
 
ion      s     py     pz     px    dxy    dyz    dz2    dxz  x2-y2    tot
    1  0.006  0.021  0.000  0.062  0.008  0.000  0.001  0.000  0.003  0.100
    2  0.006  0.021  0.000  0.062  0.008  0.000  0.001  0.000  0.003  0.100
tot    0.011  0.042  0.000  0.125  0.016  0.000  0.001  0.000  0.005  0.200
 
band    24 # energy   29.51123791 # occ.  0.00000000
 
ion      s     py     pz     px    dxy    dyz    dz2    dxz  x2-y2    tot
    1  0.000  0.084  0.000  0.028  0.009  0.000  0.000  0.000  0.027  0.148
    2  0.000  0.084  0.000  0.028  0.009  0.000  0.000  0.000  0.027  0.148
tot    0.000  0.168  0.000  0.056  0.018  0.000  0.000  0.000  0.055  0.297
 

 k-point     3 :    0.20000000 0.00000000 0.00000000     weight = 0.00750000

band     1 # energy  -42.02610118 # occ.  2.00000000
 
ion      s     py     pz     px    dxy    dyz    dz2    dxz  x2-y2    tot
    1  0.000  0.124  0.000  0.372  0.000  0.000  0.000  0.000  0.000  0.496
    2  0.000  0.124  0.000  0.372  0.000  0.000  0.000  0.000  0.000  0.496
tot    0.000  0.248  0.000  0.743  0.000  0.000  0.000  0.000  0.000  0.991
 
band     2 # energy  -42.00367333 # occ.  2.00000000
 
ion      s     py     pz     px    dxy    dyz    dz2    dxz  x2-y2    tot
    1  0.000  0.000  0.493  0.000  0.000  0.000  0.000  0.000  0.000  0.493
    2  0.000  0.000  0.493  0.000  0.000  0.000  0.000  0.000  0.000  0.493
tot    0.000  0.000  0.986  0.000  0.000  0.000  0.000  0.000  0.000  0.986
 
band     3 # energy  -41.99273726 # occ.  2.00000000
 
ion      s     py     pz     px    dxy    dyz    dz2    dxz  x2-y2    tot
    1  0.000  0.124  0.000  0.372  0.000  0.000  0.000  0.000  0.000  0.496
    2  0.000  0.124  0.000  0.372  0.000  0.000  0.000  0.000  0.000  0.496
tot    0.000  0.248  0.000  0.744  0.000  0.000  0.000  0.000  0.000  0.992
 
band     4 # energy  -41.94664566 # occ.  2.00000000
 
ion      s     py     pz     px    dxy    dyz    dz2    dxz  x2-y2    tot
    1  0.000  0.373  0.000  0.124  0.000  0.000  0.000  0.000  0.000  0.497
    2  0.000  0.373  0.000  0.124  0.000  0.000  0.000  0.000  0.000  0.497
tot    0.000  0.745  0.000  0.248  0.000  0.000  0.000  0.000  0.000  0.994
 
band     5 # energy  -41.90329347 # occ.  2.00000000
 
ion      s     py     pz     px    dxy    dyz    dz2    dxz  x2-y2    tot
    1  0.000  0.373  0.000  0.124  0.000  0.000  0.000  0.000  0.000  0.498
    2  0.000  0.373  0.000  0.124  0.000  0.000  0.000  0.000  0.000  0.498
tot    0.000  0.747  0.000  0.249  0.000  0.000  0.000  0.000  0.000  0.995
 
band     6 # energy  -41.76813424 # occ.  2.00000000
 
ion      s     py     pz     px    dxy    dyz    dz2    dxz  x2-y2    tot
    1  0.000  0.000  0.497  0.000  0.000  0.000  0.000  0.000  0.000  0.497
    2  0.000  0.000  0.497  0.000  0.000  0.000  0.000  0.000  0.000  0.497
tot    0.000  0.000  0.994  0.000  0.000  0.000  0.000  0.000  0.000  0.994
 
band     7 # energy    2.40817315 # occ.  2.00000000
 
ion      s     py     pz     px    dxy    dyz    dz2    dxz  x2-y2    tot
    1  0.170  0.002  0.000  0.006  0.006  0.000  0.001  0.000  0.002  0.185
    2  0.170  0.002  0.000  0.006  0.006  0.000  0.001  0.000  0.002  0.185
tot    0.339  0.004  0.000  0.011  0.012  0.000  0.001  0.000  0.004  0.371
 
band     8 # energy    4.73062491 # occ.  2.00000000
 
ion      s     py     pz     px    dxy    dyz    dz2    dxz  x2-y2    tot
    1  0.049  0.001  0.000  0.004  0.038  0.000  0.220  0.000  0.013  0.324
    2  0.049  0.001  0.000  0.004  0.038  0.000  0.220  0.000  0.013  0.324
tot    0.098  0.002  0.000  0.007  0.076  0.000  0.440  0.000  0.025  0.649
 
band     9 # energy    6.45490653 # occ.  2.00000000
 
ion      s     py     pz     px    dxy    dyz    dz2    dxz  x2-y2    tot
    1  0.003  0.001  0.000  0.003  0.187  0.000  0.127  0.000  0.062  0.383
    2  0.003  0.001  0.000  0.003  0.187  0.000  0.127  0.000  0.062  0.383
tot    0.006  0.002  0.000  0.006  0.373  0.000  0.254  0.000  0.124  0.766
 
band    10 # energy    6.92509426 # occ.  2.00000000
 
ion      s     py     pz     px    dxy    dyz    dz2    dxz  x2-y2    tot
    1  0.000  0.000  0.016  0.000  0.000  0.076  0.000  0.228  0.000  0.321
    2  0.000  0.000  0.016  0.000  0.000  0.076  0.000  0.228  0.000  0.321
tot    0.000  0.000  0.033  0.000  0.000  0.152  0.000  0.456  0.000  0.641
 
band    11 # energy    6.94775685 # occ.  2.00000000
 
ion      s     py     pz     px    dxy    dyz    dz2    dxz  x2-y2    tot
    1  0.005  0.000  0.000  0.001  0.257  0.000  0.055  0.000  0.086  0.404
    2  0.005  0.000  0.000  0.001  0.257  0.000  0.055  0.000  0.086  0.404
tot    0.010  0.001  0.000  0.002  0.515  0.000  0.109  0.000  0.172  0.808
 
band    12 # energy    7.79640130 # occ.  2.00000000
 
ion      s     py     pz     px    dxy    dyz    dz2    dxz  x2-y2    tot
    1  0.003  0.000  0.000  0.001  0.109  0.000  0.268  0.000  0.036  0.419
    2  0.003  0.000  0.000  0.001  0.109  0.000  0.268  0.000  0.036  0.419
tot    0.007  0.001  0.000  0.003  0.219  0.000  0.536  0.000  0.073  0.838
 
band    13 # energy    8.19177434 # occ.  2.00000000
 
ion      s     py     pz     px    dxy    dyz    dz2    dxz  x2-y2    tot
    1  0.000  0.001  0.000  0.000  0.107  0.000  0.000  0.000  0.321  0.429
    2  0.000  0.001  0.000  0.000  0.107  0.000  0.000  0.000  0.321  0.429
tot    0.000  0.002  0.000  0.001  0.214  0.000  0.000  0.000  0.642  0.858
 
band    14 # energy    8.21344275 # occ.  2.00000000
 
ion      s     py     pz     px    dxy    dyz    dz2    dxz  x2-y2    tot
    1  0.000  0.000  0.000  0.000  0.000  0.322  0.000  0.107  0.000  0.430
    2  0.000  0.000  0.000  0.000  0.000  0.322  0.000  0.107  0.000  0.430
tot    0.000  0.000  0.000  0.000  0.000  0.644  0.000  0.215  0.000  0.859
 
band    15 # energy    8.24075567 # occ.  2.00000000
 
ion      s     py     pz     px    dxy    dyz    dz2    dxz  x2-y2    tot
    1  0.000  0.000  0.009  0.000  0.000  0.095  0.000  0.286  0.000  0.390
    2  0.000  0.000  0.009  0.000  0.000  0.095  0.000  0.286  0.000  0.390
tot    0.000  0.000  0.017  0.000  0.000  0.191  0.000  0.571  0.000  0.779
 
band    16 # energy    8.47840726 # occ.  2.00000000
 
ion      s     py     pz     px    dxy    dyz    dz2    dxz  x2-y2    tot
    1  0.000  0.001  0.000  0.000  0.109  0.000  0.000  0.000  0.328  0.438
    2  0.000  0.001  0.000  0.000  0.109  0.000  0.000  0.000  0.328  0.438
tot    0.000  0.002  0.000  0.001  0.218  0.000  0.000  0.000  0.655  0.876
 
band    17 # energy   10.35622161 # occ.  1.74145655
 
ion      s     py     pz     px    dxy    dyz    dz2    dxz  x2-y2    tot
    1  0.000  0.000  0.000  0.000  0.000  0.352  0.000  0.117  0.000  0.470
    2  0.000  0.000  0.000  0.000  0.000  0.352  0.000  0.117  0.000  0.470
tot    0.000  0.000  0.000  0.000  0.000  0.705  0.000  0.235  0.000  0.940
 
band    18 # energy   14.05265444 # occ.  0.00000000
 
ion      s     py     pz     px    dxy    dyz    dz2    dxz  x2-y2    tot
    1  0.000  0.000  0.058  0.000  0.000  0.049  0.000  0.147  0.000  0.254
    2  0.000  0.000  0.058  0.000  0.000  0.049  0.000  0.147  0.000  0.254
tot    0.000  0.000  0.117  0.000  0.000  0.098  0.000  0.293  0.000  0.508
 
band    19 # energy   14.77579302 # occ.  0.00000000
 
ion      s     py     pz     px    dxy    dyz    dz2    dxz  x2-y2    tot
    1  0.178  0.001  0.000  0.003  0.005  0.000  0.187  0.000  0.002  0.376
    2  0.178  0.001  0.000  0.003  0.005  0.000  0.187  0.000  0.002  0.376
tot    0.356  0.002  0.000  0.006  0.010  0.000  0.374  0.000  0.003  0.752
 
band    20 # energy   24.10145860 # occ.  0.00000000
 
ion      s     py     pz     px    dxy    dyz    dz2    dxz  x2-y2    tot
    1  0.027  0.017  0.000  0.050  0.050  0.000  0.026  0.000  0.017  0.186
    2  0.027  0.017  0.000  0.050  0.050  0.000  0.026  0.000  0.017  0.186
tot    0.054  0.033  0.000  0.099  0.100  0.000  0.052  0.000  0.033  0.372
 
band    21 # energy   27.14253236 # occ.  0.00000000
 
ion      s     py     pz     px    dxy    dyz    dz2    dxz  x2-y2    tot
    1  0.000  0.079  0.000  0.026  0.011  0.000  0.000  0.000  0.032  0.148
    2  0.000  0.079  0.000  0.026  0.011  0.000  0.000  0.000  0.032  0.148
tot    0.000  0.158  0.000  0.053  0.021  0.000  0.000  0.000  0.063  0.295
 
band    22 # energy   27.20273411 # occ.  0.00000000
 
ion      s     py     pz     px    dxy    dyz    dz2    dxz  x2-y2    tot
    1  0.000  0.000  0.011  0.000  0.000  0.003  0.000  0.008  0.000  0.021
    2  0.000  0.000  0.011  0.000  0.000  0.003  0.000  0.008  0.000  0.021
tot    0.000  0.000  0.023  0.000  0.000  0.005  0.000  0.015  0.000  0.043
 
band    23 # energy   28.19060830 # occ.  0.00000000
 
ion      s     py     pz     px    dxy    dyz    dz2    dxz  x2-y2    tot
    1  0.005  0.003  0.000  0.010  0.034  0.000  0.016  0.000  0.011  0.080
    2  0.005  0.003  0.000  0.010  0.034  0.000  0.016  0.000  0.011  0.080
tot    0.010  0.007  0.000  0.021  0.068  0.000  0.032  0.000  0.023  0.160
 
band    24 # energy   28.42926915 # occ.  0.00000000
 
ion      s     py     pz     px    dxy    dyz    dz2    dxz  x2-y2    tot
    1  0.000  0.000  0.003  0.000  0.000  0.016  0.000  0.047  0.000  0.065
    2  0.000  0.000  0.003  0.000  0.000  0.016  0.000  0.047  0.000  0.065
tot    0.000  0.000  0.006  0.000  0.000  0.031  0.000  0.093  0.000  0.131
 

 k-point     4 :    0.30000000-0.00000000 0.00000000     weight = 0.00750000

band     1 # energy  -42.12625161 # occ.  2.00000000
 
ion      s     py     pz     px    dxy    dyz    dz2    dxz  x2-y2    tot
    1  0.000  0.123  0.000  0.370  0.000  0.000  0.000  0.000  0.000  0.494
    2  0.000  0.123  0.000  0.370  0.000  0.000  0.000  0.000  0.000  0.494
tot    0.000  0.247  0.000  0.741  0.000  0.000  0.000  0.000  0.000  0.988
 
band     2 # energy  -42.09203419 # occ.  2.00000000
 
ion      s     py     pz     px    dxy    dyz    dz2    dxz  x2-y2    tot
    1  0.000  0.124  0.000  0.371  0.000  0.000  0.000  0.000  0.000  0.495
    2  0.000  0.124  0.000  0.371  0.000  0.000  0.000  0.000  0.000  0.495
tot    0.000  0.247  0.000  0.742  0.000  0.000  0.000  0.000  0.000  0.989
 
band     3 # energy  -41.97441346 # occ.  2.00000000
 
ion      s     py     pz     px    dxy    dyz    dz2    dxz  x2-y2    tot
    1  0.000  0.372  0.000  0.124  0.000  0.000  0.000  0.000  0.000  0.497
    2  0.000  0.372  0.000  0.124  0.000  0.000  0.000  0.000  0.000  0.497
tot    0.000  0.745  0.000  0.248  0.000  0.000  0.000  0.000  0.000  0.993
 
band     4 # energy  -41.96424722 # occ.  2.00000000
 
ion      s     py     pz     px    dxy    dyz    dz2    dxz  x2-y2    tot
    1  0.000  0.000  0.494  0.000  0.000  0.000  0.000  0.000  0.000  0.494
    2  0.000  0.000  0.494  0.000  0.000  0.000  0.000  0.000  0.000  0.494
tot    0.000  0.000  0.987  0.000  0.000  0.000  0.000  0.000  0.000  0.987
 
band     5 # energy  -41.92503784 # occ.  2.00000000
 
ion      s     py     pz     px    dxy    dyz    dz2    dxz  x2-y2    tot
    1  0.000  0.373  0.000  0.124  0.000  0.000  0.000  0.000  0.000  0.497
    2  0.000  0.373  0.000  0.124  0.000  0.000  0.000  0.000  0.000  0.497
tot    0.000  0.746  0.000  0.249  0.000  0.000  0.000  0.000  0.000  0.995
 
band     6 # energy  -41.78197180 # occ.  2.00000000
 
ion      s     py     pz     px    dxy    dyz    dz2    dxz  x2-y2    tot
    1  0.000  0.000  0.497  0.000  0.000  0.000  0.000  0.000  0.000  0.497
    2  0.000  0.000  0.497  0.000  0.000  0.000  0.000  0.000  0.000  0.497
tot    0.000  0.000  0.994  0.000  0.000  0.000  0.000  0.000  0.000  0.994
 
band     7 # energy    3.58740063 # occ.  2.00000000
 
ion      s     py     pz     px    dxy    dyz    dz2    dxz  x2-y2    tot
    1  0.135  0.003  0.000  0.008  0.046  0.000  0.006  0.000  0.015  0.213
    2  0.135  0.003  0.000  0.008  0.046  0.000  0.006  0.000  0.015  0.213
tot    0.270  0.005  0.000  0.016  0.093  0.000  0.011  0.000  0.031  0.425
 
band     8 # energy    4.86858061 # occ.  2.00000000
 
ion      s     py     pz     px    dxy    dyz    dz2    dxz  x2-y2    tot
    1  0.020  0.000  0.000  0.001  0.161  0.000  0.119  0.000  0.054  0.355
    2  0.020  0.000  0.000  0.001  0.161  0.000  0.119  0.000  0.054  0.355
tot    0.040  0.001  0.000  0.002  0.322  0.000  0.239  0.000  0.107  0.710
 
band     9 # energy    5.92966365 # occ.  2.00000000
 
ion      s     py     pz     px    dxy    dyz    dz2    dxz  x2-y2    tot
    1  0.000  0.000  0.010  0.000  0.000  0.080  0.000  0.239  0.000  0.328
    2  0.000  0.000  0.010  0.000  0.000  0.080  0.000  0.239  0.000  0.328
tot    0.000  0.000  0.020  0.000  0.000  0.159  0.000  0.478  0.000  0.657
 
band    10 # energy    6.70338503 # occ.  2.00000000
 
ion      s     py     pz     px    dxy    dyz    dz2    dxz  x2-y2    tot
    1  0.012  0.003  0.000  0.008  0.210  0.000  0.045  0.000  0.070  0.348
    2  0.012  0.003  0.000  0.008  0.210  0.000  0.045  0.000  0.070  0.348
tot    0.024  0.006  0.000  0.017  0.419  0.000  0.090  0.000  0.140  0.696
 
band    11 # energy    7.03535094 # occ.  2.00000000
 
ion      s     py     pz     px    dxy    dyz    dz2    dxz  x2-y2    tot