<?xml version="1.0" encoding="ISO-8859-1"?>
<modeling>
 <generator>
  <i name="program" type="string">vasp </i>
  <i name="version" type="string">6.3.2  </i>
  <i name="subversion" type="string">27Jun22 (build Aug 12 2022 00:53:59) complex                          parallel </i>
  <i name="platform" type="string">tv2STD </i>
  <i name="date" type="string">2024 11 30 </i>
  <i name="time" type="string">17:16:08 </i>
 </generator>
 <incar>
  <i type="string" name="SYSTEM">Pt-hcc</i>
  <i type="int" name="ISTART">     0</i>
  <i type="string" name="PREC">Accurate      normal | accurate</i>
  <i type="string" name="ALGO">Normal     Normal, Fast, Very_Fast</i>
  <i type="logical" name="ADDGRID"> F  </i>
  <i type="int" name="ICHARG">     2</i>
  <i type="int" name="INIWAV">     1</i>
  <i type="int" name="NELM">   100</i>
  <i type="int" name="IBRION">     2</i>
  <i name="EDIFF">      0.00000100</i>
  <i name="EDIFFG">     -0.02000000</i>
  <i type="int" name="NSW">   100</i>
  <i type="int" name="ISIF">     2</i>
  <i type="int" name="ISYM">     1</i>
  <i name="ENCUT">    450.00000000</i>
  <i type="logical" name="LREAL"> F  </i>
  <i type="int" name="ISMEAR">     0</i>
  <i name="SIGMA">      0.05000000</i>
  <i type="int" name="NWRITE">     2</i>
  <i type="logical" name="LWAVE"> T  </i>
  <i type="logical" name="LCHARG"> T  </i>
  <i type="int" name="LORBIT">    11</i>
 </incar>
 <primitive_cell>
  <structure name="primitive_cell" >
   <crystal>
    <varray name="basis" >
     <v>       2.79811084       0.00000000       0.00000000 </v>
     <v>      -1.39905542       2.42323507       0.00000000 </v>
     <v>       0.00000000       0.00000000       4.84766181 </v>
    </varray>
    <i name="volume">     32.86947539 </i>
    <varray name="rec_basis" >
     <v>       0.35738398       0.20633574       0.00000000 </v>
     <v>       0.00000000       0.41267148       0.00000000 </v>
     <v>       0.00000000       0.00000000       0.20628502 </v>
    </varray>
   </crystal>
   <varray name="positions" >
    <v>       0.00000000       0.00000000       0.00000000 </v>
    <v>       0.33333333       0.66666667       0.50000000 </v>
   </varray>
  </structure>
  <varray name="primitive_index" >
   <v type="int" >        1 </v>
   <v type="int" >        2 </v>
  </varray>
 </primitive_cell>
 <kpoints>
  <generation param="Gamma">
   <v type="int" name="divisions">      10       10        8 </v>
   <v name="usershift">      0.00000000       0.00000000       0.00000000 </v>
   <v name="genvec1">      0.10000000       0.00000000       0.00000000 </v>
   <v name="genvec2">      0.00000000       0.10000000       0.00000000 </v>
   <v name="genvec3">      0.00000000       0.00000000       0.12500000 </v>
   <v name="shift">      0.00000000       0.00000000       0.00000000 </v>
  </generation>
  <varray name="kpointlist" >
   <v>       0.00000000       0.00000000       0.00000000 </v>
   <v>       0.10000000       0.00000000       0.00000000 </v>
   <v>       0.20000000       0.00000000       0.00000000 </v>
   <v>       0.30000000      -0.00000000       0.00000000 </v>
   <v>       0.40000000      -0.00000000       0.00000000 </v>
   <v>       0.50000000       0.00000000       0.00000000 </v>
   <v>       0.10000000       0.10000000       0.00000000 </v>
   <v>       0.20000000       0.10000000       0.00000000 </v>
   <v>       0.30000000       0.10000000       0.00000000 </v>
   <v>       0.40000000       0.10000000       0.00000000 </v>
   <v>       0.20000000       0.20000000       0.00000000 </v>
   <v>       0.30000000       0.20000000       0.00000000 </v>
   <v>       0.40000000       0.20000000       0.00000000 </v>
   <v>       0.30000000       0.30000000       0.00000000 </v>
   <v>       0.00000000       0.00000000       0.12500000 </v>
   <v>       0.10000000       0.00000000       0.12500000 </v>
   <v>       0.20000000       0.00000000       0.12500000 </v>
   <v>       0.30000000      -0.00000000       0.12500000 </v>
   <v>       0.40000000      -0.00000000       0.12500000 </v>
   <v>       0.50000000       0.00000000       0.12500000 </v>
   <v>       0.10000000       0.10000000       0.12500000 </v>
   <v>       0.20000000       0.10000000       0.12500000 </v>
   <v>       0.30000000       0.10000000       0.12500000 </v>
   <v>       0.40000000       0.10000000       0.12500000 </v>
   <v>       0.20000000       0.20000000       0.12500000 </v>
   <v>       0.30000000       0.20000000       0.12500000 </v>
   <v>       0.40000000       0.20000000       0.12500000 </v>
   <v>       0.30000000       0.30000000       0.12500000 </v>
   <v>       0.00000000       0.00000000       0.25000000 </v>
   <v>       0.10000000       0.00000000       0.25000000 </v>
   <v>       0.20000000       0.00000000       0.25000000 </v>
   <v>       0.30000000      -0.00000000       0.25000000 </v>
   <v>       0.40000000      -0.00000000       0.25000000 </v>
   <v>       0.50000000       0.00000000       0.25000000 </v>
   <v>       0.10000000       0.10000000       0.25000000 </v>
   <v>       0.20000000       0.10000000       0.25000000 </v>
   <v>       0.30000000       0.10000000       0.25000000 </v>
   <v>       0.40000000       0.10000000       0.25000000 </v>
   <v>       0.20000000       0.20000000       0.25000000 </v>
   <v>       0.30000000       0.20000000       0.25000000 </v>
   <v>       0.40000000       0.20000000       0.25000000 </v>
   <v>       0.30000000       0.30000000       0.25000000 </v>
   <v>       0.00000000       0.00000000       0.37500000 </v>
   <v>       0.10000000       0.00000000       0.37500000 </v>
   <v>       0.20000000       0.00000000       0.37500000 </v>
   <v>       0.30000000      -0.00000000       0.37500000 </v>
   <v>       0.40000000      -0.00000000       0.37500000 </v>
   <v>       0.50000000       0.00000000       0.37500000 </v>
   <v>       0.10000000       0.10000000       0.37500000 </v>
   <v>       0.20000000       0.10000000       0.37500000 </v>
   <v>       0.30000000       0.10000000       0.37500000 </v>
   <v>       0.40000000       0.10000000       0.37500000 </v>
   <v>       0.20000000       0.20000000       0.37500000 </v>
   <v>       0.30000000       0.20000000       0.37500000 </v>
   <v>       0.40000000       0.20000000       0.37500000 </v>
   <v>       0.30000000       0.30000000       0.37500000 </v>
   <v>       0.00000000       0.00000000       0.50000000 </v>
   <v>       0.10000000       0.00000000       0.50000000 </v>
   <v>       0.20000000       0.00000000       0.50000000 </v>
   <v>       0.30000000      -0.00000000       0.50000000 </v>
   <v>       0.40000000      -0.00000000       0.50000000 </v>
   <v>       0.50000000       0.00000000       0.50000000 </v>
   <v>       0.10000000       0.10000000       0.50000000 </v>
   <v>       0.20000000       0.10000000       0.50000000 </v>
   <v>       0.30000000       0.10000000       0.50000000 </v>
   <v>       0.40000000       0.10000000       0.50000000 </v>
   <v>       0.20000000       0.20000000       0.50000000 </v>
   <v>       0.30000000       0.20000000       0.50000000 </v>
   <v>       0.40000000       0.20000000       0.50000000 </v>
   <v>       0.30000000       0.30000000       0.50000000 </v>
  </varray>
  <varray name="weights" >
   <v>       0.00125000 </v>
   <v>       0.00750000 </v>
   <v>       0.00750000 </v>
   <v>       0.00750000 </v>
   <v>       0.00750000 </v>
   <v>       0.00375000 </v>
   <v>       0.00750000 </v>
   <v>       0.01500000 </v>
   <v>       0.01500000 </v>
   <v>       0.01500000 </v>
   <v>       0.00750000 </v>
   <v>       0.01500000 </v>
   <v>       0.00750000 </v>
   <v>       0.00750000 </v>
   <v>       0.00250000 </v>
   <v>       0.01500000 </v>
   <v>       0.01500000 </v>
   <v>       0.01500000 </v>
   <v>       0.01500000 </v>
   <v>       0.00750000 </v>
   <v>       0.01500000 </v>
   <v>       0.03000000 </v>
   <v>       0.03000000 </v>
   <v>       0.03000000 </v>
   <v>       0.01500000 </v>
   <v>       0.03000000 </v>
   <v>       0.01500000 </v>
   <v>       0.01500000 </v>
   <v>       0.00250000 </v>
   <v>       0.01500000 </v>
   <v>       0.01500000 </v>
   <v>       0.01500000 </v>
   <v>       0.01500000 </v>
   <v>       0.00750000 </v>
   <v>       0.01500000 </v>
   <v>       0.03000000 </v>
   <v>       0.03000000 </v>
   <v>       0.03000000 </v>
   <v>       0.01500000 </v>
   <v>       0.03000000 </v>
   <v>       0.01500000 </v>
   <v>       0.01500000 </v>
   <v>       0.00250000 </v>
   <v>       0.01500000 </v>
   <v>       0.01500000 </v>
   <v>       0.01500000 </v>
   <v>       0.01500000 </v>
   <v>       0.00750000 </v>
   <v>       0.01500000 </v>
   <v>       0.03000000 </v>
   <v>       0.03000000 </v>
   <v>       0.03000000 </v>
   <v>       0.01500000 </v>
   <v>       0.03000000 </v>
   <v>       0.01500000 </v>
   <v>       0.01500000 </v>
   <v>       0.00125000 </v>
   <v>       0.00750000 </v>
   <v>       0.00750000 </v>
   <v>       0.00750000 </v>
   <v>       0.00750000 </v>
   <v>       0.00375000 </v>
   <v>       0.00750000 </v>
   <v>       0.01500000 </v>
   <v>       0.01500000 </v>
   <v>       0.01500000 </v>
   <v>       0.00750000 </v>
   <v>       0.01500000 </v>
   <v>       0.00750000 </v>
   <v>       0.00750000 </v>
  </varray>
 </kpoints>
 <parameters>
  <separator name="general" >
   <i type="string" name="SYSTEM">Pt-hcc</i>
   <i type="logical" name="LCOMPAT"> F  </i>
  </separator>
  <separator name="electronic" >
   <i type="string" name="PREC">accura</i>
   <i name="ENMAX">    450.00000000</i>
   <i name="ENAUG">    527.01400000</i>
   <i name="EDIFF">      0.00000100</i>
   <i type="int" name="IALGO">    38</i>
   <i type="int" name="IWAVPR">    11</i>
   <i type="int" name="NBANDS">    24</i>
   <i type="int" name="NBANDSLOW">    -1</i>
   <i type="int" name="NBANDSHIGH">    -1</i>
   <i name="NELECT">     32.00000000</i>
   <i type="int" name="TURBO">     0</i>
   <i type="int" name="IRESTART">     0</i>
   <i type="int" name="NREBOOT">     0</i>
   <i type="int" name="NMIN">     0</i>
   <i name="EREF">      0.00000000</i>
   <separator name="electronic smearing" >
    <i type="int" name="ISMEAR">     0</i>
    <i name="SIGMA">      0.05000000</i>
    <i name="KSPACING">      0.50000000</i>
    <i type="logical" name="KGAMMA"> T  </i>
    <i type="logical" name="KBLOWUP"> T  </i>
   </separator>
   <separator name="electronic projectors" >
    <i type="logical" name="LREAL"> F  </i>
    <v name="ROPT">      0.00000000</v>
    <i type="int" name="LMAXPAW">  -100</i>
    <i type="int" name="LMAXMIX">     2</i>
    <i type="logical" name="NLSPLINE"> F  </i>
   </separator>
   <separator name="electronic startup" >
    <i type="int" name="ISTART">     0</i>
    <i type="int" name="ICHARG">     2</i>
    <i type="int" name="INIWAV">     1</i>
   </separator>
   <separator name="electronic spin" >
    <i type="int" name="ISPIN">     1</i>
    <i type="logical" name="LNONCOLLINEAR"> F  </i>
    <v name="MAGMOM">      1.00000000      1.00000000</v>
    <i name="NUPDOWN">     -1.00000000</i>
    <i type="logical" name="LSORBIT"> F  </i>
    <v name="SAXIS">      0.00000000      0.00000000      1.00000000</v>
    <i type="logical" name="LSPIRAL"> F  </i>
    <v name="QSPIRAL">      0.00000000      0.00000000      0.00000000</v>
    <i type="logical" name="LZEROZ"> F  </i>
   </separator>
   <separator name="electronic exchange-correlation" >
    <i type="logical" name="LASPH"> F  </i>
    <i type="logical" name="LMETAGGA"> F  </i>
   </separator>
   <separator name="electronic convergence" >
    <i type="int" name="NELM">   100</i>
    <i type="int" name="NELMDL">    -5</i>
    <i type="int" name="NELMIN">     2</i>
    <i name="ENINI">    450.00000000</i>
    <separator name="electronic convergence detail" >
     <i type="logical" name="LDIAG"> T  </i>
     <i type="logical" name="LSUBROT"> F  </i>
     <i name="WEIMIN">      0.00100000</i>
     <i name="EBREAK">      0.00000001</i>
     <i name="DEPER">      0.30000000</i>
     <i type="int" name="NRMM">     4</i>
     <i name="TIME">      0.40000000</i>
    </separator>
   </separator>
   <separator name="electronic mixer" >
    <i name="AMIX">      0.40000000</i>
    <i name="BMIX">      1.00000000</i>
    <i name="AMIN">      0.10000000</i>
    <i name="AMIX_MAG">      1.60000000</i>
    <i name="BMIX_MAG">      1.00000000</i>
    <separator name="electronic mixer details" >
     <i type="int" name="IMIX">     4</i>
     <i type="logical" name="MIXFIRST"> F  </i>
     <i type="int" name="MAXMIX">   -45</i>
     <i name="WC">    100.00000000</i>
     <i type="int" name="INIMIX">     1</i>
     <i type="int" name="MIXPRE">     1</i>
     <i type="int" name="MREMOVE">     5</i>
    </separator>
   </separator>
   <separator name="electronic dipolcorrection" >
    <i type="logical" name="LDIPOL"> F  </i>
    <i type="logical" name="LMONO"> F  </i>
    <i type="int" name="IDIPOL">     0</i>
    <i name="EPSILON">      1.00000000</i>
    <v name="DIPOL">   -100.00000000   -100.00000000   -100.00000000</v>
    <i name="EFIELD">      0.00000000</i>
   </separator>
  </separator>
  <separator name="grids" >
   <i type="int" name="NGX">    20</i>
   <i type="int" name="NGY">    20</i>
   <i type="int" name="NGZ">    36</i>
   <i type="int" name="NGXF">    40</i>
   <i type="int" name="NGYF">    40</i>
   <i type="int" name="NGZF">    72</i>
   <i type="logical" name="ADDGRID"> F  </i>
  </separator>
  <separator name="ionic" >
   <i type="int" name="NSW">   100</i>
   <i type="int" name="IBRION">     2</i>
   <i type="int" name="MDALGO">     0</i>
   <i type="int" name="ISIF">     2</i>
   <i name="PSTRESS">      0.00000000</i>
   <i name="EDIFFG">     -0.02000000</i>
   <i type="int" name="NFREE">     1</i>
   <i name="POTIM">      0.50000000</i>
   <i name="SMASS">     -3.00000000</i>
   <i name="SCALEE">      1.00000000</i>
  </separator>
  <separator name="ionic md" >
   <i name="TEBEG">      0.00010000</i>
   <i name="TEEND">      0.00010000</i>
   <i type="int" name="NBLOCK">     1</i>
   <i type="int" name="KBLOCK">   100</i>
   <i type="int" name="NPACO">   256</i>
   <i name="APACO">     10.00000000</i>
  </separator>
  <separator name="symmetry" >
   <i type="int" name="ISYM">     1</i>
   <i name="SYMPREC">      0.00001000</i>
  </separator>
  <separator name="dos" >
   <i type="int" name="LORBIT">    11</i>
   <v name="RWIGS">     -1.00000000</v>
   <i type="int" name="NEDOS">   301</i>
   <i name="EMIN">     10.00000000</i>
   <i name="EMAX">    -10.00000000</i>
   <i name="EFERMI">      0.00000000</i>
  </separator>
  <separator name="writing" >
   <i type="int" name="NWRITE">     2</i>
   <i type="logical" name="LWAVE"> T  </i>
   <i type="logical" name="LDOWNSAMPLE"> F  </i>
   <i type="logical" name="LCHARG"> T  </i>
   <i type="logical" name="LPARD"> F  </i>
   <i type="logical" name="LVTOT"> F  </i>
   <i type="logical" name="LVHAR"> F  </i>
   <i type="logical" name="LELF"> F  </i>
   <i type="logical" name="LOPTICS"> F  </i>
   <v name="STM">      0.00000000      0.00000000      0.00000000      0.00000000      0.00000000      0.00000000      0.00000000</v>
  </separator>
  <separator name="performance" >
   <i type="int" name="NPAR">    24</i>
   <i type="int" name="NSIM">     4</i>
   <i type="int" name="NBLK">    -1</i>
   <i type="logical" name="LPLANE"> T  </i>
   <i type="logical" name="LSCALAPACK"> T  </i>
   <i type="logical" name="LSCAAWARE"> F  </i>
   <i type="logical" name="LSCALU"> F  </i>
   <i type="logical" name="LASYNC"> F  </i>
   <i type="logical" name="LORBITALREAL"> F  </i>
  </separator>
  <separator name="miscellaneous" >
   <i type="int" name="IDIOT">     3</i>
   <i type="int" name="PHON_NSTRUCT">    -1</i>
   <i type="logical" name="LMUSIC"> F  </i>
   <v name="POMASS">    195.08000000</v>
   <v name="DARWINR">      0.00000000</v>
   <v name="DARWINV">      1.00000000</v>
   <i type="logical" name="LCORR"> T  </i>
  </separator>
  <i type="logical" name="GGA_COMPAT"> T  </i>
  <i type="logical" name="LBERRY"> F  </i>
  <i type="int" name="ICORELEVEL">     0</i>
  <i type="logical" name="LDAU"> F  </i>
  <i type="int" name="I_CONSTRAINED_M">     0</i>
  <separator name="electronic exchange-correlation" >
   <i type="string" name="GGA">--</i>
   <i type="int" name="VOSKOWN">     0</i>
   <i type="logical" name="LHFCALC"> F  </i>
   <i type="string" name="PRECFOCK"></i>
   <i type="logical" name="LSYMGRAD"> F  </i>
   <i type="logical" name="LHFONE"> F  </i>
   <i type="logical" name="LRHFCALC"> F  </i>
   <i type="logical" name="LTHOMAS"> F  </i>
   <i type="logical" name="LMODELHF"> F  </i>
   <i type="logical" name="LFOCKACE"> F  </i>
   <i name="ENCUT4O">     -1.00000000</i>
   <i type="int" name="EXXOEP">     0</i>
   <i type="int" name="FOURORBIT">     0</i>
   <i name="AEXX">      0.00000000</i>
   <i name="HFALPHA">      0.00000000</i>
   <i name="MCALPHA">      0.00000000</i>
   <i name="ALDAX">      1.00000000</i>
   <i name="AGGAX">      1.00000000</i>
   <i name="ALDAC">      1.00000000</i>
   <i name="AGGAC">      1.00000000</i>
   <i type="int" name="NKREDX">     1</i>
   <i type="int" name="NKREDY">     1</i>
   <i type="int" name="NKREDZ">     1</i>
   <i type="logical" name="SHIFTRED"> F  </i>
   <i type="logical" name="ODDONLY"> F  </i>
   <i type="logical" name="EVENONLY"> F  </i>
   <i type="int" name="LMAXFOCK">     0</i>
   <i type="int" name="NMAXFOCKAE">     0</i>
   <i type="logical" name="LFOCKAEDFT"> F  </i>
   <i name="HFSCREEN">      0.00000000</i>
   <i name="HFSCREENC">      0.00000000</i>
   <i type="int" name="NBANDSGWLOW">     0</i>
  </separator>
  <separator name="vdW DFT" >
   <i type="logical" name="LUSE_VDW"> F  </i>
   <i name="Zab_VDW">     -0.84910000</i>
   <i name="PARAM1">      0.12340000</i>
   <i name="PARAM2">      1.00000000</i>
   <i name="PARAM3">      0.00000000</i>
  </separator>
  <separator name="model GW" >
   <i type="int" name="MODEL_GW">     0</i>
   <i name="MODEL_EPS0">      9.86084262</i>
   <i name="MODEL_ALPHA">      1.00000000</i>
  </separator>
  <separator name="linear response parameters" >
   <i type="logical" name="LEPSILON"> F  </i>
   <i type="logical" name="LRPA"> F  </i>
   <i type="logical" name="LNABLA"> F  </i>
   <i type="logical" name="LVEL"> F  </i>
   <i name="CSHIFT">      0.10000000</i>
   <i name="OMEGAMAX">     -1.00000000</i>
   <i name="DEG_THRESHOLD">      0.00200000</i>
   <i name="RTIME">     -0.10000000</i>
   <i name="WPLASMAI">      0.00000000</i>
   <v name="DFIELD">      0.00000000      0.00000000      0.00000000</v>
   <v name="WPLASMA">      0.00000000      0.00000000      0.00000000      0.00000000      0.00000000      0.00000000      0.00000000      0.00000000      0.00000000</v>
  </separator>
  <separator name="orbital magnetization" >
   <i type="logical" name="NUCIND"> F  </i>
   <v name="MAGPOS">      0.00000000      0.00000000      0.00000000</v>
   <i type="logical" name="LNICSALL"> T  </i>
   <i type="logical" name="ORBITALMAG"> F  </i>
   <i type="logical" name="LMAGBLOCH"> F  </i>
   <i type="logical" name="LCHIMAG"> F  </i>
   <i type="logical" name="LGAUGE"> T  </i>
   <i type="int" name="MAGATOM">     0</i>
   <v name="MAGDIPOL">      0.00000000      0.00000000      0.00000000</v>
   <v name="AVECCONST">      0.00000000      0.00000000      0.00000000</v>
  </separator>
  <separator name="response functions" >
   <i type="logical" name="LFINITE_TEMPERATURE"> F  </i>
   <i type="logical" name="LADDER"> F  </i>
   <i type="logical" name="LRPAFORCE"> F  </i>
   <i type="logical" name="LFXC"> F  </i>
   <i type="logical" name="LHARTREE"> T  </i>
   <i type="int" name="IBSE">     0</i>
   <v type="int" name="KPOINT">    -1     0     0     0</v>
   <i type="logical" name="LTCTC"> F  </i>
   <i type="logical" name="LTCTE"> F  </i>
   <i type="logical" name="LTETE"> F  </i>
   <i type="logical" name="LTRIPLET"> F  </i>
   <i type="logical" name="LFXCEPS"> F  </i>
   <i type="logical" name="LFXHEG"> F  </i>
   <i type="int" name="NATURALO">     2</i>
   <i type="logical" name="LHOLEGF"> F  </i>
   <i type="logical" name="L2ORDER"> F  </i>
   <i type="logical" name="LDMP1"> F  </i>
   <i type="logical" name="LMP2LT"> F  </i>
   <i type="logical" name="LSMP2LT"> F  </i>
   <i type="logical" name="LGWLF"> F  </i>
   <i name="ENCUTGW">     -2.00000000</i>
   <i name="ENCUTGWSOFT">     -2.00000000</i>
   <i name="ENCUTLF">     -1.00000000</i>
   <i type="logical" name="LESF_SPLINES"> F  </i>
   <i type="int" name="LMAXMP2">    -1</i>
   <i name="SCISSOR">      0.00000000</i>
   <i type="int" name="NOMEGA">     0</i>
   <i type="int" name="NOMEGAR">     0</i>
   <i type="int" name="NBANDSGW">    -1</i>
   <i type="int" name="NBANDSO">    -1</i>
   <i type="int" name="NBANDSV">    -1</i>
   <i type="int" name="NELMGW">     1</i>
   <i type="int" name="NELMHF">     1</i>
   <i type="int" name="DIM">     3</i>
   <i type="int" name="IESPILON">     4</i>
   <i type="int" name="ANTIRES">     0</i>
   <i name="OMEGAMAX">    -30.00000000</i>
   <i name="OMEGAMIN">    -30.00000000</i>
   <i name="OMEGATL">   -200.00000000</i>
   <i type="int" name="OMEGAGRID">     0</i>
   <i name="CSHIFT">     -0.10000000</i>
   <i type="logical" name="LSELFENERGY"> F  </i>
   <i type="logical" name="LSPECTRAL"> F  </i>
   <i type="logical" name="LSPECTRALGW"> F  </i>
   <i type="logical" name="LSINGLES"> F  </i>
   <i type="logical" name="LFERMIGW"> F  </i>
   <i type="logical" name="ODDONLYGW"> F  </i>
   <i type="logical" name="EVENONLYGW"> F  </i>
   <i type="int" name="NKREDLFX">     1</i>
   <i type="int" name="NKREDLFY">     1</i>
   <i type="int" name="NKREDLFZ">     1</i>
   <i type="int" name="MAXMEM">  2800</i>
   <i type="int" name="TELESCOPE">     0</i>
   <i type="int" name="NTAUPAR">    -1</i>
   <i type="int" name="NOMEGAPAR">    -1</i>
   <i name="DAMP_NEWTON">      0.80000001</i>
   <i name="LAMBDA">      1.00000000</i>
  </separator>
  <separator name="External order field" >
   <i name="OFIELD_KAPPA">      0.00000000</i>
   <v name="OFIELD_K">      0.00000000      0.00000000      0.00000000</v>
   <i name="OFIELD_Q6_NEAR">      0.00000000</i>
   <i name="OFIELD_Q6_FAR">      0.00000000</i>
   <i name="OFIELD_A">      0.00000000</i>
  </separator>
  <separator name="optional k-points parameters" >
   <i type="int" name="KPOINTS_OPT_MODE">     1</i>
   <i type="logical" name="LKPOINTS_OPT"> F  </i>
  </separator>
 </parameters>
 <atominfo>
  <atoms>       2 </atoms>
  <types>       1 </types>
  <array name="atoms" >
   <dimension dim="1">ion</dimension>
   <field type="string">element</field>
   <field type="int">atomtype</field>
   <set>
    <rc><c>Pt</c><c>   1</c></rc>
    <rc><c>Pt</c><c>   1</c></rc>
   </set>
  </array>
  <array name="atomtypes" >
   <dimension dim="1">type</dimension>
   <field type="int">atomspertype</field>
   <field type="string">element</field>
   <field>mass</field>
   <field>valence</field>
   <field type="string">pseudopotential</field>
   <set>
    <rc><c>   2</c><c>Pt</c><c>    195.08000000</c><c>     16.00000000</c><c>  PAW_PBE Pt_pv 12Dec2005               </c></rc>
   </set>
  </array>
 </atominfo>
 <structure name="initialpos" >
  <crystal>
   <varray name="basis" >
    <v>       2.79811084       0.00000000       0.00000000 </v>
    <v>      -1.39905542       2.42323507       0.00000000 </v>
    <v>       0.00000000       0.00000000       4.84766181 </v>
   </varray>
   <i name="volume">     32.86947539 </i>
   <varray name="rec_basis" >
    <v>       0.35738398       0.20633574       0.00000000 </v>
    <v>       0.00000000       0.41267148       0.00000000 </v>
    <v>       0.00000000       0.00000000       0.20628502 </v>
   </varray>
  </crystal>
  <varray name="positions" >
   <v>       0.00000000       0.00000000       0.00000000 </v>
   <v>       0.33333333       0.66666667       0.50000000 </v>
  </varray>
 </structure>
 <calculation>
  <scstep>
   <time name="dav">    0.32    0.32</time>
   <time name="total">    0.32    0.32</time>
   <energy>
    <i name="alphaZ">    291.98136345 </i>
    <i name="ewald">  -4185.50213411 </i>
    <i name="hartreedc">   -845.68352157 </i>
    <i name="XCdc">    126.95394957 </i>
    <i name="pawpsdc">   4131.50523274 </i>
    <i name="pawaedc">  -4061.67189606 </i>
    <i name="eentropy">     -0.00181702 </i>
    <i name="bandstr">   -168.41554858 </i>
    <i name="atom">   4856.42966544 </i>
    <i name="e_fr_energy">    145.59529386 </i>
    <i name="e_wo_entrp">    145.59711088 </i>
    <i name="e_0_energy">    145.59620237 </i>
   </energy>
  </scstep>
  <scstep>
   <time name="dav">    0.34    0.35</time>
   <time name="total">    0.34    0.35</time>
   <energy>
    <i name="e_fr_energy">    -11.23269875 </i>
    <i name="e_wo_entrp">    -11.22906700 </i>
    <i name="e_0_energy">    -11.23088288 </i>
   </energy>
  </scstep>
  <scstep>
   <time name="dav">    0.46    0.46</time>
   <time name="total">    0.46    0.46</time>
   <energy>
    <i name="e_fr_energy">    -12.71304510 </i>
    <i name="e_wo_entrp">    -12.70833010 </i>
    <i name="e_0_energy">    -12.71068760 </i>
   </energy>
  </scstep>
  <scstep>
   <time name="dav">    0.61    0.61</time>
   <time name="total">    0.61    0.61</time>
   <energy>
    <i name="e_fr_energy">    -12.71883421 </i>
    <i name="e_wo_entrp">    -12.71410284 </i>
    <i name="e_0_energy">    -12.71646853 </i>
   </energy>
  </scstep>
  <scstep>
   <time name="dav">    0.50    0.50</time>
   <time name="total">    0.52    0.52</time>
   <energy>
    <i name="e_fr_energy">    -12.71883595 </i>
    <i name="e_wo_entrp">    -12.71410460 </i>
    <i name="e_0_energy">    -12.71647027 </i>
   </energy>
  </scstep>
  <scstep>
   <time name="dav">    0.34    0.34</time>
   <time name="total">    0.36    0.37</time>
   <energy>
    <i name="e_fr_energy">    -12.03205957 </i>
    <i name="e_wo_entrp">    -12.02725130 </i>
    <i name="e_0_energy">    -12.02965543 </i>
   </energy>
  </scstep>
  <scstep>
   <time name="dav">    0.50    0.51</time>
   <time name="total">    0.53    0.54</time>
   <energy>
    <i name="e_fr_energy">    -12.00327090 </i>
    <i name="e_wo_entrp">    -11.99812270 </i>
    <i name="e_0_energy">    -12.00069680 </i>
   </energy>
  </scstep>
  <scstep>
   <time name="dav">    0.36    0.36</time>
   <time name="total">    0.39    0.39</time>
   <energy>
    <i name="e_fr_energy">    -12.00122198 </i>
    <i name="e_wo_entrp">    -11.99599063 </i>
    <i name="e_0_energy">    -11.99860631 </i>
   </energy>
  </scstep>
  <scstep>
   <time name="dav">    0.51    0.51</time>
   <time name="total">    0.54    0.54</time>
   <energy>
    <i name="e_fr_energy">    -12.00107969 </i>
    <i name="e_wo_entrp">    -11.99588359 </i>
    <i name="e_0_energy">    -11.99848164 </i>
   </energy>
  </scstep>
  <scstep>
   <time name="dav">    0.42    0.42</time>
   <time name="total">    0.45    0.45</time>
   <energy>
    <i name="e_fr_energy">    -12.00109547 </i>
    <i name="e_wo_entrp">    -11.99590424 </i>
    <i name="e_0_energy">    -11.99849985 </i>
   </energy>
  </scstep>
  <scstep>
   <time name="dav">    0.41    0.41</time>
   <time name="total">    0.41    0.42</time>
   <energy>
    <i name="alphaZ">    291.98136345 </i>
    <i name="ewald">  -4185.50213411 </i>
    <i name="hartreedc">   -806.67736806 </i>
    <i name="XCdc">    125.24533455 </i>
    <i name="pawpsdc">   4530.03155366 </i>
    <i name="pawaedc">  -4464.83224515 </i>
    <i name="eentropy">     -0.00519216 </i>
    <i name="bandstr">   -358.67207284 </i>
    <i name="atom">   4856.42966544 </i>
    <i name="e_fr_energy">    -12.00109523 </i>
    <i name="e_wo_entrp">    -11.99590307 </i>
    <i name="e_0_energy">    -11.99849915 </i>
   </energy>
  </scstep>
  <structure>
   <crystal>
    <varray name="basis" >
     <v>       2.79811084       0.00000000       0.00000000 </v>
     <v>      -1.39905542       2.42323507       0.00000000 </v>
     <v>       0.00000000       0.00000000       4.84766181 </v>
    </varray>
    <i name="volume">     32.86947539 </i>
    <varray name="rec_basis" >
     <v>       0.35738398       0.20633574       0.00000000 </v>
     <v>       0.00000000       0.41267148       0.00000000 </v>
     <v>       0.00000000       0.00000000       0.20628502 </v>
    </varray>
   </crystal>
   <varray name="positions" >
    <v>       0.00000000       0.00000000       0.00000000 </v>
    <v>       0.33333333       0.66666667       0.50000000 </v>
   </varray>
  </structure>
  <varray name="forces" >
   <v>      -0.00000000       0.00000000       0.00000000 </v>
   <v>       0.00000000       0.00000000       0.00000000 </v>
  </varray>
  <varray name="stress" >
   <v>    -113.65608532       0.00000000      -0.00000000 </v>
   <v>       0.00000000    -113.65608532      -0.00000000 </v>
   <v>      -0.00000000       0.00000000     -99.62872085 </v>
  </varray>
  <energy>
   <i name="e_fr_energy">    -12.00109523 </i>
   <i name="e_wo_entrp">    -11.99590307 </i>
   <i name="e_0_energy">    -11.99849915 </i>
  </energy>
  <time name="totalsc">    5.32    5.49</time>
  <eigenvalues>
   <array>
    <dimension dim="1">band</dimension>
    <dimension dim="2">kpoint</dimension>
    <dimension dim="3">spin</dimension>
    <field>eigene</field>
    <field>occ</field>
    <set>
     <set comment="spin 1">
      <set comment="kpoint 1">
       <r>  -42.0414    1.0000 </r>
       <r>  -41.9148    1.0000 </r>
       <r>  -41.9148    1.0000 </r>
       <r>  -41.8795    1.0000 </r>
       <r>  -41.8795    1.0000 </r>
       <r>  -41.7578    1.0000 </r>
       <r>    1.1100    1.0000 </r>
       <r>    3.7248    1.0000 </r>
       <r>    6.7347    1.0000 </r>
       <r>    7.1987    1.0000 </r>
       <r>    7.1987    1.0000 </r>
       <r>    7.5412    1.0000 </r>
       <r>    7.5412    1.0000 </r>
       <r>    8.7235    1.0000 </r>
       <r>    8.7235    1.0000 </r>
       <r>    9.8814    1.0000 </r>
       <r>   10.2075    1.0000 </r>
       <r>   10.2075    1.0000 </r>
       <r>   14.8550    0.0000 </r>
       <r>   25.5423    0.0000 </r>
       <r>   26.1025    0.0000 </r>
       <r>   27.6339    0.0000 </r>
       <r>   30.9889    0.0000 </r>
       <r>   30.9889    0.0000 </r>
      </set>
      <set comment="kpoint 2">
       <r>  -42.0313    1.0000 </r>
       <r>  -41.9452    1.0000 </r>
       <r>  -41.9237    1.0000 </r>
       <r>  -41.9113    1.0000 </r>
       <r>  -41.8859    1.0000 </r>
       <r>  -41.7603    1.0000 </r>
       <r>    1.4573    1.0000 </r>
       <r>    4.0375    1.0000 </r>
       <r>    6.6701    1.0000 </r>
       <r>    7.2123    1.0000 </r>
       <r>    7.4044    1.0000 </r>
       <r>    7.4581    1.0000 </r>
       <r>    7.7876    1.0000 </r>
       <r>    8.2060    1.0000 </r>
       <r>    8.5657    1.0000 </r>
       <r>    8.7314    1.0000 </r>
       <r>   10.2645    0.9999 </r>
       <r>   11.9589    0.0000 </r>
       <r>   14.8247    0.0000 </r>
       <r>   25.8982    0.0000 </r>
       <r>   26.6076    0.0000 </r>
       <r>   27.8302    0.0000 </r>
       <r>   29.5012    0.0000 </r>
       <r>   29.5112    0.0000 </r>
      </set>
      <set comment="kpoint 3">
       <r>  -42.0261    1.0000 </r>
       <r>  -42.0037    1.0000 </r>
       <r>  -41.9927    1.0000 </r>
       <r>  -41.9466    1.0000 </r>
       <r>  -41.9033    1.0000 </r>
       <r>  -41.7681    1.0000 </r>
       <r>    2.4082    1.0000 </r>
       <r>    4.7306    1.0000 </r>
       <r>    6.4549    1.0000 </r>
       <r>    6.9251    1.0000 </r>
       <r>    6.9478    1.0000 </r>
       <r>    7.7964    1.0000 </r>
       <r>    8.1918    1.0000 </r>
       <r>    8.2134    1.0000 </r>
       <r>    8.2408    1.0000 </r>
       <r>    8.4784    1.0000 </r>
       <r>   10.3562    0.8707 </r>
       <r>   14.0527    0.0000 </r>
       <r>   14.7758    0.0000 </r>
       <r>   24.1015    0.0000 </r>
       <r>   27.1425    0.0000 </r>
       <r>   27.2027    0.0000 </r>
       <r>   28.1906    0.0000 </r>
       <r>   28.4293    0.0000 </r>
      </set>
      <set comment="kpoint 4">
       <r>  -42.1263    1.0000 </r>
       <r>  -42.0920    1.0000 </r>
       <r>  -41.9744    1.0000 </r>
       <r>  -41.9642    1.0000 </r>
       <r>  -41.9250    1.0000 </r>
       <r>  -41.7820    1.0000 </r>
       <r>    3.5874    1.0000 </r>
       <r>    4.8686    1.0000 </r>
       <r>    5.9297    1.0000 </r>
       <r>    6.7034    1.0000 </r>
       <r>    7.0354    1.0000 </r>
       <r>    7.7645    1.0000 </r>
       <r>    7.8492    1.0000 </r>
       <r>    8.8728    1.0000 </r>
       <r>    9.2406    1.0000 </r>
       <r>    9.4535    1.0000 </r>
       <r>   10.4067    0.3829 </r>
       <r>   14.9269    0.0000 </r>
       <r>   16.1980    0.0000 </r>
       <r>   20.3958    0.0000 </r>
       <r>   24.8367    0.0000 </r>
       <r>   25.6203    0.0000 </r>
       <r>   26.7616    0.0000 </r>
       <r>   28.1161    0.0000 </r>
      </set>
      <set comment="kpoint 5">
       <r>  -42.2072    1.0000 </r>
       <r>  -42.1707    1.0000 </r>
       <r>  -41.9968    1.0000 </r>
       <r>  -41.9426    1.0000 </r>
       <r>  -41.9249    1.0000 </r>
       <r>  -41.8012    1.0000 </r>
       <r>    4.2602    1.0000 </r>
       <r>    4.5736    1.0000 </r>
       <r>    5.3144    1.0000 </r>
       <r>    7.1914    1.0000 </r>
       <r>    7.4151    1.0000 </r>
       <r>    7.5893    1.0000 </r>
       <r>    7.8042    1.0000 </r>
       <r>   10.2440    1.0000 </r>
       <r>   10.4087    0.3612 </r>
       <r>   10.4179    0.2697 </r>
       <r>   10.6366    0.0000 </r>
       <r>   15.7731    0.0000 </r>
       <r>   16.8055    0.0000 </r>
       <r>   18.1274    0.0000 </r>
       <r>   22.4018    0.0000 </r>
       <r>   23.0105    0.0000 </r>
       <r>   24.2122    0.0000 </r>
       <r>   26.8561    0.0000 </r>
      </set>
      <set comment="kpoint 6">
       <r>  -42.2374    1.0000 </r>
       <r>  -42.2010    1.0000 </r>
       <r>  -42.0054    1.0000 </r>
       <r>  -41.9493    1.0000 </r>
       <r>  -41.9052    1.0000 </r>
       <r>  -41.8131    1.0000 </r>
       <r>    4.3848    1.0000 </r>
       <r>    4.4289    1.0000 </r>
       <r>    5.1065    1.0000 </r>
       <r>    7.2883    1.0000 </r>
       <r>    7.4960    1.0000 </r>
       <r>    7.6809    1.0000 </r>
       <r>    8.0082    1.0000 </r>
       <r>   10.4175    0.2736 </r>
       <r>   10.6638    0.0000 </r>
       <r>   10.8512    0.0000 </r>
       <r>   12.5994    0.0000 </r>
       <r>   14.0036    0.0000 </r>
       <r>   17.4803    0.0000 </r>
       <r>   19.0752    0.0000 </r>
       <r>   19.5519    0.0000 </r>
       <r>   22.2721    0.0000 </r>
       <r>   23.5123    0.0000 </r>
       <r>   26.3178    0.0000 </r>
      </set>
      <set comment="kpoint 7">
       <r>  -42.0124    1.0000 </r>
       <r>  -41.9960    1.0000 </r>
       <r>  -41.9737    1.0000 </r>
       <r>  -41.9347    1.0000 </r>
       <r>  -41.9021    1.0000 </r>
       <r>  -41.7654    1.0000 </r>
       <r>    2.1140    1.0000 </r>
       <r>    4.5848    1.0000 </r>
       <r>    6.4187    1.0000 </r>
       <r>    7.1294    1.0000 </r>
       <r>    7.3065    1.0000 </r>
       <r>    7.4221    1.0000 </r>
       <r>    8.0057    1.0000 </r>
       <r>    8.0290    1.0000 </r>
       <r>    8.3380    1.0000 </r>
       <r>    8.6321    1.0000 </r>
       <r>   10.2851    0.9992 </r>
       <r>   13.4977    0.0000 </r>
       <r>   14.7869    0.0000 </r>
       <r>   25.6245    0.0000 </r>
       <r>   26.0670    0.0000 </r>
       <r>   27.4762    0.0000 </r>
       <r>   28.4258    0.0000 </r>
       <r>   29.0415    0.0000 </r>
      </set>
      <set comment="kpoint 8">
       <r>  -42.0798    1.0000 </r>
       <r>  -42.0575    1.0000 </r>
       <r>  -41.9790    1.0000 </r>
       <r>  -41.9670    1.0000 </r>
       <r>  -41.9276    1.0000 </r>
       <r>  -41.7763    1.0000 </r>
       <r>    3.2475    1.0000 </r>
       <r>    5.1796    1.0000 </r>
       <r>    6.2496    1.0000 </r>
       <r>    6.3157    1.0000 </r>
       <r>    6.8759    1.0000 </r>
       <r>    7.5703    1.0000 </r>
       <r>    7.9942    1.0000 </r>
       <r>    8.2898    1.0000 </r>
       <r>    8.9950    1.0000 </r>
       <r>    9.3691    1.0000 </r>
       <r>   10.2863    0.9991 </r>
       <r>   14.8560    0.0000 </r>
       <r>   15.5118    0.0000 </r>
       <r>   22.2786    0.0000 </r>
       <r>   24.1954    0.0000 </r>
       <r>   26.5896    0.0000 </r>
       <r>   28.3906    0.0000 </r>
       <r>   28.8053    0.0000 </r>
      </set>
      <set comment="kpoint 9">
       <r>  -42.1669    1.0000 </r>
       <r>  -42.1363    1.0000 </r>
       <r>  -42.0004    1.0000 </r>
       <r>  -41.9521    1.0000 </r>
       <r>  -41.9383    1.0000 </r>
       <r>  -41.7936    1.0000 </r>
       <r>    4.2926    1.0000 </r>
       <r>    4.9660    1.0000 </r>
       <r>    5.5882    1.0000 </r>
       <r>    6.7149    1.0000 </r>
       <r>    7.2940    1.0000 </r>
       <r>    7.2967    1.0000 </r>
       <r>    7.8329    1.0000 </r>
       <r>    9.0204    1.0000 </r>
       <r>   10.0033    1.0000 </r>
       <r>   10.2746    0.9997 </r>
       <r>   10.7031    0.0000 </r>
       <r>   15.4660    0.0000 </r>
       <r>   17.5868    0.0000 </r>
       <r>   18.5179    0.0000 </r>
       <r>   22.1483    0.0000 </r>
       <r>   25.0875    0.0000 </r>
       <r>   25.1056    0.0000 </r>
       <r>   27.2421    0.0000 </r>
      </set>
      <set comment="kpoint 10">
       <r>  -42.2211    1.0000 </r>
       <r>  -42.1851    1.0000 </r>
       <r>  -42.0209    1.0000 </r>
       <r>  -41.9674    1.0000 </r>
       <r>  -41.9054    1.0000 </r>
       <r>  -41.8127    1.0000 </r>
       <r>    4.6267    1.0000 </r>
       <r>    4.7122    1.0000 </r>
       <r>    5.2104    1.0000 </r>
       <r>    7.2428    1.0000 </r>
       <r>    7.4575    1.0000 </r>
       <r>    7.4617    1.0000 </r>
       <r>    7.7698    1.0000 </r>
       <r>   10.1672    1.0000 </r>
       <r>   10.2593    0.9999 </r>
       <r>   10.5153    0.0004 </r>
       <r>   12.3346    0.0000 </r>
       <r>   15.1909    0.0000 </r>
       <r>   17.1233    0.0000 </r>
       <r>   19.2343    0.0000 </r>
       <r>   19.9471    0.0000 </r>
       <r>   22.2661    0.0000 </r>
       <r>   23.9538    0.0000 </r>
       <r>   26.2307    0.0000 </r>
      </set>
      <set comment="kpoint 11">
       <r>  -42.1290    1.0000 </r>
       <r>  -42.1286    1.0000 </r>
       <r>  -42.0050    1.0000 </r>
       <r>  -41.9704    1.0000 </r>
       <r>  -41.9434    1.0000 </r>
       <r>  -41.7915    1.0000 </r>
       <r>    4.4229    1.0000 </r>
       <r>    5.7571    1.0000 </r>
       <r>    5.7786    1.0000 </r>
       <r>    5.8276    1.0000 </r>
       <r>    7.0758    1.0000 </r>
       <r>    7.1159    1.0000 </r>
       <r>    8.0140    1.0000 </r>
       <r>    8.3326    1.0000 </r>
       <r>    9.9901    1.0000 </r>
       <r>   10.1208    1.0000 </r>
       <r>   10.7791    0.0000 </r>
       <r>   15.4274    0.0000 </r>
       <r>   17.4539    0.0000 </r>
       <r>   19.9699    0.0000 </r>
       <r>   20.8921    0.0000 </r>
       <r>   25.8426    0.0000 </r>
       <r>   26.7490    0.0000 </r>
       <r>   27.3443    0.0000 </r>
      </set>
      <set comment="kpoint 12">
       <r>  -42.1818    1.0000 </r>
       <r>  -42.1573    1.0000 </r>
       <r>  -42.0490    1.0000 </r>
       <r>  -42.0074    1.0000 </r>
       <r>  -41.9060    1.0000 </r>
       <r>  -41.8121    1.0000 </r>
       <r>    5.2021    1.0000 </r>
       <r>    5.4185    1.0000 </r>
       <r>    5.4350    1.0000 </r>
       <r>    6.5118    1.0000 </r>
       <r>    6.9804    1.0000 </r>
       <r>    7.5614    1.0000 </r>
       <r>    7.5940    1.0000 </r>
       <r>    9.0710    1.0000 </r>
       <r>    9.9943    1.0000 </r>
       <r>   10.3980    0.4795 </r>
       <r>   12.3667    0.0000 </r>
       <r>   16.4045    0.0000 </r>
       <r>   17.3703    0.0000 </r>
       <r>   19.0093    0.0000 </r>
       <r>   19.4848    0.0000 </r>
       <r>   23.7437    0.0000 </r>
       <r>   24.9627    0.0000 </r>
       <r>   25.8879    0.0000 </r>
      </set>
      <set comment="kpoint 13">
       <r>  -42.2015    1.0000 </r>
       <r>  -42.1648    1.0000 </r>
       <r>  -42.0702    1.0000 </r>
       <r>  -42.0213    1.0000 </r>
       <r>  -41.8847    1.0000 </r>
       <r>  -41.8273    1.0000 </r>
       <r>    5.2921    1.0000 </r>
       <r>    5.2924    1.0000 </r>
       <r>    5.3217    1.0000 </r>
       <r>    7.0559    1.0000 </r>
       <r>    7.1081    1.0000 </r>
       <r>    7.2109    1.0000 </r>
       <r>    7.8458    1.0000 </r>
       <r>    9.7800    1.0000 </r>
       <r>    9.9482    1.0000 </r>
       <r>   10.2182    1.0000 </r>
       <r>   13.9439    0.0000 </r>
       <r>   14.4004    0.0000 </r>
       <r>   17.7253    0.0000 </r>
       <r>   19.2202    0.0000 </r>
       <r>   20.6804    0.0000 </r>
       <r>   21.6017    0.0000 </r>
       <r>   24.0516    0.0000 </r>
       <r>   25.4791    0.0000 </r>
      </set>
      <set comment="kpoint 14">
       <r>  -42.1701    1.0000 </r>
       <r>  -42.1423    1.0000 </r>
       <r>  -42.1022    1.0000 </r>
       <r>  -42.0664    1.0000 </r>
       <r>  -41.8727    1.0000 </r>
       <r>  -41.8368    1.0000 </r>
       <r>    5.3813    1.0000 </r>
       <r>    5.7393    1.0000 </r>
       <r>    5.9861    1.0000 </r>
       <r>    6.4046    1.0000 </r>
       <r>    6.9363    1.0000 </r>
       <r>    7.1879    1.0000 </r>
       <r>    7.9300    1.0000 </r>
       <r>    9.4067    1.0000 </r>
       <r>    9.7948    1.0000 </r>
       <r>   10.0708    1.0000 </r>
       <r>   13.9285    0.0000 </r>
       <r>   15.1947    0.0000 </r>
       <r>   16.6266    0.0000 </r>
       <r>   19.9917    0.0000 </r>
       <r>   21.5608    0.0000 </r>
       <r>   22.7127    0.0000 </r>
       <r>   23.4792    0.0000 </r>
       <r>   23.9344    0.0000 </r>
      </set>
      <set comment="kpoint 15">
       <r>  -42.0309    1.0000 </r>
       <r>  -41.9134    1.0000 </r>
       <r>  -41.9134    1.0000 </r>
       <r>  -41.8808    1.0000 </r>
       <r>  -41.8808    1.0000 </r>
       <r>  -41.7687    1.0000 </r>
       <r>    1.2390    1.0000 </r>
       <r>    3.7027    1.0000 </r>
       <r>    6.7037    1.0000 </r>
       <r>    7.1803    1.0000 </r>
       <r>    7.1803    1.0000 </r>
       <r>    7.5050    1.0000 </r>
       <r>    7.5050    1.0000 </r>
       <r>    8.8154    1.0000 </r>
       <r>    8.8154    1.0000 </r>
       <r>    9.2617    1.0000 </r>
       <r>   10.1814    1.0000 </r>
       <r>   10.1814    1.0000 </r>
       <r>   15.7244    0.0000 </r>
       <r>   25.0890    0.0000 </r>
       <r>   26.5670    0.0000 </r>
       <r>   27.3588    0.0000 </r>
       <r>   30.5528    0.0000 </r>
       <r>   30.5528    0.0000 </r>
      </set>
      <set comment="kpoint 16">
       <r>  -42.0220    1.0000 </r>
       <r>  -41.9432    1.0000 </r>
       <r>  -41.9223    1.0000 </r>
       <r>  -41.9129    1.0000 </r>
       <r>  -41.8874    1.0000 </r>
       <r>  -41.7701    1.0000 </r>
       <r>    1.5839    1.0000 </r>
       <r>    4.0219    1.0000 </r>
       <r>    6.6732    1.0000 </r>
       <r>    7.1316    1.0000 </r>
       <r>    7.3097    1.0000 </r>
       <r>    7.4312    1.0000 </r>
       <r>    7.7474    1.0000 </r>
       <r>    8.1658    1.0000 </r>
       <r>    8.6741    1.0000 </r>
       <r>    8.7160    1.0000 </r>
       <r>   10.2285    1.0000 </r>
       <r>   11.4073    0.0000 </r>
       <r>   15.8203    0.0000 </r>
       <r>   25.5342    0.0000 </r>
       <r>   26.9394    0.0000 </r>
       <r>   27.6541    0.0000 </r>
       <r>   28.9445    0.0000 </r>
       <r>   29.4674    0.0000 </r>
      </set>
      <set comment="kpoint 17">
       <r>  -42.0316    1.0000 </r>
       <r>  -41.9964    1.0000 </r>
       <r>  -41.9864    1.0000 </r>
       <r>  -41.9448    1.0000 </r>
       <r>  -41.9046    1.0000 </r>
       <r>  -41.7756    1.0000 </r>
       <r>    2.5207    1.0000 </r>
       <r>    4.7375    1.0000 </r>
       <r>    6.4850    1.0000 </r>
       <r>    6.6761    1.0000 </r>
       <r>    6.9594    1.0000 </r>
       <r>    7.6943    1.0000 </r>
       <r>    8.0404    1.0000 </r>
       <r>    8.3631    1.0000 </r>
       <r>    8.4337    1.0000 </r>
       <r>    8.5264    1.0000 </r>
       <r>   10.3005    0.9966 </r>
       <r>   12.8546    0.0000 </r>
       <r>   16.2564    0.0000 </r>
       <r>   24.2028    0.0000 </r>
       <r>   26.9570    0.0000 </r>
       <r>   27.2981    0.0000 </r>
       <r>   27.6843    0.0000 </r>
       <r>   28.7969    0.0000 </r>
      </set>
      <set comment="kpoint 18">
       <r>  -42.1277    1.0000 </r>
       <r>  -42.0950    1.0000 </r>
       <r>  -41.9726    1.0000 </r>
       <r>  -41.9545    1.0000 </r>
       <r>  -41.9269    1.0000 </r>
       <r>  -41.7874    1.0000 </r>
       <r>    3.6425    1.0000 </r>
       <r>    4.8941    1.0000 </r>
       <r>    5.9074    1.0000 </r>
       <r>    6.5510    1.0000 </r>
       <r>    7.0610    1.0000 </r>
       <r>    7.8620    1.0000 </r>
       <r>    7.9071    1.0000 </r>
       <r>    8.9234    1.0000 </r>
       <r>    9.2610    1.0000 </r>
       <r>    9.4085    1.0000 </r>
       <r>   10.3413    0.9398 </r>
       <r>   13.8999    0.0000 </r>
       <r>   17.2692    0.0000 </r>
       <r>   20.6566    0.0000 </r>
       <r>   25.0658    0.0000 </r>
       <r>   25.1915    0.0000 </r>
       <r>   26.6795    0.0000 </r>
       <r>   28.5375    0.0000 </r>
      </set>
      <set comment="kpoint 19">
       <r>  -42.2080    1.0000 </r>
       <r>  -42.1739    1.0000 </r>
       <r>  -41.9947    1.0000 </r>
       <r>  -41.9446    1.0000 </r>
       <r>  -41.9179    1.0000 </r>
       <r>  -41.8041    1.0000 </r>
       <r>    4.2023    1.0000 </r>
       <r>    4.5834    1.0000 </r>
       <r>    5.4558    1.0000 </r>
       <r>    6.5992    1.0000 </r>
       <r>    7.6109    1.0000 </r>
       <r>    7.6690    1.0000 </r>
       <r>    8.3300    1.0000 </r>
       <r>   10.1748    1.0000 </r>
       <r>   10.2590    0.9999 </r>
       <r>   10.5026    0.0013 </r>
       <r>   10.5537    0.0000 </r>
       <r>   14.9464    0.0000 </r>
       <r>   16.8485    0.0000 </r>
       <r>   18.9228    0.0000 </r>
       <r>   22.1406    0.0000 </r>
       <r>   23.2732    0.0000 </r>
       <r>   24.5239    0.0000 </r>
       <r>   27.0817    0.0000 </r>
      </set>
      <set comment="kpoint 20">
       <r>  -42.2380    1.0000 </r>
       <r>  -42.2040    1.0000 </r>
       <r>  -42.0032    1.0000 </r>
       <r>  -41.9513    1.0000 </r>
       <r>  -41.8995    1.0000 </r>
       <r>  -41.8148    1.0000 </r>
       <r>    4.2881    1.0000 </r>
       <r>    4.4122    1.0000 </r>
       <r>    5.3118    1.0000 </r>
       <r>    6.6612    1.0000 </r>
       <r>    7.5808    1.0000 </r>
       <r>    7.7521    1.0000 </r>
       <r>    8.7618    1.0000 </r>
       <r>   10.2532    1.0000 </r>
       <r>   10.6830    0.0000 </r>
       <r>   10.8454    0.0000 </r>
       <r>   12.3856    0.0000 </r>
       <r>   13.9054    0.0000 </r>
       <r>   17.3260    0.0000 </r>
       <r>   18.0160    0.0000 </r>
       <r>   20.8623    0.0000 </r>
       <r>   22.5472    0.0000 </r>
       <r>   23.6500    0.0000 </r>
       <r>   26.5920    0.0000 </r>
      </set>
      <set comment="kpoint 21">
       <r>  -42.0138    1.0000 </r>
       <r>  -41.9842    1.0000 </r>
       <r>  -41.9748    1.0000 </r>
       <r>  -41.9343    1.0000 </r>
       <r>  -41.9035    1.0000 </r>
       <r>  -41.7737    1.0000 </r>
       <r>    2.2331    1.0000 </r>
       <r>    4.5840    1.0000 </r>
       <r>    6.4480    1.0000 </r>
       <r>    6.8751    1.0000 </r>
       <r>    7.2118    1.0000 </r>
       <r>    7.4315    1.0000 </r>
       <r>    7.9424    1.0000 </r>
       <r>    8.1513    1.0000 </r>
       <r>    8.4242    1.0000 </r>
       <r>    8.6962    1.0000 </r>
       <r>   10.2372    1.0000 </r>
       <r>   12.5196    0.0000 </r>
       <r>   16.0930    0.0000 </r>
       <r>   25.6078    0.0000 </r>
       <r>   26.1440    0.0000 </r>
       <r>   27.3045    0.0000 </r>
       <r>   27.9681    0.0000 </r>
       <r>   29.3072    0.0000 </r>
      </set>
      <set comment="kpoint 22">
       <r>  -42.0820    1.0000 </r>
       <r>  -42.0598    1.0000 </r>
       <r>  -41.9686    1.0000 </r>
       <r>  -41.9650    1.0000 </r>
       <r>  -41.9292    1.0000 </r>
       <r>  -41.7824    1.0000 </r>
       <r>    3.3370    1.0000 </r>
       <r>    5.2108    1.0000 </r>
       <r>    6.1427    1.0000 </r>
       <r>    6.3125    1.0000 </r>
       <r>    6.8518    1.0000 </r>
       <r>    7.4724    1.0000 </r>
       <r>    8.1370    1.0000 </r>
       <r>    8.2759    1.0000 </r>
       <r>    9.0992    1.0000 </r>
       <r>    9.3204    1.0000 </r>
       <r>   10.2386    1.0000 </r>
       <r>   13.6297    0.0000 </r>
       <r>   16.9126    0.0000 </r>
       <r>   22.4536    0.0000 </r>
       <r>   24.3220    0.0000 </r>
       <r>   26.4510    0.0000 </r>
       <r>   27.7148    0.0000 </r>
       <r>   29.4504    0.0000 </r>
      </set>
      <set comment="kpoint 23">
       <r>  -42.1680    1.0000 </r>
       <r>  -42.1394    1.0000 </r>
       <r>  -41.9993    1.0000 </r>
       <r>  -41.9547    1.0000 </r>
       <r>  -41.9299    1.0000 </r>
       <r>  -41.7974    1.0000 </r>
       <r>    4.2834    1.0000 </r>
       <r>    4.9983    1.0000 </r>
       <r>    5.6432    1.0000 </r>
       <r>    6.4592    1.0000 </r>
       <r>    7.2590    1.0000 </r>
       <r>    7.6198    1.0000 </r>
       <r>    7.8463    1.0000 </r>
       <r>    9.0358    1.0000 </r>
       <r>   10.0469    1.0000 </r>
       <r>   10.1009    1.0000 </r>
       <r>   10.7571    0.0000 </r>
       <r>   14.7002    0.0000 </r>
       <r>   17.8199    0.0000 </r>
       <r>   19.2740    0.0000 </r>
       <r>   22.2415    0.0000 </r>
       <r>   24.3699    0.0000 </r>
       <r>   25.6740    0.0000 </r>
       <r>   27.4020    0.0000 </r>
      </set>
      <set comment="kpoint 24">
       <r>  -42.2216    1.0000 </r>
       <r>  -42.1879    1.0000 </r>
       <r>  -42.0193    1.0000 </r>
       <r>  -41.9698    1.0000 </r>
       <r>  -41.8993    1.0000 </r>
       <r>  -41.8143    1.0000 </r>
       <r>    4.5048    1.0000 </r>
       <r>    4.7144    1.0000 </r>
       <r>    5.4445    1.0000 </r>
       <r>    6.6045    1.0000 </r>
       <r>    7.3397    1.0000 </r>
       <r>    7.8678    1.0000 </r>
       <r>    8.2599    1.0000 </r>
       <r>   10.0643    1.0000 </r>
       <r>   10.1723    1.0000 </r>
       <r>   10.5546    0.0000 </r>
       <r>   12.2939    0.0000 </r>
       <r>   15.0288    0.0000 </r>
       <r>   16.7412    0.0000 </r>
       <r>   19.0935    0.0000 </r>
       <r>   20.4712    0.0000 </r>
       <r>   22.5269    0.0000 </r>
       <r>   24.1798    0.0000 </r>
       <r>   26.2750    0.0000 </r>
      </set>
      <set comment="kpoint 25">
       <r>  -42.1313    1.0000 </r>
       <r>  -42.1298    1.0000 </r>
       <r>  -42.0050    1.0000 </r>
       <r>  -41.9731    1.0000 </r>
       <r>  -41.9339    1.0000 </r>
       <r>  -41.7950    1.0000 </r>
       <r>    4.4593    1.0000 </r>
       <r>    5.6198    1.0000 </r>
       <r>    5.8460    1.0000 </r>
       <r>    5.9158    1.0000 </r>
       <r>    7.0866    1.0000 </r>
       <r>    7.0972    1.0000 </r>
       <r>    7.9026    1.0000 </r>
       <r>    8.4762    1.0000 </r>
       <r>    9.9237    1.0000 </r>
       <r>   10.0927    1.0000 </r>
       <r>   10.8453    0.0000 </r>
       <r>   14.6815    0.0000 </r>
       <r>   18.0588    0.0000 </r>
       <r>   20.3942    0.0000 </r>
       <r>   21.0463    0.0000 </r>
       <r>   25.6295    0.0000 </r>
       <r>   25.9141    0.0000 </r>
       <r>   27.9853    0.0000 </r>
      </set>
      <set comment="kpoint 26">
       <r>  -42.1823    1.0000 </r>
       <r>  -42.1598    1.0000 </r>
       <r>  -42.0488    1.0000 </r>
       <r>  -42.0097    1.0000 </r>
       <r>  -41.8992    1.0000 </r>
       <r>  -41.8134    1.0000 </r>
       <r>    5.0671    1.0000 </r>
       <r>    5.4489    1.0000 </r>
       <r>    5.6082    1.0000 </r>
       <r>    6.3288    1.0000 </r>
       <r>    7.1073    1.0000 </r>
       <r>    7.4625    1.0000 </r>
       <r>    7.7268    1.0000 </r>
       <r>    9.1289    1.0000 </r>
       <r>    9.8080    1.0000 </r>
       <r>   10.4924    0.0033 </r>
       <r>   12.4082    0.0000 </r>
       <r>   16.4046    0.0000 </r>
       <r>   16.7412    0.0000 </r>
       <r>   19.0758    0.0000 </r>
       <r>   20.2931    0.0000 </r>
       <r>   23.2504    0.0000 </r>
       <r>   24.9607    0.0000 </r>
       <r>   25.8507    0.0000 </r>
      </set>
      <set comment="kpoint 27">
       <r>  -42.2015    1.0000 </r>
       <r>  -42.1680    1.0000 </r>
       <r>  -42.0697    1.0000 </r>
       <r>  -42.0239    1.0000 </r>
       <r>  -41.8791    1.0000 </r>
       <r>  -41.8268    1.0000 </r>
       <r>    5.0297    1.0000 </r>
       <r>    5.3363    1.0000 </r>
       <r>    5.6944    1.0000 </r>
       <r>    6.5375    1.0000 </r>
       <r>    6.9777    1.0000 </r>
       <r>    7.6444    1.0000 </r>
       <r>    8.0032    1.0000 </r>
       <r>    9.7548    1.0000 </r>
       <r>    9.8036    1.0000 </r>
       <r>   10.2882    0.9989 </r>
       <r>   14.0257    0.0000 </r>
       <r>   14.4362    0.0000 </r>
       <r>   17.7678    0.0000 </r>
       <r>   18.8965    0.0000 </r>
       <r>   19.8671    0.0000 </r>
       <r>   22.7284    0.0000 </r>
       <r>   24.2897    0.0000 </r>
       <r>   24.6505    0.0000 </r>
      </set>
      <set comment="kpoint 28">
       <r>  -42.1692    1.0000 </r>
       <r>  -42.1450    1.0000 </r>
       <r>  -42.1038    1.0000 </r>
       <r>  -42.0691    1.0000 </r>
       <r>  -41.8680    1.0000 </r>
       <r>  -41.8353    1.0000 </r>
       <r>    5.4117    1.0000 </r>
       <r>    5.7210    1.0000 </r>
       <r>    6.0213    1.0000 </r>
       <r>    6.3003    1.0000 </r>
       <r>    7.0516    1.0000 </r>
       <r>    7.0925    1.0000 </r>
       <r>    7.9391    1.0000 </r>
       <r>    9.4934    1.0000 </r>
       <r>    9.5994    1.0000 </r>
       <r>   10.1580    1.0000 </r>
       <r>   14.0211    0.0000 </r>
       <r>   15.3354    0.0000 </r>
       <r>   16.8631    0.0000 </r>
       <r>   19.1376    0.0000 </r>
       <r>   21.7074    0.0000 </r>
       <r>   21.8429    0.0000 </r>
       <r>   23.6328    0.0000 </r>
       <r>   24.9493    0.0000 </r>
      </set>
      <set comment="kpoint 29">
       <r>  -42.0001    1.0000 </r>
       <r>  -41.9096    1.0000 </r>
       <r>  -41.9096    1.0000 </r>
       <r>  -41.8848    1.0000 </r>
       <r>  -41.8848    1.0000 </r>
       <r>  -41.7999    1.0000 </r>
       <r>    1.6105    1.0000 </r>
       <r>    3.5999    1.0000 </r>
       <r>    6.6336    1.0000 </r>
       <r>    7.1510    1.0000 </r>
       <r>    7.1510    1.0000 </r>
       <r>    7.4121    1.0000 </r>
       <r>    7.4121    1.0000 </r>
       <r>    8.1349    1.0000 </r>
       <r>    9.0527    1.0000 </r>
       <r>    9.0527    1.0000 </r>
       <r>   10.0922    1.0000 </r>
       <r>   10.0922    1.0000 </r>
       <r>   17.6193    0.0000 </r>
       <r>   24.5356    0.0000 </r>
       <r>   26.7658    0.0000 </r>
       <r>   26.7691    0.0000 </r>
       <r>   30.1142    0.0000 </r>
       <r>   30.1142    0.0000 </r>
      </set>
      <set comment="kpoint 30">
       <r>  -41.9963    1.0000 </r>
       <r>  -41.9359    1.0000 </r>
       <r>  -41.9182    1.0000 </r>
       <r>  -41.9179    1.0000 </r>
       <r>  -41.8915    1.0000 </r>
       <r>  -41.7979    1.0000 </r>
       <r>    1.9493    1.0000 </r>
       <r>    3.9331    1.0000 </r>
       <r>    6.6606    1.0000 </r>
       <r>    6.9881    1.0000 </r>
       <r>    7.0640    1.0000 </r>
       <r>    7.3891    1.0000 </r>
       <r>    7.6489    1.0000 </r>
       <r>    7.7769    1.0000 </r>
       <r>    8.9426    1.0000 </r>
       <r>    8.9473    1.0000 </r>
       <r>   10.1131    1.0000 </r>
       <r>   10.6984    0.0000 </r>
       <r>   17.7791    0.0000 </r>
       <r>   24.9935    0.0000 </r>
       <r>   27.0348    0.0000 </r>
       <r>   27.1565    0.0000 </r>
       <r>   28.6585    0.0000 </r>
       <r>   29.4773    0.0000 </r>
      </set>
      <set comment="kpoint 31">
       <r>  -42.0344    1.0000 </r>
       <r>  -42.0025    1.0000 </r>
       <r>  -41.9548    1.0000 </r>
       <r>  -41.9401    1.0000 </r>
       <r>  -41.9093    1.0000 </r>
       <r>  -41.7978    1.0000 </r>
       <r>    2.8468    1.0000 </r>
       <r>    4.7030    1.0000 </r>
       <r>    6.3201    1.0000 </r>
       <r>    6.5862    1.0000 </r>
       <r>    6.7457    1.0000 </r>
       <r>    7.5073    1.0000 </r>
       <r>    7.9627    1.0000 </r>
       <r>    8.2947    1.0000 </r>
       <r>    8.8129    1.0000 </r>
       <r>    8.8409    1.0000 </r>
       <r>   10.1352    1.0000 </r>
       <r>   11.6674    0.0000 </r>
       <r>   18.2543    0.0000 </r>
       <r>   24.5000    0.0000 </r>
       <r>   26.2838    0.0000 </r>
       <r>   26.9877    0.0000 </r>
       <r>   27.7650    0.0000 </r>
       <r>   28.8893    0.0000 </r>
      </set>
      <set comment="kpoint 32">
       <r>  -42.1297    1.0000 </r>
       <r>  -42.1031    1.0000 </r>
       <r>  -41.9673    1.0000 </r>
       <r>  -41.9323    1.0000 </r>
       <r>  -41.9289    1.0000 </r>
       <r>  -41.8031    1.0000 </r>
       <r>    3.8075    1.0000 </r>
       <r>    4.9178    1.0000 </r>
       <r>    5.7967    1.0000 </r>
       <r>    6.3136    1.0000 </r>
       <r>    7.1776    1.0000 </r>
       <r>    7.9456    1.0000 </r>
       <r>    8.0741    1.0000 </r>
       <r>    9.1398    1.0000 </r>
       <r>    9.1932    1.0000 </r>
       <r>    9.4037    1.0000 </r>
       <r>   10.1710    1.0000 </r>
       <r>   12.5468    0.0000 </r>
       <r>   18.7352    0.0000 </r>
       <r>   21.4228    0.0000 </r>
       <r>   24.1745    0.0000 </r>
       <r>   25.7248    0.0000 </r>
       <r>   26.7425    0.0000 </r>
       <r>   28.1069    0.0000 </r>
      </set>
      <set comment="kpoint 33">
       <r>  -42.2090    1.0000 </r>
       <r>  -42.1821    1.0000 </r>
       <r>  -41.9888    1.0000 </r>
       <r>  -41.9504    1.0000 </r>
       <r>  -41.8993    1.0000 </r>
       <r>  -41.8130    1.0000 </r>
       <r>    4.1346    1.0000 </r>
       <r>    4.6113    1.0000 </r>
       <r>    5.6439    1.0000 </r>
       <r>    6.0217    1.0000 </r>
       <r>    7.8767    1.0000 </r>
       <r>    7.9026    1.0000 </r>
       <r>    9.1494    1.0000 </r>
       <r>    9.7759    1.0000 </r>
       <r>   10.2935    0.9982 </r>
       <r>   10.3107    0.9922 </r>
       <r>   10.5057    0.0010 </r>
       <r>   13.5384    0.0000 </r>
       <r>   17.1753    0.0000 </r>
       <r>   19.6240    0.0000 </r>
       <r>   22.1525    0.0000 </r>
       <r>   24.0107    0.0000 </r>
       <r>   25.0570    0.0000 </r>
       <r>   27.5084    0.0000 </r>
      </set>
      <set comment="kpoint 34">
       <r>  -42.2394    1.0000 </r>
       <r>  -42.2126    1.0000 </r>
       <r>  -41.9969    1.0000 </r>
       <r>  -41.9574    1.0000 </r>
       <r>  -41.8841    1.0000 </r>
       <r>  -41.8201    1.0000 </r>
       <r>    4.1354    1.0000 </r>
       <r>    4.4628    1.0000 </r>
       <r>    5.5724    1.0000 </r>
       <r>    5.9734    1.0000 </r>
       <r>    7.8290    1.0000 </r>
       <r>    8.0599    1.0000 </r>
       <r>    9.8283    1.0000 </r>
       <r>    9.8408    1.0000 </r>
       <r>   10.7105    0.0000 </r>
       <r>   10.8285    0.0000 </r>
       <r>   11.7770    0.0000 </r>
       <r>   13.5812    0.0000 </r>
       <r>   16.9815    0.0000 </r>
       <r>   17.1500    0.0000 </r>
       <r>   22.4161    0.0000 </r>
       <r>   23.3110    0.0000 </r>
       <r>   23.9942    0.0000 </r>
       <r>   27.3120    0.0000 </r>
      </set>
      <set comment="kpoint 35">
       <r>  -42.0115    1.0000 </r>
       <r>  -41.9785    1.0000 </r>
       <r>  -41.9565    1.0000 </r>
       <r>  -41.9324    1.0000 </r>
       <r>  -41.9077    1.0000 </r>
       <r>  -41.7974    1.0000 </r>
       <r>    2.5783    1.0000 </r>
       <r>    4.5293    1.0000 </r>
       <r>    6.5028    1.0000 </r>
       <r>    6.5388    1.0000 </r>
       <r>    6.8622    1.0000 </r>
       <r>    7.4106    1.0000 </r>
       <r>    7.8420    1.0000 </r>
       <r>    8.1125    1.0000 </r>
       <r>    8.8262    1.0000 </r>
       <r>    8.8955    1.0000 </r>
       <r>   10.0920    1.0000 </r>
       <r>   11.4380    0.0000 </r>
       <r>   18.1095    0.0000 </r>
       <r>   25.4586    0.0000 </r>
       <r>   26.3935    0.0000 </r>
       <r>   26.9988    0.0000 </r>
       <r>   27.3419    0.0000 </r>
       <r>   28.6598    0.0000 </r>
      </set>
      <set comment="kpoint 36">
       <r>  -42.0854    1.0000 </r>
       <r>  -42.0654    1.0000 </r>
       <r>  -41.9633    1.0000 </r>
       <r>  -41.9417    1.0000 </r>
       <r>  -41.9308    1.0000 </r>
       <r>  -41.8003    1.0000 </r>
       <r>    3.5968    1.0000 </r>
       <r>    5.2401    1.0000 </r>
       <r>    5.8717    1.0000 </r>
       <r>    6.3919    1.0000 </r>
       <r>    6.7061    1.0000 </r>
       <r>    7.3375    1.0000 </r>
       <r>    8.1030    1.0000 </r>
       <r>    8.6374    1.0000 </r>
       <r>    9.2229    1.0000 </r>
       <r>    9.3045    1.0000 </r>
       <r>   10.1082    1.0000 </r>
       <r>   12.3213    0.0000 </r>
       <r>   18.7252    0.0000 </r>
       <r>   22.9600    0.0000 </r>
       <r>   24.5701    0.0000 </r>
       <r>   26.0150    0.0000 </r>
       <r>   27.1887    0.0000 </r>
       <r>   27.7612    0.0000 </r>
      </set>
      <set comment="kpoint 37">
       <r>  -42.1696    1.0000 </r>
       <r>  -42.1469    1.0000 </r>
       <r>  -41.9951    1.0000 </r>
       <r>  -41.9608    1.0000 </r>
       <r>  -41.9079    1.0000 </r>
       <r>  -41.8084    1.0000 </r>
       <r>    4.3028    1.0000 </r>
       <r>    5.0437    1.0000 </r>
       <r>    5.6549    1.0000 </r>
       <r>    6.2056    1.0000 </r>
       <r>    7.3038    1.0000 </r>
       <r>    7.8867    1.0000 </r>
       <r>    8.0338    1.0000 </r>
       <r>    9.1466    1.0000 </r>
       <r>    9.6681    1.0000 </r>
       <r>   10.2499    1.0000 </r>
       <r>   10.7873    0.0000 </r>
       <r>   13.3666    0.0000 </r>
       <r>   18.3489    0.0000 </r>
       <r>   20.6532    0.0000 </r>
       <r>   22.2276    0.0000 </r>
       <r>   24.0595    0.0000 </r>
       <r>   25.9927    0.0000 </r>
       <r>   27.0988    0.0000 </r>
      </set>
      <set comment="kpoint 38">
       <r>  -42.2224    1.0000 </r>
       <r>  -42.1963    1.0000 </r>
       <r>  -42.0147    1.0000 </r>
       <r>  -41.9762    1.0000 </r>
       <r>  -41.8834    1.0000 </r>
       <r>  -41.8191    1.0000 </r>
       <r>    4.3607    1.0000 </r>
       <r>    4.7705    1.0000 </r>
       <r>    5.7363    1.0000 </r>
       <r>    5.9978    1.0000 </r>
       <r>    7.3461    1.0000 </r>
       <r>    8.2911    1.0000 </r>
       <r>    8.9084    1.0000 </r>
       <r>    9.6383    1.0000 </r>
       <r>   10.1254    1.0000 </r>
       <r>   10.6497    0.0000 </r>
       <r>   12.2063    0.0000 </r>
       <r>   14.3810    0.0000 </r>
       <r>   16.4853    0.0000 </r>
       <r>   18.5601    0.0000 </r>
       <r>   21.5687    0.0000 </r>
       <r>   23.2678    0.0000 </r>
       <r>   24.6647    0.0000 </r>
       <r>   26.0540    0.0000 </r>
      </set>
      <set comment="kpoint 39">
       <r>  -42.1361    1.0000 </r>
       <r>  -42.1325    1.0000 </r>
       <r>  -42.0037    1.0000 </r>
       <r>  -41.9792    1.0000 </r>
       <r>  -41.9103    1.0000 </r>
       <r>  -41.8067    1.0000 </r>
       <r>    4.5690    1.0000 </r>
       <r>    5.4484    1.0000 </r>
       <r>    5.9179    1.0000 </r>
       <r>    6.0631    1.0000 </r>
       <r>    7.0093    1.0000 </r>
       <r>    7.0505    1.0000 </r>
       <r>    7.7770    1.0000 </r>
       <r>    8.8901    1.0000 </r>
       <r>    9.5202    1.0000 </r>
       <r>   10.3004    0.9966 </r>
       <r>   10.9228    0.0000 </r>
       <r>   13.4014    0.0000 </r>
       <r>   19.0643    0.0000 </r>
       <r>   21.4379    0.0000 </r>
       <r>   21.4671    0.0000 </r>
       <r>   24.8006    0.0000 </r>
       <r>   25.1663    0.0000 </r>
       <r>   27.6804    0.0000 </r>
      </set>
      <set comment="kpoint 40">
       <r>  -42.1831    1.0000 </r>
       <r>  -42.1664    1.0000 </r>
       <r>  -42.0473    1.0000 </r>
       <r>  -42.0166    1.0000 </r>
       <r>  -41.8820    1.0000 </r>
       <r>  -41.8178    1.0000 </r>
       <r>    4.9471    1.0000 </r>
       <r>    5.5733    1.0000 </r>
       <r>    5.5981    1.0000 </r>
       <r>    6.3362    1.0000 </r>
       <r>    6.9712    1.0000 </r>
       <r>    7.5232    1.0000 </r>
       <r>    7.9239    1.0000 </r>
       <r>    9.2435    1.0000 </r>
       <r>    9.4811    1.0000 </r>
       <r>   10.6676    0.0000 </r>
       <r>   12.5171    0.0000 </r>
       <r>   15.2241    0.0000 </r>
       <r>   17.0685    0.0000 </r>
       <r>   19.4500    0.0000 </r>
       <r>   21.0228    0.0000 </r>
       <r>   22.9463    0.0000 </r>
       <r>   24.3310    0.0000 </r>
       <r>   26.4483    0.0000 </r>
      </set>
      <set comment="kpoint 41">
       <r>  -42.2013    1.0000 </r>
       <r>  -42.1759    1.0000 </r>
       <r>  -42.0673    1.0000 </r>
       <r>  -42.0314    1.0000 </r>
       <r>  -41.8663    1.0000 </r>
       <r>  -41.8270    1.0000 </r>
       <r>    4.8871    1.0000 </r>
       <r>    5.4445    1.0000 </r>
       <r>    5.9948    1.0000 </r>
       <r>    6.1538    1.0000 </r>
       <r>    6.7353    1.0000 </r>
       <r>    7.9433    1.0000 </r>
       <r>    8.3060    1.0000 </r>
       <r>    9.2950    1.0000 </r>
       <r>    9.8931    1.0000 </r>
       <r>   10.4268    0.1929 </r>
       <r>   14.2701    0.0000 </r>
       <r>   14.5467    0.0000 </r>
       <r>   17.4348    0.0000 </r>
       <r>   18.1346    0.0000 </r>
       <r>   19.6824    0.0000 </r>
       <r>   23.5545    0.0000 </r>
       <r>   24.2036    0.0000 </r>
       <r>   25.0397    0.0000 </r>
      </set>
      <set comment="kpoint 42">
       <r>  -42.1671    1.0000 </r>
       <r>  -42.1515    1.0000 </r>
       <r>  -42.1058    1.0000 </r>
       <r>  -42.0766    1.0000 </r>
       <r>  -41.8574    1.0000 </r>
       <r>  -41.8329    1.0000 </r>
       <r>    5.4657    1.0000 </r>
       <r>    5.6497    1.0000 </r>
       <r>    6.1383    1.0000 </r>
       <r>    6.2050    1.0000 </r>
       <r>    6.9093    1.0000 </r>
       <r>    7.1817    1.0000 </r>
       <r>    7.9602    1.0000 </r>
       <r>    9.1152    1.0000 </r>
       <r>    9.7443    1.0000 </r>
       <r>   10.3229    0.9808 </r>
       <r>   14.2998    0.0000 </r>
       <r>   15.7675    0.0000 </r>
       <r>   17.4650    0.0000 </r>
       <r>   17.8201    0.0000 </r>
       <r>   20.3538    0.0000 </r>
       <r>   21.3490    0.0000 </r>
       <r>   24.6901    0.0000 </r>
       <r>   26.2679    0.0000 </r>
      </set>
      <set comment="kpoint 43">
       <r>  -41.9545    1.0000 </r>
       <r>  -41.9038    1.0000 </r>
       <r>  -41.9038    1.0000 </r>
       <r>  -41.8902    1.0000 </r>
       <r>  -41.8902    1.0000 </r>
       <r>  -41.8460    1.0000 </r>
       <r>    2.1700    1.0000 </r>
       <r>    3.3173    1.0000 </r>
       <r>    6.5961    1.0000 </r>
       <r>    7.1526    1.0000 </r>
       <r>    7.1526    1.0000 </r>
       <r>    7.2133    1.0000 </r>
       <r>    7.2992    1.0000 </r>
       <r>    7.2992    1.0000 </r>
       <r>    9.3610    1.0000 </r>
       <r>    9.3610    1.0000 </r>
       <r>    9.9215    1.0000 </r>
       <r>    9.9215    1.0000 </r>
       <r>   19.8563    0.0000 </r>
       <r>   23.7386    0.0000 </r>
       <r>   26.2019    0.0000 </r>
       <r>   26.2111    0.0000 </r>
       <r>   30.0806    0.0000 </r>
       <r>   30.0806    0.0000 </r>
      </set>
      <set comment="kpoint 44">
       <r>  -41.9635    1.0000 </r>
       <r>  -41.9273    1.0000 </r>
       <r>  -41.9193    1.0000 </r>
       <r>  -41.9120    1.0000 </r>
       <r>  -41.8975    1.0000 </r>
       <r>  -41.8393    1.0000 </r>
       <r>    2.5033    1.0000 </r>
       <r>    3.6576    1.0000 </r>
       <r>    6.5760    1.0000 </r>
       <r>    6.7279    1.0000 </r>
       <r>    6.9773    1.0000 </r>
       <r>    7.3643    1.0000 </r>
       <r>    7.3842    1.0000 </r>
       <r>    7.5322    1.0000 </r>
       <r>    9.2809    1.0000 </r>
       <r>    9.3349    1.0000 </r>
       <r>    9.9077    1.0000 </r>
       <r>   10.1911    1.0000 </r>
       <r>   20.0212    0.0000 </r>
       <r>   24.0791    0.0000 </r>
       <r>   26.5276    0.0000 </r>
       <r>   26.5810    0.0000 </r>
       <r>   28.7110    0.0000 </r>
       <r>   29.7218    0.0000 </r>
      </set>
      <set comment="kpoint 45">
       <r>  -42.0309    1.0000 </r>
       <r>  -42.0125    1.0000 </r>
       <r>  -41.9334    1.0000 </r>
       <r>  -41.9166    1.0000 </r>
       <r>  -41.9157    1.0000 </r>
       <r>  -41.8319    1.0000 </r>
       <r>    3.3476    1.0000 </r>
       <r>    4.4560    1.0000 </r>
       <r>    6.1161    1.0000 </r>
       <r>    6.4487    1.0000 </r>
       <r>    6.7539    1.0000 </r>
       <r>    7.2546    1.0000 </r>
       <r>    7.9690    1.0000 </r>
       <r>    8.1665    1.0000 </r>
       <r>    9.1710    1.0000 </r>
       <r>    9.3681    1.0000 </r>
       <r>    9.8722    1.0000 </r>
       <r>   10.7408    0.0000 </r>
       <r>   20.4005    0.0000 </r>
       <r>   24.5595    0.0000 </r>
       <r>   25.1935    0.0000 </r>
       <r>   26.3177    0.0000 </r>
       <r>   28.1914    0.0000 </r>
       <r>   28.5370    0.0000 </r>
      </set>
      <set comment="kpoint 46">
       <r>  -42.1284    1.0000 </r>
       <r>  -42.1132    1.0000 </r>
       <r>  -41.9593    1.0000 </r>
       <r>  -41.9402    1.0000 </r>
       <r>  -41.8952    1.0000 </r>
       <r>  -41.8278    1.0000 </r>
       <r>    4.0766    1.0000 </r>
       <r>    4.7639    1.0000 </r>
       <r>    5.7514    1.0000 </r>
       <r>    6.1144    1.0000 </r>
       <r>    7.3983    1.0000 </r>
       <r>    7.8623    1.0000 </r>
       <r>    8.3295    1.0000 </r>
       <r>    8.9459    1.0000 </r>
       <r>    9.5410    1.0000 </r>
       <r>    9.6096    1.0000 </r>
       <r>    9.9513    1.0000 </r>
       <r>   11.3386    0.0000 </r>
       <r>   20.1317    0.0000 </r>
       <r>   22.3420    0.0000 </r>
       <r>   23.2539    0.0000 </r>
       <r>   25.7987    0.0000 </r>
       <r>   26.7396    0.0000 </r>
       <r>   28.1960    0.0000 </r>
      </set>
      <set comment="kpoint 47">
       <r>  -42.2074    1.0000 </r>
       <r>  -42.1925    1.0000 </r>
       <r>  -41.9800    1.0000 </r>
       <r>  -41.9592    1.0000 </r>
       <r>  -41.8744    1.0000 </r>
       <r>  -41.8279    1.0000 </r>
       <r>    4.1773    1.0000 </r>
       <r>    4.5445    1.0000 </r>
       <r>    5.6132    1.0000 </r>
       <r>    5.7771    1.0000 </r>
       <r>    8.2722    1.0000 </r>
       <r>    8.4214    1.0000 </r>
       <r>    9.2706    1.0000 </r>
       <r>    9.6628    1.0000 </r>
       <r>   10.2151    1.0000 </r>
       <r>   10.3466    0.9196 </r>
       <r>   10.4666    0.0232 </r>
       <r>   12.1985    0.0000 </r>
       <r>   17.7360    0.0000 </r>
       <r>   19.2257    0.0000 </r>
       <r>   23.1458    0.0000 </r>
       <r>   25.0987    0.0000 </r>
       <r>   25.1160    0.0000 </r>
       <r>   27.6957    0.0000 </r>
      </set>
      <set comment="kpoint 48">
       <r>  -42.2383    1.0000 </r>
       <r>  -42.2232    1.0000 </r>
       <r>  -41.9881    1.0000 </r>
       <r>  -41.9667    1.0000 </r>
       <r>  -41.8647    1.0000 </r>
       <r>  -41.8300    1.0000 </r>
       <r>    4.1279    1.0000 </r>
       <r>    4.4289    1.0000 </r>
       <r>    5.5911    1.0000 </r>
       <r>    5.6264    1.0000 </r>
       <r>    8.2235    1.0000 </r>
       <r>    8.7232    1.0000 </r>
       <r>    9.2970    1.0000 </r>
       <r>   10.5038    0.0012 </r>
       <r>   10.7399    0.0000 </r>
       <r>   10.8026    0.0000 </r>
       <r>   11.2770    0.0000 </r>
       <r>   12.9813    0.0000 </r>
       <r>   16.6758    0.0000 </r>
       <r>   16.6927    0.0000 </r>
       <r>   23.7139    0.0000 </r>
       <r>   24.3517    0.0000 </r>
       <r>   24.4173    0.0000 </r>
       <r>   26.9574    0.0000 </r>
      </set>
      <set comment="kpoint 49">
       <r>  -42.0048    1.0000 </r>
       <r>  -41.9858    1.0000 </r>
       <r>  -41.9280    1.0000 </r>
       <r>  -41.9208    1.0000 </r>
       <r>  -41.9121    1.0000 </r>
       <r>  -41.8332    1.0000 </r>
       <r>    3.1080    1.0000 </r>
       <r>    4.2649    1.0000 </r>
       <r>    6.2555    1.0000 </r>
       <r>    6.5296    1.0000 </r>
       <r>    6.6971    1.0000 </r>
       <r>    7.1852    1.0000 </r>
       <r>    7.8354    1.0000 </r>
       <r>    8.0020    1.0000 </r>
       <r>    9.2000    1.0000 </r>
       <r>    9.3507    1.0000 </r>
       <r>    9.8533    1.0000 </r>
       <r>   10.6114    0.0000 </r>
       <r>   20.3153    0.0000 </r>
       <r>   24.5527    0.0000 </r>
       <r>   26.5541    0.0000 </r>
       <r>   26.7873    0.0000 </r>
       <r>   26.8839    0.0000 </r>
       <r>   27.7586    0.0000 </r>
      </set>
      <set comment="kpoint 50">
       <r>  -42.0852    1.0000 </r>
       <r>  -42.0730    1.0000 </r>
       <r>  -41.9576    1.0000 </r>
       <r>  -41.9426    1.0000 </r>
       <r>  -41.9008    1.0000 </r>
       <r>  -41.8280    1.0000 </r>
       <r>    3.9995    1.0000 </r>
       <r>    4.9848    1.0000 </r>
       <r>    5.8435    1.0000 </r>
       <r>    6.3459    1.0000 </r>
       <r>    6.6476    1.0000 </r>
       <r>    7.1149    1.0000 </r>
       <r>    8.2384    1.0000 </r>
       <r>    8.7269    1.0000 </r>
       <r>    9.4804    1.0000 </r>
       <r>    9.5476    1.0000 </r>
       <r>    9.9235    1.0000 </r>
       <r>   11.1989    0.0000 </r>
       <r>   20.6291    0.0000 </r>
       <r>   23.7352    0.0000 </r>
       <r>   24.1110    0.0000 </r>
       <r>   25.8974    0.0000 </r>
       <r>   25.9838    0.0000 </r>
       <r>   26.8886    0.0000 </r>
      </set>
      <set comment="kpoint 51">
       <r>  -42.1688    1.0000 </r>
       <r>  -42.1560    1.0000 </r>
       <r>  -41.9880    1.0000 </r>
       <r>  -41.9692    1.0000 </r>
       <r>  -41.8796    1.0000 </r>
       <r>  -41.8264    1.0000 </r>
       <r>    4.4160    1.0000 </r>
       <r>    4.9119    1.0000 </r>
       <r>    5.6744    1.0000 </r>
       <r>    6.0671    1.0000 </r>
       <r>    7.5110    1.0000 </r>
       <r>    7.9060    1.0000 </r>
       <r>    8.3054    1.0000 </r>
       <r>    9.0342    1.0000 </r>
       <r>    9.7382    1.0000 </r>
       <r>   10.4260    0.1993 </r>
       <r>   10.7769    0.0000 </r>
       <r>   12.0747    0.0000 </r>
       <r>   19.1327    0.0000 </r>
       <r>   20.9681    0.0000 </r>
       <r>   22.7744    0.0000 </r>
       <r>   24.5616    0.0000 </r>
       <r>   25.8233    0.0000 </r>
       <r>   25.9489    0.0000 </r>
      </set>
      <set comment="kpoint 52">
       <r>  -42.2209    1.0000 </r>
       <r>  -42.2066    1.0000 </r>
       <r>  -42.0066    1.0000 </r>
       <r>  -41.9857    1.0000 </r>
       <r>  -41.8633    1.0000 </r>
       <r>  -41.8288    1.0000 </r>
       <r>    4.3644    1.0000 </r>
       <r>    4.7224    1.0000 </r>
       <r>    5.6477    1.0000 </r>
       <r>    5.8350    1.0000 </r>
       <r>    7.6722    1.0000 </r>
       <r>    8.7593    1.0000 </r>
       <r>    8.9190    1.0000 </r>
       <r>    9.4301    1.0000 </r>
       <r>   10.1494    1.0000 </r>
       <r>   10.6450    0.0000 </r>
       <r>   12.2696    0.0000 </r>
       <r>   13.4856    0.0000 </r>
       <r>   16.7066    0.0000 </r>
       <r>   17.8623    0.0000 </r>
       <r>   22.8083    0.0000 </r>
       <r>   24.1637    0.0000 </r>
       <r>   25.0123    0.0000 </r>
       <r>   25.2590    0.0000 </r>
      </set>
      <set comment="kpoint 53">
       <r>  -42.1393    1.0000 </r>
       <r>  -42.1359    1.0000 </r>
       <r>  -42.0001    1.0000 </r>
       <r>  -41.9865    1.0000 </r>
       <r>  -41.8805    1.0000 </r>
       <r>  -41.8254    1.0000 </r>
       <r>    4.7487    1.0000 </r>
       <r>    5.2295    1.0000 </r>
       <r>    6.0565    1.0000 </r>
       <r>    6.1917    1.0000 </r>
       <r>    6.8592    1.0000 </r>
       <r>    6.8604    1.0000 </r>
       <r>    7.9564    1.0000 </r>
       <r>    8.8631    1.0000 </r>
       <r>    9.7304    1.0000 </r>
       <r>   10.4692    0.0194 </r>
       <r>   10.9641    0.0000 </r>
       <r>   12.1424    0.0000 </r>
       <r>   20.1915    0.0000 </r>
       <r>   21.7763    0.0000 </r>
       <r>   22.7167    0.0000 </r>
       <r>   23.7731    0.0000 </r>
       <r>   24.7312    0.0000 </r>
       <r>   26.3238    0.0000 </r>
      </set>
      <set comment="kpoint 54">
       <r>  -42.1827    1.0000 </r>
       <r>  -42.1739    1.0000 </r>
       <r>  -42.0428    1.0000 </r>
       <r>  -42.0259    1.0000 </r>
       <r>  -41.8609    1.0000 </r>
       <r>  -41.8269    1.0000 </r>
       <r>    4.9460    1.0000 </r>
       <r>    5.3099    1.0000 </r>
       <r>    5.8220    1.0000 </r>
       <r>    6.3734    1.0000 </r>
       <r>    6.9928    1.0000 </r>
       <r>    7.5174    1.0000 </r>
       <r>    8.0912    1.0000 </r>
       <r>    8.7475    1.0000 </r>
       <r>    9.9300    1.0000 </r>
       <r>   10.7142    0.0000 </r>
       <r>   12.7245    0.0000 </r>
       <r>   14.0317    0.0000 </r>
       <r>   17.7837    0.0000 </r>
       <r>   19.4092    0.0000 </r>
       <r>   21.2823    0.0000 </r>
       <r>   22.7977    0.0000 </r>
       <r>   24.4999    0.0000 </r>
       <r>   26.3592    0.0000 </r>
      </set>
      <set comment="kpoint 55">
       <r>  -42.1991    1.0000 </r>
       <r>  -42.1858    1.0000 </r>
       <r>  -42.0615    1.0000 </r>
       <r>  -42.0415    1.0000 </r>
       <r>  -41.8511    1.0000 </r>
       <r>  -41.8300    1.0000 </r>
       <r>    4.8980    1.0000 </r>
       <r>    5.3632    1.0000 </r>
       <r>    5.8137    1.0000 </r>
       <r>    6.3062    1.0000 </r>
       <r>    6.8443    1.0000 </r>
       <r>    7.8864    1.0000 </r>
       <r>    8.5653    1.0000 </r>
       <r>    8.8789    1.0000 </r>
       <r>   10.0818    1.0000 </r>
       <r>   10.4694    0.0192 </r>
       <r>   14.6366    0.0000 </r>
       <r>   14.7248    0.0000 </r>
       <r>   16.8031    0.0000 </r>
       <r>   17.2734    0.0000 </r>
       <r>   20.4110    0.0000 </r>
       <r>   22.5127    0.0000 </r>
       <r>   25.4046    0.0000 </r>
       <r>   25.6934    0.0000 </r>
      </set>
      <set comment="kpoint 56">
       <r>  -42.1650    1.0000 </r>
       <r>  -42.1583    1.0000 </r>
       <r>  -42.1040    1.0000 </r>
       <r>  -42.0868    1.0000 </r>
       <r>  -41.8449    1.0000 </r>
       <r>  -41.8319    1.0000 </r>
       <r>    5.4905    1.0000 </r>
       <r>    5.5568    1.0000 </r>
       <r>    6.2220    1.0000 </r>
       <r>    6.2835    1.0000 </r>
       <r>    6.8345    1.0000 </r>
       <r>    7.1699    1.0000 </r>
       <r>    8.0217    1.0000 </r>
[...]
       </set>
       <set comment="band 12">
        <r>  0.0000  0.0000  0.0000  0.0000  0.0000  0.0483  0.0000  0.0426  0.0000 </r>
        <r>  0.0170  0.0115  0.0000  0.0044  0.1077  0.0000  0.4200  0.0000  0.0874 </r>
       </set>
       <set comment="band 13">
        <r>  0.0036  0.0010  0.0000  0.0004  0.0655  0.0000  0.0014  0.0000  0.0478 </r>
        <r>  0.0000  0.0000  0.0002  0.0000  0.0000  0.2095  0.0000  0.5129  0.0000 </r>
       </set>
       <set comment="band 14">
        <r>  0.0000  0.0000  0.0002  0.0000  0.0000  0.2095  0.0000  0.5129  0.0000 </r>
        <r>  0.0036  0.0010  0.0000  0.0004  0.0655  0.0000  0.0014  0.0000  0.0478 </r>
       </set>
       <set comment="band 15">
        <r>  0.0050  0.0001  0.0000  0.0000  0.1765  0.0000  0.3494  0.0000  0.0628 </r>
        <r>  0.0000  0.0000  0.0019  0.0000  0.0000  0.1901  0.0000  0.1425  0.0000 </r>
       </set>
       <set comment="band 16">
        <r>  0.0000  0.0000  0.0019  0.0000  0.0000  0.1901  0.0000  0.1425  0.0000 </r>
        <r>  0.0050  0.0001  0.0000  0.0000  0.1765  0.0000  0.3494  0.0000  0.0628 </r>
       </set>
       <set comment="band 17">
        <r>  0.0887  0.0209  0.0000  0.0071  0.3063  0.0000  0.0082  0.0000  0.1099 </r>
        <r>  0.0000  0.0000  0.0106  0.0000  0.0000  0.1327  0.0000  0.0470  0.0000 </r>
       </set>
       <set comment="band 18">
        <r>  0.0000  0.0000  0.0106  0.0000  0.0000  0.1327  0.0000  0.0470  0.0000 </r>
        <r>  0.0887  0.0209  0.0000  0.0071  0.3063  0.0000  0.0082  0.0000  0.1099 </r>
       </set>
       <set comment="band 19">
        <r>  0.0000  0.0000  0.0327  0.0000  0.0000  0.0195  0.0000  0.0434  0.0000 </r>
        <r>  0.2627  0.0537  0.0000  0.0190  0.0092  0.0000  0.0097  0.0000  0.0042 </r>
       </set>
       <set comment="band 20">
        <r>  0.2627  0.0537  0.0000  0.0190  0.0092  0.0000  0.0097  0.0000  0.0042 </r>
        <r>  0.0000  0.0000  0.0327  0.0000  0.0000  0.0195  0.0000  0.0434  0.0000 </r>
       </set>
       <set comment="band 21">
        <r>  0.0006  0.0430  0.0000  0.0657  0.0330  0.0000  0.0447  0.0000  0.0988 </r>
        <r>  0.0000  0.0000  0.0767  0.0000  0.0000  0.0084  0.0000  0.0171  0.0000 </r>
       </set>
       <set comment="band 22">
        <r>  0.0000  0.0000  0.0767  0.0000  0.0000  0.0084  0.0000  0.0171  0.0000 </r>
        <r>  0.0006  0.0430  0.0000  0.0657  0.0330  0.0000  0.0447  0.0000  0.0988 </r>
       </set>
       <set comment="band 23">
        <r>  0.0008  0.0426  0.0000  0.0351  0.0160  0.0000  0.0555  0.0000  0.0481 </r>
        <r>  0.0000  0.0000  0.0392  0.0000  0.0000  0.0683  0.0000  0.0272  0.0000 </r>
       </set>
       <set comment="band 24">
        <r>  0.0000  0.0000  0.0392  0.0000  0.0000  0.0683  0.0000  0.0272  0.0000 </r>
        <r>  0.0008  0.0426  0.0000  0.0351  0.0160  0.0000  0.0555  0.0000  0.0481 </r>
       </set>
      </set>
      <set comment="kpoint 68">
       <set comment="band 1">
        <r>  0.0000  0.4888  0.0000  0.4595  0.0000  0.0000  0.0000  0.0000  0.0000 </r>
        <r>  0.0000  0.0000  0.0375  0.0000  0.0000  0.0000  0.0000  0.0000  0.0000 </r>
       </set>
       <set comment="band 2">
        <r>  0.0000  0.0000  0.0375  0.0000  0.0000  0.0000  0.0000  0.0000  0.0000 </r>
        <r>  0.0000  0.4888  0.0000  0.4595  0.0000  0.0000  0.0000  0.0000  0.0000 </r>
       </set>
       <set comment="band 3">
        <r>  0.0000  0.4687  0.0000  0.4992  0.0000  0.0000  0.0000  0.0000  0.0000 </r>
        <r>  0.0000  0.0000  0.0230  0.0000  0.0000  0.0000  0.0000  0.0000  0.0000 </r>
       </set>
       <set comment="band 4">
        <r>  0.0000  0.0000  0.0230  0.0000  0.0000  0.0000  0.0000  0.0000  0.0000 </r>
        <r>  0.0000  0.4687  0.0000  0.4992  0.0000  0.0000  0.0000  0.0000  0.0000 </r>
       </set>
       <set comment="band 5">
        <r>  0.0000  0.0313  0.0000  0.0303  0.0000  0.0000  0.0000  0.0000  0.0000 </r>
        <r>  0.0000  0.0000  0.9306  0.0000  0.0000  0.0000  0.0000  0.0000  0.0000 </r>
       </set>
       <set comment="band 6">
        <r>  0.0000  0.0000  0.9306  0.0000  0.0000  0.0000  0.0000  0.0000  0.0000 </r>
        <r>  0.0000  0.0313  0.0000  0.0303  0.0000  0.0000  0.0000  0.0000  0.0000 </r>
       </set>
       <set comment="band 7">
        <r>  0.0638  0.0055  0.0000  0.0017  0.0966  0.0000  0.0560  0.0000  0.0372 </r>
        <r>  0.0000  0.0000  0.0024  0.0000  0.0000  0.1931  0.0000  0.1780  0.0000 </r>
       </set>
       <set comment="band 8">
        <r>  0.0000  0.0000  0.0024  0.0000  0.0000  0.1931  0.0000  0.1780  0.0000 </r>
        <r>  0.0638  0.0055  0.0000  0.0017  0.0966  0.0000  0.0560  0.0000  0.0372 </r>
       </set>
       <set comment="band 9">
        <r>  0.0075  0.0065  0.0000  0.0044  0.2673  0.0000  0.1270  0.0000  0.2135 </r>
        <r>  0.0000  0.0000  0.0025  0.0000  0.0000  0.0711  0.0000  0.0308  0.0000 </r>
       </set>
       <set comment="band 10">
        <r>  0.0000  0.0000  0.0025  0.0000  0.0000  0.0711  0.0000  0.0308  0.0000 </r>
        <r>  0.0075  0.0065  0.0000  0.0044  0.2673  0.0000  0.1270  0.0000  0.2135 </r>
       </set>
       <set comment="band 11">
        <r>  0.0155  0.0100  0.0000  0.0182  0.0584  0.0000  0.1457  0.0000  0.1750 </r>
        <r>  0.0000  0.0000  0.0038  0.0000  0.0000  0.0953  0.0000  0.1565  0.0000 </r>
       </set>
       <set comment="band 12">
        <r>  0.0000  0.0000  0.0038  0.0000  0.0000  0.0953  0.0000  0.1565  0.0000 </r>
        <r>  0.0155  0.0100  0.0000  0.0182  0.0584  0.0000  0.1457  0.0000  0.1750 </r>
       </set>
       <set comment="band 13">
        <r>  0.0131  0.0015  0.0000  0.0037  0.0740  0.0000  0.0365  0.0000  0.2120 </r>
        <r>  0.0000  0.0000  0.0003  0.0000  0.0000  0.2175  0.0000  0.2674  0.0000 </r>
       </set>
       <set comment="band 14">
        <r>  0.0000  0.0000  0.0003  0.0000  0.0000  0.2175  0.0000  0.2674  0.0000 </r>
        <r>  0.0131  0.0015  0.0000  0.0037  0.0740  0.0000  0.0365  0.0000  0.2120 </r>
       </set>
       <set comment="band 15">
        <r>  0.0035  0.0014  0.0000  0.0004  0.0931  0.0000  0.4809  0.0000  0.0384 </r>
        <r>  0.0000  0.0000  0.0018  0.0000  0.0000  0.1750  0.0000  0.1290  0.0000 </r>
       </set>
       <set comment="band 16">
        <r>  0.0000  0.0000  0.0018  0.0000  0.0000  0.1750  0.0000  0.1290  0.0000 </r>
        <r>  0.0035  0.0014  0.0000  0.0004  0.0931  0.0000  0.4809  0.0000  0.0384 </r>
       </set>
       <set comment="band 17">
        <r>  0.1049  0.0296  0.0000  0.0210  0.2657  0.0000  0.0056  0.0000  0.1200 </r>
        <r>  0.0000  0.0000  0.0172  0.0000  0.0000  0.0652  0.0000  0.0221  0.0000 </r>
       </set>
       <set comment="band 18">
        <r>  0.0000  0.0000  0.0172  0.0000  0.0000  0.0652  0.0000  0.0221  0.0000 </r>
        <r>  0.1049  0.0296  0.0000  0.0210  0.2657  0.0000  0.0056  0.0000  0.1200 </r>
       </set>
       <set comment="band 19">
        <r>  0.0000  0.0000  0.0140  0.0000  0.0000  0.0127  0.0000  0.0814  0.0000 </r>
        <r>  0.2928  0.0245  0.0000  0.0410  0.0154  0.0000  0.0242  0.0000  0.0320 </r>
       </set>
       <set comment="band 20">
        <r>  0.2928  0.0245  0.0000  0.0410  0.0154  0.0000  0.0242  0.0000  0.0320 </r>
        <r>  0.0000  0.0000  0.0140  0.0000  0.0000  0.0127  0.0000  0.0814  0.0000 </r>
       </set>
       <set comment="band 21">
        <r>  0.0241  0.0745  0.0000  0.0514  0.0508  0.0000  0.0065  0.0000  0.1039 </r>
        <r>  0.0000  0.0000  0.0411  0.0000  0.0000  0.0419  0.0000  0.0147  0.0000 </r>
       </set>
       <set comment="band 22">
        <r>  0.0000  0.0000  0.0411  0.0000  0.0000  0.0419  0.0000  0.0147  0.0000 </r>
        <r>  0.0241  0.0745  0.0000  0.0514  0.0508  0.0000  0.0065  0.0000  0.1039 </r>
       </set>
       <set comment="band 23">
        <r>  0.0064  0.0327  0.0000  0.0258  0.0109  0.0000  0.0241  0.0000  0.0161 </r>
        <r>  0.0000  0.0000  0.0892  0.0000  0.0000  0.0419  0.0000  0.0230  0.0000 </r>
       </set>
       <set comment="band 24">
        <r>  0.0000  0.0000  0.0892  0.0000  0.0000  0.0419  0.0000  0.0230  0.0000 </r>
        <r>  0.0064  0.0327  0.0000  0.0258  0.0109  0.0000  0.0241  0.0000  0.0161 </r>
       </set>
      </set>
      <set comment="kpoint 69">
       <set comment="band 1">
        <r>  0.0000  0.2386  0.0000  0.7116  0.0000  0.0000  0.0000  0.0000  0.0000 </r>
        <r>  0.0000  0.0000  0.0352  0.0000  0.0000  0.0000  0.0000  0.0000  0.0000 </r>
       </set>
       <set comment="band 2">
        <r>  0.0000  0.0000  0.0352  0.0000  0.0000  0.0000  0.0000  0.0000  0.0000 </r>
        <r>  0.0000  0.2386  0.0000  0.7116  0.0000  0.0000  0.0000  0.0000  0.0000 </r>
       </set>
       <set comment="band 3">
        <r>  0.0000  0.7227  0.0000  0.2448  0.0000  0.0000  0.0000  0.0000  0.0000 </r>
        <r>  0.0000  0.0000  0.0228  0.0000  0.0000  0.0000  0.0000  0.0000  0.0000 </r>
       </set>
       <set comment="band 4">
        <r>  0.0000  0.0000  0.0228  0.0000  0.0000  0.0000  0.0000  0.0000  0.0000 </r>
        <r>  0.0000  0.7227  0.0000  0.2448  0.0000  0.0000  0.0000  0.0000  0.0000 </r>
       </set>
       <set comment="band 5">
        <r>  0.0000  0.0282  0.0000  0.0309  0.0000  0.0000  0.0000  0.0000  0.0000 </r>
        <r>  0.0000  0.0000  0.9333  0.0000  0.0000  0.0000  0.0000  0.0000  0.0000 </r>
       </set>
       <set comment="band 6">
        <r>  0.0000  0.0000  0.9333  0.0000  0.0000  0.0000  0.0000  0.0000  0.0000 </r>
        <r>  0.0000  0.0282  0.0000  0.0309  0.0000  0.0000  0.0000  0.0000  0.0000 </r>
       </set>
       <set comment="band 7">
        <r>  0.0550  0.0046  0.0000  0.0024  0.1368  0.0000  0.0485  0.0000  0.0469 </r>
        <r>  0.0000  0.0000  0.0008  0.0000  0.0000  0.0912  0.0000  0.2642  0.0000 </r>
       </set>
       <set comment="band 8">
        <r>  0.0000  0.0000  0.0008  0.0000  0.0000  0.0912  0.0000  0.2642  0.0000 </r>
        <r>  0.0550  0.0046  0.0000  0.0024  0.1368  0.0000  0.0485  0.0000  0.0469 </r>
       </set>
       <set comment="band 9">
        <r>  0.0001  0.0070  0.0000  0.0026  0.2971  0.0000  0.1833  0.0000  0.1004 </r>
        <r>  0.0000  0.0000  0.0008  0.0000  0.0000  0.0700  0.0000  0.0818  0.0000 </r>
       </set>
       <set comment="band 10">
        <r>  0.0000  0.0000  0.0008  0.0000  0.0000  0.0700  0.0000  0.0818  0.0000 </r>
        <r>  0.0001  0.0070  0.0000  0.0026  0.2971  0.0000  0.1833  0.0000  0.1004 </r>
       </set>
       <set comment="band 11">
        <r>  0.0098  0.0052  0.0000  0.0156  0.0582  0.0000  0.0189  0.0000  0.0941 </r>
        <r>  0.0000  0.0000  0.0043  0.0000  0.0000  0.3363  0.0000  0.1553  0.0000 </r>
       </set>
       <set comment="band 12">
        <r>  0.0000  0.0000  0.0043  0.0000  0.0000  0.3363  0.0000  0.1553  0.0000 </r>
        <r>  0.0098  0.0052  0.0000  0.0156  0.0582  0.0000  0.0189  0.0000  0.0941 </r>
       </set>
       <set comment="band 13">
        <r>  0.0003  0.0053  0.0000  0.0155  0.1421  0.0000  0.0071  0.0000  0.3949 </r>
        <r>  0.0000  0.0000  0.0021  0.0000  0.0000  0.1505  0.0000  0.0751  0.0000 </r>
       </set>
       <set comment="band 14">
        <r>  0.0000  0.0000  0.0021  0.0000  0.0000  0.1505  0.0000  0.0751  0.0000 </r>
        <r>  0.0003  0.0053  0.0000  0.0155  0.1421  0.0000  0.0071  0.0000  0.3949 </r>
       </set>
       <set comment="band 15">
        <r>  0.0000  0.0005  0.0000  0.0002  0.0320  0.0000  0.5951  0.0000  0.0250 </r>
        <r>  0.0000  0.0000  0.0006  0.0000  0.0000  0.1200  0.0000  0.1554  0.0000 </r>
       </set>
       <set comment="band 16">
        <r>  0.0000  0.0000  0.0006  0.0000  0.0000  0.1200  0.0000  0.1554  0.0000 </r>
        <r>  0.0000  0.0005  0.0000  0.0002  0.0320  0.0000  0.5951  0.0000  0.0250 </r>
       </set>
       <set comment="band 17">
        <r>  0.0357  0.0239  0.0000  0.0683  0.0923  0.0000  0.0145  0.0000  0.2002 </r>
        <r>  0.0000  0.0000  0.0327  0.0000  0.0000  0.0234  0.0000  0.0109  0.0000 </r>
       </set>
       <set comment="band 18">
        <r>  0.0000  0.0000  0.0327  0.0000  0.0000  0.0234  0.0000  0.0109  0.0000 </r>
        <r>  0.0357  0.0239  0.0000  0.0683  0.0923  0.0000  0.0145  0.0000  0.2002 </r>
       </set>
       <set comment="band 19">
        <r>  0.0000  0.0000  0.0000  0.0000  0.0000  0.0444  0.0000  0.1019  0.0000 </r>
        <r>  0.3877  0.0056  0.0000  0.0152  0.0684  0.0000  0.0196  0.0000  0.0413 </r>
       </set>
       <set comment="band 20">
        <r>  0.3877  0.0056  0.0000  0.0152  0.0684  0.0000  0.0196  0.0000  0.0413 </r>
        <r>  0.0000  0.0000  0.0000  0.0000  0.0000  0.0444  0.0000  0.1019  0.0000 </r>
       </set>
       <set comment="band 21">
        <r>  0.0383  0.0968  0.0000  0.0370  0.0960  0.0000  0.0016  0.0000  0.0346 </r>
        <r>  0.0000  0.0000  0.0299  0.0000  0.0000  0.0488  0.0000  0.0198  0.0000 </r>
       </set>
       <set comment="band 22">
        <r>  0.0000  0.0000  0.0299  0.0000  0.0000  0.0488  0.0000  0.0198  0.0000 </r>
        <r>  0.0383  0.0968  0.0000  0.0370  0.0960  0.0000  0.0016  0.0000  0.0346 </r>
       </set>
       <set comment="band 23">
        <r>  0.0061  0.0178  0.0000  0.0403  0.0153  0.0000  0.0062  0.0000  0.0147 </r>
        <r>  0.0000  0.0000  0.0997  0.0000  0.0000  0.0224  0.0000  0.0250  0.0000 </r>
       </set>
       <set comment="band 24">
        <r>  0.0000  0.0000  0.0997  0.0000  0.0000  0.0224  0.0000  0.0250  0.0000 </r>
        <r>  0.0061  0.0178  0.0000  0.0403  0.0153  0.0000  0.0062  0.0000  0.0147 </r>
       </set>
      </set>
      <set comment="kpoint 70">
       <set comment="band 1">
        <r>  0.0000  0.7016  0.0000  0.2451  0.0000  0.0000  0.0000  0.0000  0.0000 </r>
        <r>  0.0000  0.0000  0.0398  0.0000  0.0000  0.0000  0.0000  0.0000  0.0000 </r>
       </set>
       <set comment="band 2">
        <r>  0.0000  0.0000  0.0398  0.0000  0.0000  0.0000  0.0000  0.0000  0.0000 </r>
        <r>  0.0000  0.7016  0.0000  0.2451  0.0000  0.0000  0.0000  0.0000  0.0000 </r>
       </set>
       <set comment="band 3">
        <r>  0.0000  0.2550  0.0000  0.7133  0.0000  0.0000  0.0000  0.0000  0.0000 </r>
        <r>  0.0000  0.0000  0.0206  0.0000  0.0000  0.0000  0.0000  0.0000  0.0000 </r>
       </set>
       <set comment="band 4">
        <r>  0.0000  0.0000  0.0206  0.0000  0.0000  0.0000  0.0000  0.0000  0.0000 </r>
        <r>  0.0000  0.2550  0.0000  0.7133  0.0000  0.0000  0.0000  0.0000  0.0000 </r>
       </set>
       <set comment="band 5">
        <r>  0.0000  0.0312  0.0000  0.0303  0.0000  0.0000  0.0000  0.0000  0.0000 </r>
        <r>  0.0000  0.0000  0.9310  0.0000  0.0000  0.0000  0.0000  0.0000  0.0000 </r>
       </set>
       <set comment="band 6">
        <r>  0.0000  0.0000  0.9310  0.0000  0.0000  0.0000  0.0000  0.0000  0.0000 </r>
        <r>  0.0000  0.0312  0.0000  0.0303  0.0000  0.0000  0.0000  0.0000  0.0000 </r>
       </set>
       <set comment="band 7">
        <r>  0.0445  0.0020  0.0000  0.0020  0.0161  0.0000  0.1466  0.0000  0.0212 </r>
        <r>  0.0000  0.0000  0.0003  0.0000  0.0000  0.3154  0.0000  0.1371  0.0000 </r>
       </set>
       <set comment="band 8">
        <r>  0.0000  0.0000  0.0003  0.0000  0.0000  0.3154  0.0000  0.1371  0.0000 </r>
        <r>  0.0445  0.0020  0.0000  0.0020  0.0161  0.0000  0.1466  0.0000  0.0212 </r>
       </set>
       <set comment="band 9">
        <r>  0.0044  0.0065  0.0000  0.0139  0.0930  0.0000  0.0467  0.0000  0.2537 </r>
        <r>  0.0000  0.0000  0.0008  0.0000  0.0000  0.0720  0.0000  0.1917  0.0000 </r>
       </set>
       <set comment="band 10">
        <r>  0.0000  0.0000  0.0008  0.0000  0.0000  0.0720  0.0000  0.1917  0.0000 </r>
        <r>  0.0044  0.0065  0.0000  0.0139  0.0930  0.0000  0.0467  0.0000  0.2537 </r>
       </set>
       <set comment="band 11">
        <r>  0.0020  0.0194  0.0000  0.0099  0.2645  0.0000  0.0307  0.0000  0.2308 </r>
        <r>  0.0000  0.0000  0.0054  0.0000  0.0000  0.0412  0.0000  0.0778  0.0000 </r>
       </set>
       <set comment="band 12">
        <r>  0.0000  0.0000  0.0054  0.0000  0.0000  0.0412  0.0000  0.0778  0.0000 </r>
        <r>  0.0020  0.0194  0.0000  0.0099  0.2645  0.0000  0.0307  0.0000  0.2308 </r>
       </set>
       <set comment="band 13">
        <r>  0.0050  0.0045  0.0000  0.0018  0.2612  0.0000  0.0131  0.0000  0.1643 </r>
        <r>  0.0000  0.0000  0.0002  0.0000  0.0000  0.1572  0.0000  0.2204  0.0000 </r>
       </set>
       <set comment="band 14">
        <r>  0.0000  0.0000  0.0002  0.0000  0.0000  0.1572  0.0000  0.2204  0.0000 </r>
        <r>  0.0050  0.0045  0.0000  0.0018  0.2612  0.0000  0.0131  0.0000  0.1643 </r>
       </set>
       <set comment="band 15">
        <r>  0.0006  0.0005  0.0000  0.0002  0.0223  0.0000  0.6282  0.0000  0.0085 </r>
        <r>  0.0000  0.0000  0.0003  0.0000  0.0000  0.1464  0.0000  0.1216  0.0000 </r>
       </set>
       <set comment="band 16">
        <r>  0.0000  0.0000  0.0003  0.0000  0.0000  0.1464  0.0000  0.1216  0.0000 </r>
        <r>  0.0006  0.0005  0.0000  0.0002  0.0223  0.0000  0.6282  0.0000  0.0085 </r>
       </set>
       <set comment="band 17">
        <r>  0.1654  0.0405  0.0000  0.0160  0.1806  0.0000  0.0084  0.0000  0.0725 </r>
        <r>  0.0000  0.0000  0.0272  0.0000  0.0000  0.0544  0.0000  0.0209  0.0000 </r>
       </set>
       <set comment="band 18">
        <r>  0.0000  0.0000  0.0272  0.0000  0.0000  0.0544  0.0000  0.0209  0.0000 </r>
        <r>  0.1654  0.0405  0.0000  0.0160  0.1806  0.0000  0.0084  0.0000  0.0725 </r>
       </set>
       <set comment="band 19">
        <r>  0.3101  0.0356  0.0000  0.0157  0.0289  0.0000  0.0142  0.0000  0.0202 </r>
        <r>  0.0000  0.0000  0.0183  0.0000  0.0000  0.0424  0.0000  0.0641  0.0000 </r>
       </set>
       <set comment="band 20">
        <r>  0.0000  0.0000  0.0183  0.0000  0.0000  0.0424  0.0000  0.0641  0.0000 </r>
        <r>  0.3101  0.0356  0.0000  0.0157  0.0289  0.0000  0.0142  0.0000  0.0202 </r>
       </set>
       <set comment="band 21">
        <r>  0.0008  0.0448  0.0000  0.0881  0.0690  0.0000  0.0014  0.0000  0.1608 </r>
        <r>  0.0000  0.0000  0.0166  0.0000  0.0000  0.0406  0.0000  0.0456  0.0000 </r>
       </set>
       <set comment="band 22">
        <r>  0.0000  0.0000  0.0166  0.0000  0.0000  0.0406  0.0000  0.0456  0.0000 </r>
        <r>  0.0008  0.0448  0.0000  0.0881  0.0690  0.0000  0.0014  0.0000  0.1608 </r>
       </set>
       <set comment="band 23">
        <r>  0.0022  0.0461  0.0000  0.0238  0.0212  0.0000  0.0041  0.0000  0.0177 </r>
        <r>  0.0000  0.0000  0.1256  0.0000  0.0000  0.0211  0.0000  0.0152  0.0000 </r>
       </set>
       <set comment="band 24">
        <r>  0.0000  0.0000  0.1256  0.0000  0.0000  0.0211  0.0000  0.0152  0.0000 </r>
        <r>  0.0022  0.0461  0.0000  0.0238  0.0212  0.0000  0.0041  0.0000  0.0177 </r>
       </set>
      </set>
     </set>
    </set>
   </array>
  </projected>
 </calculation>
 <structure name="finalpos" >
  <crystal>
   <varray name="basis" >
    <v>       2.79811084       0.00000000       0.00000000 </v>
    <v>      -1.39905542       2.42323507       0.00000000 </v>
    <v>       0.00000000       0.00000000       4.84766181 </v>
   </varray>
   <i name="volume">     32.86947539 </i>
   <varray name="rec_basis" >
    <v>       0.35738398       0.20633574       0.00000000 </v>
    <v>       0.00000000       0.41267148       0.00000000 </v>
    <v>       0.00000000       0.00000000       0.20628502 </v>
   </varray>
  </crystal>
  <varray name="positions" >
   <v>       0.00000000       0.00000000       0.00000000 </v>
   <v>       0.33333333       0.66666667       0.50000000 </v>
  </varray>
 </structure>
</modeling>
