Co-fcc                                  
   1.00000000000000     
     0.000000    1.736725    1.736725
     1.736725    0.000000    1.736725
     1.736725    1.736725    0.000000
   Co
     1
Direct
  0.000000  0.000000  0.000000
 
   32   32   32
  99.241      97.089      90.920      81.533      70.032      57.601      45.310      34.012      24.316      16.588    
  10.954      7.2974      5.2706      4.3490      3.9376      3.6984      3.6183      3.6984      3.9376      4.3490    
  5.2706      7.2974      10.954      16.588      24.316      34.012      45.310      57.601      70.032      81.533    
  90.920      97.089      97.089      92.929      85.161      74.745      62.830      50.545      38.844      28.452    
  19.852      13.287      8.7621      6.0404      4.6766      4.0970      3.7839      3.6257      3.6257      3.7839    
  4.0970      4.6766      6.0404      8.7621      13.287      19.852      28.452      38.844      50.545      62.830    
  74.745      85.161      92.929      97.089      90.920      85.161      76.386      65.618      53.960      42.420    
  31.811      22.720      15.501      10.275      6.9193      5.0870      4.2626      3.8757      3.6465      3.5701    
  3.6465      3.8757      4.2626      5.0870      6.9193      10.275      15.501      22.720      31.811      42.420    
  53.960      65.618      76.386      85.161      90.920      92.929      81.533      74.745      65.618      55.147    
  44.323      34.004      24.855      17.327      11.644      7.7973      5.5438      4.4483      3.9655      3.6769    
  3.5325      3.5325      3.6769      3.9655      4.4483      5.5438      7.7973      11.644      17.327      24.855    
  34.004      44.323      55.147      65.618      74.745      81.533      85.161      85.161      70.032      62.830    
  53.960      44.323      34.767      25.995      18.529      12.683      8.5469      5.9821      4.6438      4.0461    
  3.7115      3.5110      3.4447      3.5110      3.7115      4.0461      4.6438      5.9821      8.5469      12.683    
  18.529      25.995      34.767      44.323      53.960      62.830      70.032      74.745      76.386      74.745    
  57.601      50.545      42.420      34.004      25.995      18.949      13.243      9.0513      6.3281      4.8205    
  4.1158      3.7447      3.5017      3.3822      3.3822      3.5017      3.7447      4.1158      4.8205      6.3281    
  9.0513      13.243      18.949      25.995      34.004      42.420      50.545      57.601      62.830      65.618    
  65.618      62.830      45.310      38.844      31.811      24.855      18.529      13.243      9.2291      6.5189    
  4.9442      4.1702      3.7717      3.4999      3.3412      3.2895      3.3412      3.4999      3.7717      4.1702    
  4.9442      6.5189      9.2291      13.243      18.529      24.855      31.811      38.844      45.310      50.545    
  53.960      55.147      53.960      50.545      34.012      28.452      22.720      17.327      12.683      9.0513    
  6.5189      4.9887      4.2006      3.7892      3.5014      3.3169      3.2281      3.2281      3.3169      3.5014    
  3.7892      4.2006      4.9887      6.5189      9.0513      12.683      17.327      22.720      28.452      34.012    
  38.844      42.420      44.323      44.323      42.420      38.844      24.316      19.852      15.501      11.644    
  8.5469      6.3281      4.9442      4.2006      3.7952      3.5030      3.3045      3.1919      3.1557      3.1919    
  3.3045      3.5030      3.7952      4.2006      4.9442      6.3281      8.5469      11.644      15.501      19.852    
  24.316      28.452      31.811      34.004      34.767      34.004      31.811      28.452      16.588      13.287    
  10.275      7.7973      5.9821      4.8205      4.1702      3.7892      3.5030      3.3008      3.1754      3.1162    
  3.1162      3.1754      3.3008      3.5030      3.7892      4.1702      4.8205      5.9821      7.7973      10.275    
  13.287      16.588      19.852      22.720      24.855      25.995      25.995      24.855      22.720      19.852    
  10.954      8.7621      6.9193      5.5438      4.6438      4.1158      3.7717      3.5014      3.3045      3.1754    
  3.1038      3.0811      3.1038      3.1754      3.3045      3.5014      3.7717      4.1158      4.6438      5.5438    
  6.9193      8.7621      10.954      13.287      15.501      17.327      18.529      18.949      18.529      17.327    
  15.501      13.287      7.2974      6.0404      5.0870      4.4483      4.0461      3.7447      3.4999      3.3169    
  3.1919      3.1162      3.0811      3.0811      3.1162      3.1919      3.3169      3.4999      3.7447      4.0461    
  4.4483      5.0870      6.0404      7.2974      8.7621      10.275      11.644      12.683      13.243      13.243    
  12.683      11.644      10.275      8.7621      5.2706      4.6766      4.2626      3.9655      3.7115      3.5017    
  3.3412      3.2281      3.1557      3.1162      3.1038      3.1162      3.1557      3.2281      3.3412      3.5017    
  3.7115      3.9655      4.2626      4.6766      5.2706      6.0404      6.9193      7.7973      8.5469      9.0513    
  9.2291      9.0513      8.5469      7.7973      6.9193      6.0404      4.3490      4.0970      3.8757      3.6769    
  3.5110      3.3822      3.2895      3.2281      3.1919      3.1754      3.1754      3.1919      3.2281      3.2895    
  3.3822      3.5110      3.6769      3.8757      4.0970      4.3490      4.6766      5.0870      5.5438      5.9821    
  6.3281      6.5189      6.5189      6.3281      5.9821      5.5438      5.0870      4.6766      3.9376      3.7839    
  3.6465      3.5325      3.4447      3.3822      3.3412      3.3169      3.3045      3.3008      3.3045      3.3169    
  3.3412      3.3822      3.4447      3.5325      3.6465      3.7839      3.9376      4.0970      4.2626      4.4483    
  4.6438      4.8205      4.9442      4.9887      4.9442      4.8205      4.6438      4.4483      4.2626      4.0970    
  3.6984      3.6257      3.5701      3.5325      3.5110      3.5017      3.4999      3.5014      3.5030      3.5030    
  3.5014      3.4999      3.5017      3.5110      3.5325      3.5701      3.6257      3.6984      3.7839      3.8757    
  3.9655      4.0461      4.1158      4.1702      4.2006      4.2006      4.1702      4.1158      4.0461      3.9655    
  3.8757      3.7839      3.6183      3.6257      3.6465      3.6769      3.7115      3.7447      3.7717      3.7892    
  3.7952      3.7892      3.7717      3.7447      3.7115      3.6769      3.6465      3.6257      3.6183      3.6257    
  3.6465      3.6769      3.7115      3.7447      3.7717      3.7892      3.7952      3.7892      3.7717      3.7447    
  3.7115      3.6769      3.6465      3.6257      3.6984      3.7839      3.8757      3.9655      4.0461      4.1158    
  4.1702      4.2006      4.2006      4.1702      4.1158      4.0461      3.9655      3.8757      3.7839      3.6984    
  3.6257      3.5701      3.5325      3.5110      3.5017      3.4999      3.5014      3.5030      3.5030      3.5014    
  3.4999      3.5017      3.5110      3.5325      3.5701      3.6257      3.9376      4.0970      4.2626      4.4483    
  4.6438      4.8205      4.9442      4.9887      4.9442      4.8205      4.6438      4.4483      4.2626      4.0970    
  3.9376      3.7839      3.6465      3.5325      3.4447      3.3822      3.3412      3.3169      3.3045      3.3008    
  3.3045      3.3169      3.3412      3.3822      3.4447      3.5325      3.6465      3.7839      4.3490      4.6766    
  5.0870      5.5438      5.9821      6.3281      6.5189      6.5189      6.3281      5.9821      5.5438      5.0870    
  4.6766      4.3490      4.0970      3.8757      3.6769      3.5110      3.3822      3.2895      3.2281      3.1919    
  3.1754      3.1754      3.1919      3.2281      3.2895      3.3822      3.5110      3.6769      3.8757      4.0970    
  5.2706      6.0404      6.9193      7.7973      8.5469      9.0513      9.2291      9.0513      8.5469      7.7973    
  6.9193      6.0404      5.2706      4.6766      4.2626      3.9655      3.7115      3.5017      3.3412      3.2281    
  3.1557      3.1162      3.1038      3.1162      3.1557      3.2281      3.3412      3.5017      3.7115      3.9655    
  4.2626      4.6766      7.2974      8.7621      10.275      11.644      12.683      13.243      13.243      12.683    
  11.644      10.275      8.7621      7.2974      6.0404      5.0870      4.4483      4.0461      3.7447      3.4999    
  3.3169      3.1919      3.1162      3.0811      3.0811      3.1162      3.1919      3.3169      3.4999      3.7447    
  4.0461      4.4483      5.0870      6.0404      10.954      13.287      15.501      17.327      18.529      18.949    
  18.529      17.327      15.501      13.287      10.954      8.7621      6.9193      5.5438      4.6438      4.1158    
  3.7717      3.5014      3.3045      3.1754      3.1038      3.0811      3.1038      3.1754      3.3045      3.5014    
  3.7717      4.1158      4.6438      5.5438      6.9193      8.7621      16.588      19.852      22.720      24.855    
  25.995      25.995      24.855      22.720      19.852      16.588      13.287      10.275      7.7973      5.9821    
  4.8205      4.1702      3.7892      3.5030      3.3008      3.1754      3.1162      3.1162      3.1754      3.3008    
  3.5030      3.7892      4.1702      4.8205      5.9821      7.7973      10.275      13.287      24.316      28.452    
  31.811      34.004      34.767      34.004      31.811      28.452      24.316      19.852      15.501      11.644    
  8.5469      6.3281      4.9442      4.2006      3.7952      3.5030      3.3045      3.1919      3.1557      3.1919    
  3.3045      3.5030      3.7952      4.2006      4.9442      6.3281      8.5469      11.644      15.501      19.852    
  34.012      38.844      42.420      44.323      44.323      42.420      38.844      34.012      28.452      22.720    
  17.327      12.683      9.0513      6.5189      4.9887      4.2006      3.7892      3.5014      3.3169      3.2281    
  3.2281      3.3169      3.5014      3.7892      4.2006      4.9887      6.5189      9.0513      12.683      17.327    
  22.720      28.452      45.310      50.545      53.960      55.147      53.960      50.545      45.310      38.844    
  31.811      24.855      18.529      13.243      9.2291      6.5189      4.9442      4.1702      3.7717      3.4999    
  3.3412      3.2895      3.3412      3.4999      3.7717      4.1702      4.9442      6.5189      9.2291      13.243    
  18.529      24.855      31.811      38.844      57.601      62.830      65.618      65.618      62.830      57.601    
  50.545      42.420      34.004      25.995      18.949      13.243      9.0513      6.3281      4.8205      4.1158    
  3.7447      3.5017      3.3822      3.3822      3.5017      3.7447      4.1158      4.8205      6.3281      9.0513    
  13.243      18.949      25.995      34.004      42.420      50.545      70.032      74.745      76.386      74.745    
  70.032      62.830      53.960      44.323      34.767      25.995      18.529      12.683      8.5469      5.9821    
  4.6438      4.0461      3.7115      3.5110      3.4447      3.5110      3.7115      4.0461      4.6438      5.9821    
  8.5469      12.683      18.529      25.995      34.767      44.323      53.960      62.830      81.533      85.161    
  85.161      81.533      74.745      65.618      55.147      44.323      34.004      24.855      17.327      11.644    
  7.7973      5.5438      4.4483      3.9655      3.6769      3.5325      3.5325      3.6769      3.9655      4.4483    
  5.5438      7.7973      11.644      17.327      24.855      34.004      44.323      55.147      65.618      74.745    
  90.920      92.929      90.920      85.161      76.386      65.618      53.960      42.420      31.811      22.720    
  15.501      10.275      6.9193      5.0870      4.2626      3.8757      3.6465      3.5701      3.6465      3.8757    
  4.2626      5.0870      6.9193      10.275      15.501      22.720      31.811      42.420      53.960      65.618    
  76.386      85.161      97.089      97.089      92.929      85.161      74.745      62.830      50.545      38.844    
  28.452      19.852      13.287      8.7621      6.0404      4.6766      4.0970      3.7839      3.6257      3.6257    
  3.7839      4.0970      4.6766      6.0404      8.7621      13.287      19.852      28.452      38.844      50.545    
  62.830      74.745      85.161      92.929      97.089      92.929      85.161      74.745      62.830      50.545    
  38.844      28.452      19.852      13.287      8.7621      6.0404      4.6766      4.0970      3.7839      3.6257    
  3.6257      3.7839      4.0970      4.6766      6.0404      8.7621      13.287      19.852      28.452      38.844    
  50.545      62.830      74.745      85.161      92.929      97.089      92.929      87.045      78.080      67.083    
  55.180      43.396      32.560      23.265      15.874      10.509      7.0509      5.1533      4.2968      3.9017    
  3.6690      3.5912      3.6690      3.9017      4.2968      5.1533      7.0509      10.509      15.874      23.265    
  32.560      43.396      55.180      67.083      78.080      87.045      92.929      94.982      85.161      78.080    
  68.564      57.650      46.368      35.607      26.053      18.169      12.193      8.1207      5.7133      4.5316    
  4.0192      3.7219      3.5727      3.5727      3.7219      4.0192      4.5316      5.7133      8.1207      12.193    
  18.169      26.053      35.607      46.368      57.650      68.564      78.080      85.161      88.947      88.947    
  74.745      67.083      57.650      47.402      37.231      27.878      19.889      13.597      9.1066      6.2876    
  4.7943      4.1292      3.7787      3.5682      3.4985      3.5682      3.7787      4.1292      4.7943      6.2876    
  9.1066      13.597      19.889      27.878      37.231      47.402      57.650      67.083      74.745      79.760    
  81.506      79.760      62.830      55.180      46.368      37.231      28.514      20.811      14.528      9.8635    
  6.7875      5.0514      4.2334      3.8327      3.5741      3.4463      3.4463      3.5741      3.8327      4.2334    
  5.0514      6.7875      9.8635      14.528      20.811      28.514      37.231      46.368      55.180      62.830    
  68.501      71.524      71.524      68.501      50.545      43.396      35.607      27.878      20.811      14.854    
  10.274      7.1281      5.2581      4.3250      3.8782      3.5854      3.4130      3.3566      3.4130      3.5854    
  3.8782      4.3250      5.2581      7.1281      10.274      14.854      20.811      27.878      35.607      43.396    
  50.545      56.328      60.100      61.412      60.100      56.328      38.844      32.560      26.053      19.889    
  14.528      10.274      7.2490      5.3735      4.3890      3.9107      3.5972      3.3941      3.2957      3.2957    
  3.3941      3.5972      3.9107      4.3890      5.3735      7.2490      10.274      14.528      19.889      26.053    
  32.560      38.844      44.291      48.317      50.459      50.459      48.317      44.291      28.452      23.265    
  18.169      13.597      9.8635      7.1281      5.3735      4.4122      3.9276      3.6060      3.3847      3.2581    
  3.2172      3.2581      3.3847      3.6060      3.9276      4.4122      5.3735      7.1281      9.8635      13.597    
  18.169      23.265      28.452      33.231      37.098      39.618      40.494      39.618      37.098      33.231    
  19.852      15.874      12.193      9.1066      6.7875      5.2581      4.3890      3.9276      3.6091      3.3810    
  3.2382      3.1706      3.1706      3.2382      3.3810      3.6091      3.9276      4.3890      5.2581      6.7875    
  9.1066      12.193      15.874      19.852      23.746      27.145      29.665      31.007      31.007      29.665    
  27.145      23.746      13.287      10.509      8.1207      6.2876      5.0514      4.3250      3.9107      3.6060    
  3.3810      3.2321      3.1491      3.1227      3.1491      3.2321      3.3810      3.6060      3.9107      4.3250    
  5.0514      6.2876      8.1207      10.509      13.287      16.197      18.927      21.160      22.623      23.132    
  22.623      21.160      18.927      16.197      8.7621      7.0509      5.7133      4.7943      4.2334      3.8782    
  3.5972      3.3847      3.2382      3.1491      3.1076      3.1076      3.1491      3.2382      3.3847      3.5972    
  3.8782      4.2334      4.7943      5.7133      7.0509      8.7621      10.707      12.679      14.440      15.764    
  16.474      16.474      15.764      14.440      12.679      10.707      6.0404      5.1533      4.5316      4.1292    
  3.8327      3.5854      3.3941      3.2581      3.1706      3.1227      3.1076      3.1227      3.1706      3.2581    
  3.3941      3.5854      3.8327      4.1292      4.5316      5.1533      6.0404      7.1574      8.3988      9.6130    
  10.634      11.315      11.553      11.315      10.634      9.6130      8.3988      7.1574      4.6766      4.2968    
  4.0192      3.7787      3.5741      3.4130      3.2957      3.2172      3.1706      3.1491      3.1491      3.1706    
  3.2172      3.2957      3.4130      3.5741      3.7787      4.0192      4.2968      4.6766      5.1996      5.8466    
  6.5488      7.2076      7.7191      7.9986      7.9986      7.7191      7.2076      6.5488      5.8466      5.1996    
  4.0970      3.9017      3.7219      3.5682      3.4463      3.3566      3.2957      3.2581      3.2382      3.2321    
  3.2382      3.2581      3.2957      3.3566      3.4463      3.5682      3.7219      3.9017      4.0970      4.3127    
  4.5811      4.9011      5.2376      5.5366      5.7432      5.8169      5.7432      5.5366      5.2376      4.9011    
  4.5811      4.3127      3.7839      3.6690      3.5727      3.4985      3.4463      3.4130      3.3941      3.3847    
  3.3810      3.3810      3.3847      3.3941      3.4130      3.4463      3.4985      3.5727      3.6690      3.7839    
  3.9105      4.0391      4.1653      4.2966      4.4248      4.5293      4.5883      4.5883      4.5293      4.4248    
  4.2966      4.1653      4.0391      3.9105      3.6257      3.5912      3.5727      3.5682      3.5741      3.5854    
  3.5972      3.6060      3.6091      3.6060      3.5972      3.5854      3.5741      3.5682      3.5727      3.5912    
  3.6257      3.6750      3.7351      3.8000      3.8628      3.9173      3.9592      3.9866      3.9963      3.9866    
  3.9592      3.9173      3.8628      3.8000      3.7351      3.6750      3.6257      3.6690      3.7219      3.7787    
  3.8327      3.8782      3.9107      3.9276      3.9276      3.9107      3.8782      3.8327      3.7787      3.7219    
  3.6690      3.6257      3.5962      3.5819      3.5814      3.5910      3.6061      3.6219      3.6345      3.6414    
  3.6414      3.6345      3.6219      3.6061      3.5910      3.5814      3.5819      3.5962      3.7839      3.9017    
  4.0192      4.1292      4.2334      4.3250      4.3890      4.4122      4.3890      4.3250      4.2334      4.1292    
  4.0192      3.9017      3.7839      3.6750      3.5819      3.5087      3.4559      3.4212      3.4007      3.3900    
  3.3853      3.3840      3.3853      3.3900      3.4007      3.4212      3.4559      3.5087      3.5819      3.6750    
  4.0970      4.2968      4.5316      4.7943      5.0514      5.2581      5.3735      5.3735      5.2581      5.0514    
  4.7943      4.5316      4.2968      4.0970      3.9105      3.7351      3.5814      3.4559      3.3604      3.2928    
  3.2488      3.2232      3.2116      3.2116      3.2232      3.2488      3.2928      3.3604      3.4559      3.5814    
  3.7351      3.9105      4.6766      5.1533      5.7133      6.2876      6.7875      7.1281      7.2490      7.1281    
  6.7875      6.2876      5.7133      5.1533      4.6766      4.3127      4.0391      3.8000      3.5910      3.4212    
  3.2928      3.2030      3.1458      3.1146      3.1049      3.1146      3.1458      3.2030      3.2928      3.4212    
  3.5910      3.8000      4.0391      4.3127      6.0404      7.0509      8.1207      9.1066      9.8635      10.274    
  10.274      9.8635      9.1066      8.1207      7.0509      6.0404      5.1996      4.5811      4.1653      3.8628    
  3.6061      3.4007      3.2488      3.1458      3.0836      3.0548      3.0548      3.0836      3.1458      3.2488    
  3.4007      3.6061      3.8628      4.1653      4.5811      5.1996      8.7621      10.509      12.193      13.597    
  14.528      14.854      14.528      13.597      12.193      10.509      8.7621      7.1574      5.8466      4.9011    
  4.2966      3.9173      3.6219      3.3900      3.2232      3.1146      3.0548      3.0358      3.0548      3.1146    
  3.2232      3.3900      3.6219      3.9173      4.2966      4.9011      5.8466      7.1574      13.287      15.874    
  18.169      19.889      20.811      20.811      19.889      18.169      15.874      13.287      10.707      8.3988    
  6.5488      5.2376      4.4248      3.9592      3.6345      3.3853      3.2116      3.1049      3.0548      3.0548    
  3.1049      3.2116      3.3853      3.6345      3.9592      4.4248      5.2376      6.5488      8.3988      10.707    
  19.852      23.265      26.053      27.878      28.514      27.878      26.053      23.265      19.852      16.197    
  12.679      9.6130      7.2076      5.5366      4.5293      3.9866      3.6414      3.3840      3.2116      3.1146    
  3.0836      3.1146      3.2116      3.3840      3.6414      3.9866      4.5293      5.5366      7.2076      9.6130    
  12.679      16.197      28.452      32.560      35.607      37.231      37.231      35.607      32.560      28.452    
  23.746      18.927      14.440      10.634      7.7191      5.7432      4.5883      3.9963      3.6414      3.3853    
  3.2232      3.1458      3.1458      3.2232      3.3853      3.6414      3.9963      4.5883      5.7432      7.7191    
  10.634      14.440      18.927      23.746      38.844      43.396      46.368      47.402      46.368      43.396    
  38.844      33.231      27.145      21.160      15.764      11.315      7.9986      5.8169      4.5883      3.9866    
  3.6345      3.3900      3.2488      3.2030      3.2488      3.3900      3.6345      3.9866      4.5883      5.8169    
  7.9986      11.315      15.764      21.160      27.145      33.231      50.545      55.180      57.650      57.650    
  55.180      50.545      44.291      37.098      29.665      22.623      16.474      11.553      7.9986      5.7432    
  4.5293      3.9592      3.6219      3.4007      3.2928      3.2928      3.4007      3.6219      3.9592      4.5293    
  5.7432      7.9986      11.553      16.474      22.623      29.665      37.098      44.291      62.830      67.083    
  68.564      67.083      62.830      56.328      48.317      39.618      31.007      23.132      16.474      11.315    
  7.7191      5.5366      4.4248      3.9173      3.6061      3.4212      3.3604      3.4212      3.6061      3.9173    
  4.4248      5.5366      7.7191      11.315      16.474      23.132      31.007      39.618      48.317      56.328    
  74.745      78.080      78.080      74.745      68.501      60.100      50.459      40.494      31.007      22.623    
  15.764      10.634      7.2076      5.2376      4.2966      3.8628      3.5910      3.4559      3.4559      3.5910    
  3.8628      4.2966      5.2376      7.2076      10.634      15.764      22.623      31.007      40.494      50.459    
  60.100      68.501      85.161      87.045      85.161      79.760      71.524      61.412      50.459      39.618    
  29.665      21.160      14.440      9.6130      6.5488      4.9011      4.1653      3.8000      3.5814      3.5087    
  3.5814      3.8000      4.1653      4.9011      6.5488      9.6130      14.440      21.160      29.665      39.618    
  50.459      61.412      71.524      79.760      92.929      92.929      88.947      81.506      71.524      60.100    
  48.317      37.098      27.145      18.927      12.679      8.3988      5.8466      4.5811      4.0391      3.7351    
  3.5819      3.5819      3.7351      4.0391      4.5811      5.8466      8.3988      12.679      18.927      27.145    
  37.098      48.317      60.100      71.524      81.506      88.947      97.089      94.982      88.947      79.760    
  68.501      56.328      44.291      33.231      23.746      16.197      10.707      7.1574      5.1996      4.3127    
  3.9105      3.6750      3.5962      3.6750      3.9105      4.3127      5.1996      7.1574      10.707      16.197    
  23.746      33.231      44.291      56.328      68.501      79.760      88.947      94.982      90.920      85.161    
  76.386      65.618      53.960      42.420      31.811      22.720      15.501      10.275      6.9193      5.0870    
  4.2626      3.8757      3.6465      3.5701      3.6465      3.8757      4.2626      5.0870      6.9193      10.275    
  15.501      22.720      31.811      42.420      53.960      65.618      76.386      85.161      90.920      92.929    
  85.161      78.080      68.564      57.650      46.368      35.607      26.053      18.169      12.193      8.1207    
  5.7133      4.5316      4.0192      3.7219      3.5727      3.5727      3.7219      4.0192      4.5316      5.7133    
  8.1207      12.193      18.169      26.053      35.607      46.368      57.650      68.564      78.080      85.161    
  88.947      88.947      76.386      68.564      58.934      48.474      38.090      28.536      20.365      13.918    
  9.3044      6.3963      4.8480      4.1581      3.8018      3.5879      3.5170      3.5879      3.8018      4.1581    
  4.8480      6.3963      9.3044      13.918      20.365      28.536      38.090      48.474      58.934      68.564    
  76.386      81.506      83.290      81.506      65.618      57.650      48.474      38.954      29.862      21.810    
  15.222      10.306      7.0404      5.1796      4.2973      3.8787      3.6120      3.4798      3.4798      3.6120    
  3.8787      4.2973      5.1796      7.0404      10.306      15.222      21.810      29.862      38.954      48.474    
  57.650      65.618      71.524      74.674      74.674      71.524      53.960      46.368      38.090      29.862    
  22.315      15.924      10.976      7.5429      5.4746      4.4301      3.9456      3.6396      3.4586      3.3991    
  3.4586      3.6396      3.9456      4.4301      5.4746      7.5429      10.976      15.924      22.315      29.862    
  38.090      46.368      53.960      60.100      64.106      65.498      64.106      60.100      42.420      35.607    
  28.536      21.810      15.924      11.212      7.8182      5.6788      4.5371      3.9971      3.6656      3.4490    
  3.3437      3.3437      3.4490      3.6656      3.9971      4.5371      5.6788      7.8182      11.212      15.924    
  21.810      28.536      35.607      42.420      48.317      52.673      54.990      54.990      52.673      48.317    
  31.811      26.053      20.365      15.222      10.976      7.8182      5.7517      4.5972      4.0300      3.6855    
  3.4464      3.3089      3.2643      3.3089      3.4464      3.6855      4.0300      4.5972      5.7517      7.8182    
  10.976      15.222      20.365      26.053      31.811      37.098      41.368      44.148      45.113      44.148    
  41.368      37.098      22.720      18.169      13.918      10.306      7.5429      5.6788      4.5972      4.0415    
  3.6961      3.4467      3.2894      3.2145      3.2145      3.2894      3.4467      3.6961      4.0415      4.5972    
  5.6788      7.5429      10.306      13.918      18.169      22.720      27.145      30.990      33.833      35.344    
  35.344      33.833      30.990      27.145      15.501      12.193      9.3044      7.0404      5.4746      4.5371    
  4.0300      3.6961      3.4472      3.2810      3.1878      3.1580      3.1878      3.2810      3.4472      3.6961    
  4.0300      4.5371      5.4746      7.0404      9.3044      12.193      15.501      18.927      22.114      24.706    
  26.400      26.988      26.400      24.706      22.114      18.927      10.275      8.1207      6.3963      5.1796    
  4.4301      3.9971      3.6855      3.4467      3.2810      3.1795      3.1320      3.1320      3.1795      3.2810    
  3.4467      3.6855      3.9971      4.4301      5.1796      6.3963      8.1207      10.275      12.679      15.083    
  17.210      18.798      19.647      19.647      18.798      17.210      15.083      12.679      6.9193      5.7133    
  4.8480      4.2973      3.9456      3.6656      3.4464      3.2894      3.1878      3.1320      3.1144      3.1320    
  3.1878      3.2894      3.4465      3.6656      3.9456      4.2973      4.8480      5.7133      6.9193      8.3988    
  10.008      11.558      12.847      13.699      13.998      13.699      12.847      11.558      10.008      8.3988    
  5.0870      4.5316      4.1581      3.8787      3.6396      3.4490      3.3089      3.2145      3.1580      3.1320    
  3.1320      3.1580      3.2145      3.3089      3.4490      3.6396      3.8787      4.1581      4.5316      5.0870    
  5.8466      6.7633      7.7348      8.6299      9.3164      9.6888      9.6888      9.3164      8.6299      7.7348    
  6.7633      5.8466      4.2626      4.0192      3.8018      3.6120      3.4586      3.3437      3.2643      3.2145    
  3.1878      3.1795      3.1878      3.2145      3.2643      3.3437      3.4586      3.6120      3.8018      4.0192    