Co-fcc                                  
   1.00000000000000     
     0.000000    1.736725    1.736725
     1.736725    0.000000    1.736725
     1.736725    1.736725    0.000000
   Co
     1
Direct
  0.000000  0.000000  0.000000
 
   32   32   32
 0.99241483996E+02 0.97088545036E+02 0.90920419363E+02 0.81533009665E+02 0.70032348480E+02
 0.57601278856E+02 0.45310032368E+02 0.34012346357E+02 0.24316200297E+02 0.16587791474E+02
 0.10953781405E+02 0.72973569442E+01 0.52706335668E+01 0.43489690693E+01 0.39375659409E+01
 0.36983743845E+01 0.36183096742E+01 0.36983743845E+01 0.39375659409E+01 0.43489690693E+01
 0.52706335668E+01 0.72973569442E+01 0.10953781405E+02 0.16587791474E+02 0.24316200297E+02
 0.34012346357E+02 0.45310032368E+02 0.57601278856E+02 0.70032348480E+02 0.81533009665E+02
 0.90920419363E+02 0.97088545036E+02 0.97088545036E+02 0.92929346784E+02 0.85161213854E+02
 0.74744643167E+02 0.62830384547E+02 0.50544763750E+02 0.38844095819E+02 0.28452213590E+02
 0.19851572222E+02 0.13286979484E+02 0.87621258583E+01 0.60403555621E+01 0.46765938414E+01
 0.40969505638E+01 0.37839454160E+01 0.36257212535E+01 0.36257212061E+01 0.37839452782E+01
 0.40969503520E+01 0.46765935854E+01 0.60403553039E+01 0.87621256356E+01 0.13286979313E+02
 0.19851572075E+02 0.28452213400E+02 0.38844095495E+02 0.50544763228E+02 0.62830383820E+02
 0.74744642316E+02 0.85161213043E+02 0.92929346194E+02 0.97088544821E+02 0.90920419363E+02
 0.85161213854E+02 0.76385680540E+02 0.65617822681E+02 0.53960112599E+02 0.42419953834E+02
 0.31811042638E+02 0.22719858537E+02 0.15501378390E+02 0.10275008177E+02 0.69192919704E+01
 0.50869685613E+01 0.42625962013E+01 0.38756954094E+01 0.36465465285E+01 0.35701098007E+01
 0.36465464780E+01 0.38756952865E+01 0.42625959879E+01 0.50869682743E+01 0.69192916692E+01
 0.10275007931E+02 0.15501378223E+02 0.22719858381E+02 0.31811042338E+02 0.42419953202E+02
 0.53960111522E+02 0.65617821204E+02 0.76385678904E+02 0.85161212433E+02 0.90920418534E+02
 0.92929346194E+02 0.81533009665E+02 0.74744643167E+02 0.65617822681E+02 0.55147468942E+02
 0.44323335191E+02 0.34004177855E+02 0.24855313716E+02 0.17327026409E+02 0.11644390306E+02
 0.77973270075E+01 0.55438032096E+01 0.44482750454E+01 0.39655474241E+01 0.36769232019E+01
 0.35325010498E+01 0.35325011236E+01 0.36769233664E+01 0.39655475505E+01 0.44482750251E+01
 0.55438030363E+01 0.77973267843E+01 0.11644390169E+02 0.17327026408E+02 0.24855313726E+02
 0.34004177603E+02 0.44323334378E+02 0.55147467430E+02 0.65617820625E+02 0.74744641023E+02
 0.81533008036E+02 0.85161212433E+02 0.85161213043E+02 0.70032348480E+02 0.62830384547E+02
 0.53960112599E+02 0.44323335191E+02 0.34766625269E+02 0.25995098754E+02 0.18529337996E+02
 0.12683112459E+02 0.85469170299E+01 0.59821179798E+01 0.46438357669E+01 0.40461212244E+01
 0.37115061628E+01 0.35109750287E+01 0.34447174057E+01 0.35109753559E+01 0.37115066163E+01
 0.40461215344E+01 0.46438357727E+01 0.59821177351E+01 0.85469167670E+01 0.12683112420E+02
 0.18529338240E+02 0.25995099060E+02 0.34766625217E+02 0.44323334391E+02 0.53960110939E+02
 0.62830382336E+02 0.70032346368E+02 0.74744641023E+02 0.76385678904E+02 0.74744642316E+02
 0.57601278856E+02 0.50544763750E+02 0.42419953834E+02 0.34004177855E+02 0.25995098754E+02
 0.18948926735E+02 0.13243217849E+02 0.90512801377E+01 0.63280600364E+01 0.48204656205E+01
 0.41157766546E+01 0.37446986816E+01 0.35016535067E+01 0.33822056815E+01 0.33822059030E+01
 0.35016540212E+01 0.37446991367E+01 0.41157767206E+01 0.48204652113E+01 0.63280593728E+01
 0.90512796228E+01 0.13243217806E+02 0.18948927189E+02 0.25995099370E+02 0.34004178107E+02
 0.42419953308E+02 0.50544762405E+02 0.57601277099E+02 0.62830382336E+02 0.65617820625E+02
 0.65617821204E+02 0.62830383820E+02 0.45310032368E+02 0.38844095819E+02 0.31811042638E+02
 0.24855313716E+02 0.18529337996E+02 0.13243217849E+02 0.92290959985E+01 0.65188953395E+01
 0.49442174064E+01 0.41701911470E+01 0.37717185227E+01 0.34998978097E+01 0.33412439075E+01
 0.32895118099E+01 0.33412442562E+01 0.34998982112E+01 0.37717185732E+01 0.41701905932E+01
 0.49442163256E+01 0.65188941195E+01 0.92290951404E+01 0.13243217681E+02 0.18529338491E+02
 0.24855314505E+02 0.31811043211E+02 0.38844095819E+02 0.45310031788E+02 0.50544762405E+02
 0.53960110939E+02 0.55147467430E+02 0.53960111522E+02 0.50544763228E+02 0.34012346357E+02
 0.28452213590E+02 0.22719858537E+02 0.17327026409E+02 0.12683112459E+02 0.90512801377E+01
 0.65188953395E+01 0.49887478402E+01 0.42005948645E+01 0.37891869445E+01 0.35014092093E+01
 0.33169012922E+01 0.32281312827E+01 0.32281314233E+01 0.33169015785E+01 0.35014093106E+01
 0.37891865371E+01 0.42005938258E+01 0.49887463510E+01 0.65188938073E+01 0.90512790173E+01
 0.12683112037E+02 0.17327026683E+02 0.22719859259E+02 0.28452214400E+02 0.34012346972E+02
 0.38844095819E+02 0.42419953308E+02 0.44323334391E+02 0.44323334378E+02 0.42419953202E+02
 0.38844095495E+02 0.24316200297E+02 0.19851572222E+02 0.15501378390E+02 0.11644390306E+02
 0.85469170299E+01 0.63280600364E+01 0.49442174064E+01 0.42005948645E+01 0.37952080639E+01
 0.35029995830E+01 0.33044997162E+01 0.31918994763E+01 0.31556978974E+01 0.31918996381E+01
 0.33044998993E+01 0.35029995679E+01 0.37952076592E+01 0.42005939931E+01 0.49442161613E+01
 0.63280586516E+01 0.85469158107E+01 0.11644389531E+02 0.15501378208E+02 0.19851572630E+02
 0.24316201134E+02 0.28452214400E+02 0.31811043211E+02 0.34004178107E+02 0.34766625217E+02
 0.34004177603E+02 0.31811042338E+02 0.28452213400E+02 0.16587791474E+02 0.13286979484E+02
 0.10275008177E+02 0.77973270075E+01 0.59821179798E+01 0.48204656205E+01 0.41701911470E+01
 0.37891869445E+01 0.35029995830E+01 0.33007572204E+01 0.31753606516E+01 0.31162249049E+01
 0.31162249409E+01 0.31753607689E+01 0.33007574366E+01 0.35029998592E+01 0.37891871657E+01
 0.41701911288E+01 0.48204652071E+01 0.59821171397E+01 0.77973258923E+01 0.10275007111E+02
 0.13286978814E+02 0.16587791427E+02 0.19851572630E+02 0.22719859259E+02 0.24855314505E+02
 0.25995099370E+02 0.25995099060E+02 0.24855313726E+02 0.22719858381E+02 0.19851572075E+02
 0.10953781405E+02 0.87621258583E+01 0.69192919704E+01 0.55438032096E+01 0.46438357669E+01
 0.41157766546E+01 0.37717185227E+01 0.35014092093E+01 0.33044997162E+01 0.31753606516E+01
 0.31037983372E+01 0.30810652277E+01 0.31037982583E+01 0.31753606690E+01 0.33045000573E+01
 0.35014099749E+01 0.37717195838E+01 0.41157776728E+01 0.46438363490E+01 0.55438031260E+01
 0.69192912555E+01 0.87621248302E+01 0.10953780484E+02 0.13286978814E+02 0.15501378208E+02
 0.17327026683E+02 0.18529338491E+02 0.18948927189E+02 0.18529338240E+02 0.17327026408E+02
 0.15501378223E+02 0.13286979313E+02 0.72973569442E+01 0.60403555621E+01 0.50869685613E+01
 0.44482750454E+01 0.40461212244E+01 0.37446986816E+01 0.34998978097E+01 0.33169012922E+01
 0.31918994763E+01 0.31162249049E+01 0.30810652277E+01 0.30810650746E+01 0.31162245792E+01
 0.31918992908E+01 0.33169015817E+01 0.34998987310E+01 0.37447001237E+01 0.40461228443E+01
 0.44482764018E+01 0.50869693304E+01 0.60403556296E+01 0.72973564360E+01 0.87621248302E+01
 0.10275007111E+02 0.11644389531E+02 0.12683112037E+02 0.13243217681E+02 0.13243217806E+02
 0.12683112420E+02 0.11644390169E+02 0.10275007931E+02 0.87621256356E+01 0.52706335668E+01
 0.46765938414E+01 0.42625962013E+01 0.39655474241E+01 0.37115061628E+01 0.35016535067E+01
 0.33412439075E+01 0.32281312827E+01 0.31556978974E+01 0.31162249409E+01 0.31037982583E+01
 0.31162245792E+01 0.31556973205E+01 0.32281307456E+01 0.33412436961E+01 0.35016538550E+01
 0.37115071479E+01 0.39655489513E+01 0.42625979679E+01 0.46765954519E+01 0.52706346505E+01
 0.60403556296E+01 0.69192912555E+01 0.77973258923E+01 0.85469158107E+01 0.90512790173E+01
 0.92290951404E+01 0.90512796228E+01 0.85469167670E+01 0.77973267843E+01 0.69192916692E+01
 0.60403553039E+01 0.43489690693E+01 0.40969505638E+01 0.38756954094E+01 0.36769232019E+01
 0.35109750287E+01 0.33822056815E+01 0.32895118099E+01 0.32281314233E+01 0.31918996381E+01
 0.31753607689E+01 0.31753606690E+01 0.31918992908E+01 0.32281307456E+01 0.32895108164E+01
 0.33822045849E+01 0.35109742401E+01 0.36769231480E+01 0.38756963333E+01 0.40969523502E+01
 0.43489712197E+01 0.46765954519E+01 0.50869693304E+01 0.55438031260E+01 0.59821171397E+01
 0.63280586516E+01 0.65188938073E+01 0.65188941195E+01 0.63280593728E+01 0.59821177351E+01
 0.55438030363E+01 0.50869682743E+01 0.46765935854E+01 0.39375659409E+01 0.37839454160E+01
 0.36465465285E+01 0.35325010498E+01 0.34447174057E+01 0.33822059030E+01 0.33412442562E+01
 0.33169015785E+01 0.33044998993E+01 0.33007574366E+01 0.33045000573E+01 0.33169015817E+01
 0.33412436961E+01 0.33822045849E+01 0.34447155374E+01 0.35324992226E+01 0.36465454415E+01
 0.37839455232E+01 0.39375672356E+01 0.40969523502E+01 0.42625979679E+01 0.44482764018E+01
 0.46438363490E+01 0.48204652071E+01 0.49442161613E+01 0.49887463510E+01 0.49442163256E+01
 0.48204652113E+01 0.46438357727E+01 0.44482750251E+01 0.42625959879E+01 0.40969503520E+01
 0.36983743845E+01 0.36257212535E+01 0.35701098007E+01 0.35325011236E+01 0.35109753559E+01
 0.35016540212E+01 0.34998982112E+01 0.35014093106E+01 0.35029995679E+01 0.35029998592E+01
 0.35014099749E+01 0.34998987310E+01 0.35016538550E+01 0.35109742401E+01 0.35324992226E+01
 0.35701076554E+01 0.36257195364E+01 0.36983735874E+01 0.37839455232E+01 0.38756963333E+01
 0.39655489513E+01 0.40461228443E+01 0.41157776728E+01 0.41701911288E+01 0.42005939931E+01
 0.42005938258E+01 0.41701905932E+01 0.41157767206E+01 0.40461215344E+01 0.39655475505E+01
 0.38756952865E+01 0.37839452782E+01 0.36183096742E+01 0.36257212061E+01 0.36465464780E+01
 0.36769233664E+01 0.37115066163E+01 0.37446991367E+01 0.37717185732E+01 0.37891865371E+01
 0.37952076592E+01 0.37891871657E+01 0.37717195838E+01 0.37447001237E+01 0.37115071479E+01
 0.36769231480E+01 0.36465454415E+01 0.36257195364E+01 0.36183077663E+01 0.36257195364E+01
 0.36465454415E+01 0.36769231480E+01 0.37115071479E+01 0.37447001237E+01 0.37717195838E+01
 0.37891871657E+01 0.37952076592E+01 0.37891865371E+01 0.37717185732E+01 0.37446991367E+01
 0.37115066163E+01 0.36769233664E+01 0.36465464780E+01 0.36257212061E+01 0.36983743845E+01
 0.37839452782E+01 0.38756952865E+01 0.39655475505E+01 0.40461215344E+01 0.41157767206E+01
 0.41701905932E+01 0.42005938258E+01 0.42005939931E+01 0.41701911288E+01 0.41157776728E+01
 0.40461228443E+01 0.39655489513E+01 0.38756963333E+01 0.37839455232E+01 0.36983735874E+01
 0.36257195364E+01 0.35701076554E+01 0.35324992226E+01 0.35109742401E+01 0.35016538550E+01
 0.34998987310E+01 0.35014099749E+01 0.35029998592E+01 0.35029995679E+01 0.35014093106E+01
 0.34998982112E+01 0.35016540212E+01 0.35109753559E+01 0.35325011236E+01 0.35701098007E+01
 0.36257212535E+01 0.39375659409E+01 0.40969503520E+01 0.42625959879E+01 0.44482750251E+01
 0.46438357727E+01 0.48204652113E+01 0.49442163256E+01 0.49887463510E+01 0.49442161613E+01
 0.48204652071E+01 0.46438363490E+01 0.44482764018E+01 0.42625979679E+01 0.40969523502E+01
 0.39375672356E+01 0.37839455232E+01 0.36465454415E+01 0.35324992226E+01 0.34447155374E+01
 0.33822045849E+01 0.33412436961E+01 0.33169015817E+01 0.33045000573E+01 0.33007574366E+01
 0.33044998993E+01 0.33169015785E+01 0.33412442562E+01 0.33822059030E+01 0.34447174057E+01
 0.35325010498E+01 0.36465465285E+01 0.37839454160E+01 0.43489690693E+01 0.46765935854E+01
 0.50869682743E+01 0.55438030363E+01 0.59821177351E+01 0.63280593728E+01 0.65188941195E+01
 0.65188938073E+01 0.63280586516E+01 0.59821171397E+01 0.55438031260E+01 0.50869693304E+01
 0.46765954519E+01 0.43489712197E+01 0.40969523502E+01 0.38756963333E+01 0.36769231480E+01
 0.35109742401E+01 0.33822045849E+01 0.32895108164E+01 0.32281307456E+01 0.31918992908E+01
 0.31753606690E+01 0.31753607689E+01 0.31918996381E+01 0.32281314233E+01 0.32895118099E+01
 0.33822056815E+01 0.35109750287E+01 0.36769232019E+01 0.38756954094E+01 0.40969505638E+01
 0.52706335668E+01 0.60403553039E+01 0.69192916692E+01 0.77973267843E+01 0.85469167670E+01
 0.90512796228E+01 0.92290951404E+01 0.90512790173E+01 0.85469158107E+01 0.77973258923E+01
 0.69192912555E+01 0.60403556296E+01 0.52706346505E+01 0.46765954519E+01 0.42625979679E+01
 0.39655489513E+01 0.37115071479E+01 0.35016538550E+01 0.33412436961E+01 0.32281307456E+01
 0.31556973205E+01 0.31162245792E+01 0.31037982583E+01 0.31162249409E+01 0.31556978974E+01
 0.32281312827E+01 0.33412439075E+01 0.35016535067E+01 0.37115061628E+01 0.39655474241E+01
 0.42625962013E+01 0.46765938414E+01 0.72973569442E+01 0.87621256356E+01 0.10275007931E+02
 0.11644390169E+02 0.12683112420E+02 0.13243217806E+02 0.13243217681E+02 0.12683112037E+02
 0.11644389531E+02 0.10275007111E+02 0.87621248302E+01 0.72973564360E+01 0.60403556296E+01
 0.50869693304E+01 0.44482764018E+01 0.40461228443E+01 0.37447001237E+01 0.34998987310E+01
 0.33169015817E+01 0.31918992908E+01 0.31162245792E+01 0.30810650746E+01 0.30810652277E+01
 0.31162249049E+01 0.31918994763E+01 0.33169012922E+01 0.34998978097E+01 0.37446986816E+01
 0.40461212244E+01 0.44482750454E+01 0.50869685613E+01 0.60403555621E+01 0.10953781405E+02
 0.13286979313E+02 0.15501378223E+02 0.17327026408E+02 0.18529338240E+02 0.18948927189E+02
 0.18529338491E+02 0.17327026683E+02 0.15501378208E+02 0.13286978814E+02 0.10953780484E+02
 0.87621248302E+01 0.69192912555E+01 0.55438031260E+01 0.46438363490E+01 0.41157776728E+01
 0.37717195838E+01 0.35014099749E+01 0.33045000573E+01 0.31753606690E+01 0.31037982583E+01
 0.30810652277E+01 0.31037983372E+01 0.31753606516E+01 0.33044997162E+01 0.35014092093E+01
 0.37717185227E+01 0.41157766546E+01 0.46438357669E+01 0.55438032096E+01 0.69192919704E+01
 0.87621258583E+01 0.16587791474E+02 0.19851572075E+02 0.22719858381E+02 0.24855313726E+02
 0.25995099060E+02 0.25995099370E+02 0.24855314505E+02 0.22719859259E+02 0.19851572630E+02
 0.16587791427E+02 0.13286978814E+02 0.10275007111E+02 0.77973258923E+01 0.59821171397E+01
 0.48204652071E+01 0.41701911288E+01 0.37891871657E+01 0.35029998592E+01 0.33007574366E+01
 0.31753607689E+01 0.31162249409E+01 0.31162249049E+01 0.31753606516E+01 0.33007572204E+01
 0.35029995830E+01 0.37891869445E+01 0.41701911470E+01 0.48204656205E+01 0.59821179798E+01
 0.77973270075E+01 0.10275008177E+02 0.13286979484E+02 0.24316200297E+02 0.28452213400E+02
 0.31811042338E+02 0.34004177603E+02 0.34766625217E+02 0.34004178107E+02 0.31811043211E+02
 0.28452214400E+02 0.24316201134E+02 0.19851572630E+02 0.15501378208E+02 0.11644389531E+02
 0.85469158107E+01 0.63280586516E+01 0.49442161613E+01 0.42005939931E+01 0.37952076592E+01
 0.35029995679E+01 0.33044998993E+01 0.31918996381E+01 0.31556978974E+01 0.31918994763E+01
 0.33044997162E+01 0.35029995830E+01 0.37952080639E+01 0.42005948645E+01 0.49442174064E+01
 0.63280600364E+01 0.85469170299E+01 0.11644390306E+02 0.15501378390E+02 0.19851572222E+02
 0.34012346357E+02 0.38844095495E+02 0.42419953202E+02 0.44323334378E+02 0.44323334391E+02
 0.42419953308E+02 0.38844095819E+02 0.34012346972E+02 0.28452214400E+02 0.22719859259E+02
 0.17327026683E+02 0.12683112037E+02 0.90512790173E+01 0.65188938073E+01 0.49887463510E+01
 0.42005938258E+01 0.37891865371E+01 0.35014093106E+01 0.33169015785E+01 0.32281314233E+01
 0.32281312827E+01 0.33169012922E+01 0.35014092093E+01 0.37891869445E+01 0.42005948645E+01
 0.49887478402E+01 0.65188953395E+01 0.90512801377E+01 0.12683112459E+02 0.17327026409E+02
 0.22719858537E+02 0.28452213590E+02 0.45310032368E+02 0.50544763228E+02 0.53960111522E+02
 0.55147467430E+02 0.53960110939E+02 0.50544762405E+02 0.45310031788E+02 0.38844095819E+02
 0.31811043211E+02 0.24855314505E+02 0.18529338491E+02 0.13243217681E+02 0.92290951404E+01
 0.65188941195E+01 0.49442163256E+01 0.41701905932E+01 0.37717185732E+01 0.34998982112E+01
 0.33412442562E+01 0.32895118099E+01 0.33412439075E+01 0.34998978097E+01 0.37717185227E+01
 0.41701911470E+01 0.49442174064E+01 0.65188953395E+01 0.92290959985E+01 0.13243217849E+02
 0.18529337996E+02 0.24855313716E+02 0.31811042638E+02 0.38844095819E+02 0.57601278856E+02
 0.62830383820E+02 0.65617821204E+02 0.65617820625E+02 0.62830382336E+02 0.57601277099E+02
 0.50544762405E+02 0.42419953308E+02 0.34004178107E+02 0.25995099370E+02 0.18948927189E+02
 0.13243217806E+02 0.90512796228E+01 0.63280593728E+01 0.48204652113E+01 0.41157767206E+01
 0.37446991367E+01 0.35016540212E+01 0.33822059030E+01 0.33822056815E+01 0.35016535067E+01
 0.37446986816E+01 0.41157766546E+01 0.48204656205E+01 0.63280600364E+01 0.90512801377E+01
 0.13243217849E+02 0.18948926735E+02 0.25995098754E+02 0.34004177855E+02 0.42419953834E+02
 0.50544763750E+02 0.70032348480E+02 0.74744642316E+02 0.76385678904E+02 0.74744641023E+02
 0.70032346368E+02 0.62830382336E+02 0.53960110939E+02 0.44323334391E+02 0.34766625217E+02
 0.25995099060E+02 0.18529338240E+02 0.12683112420E+02 0.85469167670E+01 0.59821177351E+01
 0.46438357727E+01 0.40461215344E+01 0.37115066163E+01 0.35109753559E+01 0.34447174057E+01
 0.35109750287E+01 0.37115061628E+01 0.40461212244E+01 0.46438357669E+01 0.59821179798E+01
 0.85469170299E+01 0.12683112459E+02 0.18529337996E+02 0.25995098754E+02 0.34766625269E+02
 0.44323335191E+02 0.53960112599E+02 0.62830384547E+02 0.81533009665E+02 0.85161213043E+02
 0.85161212433E+02 0.81533008036E+02 0.74744641023E+02 0.65617820625E+02 0.55147467430E+02
 0.44323334378E+02 0.34004177603E+02 0.24855313726E+02 0.17327026408E+02 0.11644390169E+02
 0.77973267843E+01 0.55438030363E+01 0.44482750251E+01 0.39655475505E+01 0.36769233664E+01
 0.35325011236E+01 0.35325010498E+01 0.36769232019E+01 0.39655474241E+01 0.44482750454E+01
 0.55438032096E+01 0.77973270075E+01 0.11644390306E+02 0.17327026409E+02 0.24855313716E+02
 0.34004177855E+02 0.44323335191E+02 0.55147468942E+02 0.65617822681E+02 0.74744643167E+02
 0.90920419363E+02 0.92929346194E+02 0.90920418534E+02 0.85161212433E+02 0.76385678904E+02
 0.65617821204E+02 0.53960111522E+02 0.42419953202E+02 0.31811042338E+02 0.22719858381E+02
 0.15501378223E+02 0.10275007931E+02 0.69192916692E+01 0.50869682743E+01 0.42625959879E+01
 0.38756952865E+01 0.36465464780E+01 0.35701098007E+01 0.36465465285E+01 0.38756954094E+01
 0.42625962013E+01 0.50869685613E+01 0.69192919704E+01 0.10275008177E+02 0.15501378390E+02
 0.22719858537E+02 0.31811042638E+02 0.42419953834E+02 0.53960112599E+02 0.65617822681E+02
 0.76385680540E+02 0.85161213854E+02 0.97088545036E+02 0.97088544821E+02 0.92929346194E+02
 0.85161213043E+02 0.74744642316E+02 0.62830383820E+02 0.50544763228E+02 0.38844095495E+02
 0.28452213400E+02 0.19851572075E+02 0.13286979313E+02 0.87621256356E+01 0.60403553039E+01
 0.46765935854E+01 0.40969503520E+01 0.37839452782E+01 0.36257212061E+01 0.36257212535E+01
 0.37839454160E+01 0.40969505638E+01 0.46765938414E+01 0.60403555621E+01 0.87621258583E+01
 0.13286979484E+02 0.19851572222E+02 0.28452213590E+02 0.38844095819E+02 0.50544763750E+02
 0.62830384547E+02 0.74744643167E+02 0.85161213854E+02 0.92929346784E+02 0.97088545036E+02
 0.92929346784E+02 0.85161213854E+02 0.74744643167E+02 0.62830384547E+02 0.50544763750E+02
 0.38844095819E+02 0.28452213590E+02 0.19851572222E+02 0.13286979484E+02 0.87621258583E+01
 0.60403555621E+01 0.46765938414E+01 0.40969505638E+01 0.37839454160E+01 0.36257212535E+01
 0.36257212061E+01 0.37839452782E+01 0.40969503520E+01 0.46765935854E+01 0.60403553039E+01
 0.87621256356E+01 0.13286979313E+02 0.19851572075E+02 0.28452213400E+02 0.38844095495E+02
 0.50544763228E+02 0.62830383820E+02 0.74744642316E+02 0.85161213043E+02 0.92929346194E+02
 0.97088544821E+02 0.92929346784E+02 0.87044752823E+02 0.78080132502E+02 0.67083086058E+02
 0.55179590545E+02 0.43396143087E+02 0.32559722138E+02 0.23265351781E+02 0.15873768841E+02
 0.10508590423E+02 0.70508981848E+01 0.51533025550E+01 0.42967598243E+01 0.39017168790E+01
 0.36689697429E+01 0.35912465611E+01 0.36689695815E+01 0.39017165695E+01 0.42967594015E+01
 0.51533020793E+01 0.70508977287E+01 0.10508590040E+02 0.15873768527E+02 0.23265351445E+02
 0.32559721628E+02 0.43396142242E+02 0.55179589297E+02 0.67083084478E+02 0.78080130834E+02
 0.87044751415E+02 0.92929345974E+02 0.94982265483E+02 0.85161213854E+02 0.78080132502E+02
 0.68563629354E+02 0.57650027585E+02 0.46368292544E+02 0.35607162233E+02 0.26052658873E+02
 0.18169359191E+02 0.12192918199E+02 0.81206746559E+01 0.57133459055E+01 0.45315929677E+01
 0.40192383863E+01 0.37219258738E+01 0.35726693069E+01 0.35726692538E+01 0.37219257043E+01
 0.40192380878E+01 0.45315925554E+01 0.57133454436E+01 0.81206742344E+01 0.12192917875E+02
 0.18169358922E+02 0.26052658492E+02 0.35607161499E+02 0.46368291252E+02 0.57650025699E+02
 0.68563627091E+02 0.78080130296E+02 0.85161212239E+02 0.88947014239E+02 0.88947014832E+02
 0.74744643167E+02 0.67083086058E+02 0.57650027585E+02 0.47401835879E+02 0.37231300899E+02
 0.27878421938E+02 0.19889269153E+02 0.13596969200E+02 0.91065538513E+01 0.62875847198E+01
 0.47942782503E+01 0.41292330223E+01 0.37786790820E+01 0.35682490370E+01 0.34985146359E+01
 0.35682490636E+01 0.37786790656E+01 0.41292328839E+01 0.47942779782E+01 0.62875844015E+01
 0.91065536226E+01 0.13596969137E+02 0.19889269174E+02 0.27878421779E+02 0.37231300222E+02
 0.47401834439E+02 0.57650025417E+02 0.67083083538E+02 0.74744640918E+02 0.79759619472E+02
 0.81506490860E+02 0.79759620803E+02 0.62830384547E+02 0.55179590545E+02 0.46368292544E+02
 0.37231300899E+02 0.28514080355E+02 0.20810503857E+02 0.14528021798E+02 0.98634718603E+01
 0.67874805219E+01 0.50514393421E+01 0.42334469167E+01 0.38327201545E+01 0.35741118189E+01
 0.34463120603E+01 0.34463121374E+01 0.35741119791E+01 0.38327202367E+01 0.42334467993E+01
 0.50514390499E+01 0.67874802379E+01 0.98634718142E+01 0.14528022094E+02 0.20810504353E+02
 0.28514080672E+02 0.37231300603E+02 0.46368291376E+02 0.55179588619E+02 0.62830382367E+02
 0.68500724369E+02 0.71524045304E+02 0.71524045961E+02 0.68500726096E+02 0.50544763750E+02
 0.43396143087E+02 0.35607162233E+02 0.27878421938E+02 0.20810503857E+02 0.14854019903E+02
 0.10274460826E+02 0.71281172231E+01 0.52581306732E+01 0.43249932734E+01 0.38781886262E+01
 0.35853667548E+01 0.34130208272E+01 0.33565977904E+01 0.34130209808E+01 0.35853668894E+01
 0.38781885251E+01 0.43249928506E+01 0.52581300730E+01 0.71281167686E+01 0.10274460840E+02
 0.14854020494E+02 0.20810504816E+02 0.27878422803E+02 0.35607162522E+02 0.43396142561E+02
 0.50544762571E+02 0.56327985865E+02 0.60100410120E+02 0.61411879338E+02 0.60100410990E+02
 0.56327987196E+02 0.38844095819E+02 0.32559722138E+02 0.26052658873E+02 0.19889269153E+02
 0.14528021798E+02 0.10274460826E+02 0.72489540739E+01 0.53734779732E+01 0.43890399464E+01
 0.39106981502E+01 0.35972457227E+01 0.33940553893E+01 0.32956760971E+01 0.32956761688E+01
 0.33940555007E+01 0.35972456365E+01 0.39106976687E+01 0.43890390784E+01 0.53734769830E+01
 0.72489533705E+01 0.10274460759E+02 0.14528022454E+02 0.19889270304E+02 0.26052660078E+02
 0.32559722965E+02 0.38844096065E+02 0.44291373964E+02 0.48317342168E+02 0.50458993274E+02
 0.50458993444E+02 0.48317342537E+02 0.44291374190E+02 0.28452213590E+02 0.23265351781E+02
 0.18169359191E+02 0.13596969200E+02 0.98634718603E+01 0.71281172231E+01 0.53734779732E+01
 0.44121524553E+01 0.39275587719E+01 0.36059542787E+01 0.33846510091E+01 0.32580793758E+01
 0.32172197845E+01 0.32580794710E+01 0.33846510364E+01 0.36059540166E+01 0.39275580915E+01
 0.44121514230E+01 0.53734768588E+01 0.71281163810E+01 0.98634715820E+01 0.13596969572E+02
 0.18169360074E+02 0.23265352888E+02 0.28452214619E+02 0.33230832186E+02 0.37098101690E+02
 0.39618256942E+02 0.40493624102E+02 0.39618256753E+02 0.37098101244E+02 0.33230831427E+02
 0.19851572222E+02 0.15873768841E+02 0.12192918199E+02 0.91065538513E+01 0.67874805219E+01
 0.52581306732E+01 0.43890399464E+01 0.39275587719E+01 0.36091227620E+01 0.33809958038E+01
 0.32382433867E+01 0.31705543677E+01 0.31705544204E+01 0.32382435005E+01 0.33809958672E+01
 0.36091226453E+01 0.39275583942E+01 0.43890393117E+01 0.52581298909E+01 0.67874797606E+01
 0.91065532991E+01 0.12192917994E+02 0.15873769024E+02 0.19851572735E+02 0.23745820833E+02
 0.27145018934E+02 0.29664819136E+02 0.31006551108E+02 0.31006550925E+02 0.29664818634E+02
 0.27145018242E+02 0.23745820137E+02 0.13286979484E+02 0.10508590423E+02 0.81206746559E+01
 0.62875847198E+01 0.50514393421E+01 0.43249932734E+01 0.39106981502E+01 0.36059542787E+01
 0.33809958038E+01 0.32321218436E+01 0.31491424890E+01 0.31227054202E+01 0.31491425314E+01
 0.32321219669E+01 0.33809960470E+01 0.36059546222E+01 0.39106985007E+01 0.43249934710E+01
 0.50514392501E+01 0.62875842812E+01 0.81206739428E+01 0.10508589623E+02 0.13286978804E+02
 0.16197072393E+02 0.18926937652E+02 0.21159698409E+02 0.22622887564E+02 0.23132319988E+02
 0.22622887483E+02 0.21159698358E+02 0.18926937782E+02 0.16197072807E+02 0.87621258583E+01
 0.70508981848E+01 0.57133459055E+01 0.47942782503E+01 0.42334469167E+01 0.38781886262E+01
 0.35972457227E+01 0.33846510091E+01 0.32382433867E+01 0.31491424890E+01 0.31076184962E+01
 0.31076184315E+01 0.31491423778E+01 0.32382434177E+01 0.33846513776E+01 0.35972464885E+01
 0.38781896737E+01 0.42334479602E+01 0.47942789608E+01 0.57133460385E+01 0.70508976587E+01
 0.87621247966E+01 0.10707337326E+02 0.12679195310E+02 0.14440261935E+02 0.15764213699E+02
 0.16474490404E+02 0.16474490651E+02 0.15764214413E+02 0.14440263044E+02 0.12679196658E+02
 0.10707338674E+02 0.60403555621E+01 0.51533025550E+01 0.45315929677E+01 0.41292330223E+01
 0.38327201545E+01 0.35853667548E+01 0.33940553893E+01 0.32580793758E+01 0.31705543677E+01
 0.31227054202E+01 0.31076184315E+01 0.31227051392E+01 0.31705539664E+01 0.32580791115E+01
 0.33940555260E+01 0.35853674449E+01 0.38327213723E+01 0.41292345395E+01 0.45315943924E+01
 0.51533034801E+01 0.60403556601E+01 0.71574210419E+01 0.83988333220E+01 0.96130003158E+01
 0.10634068846E+02 0.11314559525E+02 0.11553361983E+02 0.11314560521E+02 0.10634070545E+02
 0.96130022211E+01 0.83988348963E+01 0.71574218684E+01 0.46765938414E+01 0.42967598243E+01
 0.40192383863E+01 0.37786790820E+01 0.35741118189E+01 0.34130208272E+01 0.32956760971E+01
 0.32172197845E+01 0.31705544204E+01 0.31491425314E+01 0.31491423778E+01 0.31705539664E+01
 0.32172190913E+01 0.32956753208E+01 0.34130202511E+01 0.35741117761E+01 0.37786798064E+01
 0.40192398750E+01 0.42967617205E+01 0.46765955545E+01 0.51995769359E+01 0.58466333961E+01
 0.65488452654E+01 0.72075548178E+01 0.77190731933E+01 0.79985589716E+01 0.79985595708E+01
 0.77190747287E+01 0.72075566180E+01 0.65488465515E+01 0.58466336258E+01 0.51995760128E+01
 0.40969505638E+01 0.39017168790E+01 0.37219258738E+01 0.35682490370E+01 0.34463120603E+01
 0.33565977904E+01 0.32956761688E+01 0.32580794710E+01 0.32382435005E+01 0.32321219669E+01
 0.32382434177E+01 0.32580791115E+01 0.32956753208E+01 0.33565964503E+01 0.34463105544E+01
 0.35682479451E+01 0.37219257316E+01 0.39017179021E+01 0.40969524687E+01 0.43127169082E+01
 0.45811411736E+01 0.49011112380E+01 0.52375664145E+01 0.55366095292E+01 0.57431736297E+01
 0.58169350972E+01 0.57431744059E+01 0.55366105752E+01 0.52375670015E+01 0.49011108192E+01
 0.45811396879E+01 0.43127148270E+01 0.37839454160E+01 0.36689697429E+01 0.35726693069E+01
 0.34985146359E+01 0.34463121374E+01 0.34130209808E+01 0.33940555007E+01 0.33846510364E+01
 0.33809958672E+01 0.33809960470E+01 0.33846513776E+01 0.33940555260E+01 0.34130202511E+01
 0.34463105544E+01 0.34985125611E+01 0.35726674314E+01 0.36689687416E+01 0.37839456107E+01
 0.39105230466E+01 0.40391075013E+01 0.41652934884E+01 0.42965990436E+01 0.44248162605E+01
 0.45292981906E+01 0.45882860571E+01 0.45882861438E+01 0.45292982908E+01 0.44248160161E+01
 0.42965981570E+01 0.41652919825E+01 0.40391058027E+01 0.39105218194E+01 0.36257212535E+01
 0.35912465611E+01 0.35726692538E+01 0.35682490636E+01 0.35741119791E+01 0.35853668894E+01
 0.35972456365E+01 0.36059540166E+01 0.36091226453E+01 0.36059546222E+01 0.35972464885E+01
 0.35853674449E+01 0.35741117761E+01 0.35682479451E+01 0.35726674314E+01 0.35912445355E+01
 0.36257195928E+01 0.36749904348E+01 0.37351017805E+01 0.37999972106E+01 0.38628191348E+01
 0.39173109004E+01 0.39592455195E+01 0.39866157119E+01 0.39962758904E+01 0.39866152685E+01
 0.39592446891E+01 0.39173098258E+01 0.38628180813E+01 0.37999965330E+01 0.37351018060E+01
 0.36749913299E+01 0.36257212061E+01 0.36689695815E+01 0.37219257043E+01 0.37786790656E+01
 0.38327202367E+01 0.38781885251E+01 0.39106976687E+01 0.39275580915E+01 0.39275583942E+01
 0.39106985007E+01 0.38781896737E+01 0.38327213723E+01 0.37786798064E+01 0.37219257316E+01
 0.36689687416E+01 0.36257195928E+01 0.35962401957E+01 0.35819262088E+01 0.35813857935E+01
 0.35910238430E+01 0.36061001885E+01 0.36218814378E+01 0.36345164172E+01 0.36414490523E+01
 0.36414487052E+01 0.36345155565E+01 0.36218805168E+01 0.36060997387E+01 0.35910242324E+01
 0.35813870761E+01 0.35819281118E+01 0.35962422185E+01 0.37839452782E+01 0.39017165695E+01
 0.40192380878E+01 0.41292328839E+01 0.42334467993E+01 0.43249928506E+01 0.43890390784E+01
 0.44121514230E+01 0.43890393117E+01 0.43249934710E+01 0.42334479602E+01 0.41292345395E+01
 0.40192398750E+01 0.39017179021E+01 0.37839456107E+01 0.36749904348E+01 0.35819262088E+01
 0.35086993174E+01 0.34558700254E+01 0.34211900161E+01 0.34007113112E+01 0.33900258944E+01
 0.33853116720E+01 0.33840337946E+01 0.33853112241E+01 0.33900254050E+01 0.34007113572E+01
 0.34211909916E+01 0.34558718911E+01 0.35087015705E+01 0.35819280996E+01 0.36749913299E+01
 0.40969503520E+01 0.42967594015E+01 0.45315925554E+01 0.47942779782E+01 0.50514390499E+01
 0.52581300730E+01 0.53734769830E+01 0.53734768588E+01 0.52581298909E+01 0.50514392501E+01
 0.47942789608E+01 0.45315943924E+01 0.42967617205E+01 0.40969524687E+01 0.39105230466E+01
 0.37351017805E+01 0.35813857935E+01 0.34558700254E+01 0.33603777548E+01 0.32928461042E+01
 0.32488290543E+01 0.32231897013E+01 0.32115944050E+01 0.32115943622E+01 0.32231897117E+01
 0.32488294336E+01 0.32928470888E+01 0.33603792789E+01 0.34558716496E+01 0.35813868702E+01