   1   1   1   0
  0.1047667E+02  0.2456100E-09  0.2456100E-09  0.2456100E-09  0.5000000E-15
  1.000000000000000E-004
  CAR 
 Co-fcc                                  
     53.93885391     -0.68240776  301     10.82822163      1.00000000
     -0.682  0.0000E+00  0.0000E+00  0.0000E+00  0.0000E+00
     -0.500  0.0000E+00  0.0000E+00  0.0000E+00  0.0000E+00
     -0.318  0.0000E+00  0.0000E+00  0.0000E+00  0.0000E+00
     -0.136  0.0000E+00  0.0000E+00  0.0000E+00  0.0000E+00
      0.046  0.0000E+00  0.0000E+00  0.0000E+00  0.0000E+00
      0.228  0.0000E+00  0.0000E+00  0.0000E+00  0.0000E+00
      0.410  0.0000E+00  0.0000E+00  0.0000E+00  0.0000E+00
      0.592  0.0000E+00  0.0000E+00  0.0000E+00  0.0000E+00
      0.774  0.0000E+00  0.0000E+00  0.0000E+00  0.0000E+00
      0.956  0.0000E+00  0.0000E+00  0.0000E+00  0.0000E+00
      1.138  0.0000E+00  0.0000E+00  0.0000E+00  0.0000E+00
      1.320  0.0000E+00  0.0000E+00  0.0000E+00  0.0000E+00
      1.502  0.0000E+00  0.0000E+00  0.0000E+00  0.0000E+00
      1.685  0.1125E-06  0.4012E-07  0.2048E-07  0.7305E-08
      1.867  0.2079E-03  0.2026E-03  0.3787E-04  0.3689E-04
      2.049  0.6557E-05  0.1195E-04  0.3906E-04  0.3906E-04
      2.231  0.4126E-03  0.3237E-03  0.1142E-03  0.9799E-04
      2.413  0.2310E-03  0.3200E-03  0.1562E-03  0.1562E-03
      2.595  0.1468E-03  0.6936E-04  0.1830E-03  0.1689E-03
      2.777  0.4968E-03  0.5742E-03  0.2734E-03  0.2734E-03
      2.959  0.6507E-04  0.1346E-04  0.2853E-03  0.2759E-03
      3.141  0.7930E-03  0.8435E-03  0.4297E-03  0.4295E-03
      3.323  0.4975E-04  0.4946E-05  0.4387E-03  0.4304E-03
      3.505  0.1237E-02  0.1273E-02  0.6640E-03  0.6621E-03
      3.687  0.1121E-03  0.1399E-04  0.6844E-03  0.6646E-03
      3.869  0.5320E-03  0.6372E-03  0.7812E-03  0.7806E-03
      4.051  0.3351E-03  0.8166E-05  0.8423E-03  0.7821E-03
      4.234  0.9539E-03  0.1273E-02  0.1016E-02  0.1014E-02
      4.416  0.1576E-02  0.1246E-03  0.1303E-02  0.1037E-02
      4.598  0.3953E-03  0.1814E-02  0.1375E-02  0.1367E-02
      4.780  0.7589E-03  0.2170E-03  0.1513E-02  0.1406E-02
      4.962  0.3744E-03  0.4510E-03  0.1581E-02  0.1489E-02
      5.144  0.2827E-02  0.9105E-03  0.2096E-02  0.1654E-02
      5.326  0.1029E-02  0.1131E-02  0.2283E-02  0.1860E-02
      5.508  0.2748E-02  0.1369E-02  0.2783E-02  0.2109E-02
      5.690  0.4046E-02  0.1339E-02  0.3520E-02  0.2353E-02
      5.872  0.8379E-02  0.7852E-03  0.5046E-02  0.2496E-02
      6.054  0.4226E-02  0.1523E-02  0.5815E-02  0.2773E-02
      6.236  0.7789E-02  0.2499E-02  0.7233E-02  0.3228E-02
      6.418  0.9565E-02  0.2128E-02  0.8975E-02  0.3616E-02
      6.600  0.7670E-02  0.4350E-02  0.1037E-01  0.4408E-02
      6.782  0.9316E-02  0.3298E-02  0.1207E-01  0.5008E-02
      6.965  0.7974E-02  0.3918E-02  0.1352E-01  0.5722E-02
      7.147  0.9023E-02  0.5979E-02  0.1516E-01  0.6810E-02
      7.329  0.5725E-02  0.3709E-02  0.1620E-01  0.7486E-02
      7.511  0.8710E-02  0.7412E-02  0.1779E-01  0.8835E-02
      7.693  0.9975E-02  0.5724E-02  0.1961E-01  0.9877E-02
      7.875  0.1126E-01  0.9498E-02  0.2166E-01  0.1161E-01
      8.057  0.1263E-01  0.5361E-02  0.2396E-01  0.1258E-01
      8.239  0.1454E-01  0.7055E-02  0.2660E-01  0.1387E-01
      8.421  0.1484E-01  0.7980E-02  0.2931E-01  0.1532E-01
      8.603  0.1200E-01  0.4743E-02  0.3149E-01  0.1618E-01
      8.785  0.1015E-01  0.9060E-02  0.3334E-01  0.1783E-01
      8.967  0.8315E-02  0.9059E-02  0.3485E-01  0.1948E-01
      9.149  0.1315E-01  0.8650E-02  0.3725E-01  0.2106E-01
      9.331  0.1160E-01  0.1003E-01  0.3936E-01  0.2288E-01
      9.514  0.1169E-01  0.9516E-02  0.4149E-01  0.2462E-01
      9.696  0.9073E-02  0.1086E-01  0.4314E-01  0.2659E-01
      9.878  0.1209E-01  0.1226E-01  0.4534E-01  0.2883E-01
     10.060  0.1148E-01  0.9910E-02  0.4743E-01  0.3063E-01
     10.242  0.1879E-01  0.8388E-02  0.5085E-01  0.3216E-01
     10.424  0.9285E-02  0.8205E-02  0.5254E-01  0.3365E-01
     10.606  0.1634E-02  0.5930E-02  0.5284E-01  0.3473E-01
     10.788  0.6392E-04  0.1082E-01  0.5285E-01  0.3670E-01
     10.970  0.6419E-03  0.1050E-01  0.5297E-01  0.3861E-01
     11.152  0.3210E-02  0.7149E-02  0.5355E-01  0.3991E-01
     11.334  0.1633E-02  0.1351E-01  0.5385E-01  0.4237E-01
     11.516  0.9506E-03  0.5112E-02  0.5402E-01  0.4330E-01
     11.698  0.8561E-03  0.1299E-01  0.5418E-01  0.4567E-01
     11.880  0.1129E-02  0.1081E-01  0.5438E-01  0.4764E-01
     12.063  0.2683E-02  0.2052E-01  0.5487E-01  0.5137E-01
     12.245  0.4815E-03  0.8050E-02  0.5496E-01  0.5284E-01
     12.427  0.1216E-02  0.1810E-03  0.5518E-01  0.5287E-01
     12.609  0.1817E-02  0.3188E-02  0.5551E-01  0.5345E-01
     12.791  0.1852E-03  0.3684E-02  0.5555E-01  0.5412E-01
     12.973  0.1543E-02  0.1580E-02  0.5583E-01  0.5441E-01
     13.155  0.9936E-03  0.4417E-03  0.5601E-01  0.5449E-01
     13.337  0.1936E-02  0.1247E-02  0.5636E-01  0.5472E-01
     13.519  0.1136E-02  0.1880E-02  0.5657E-01  0.5506E-01
     13.701  0.2757E-02  0.1923E-02  0.5707E-01  0.5541E-01
     13.883  0.1425E-05  0.2537E-02  0.5707E-01  0.5587E-01
     14.065  0.5865E-06  0.7882E-03  0.5707E-01  0.5602E-01
     14.247  0.1244E-02  0.1905E-02  0.5730E-01  0.5636E-01
     14.429  0.4449E-04  0.4430E-03  0.5730E-01  0.5644E-01
     14.612  0.3498E-02  0.2662E-02  0.5794E-01  0.5693E-01
     14.794  0.3636E-03  0.7751E-03  0.5801E-01  0.5707E-01
     14.976  0.1625E-02  0.1161E-04  0.5830E-01  0.5707E-01
     15.158  0.3045E-03  0.2502E-02  0.5836E-01  0.5753E-01
     15.340  0.4227E-04  0.3968E-03  0.5837E-01  0.5760E-01
     15.522  0.2003E-02  0.2236E-02  0.5873E-01  0.5801E-01
     15.704  0.1173E-02  0.7183E-04  0.5895E-01  0.5802E-01
     15.886  0.7848E-08  0.1859E-02  0.5895E-01  0.5836E-01
     16.068  0.1003E-02  0.6398E-03  0.5913E-01  0.5848E-01
     16.250  0.2843E-03  0.3180E-03  0.5918E-01  0.5853E-01
     16.432  0.4448E-04  0.2261E-02  0.5919E-01  0.5895E-01
     16.614  0.8752E-03  0.4210E-03  0.5935E-01  0.5902E-01
     16.796  0.1012E-02  0.8679E-03  0.5953E-01  0.5918E-01
     16.978  0.1255E-02  0.1693E-08  0.5976E-01  0.5918E-01
     17.161  0.3147E-04  0.1799E-03  0.5977E-01  0.5921E-01
     17.343  0.1504E-05  0.1735E-02  0.5977E-01  0.5953E-01
     17.525  0.9158E-03  0.5043E-04  0.5993E-01  0.5954E-01
     17.707  0.2786E-02  0.1252E-02  0.6044E-01  0.5977E-01
     17.889  0.1107E-02  0.8247E-06  0.6064E-01  0.5977E-01
     18.071  0.1046E-02  0.2466E-09  0.6083E-01  0.5977E-01
     18.253  0.2003E-02  0.6809E-03  0.6120E-01  0.5989E-01
     18.435  0.1470E-02  0.1367E-02  0.6146E-01  0.6014E-01
     18.617  0.1189E-02  0.1930E-02  0.6168E-01  0.6049E-01
     18.799  0.1249E-02  0.2404E-02  0.6191E-01  0.6093E-01
     18.981  0.2477E-02  0.1335E-02  0.6236E-01  0.6117E-01
     19.163  0.1292E-03  0.1759E-02  0.6238E-01  0.6149E-01
     19.345  0.2413E-04  0.1045E-02  0.6239E-01  0.6168E-01
     19.527  0.2562E-02  0.2446E-02  0.6285E-01  0.6213E-01
     19.710  0.1917E-02  0.1386E-02  0.6320E-01  0.6238E-01
     19.892  0.6306E-03  0.2157E-04  0.6332E-01  0.6238E-01
     20.074  0.1397E-02  0.2412E-02  0.6357E-01  0.6282E-01
     20.256  0.1193E-02  0.1453E-02  0.6379E-01  0.6309E-01
     20.438  0.1005E-04  0.6555E-03  0.6379E-01  0.6321E-01
     20.620  0.1373E-02  0.1465E-02  0.6404E-01  0.6347E-01
     20.802  0.1171E-02  0.1689E-02  0.6425E-01  0.6378E-01
     20.984  0.2567E-03  0.4889E-04  0.6430E-01  0.6379E-01
     21.166  0.2447E-02  0.1452E-02  0.6475E-01  0.6405E-01
     21.348  0.2439E-02  0.9381E-03  0.6519E-01  0.6422E-01
     21.530  0.9230E-03  0.3768E-03  0.6536E-01  0.6429E-01
     21.712  0.4911E-03  0.2381E-02  0.6545E-01  0.6473E-01
     21.894  0.2769E-02  0.5319E-03  0.6595E-01  0.6482E-01
     22.076  0.3637E-02  0.2595E-02  0.6661E-01  0.6530E-01
     22.259  0.7453E-03  0.9435E-03  0.6675E-01  0.6547E-01
     22.441  0.1264E-02  0.2383E-02  0.6698E-01  0.6590E-01
     22.623  0.1986E-02  0.2323E-02  0.6734E-01  0.6632E-01
     22.805  0.1020E-02  0.2407E-02  0.6753E-01  0.6676E-01
     22.987  0.8046E-03  0.1562E-02  0.6767E-01  0.6705E-01
     23.169  0.2902E-03  0.1535E-02  0.6773E-01  0.6733E-01
     23.351  0.2775E-02  0.1777E-02  0.6823E-01  0.6765E-01
     23.533  0.4102E-02  0.1612E-03  0.6898E-01  0.6768E-01
     23.715  0.1337E-02  0.1370E-02  0.6922E-01  0.6793E-01
     23.897  0.1248E-02  0.3758E-02  0.6945E-01  0.6861E-01
     24.079  0.2335E-02  0.2814E-02  0.6987E-01  0.6913E-01
     24.261  0.3173E-02  0.9910E-03  0.7045E-01  0.6931E-01
     24.443  0.9535E-03  0.8214E-03  0.7063E-01  0.6946E-01
     24.625  0.1812E-02  0.4778E-02  0.7096E-01  0.7033E-01
     24.808  0.1980E-02  0.1640E-02  0.7132E-01  0.7062E-01
     24.990  0.1266E-03  0.1052E-02  0.7134E-01  0.7082E-01
     25.172  0.1290E-02  0.2635E-02  0.7157E-01  0.7130E-01
     25.354  0.5377E-02  0.1811E-03  0.7255E-01  0.7133E-01
     25.536  0.1028E-02  0.1463E-02  0.7274E-01  0.7159E-01
     25.718  0.2518E-02  0.3529E-02  0.7320E-01  0.7224E-01
     25.900  0.1633E-02  0.2732E-02  0.7350E-01  0.7273E-01
     26.082  0.2244E-02  0.2793E-02  0.7390E-01  0.7324E-01
     26.264  0.7324E-03  0.1714E-02  0.7404E-01  0.7356E-01
     26.446  0.2915E-02  0.1617E-02  0.7457E-01  0.7385E-01
     26.628  0.8787E-03  0.1632E-02  0.7473E-01  0.7415E-01
     26.810  0.2303E-02  0.3160E-02  0.7515E-01  0.7472E-01
     26.992  0.2884E-02  0.4366E-04  0.7567E-01  0.7473E-01
     27.174  0.3181E-02  0.2213E-02  0.7625E-01  0.7513E-01
     27.357  0.9404E-03  0.3734E-02  0.7642E-01  0.7581E-01
     27.539  0.1760E-02  0.2449E-02  0.7674E-01  0.7626E-01
     27.721  0.3155E-02  0.1030E-02  0.7732E-01  0.7645E-01
     27.903  0.2631E-02  0.2771E-02  0.7780E-01  0.7695E-01
     28.085  0.1154E-02  0.2193E-02  0.7801E-01  0.7735E-01
     28.267  0.2952E-02  0.3015E-02  0.7855E-01  0.7790E-01
     28.449  0.2181E-02  0.9305E-03  0.7894E-01  0.7807E-01
     28.631  0.1659E-02  0.3664E-02  0.7924E-01  0.7874E-01
     28.813  0.9314E-03  0.1166E-02  0.7941E-01  0.7895E-01
     28.995  0.7473E-03  0.2180E-02  0.7955E-01  0.7934E-01
     29.177  0.3328E-02  0.6113E-03  0.8016E-01  0.7946E-01
     29.359  0.1295E-02  0.1539E-02  0.8039E-01  0.7974E-01
     29.541  0.9032E-03  0.2314E-02  0.8056E-01  0.8016E-01
     29.723  0.2627E-02  0.1942E-02  0.8103E-01  0.8051E-01
     29.905  0.1207E-02  0.1883E-02  0.8125E-01  0.8085E-01
     30.088  0.3537E-02  0.1363E-02  0.8190E-01  0.8110E-01
     30.270  0.1565E-02  0.2967E-02  0.8218E-01  0.8164E-01
     30.452  0.1589E-02  0.2161E-02  0.8247E-01  0.8204E-01
     30.634  0.1518E-03  0.1873E-02  0.8250E-01  0.8238E-01
     30.816  0.1268E-02  0.6741E-03  0.8273E-01  0.8250E-01
     30.998  0.2424E-02  0.9115E-03  0.8317E-01  0.8267E-01
     31.180  0.2503E-02  0.1690E-02  0.8363E-01  0.8297E-01
     31.362  0.1352E-02  0.3926E-02  0.8387E-01  0.8369E-01
     31.544  0.2071E-02  0.5555E-03  0.8425E-01  0.8379E-01
     31.726  0.1121E-02  0.2373E-02  0.8446E-01  0.8422E-01
     31.908  0.8244E-03  0.2808E-03  0.8461E-01  0.8427E-01
     32.090  0.2613E-02  0.2203E-02  0.8508E-01  0.8467E-01
     32.272  0.1722E-02  0.2231E-02  0.8539E-01  0.8508E-01
     32.454  0.1540E-02  0.1283E-02  0.8568E-01  0.8531E-01
     32.637  0.1910E-02  0.2808E-02  0.8602E-01  0.8582E-01
     32.819  0.2064E-02  0.3014E-02  0.8640E-01  0.8637E-01
     33.001  0.4303E-02  0.8250E-03  0.8718E-01  0.8652E-01
     33.183  0.2556E-03  0.1828E-02  0.8723E-01  0.8686E-01
     33.365  0.3044E-02  0.2018E-02  0.8778E-01  0.8722E-01
     33.547  0.2046E-02  0.1408E-02  0.8816E-01  0.8748E-01
     33.729  0.1705E-02  0.3020E-02  0.8847E-01  0.8803E-01
     33.911  0.1437E-02  0.2713E-02  0.8873E-01  0.8852E-01
     34.093  0.3118E-02  0.2317E-02  0.8930E-01  0.8895E-01
     34.275  0.4970E-02  0.2488E-02  0.9020E-01  0.8940E-01
     34.457  0.1299E-02  0.3743E-02  0.9044E-01  0.9008E-01
     34.639  0.1951E-02  0.1443E-02  0.9079E-01  0.9034E-01
     34.821  0.2179E-02  0.2493E-02  0.9119E-01  0.9080E-01
     35.003  0.2274E-02  0.2227E-02  0.9160E-01  0.9120E-01
     35.186  0.3269E-02  0.2556E-02  0.9220E-01  0.9167E-01
     35.368  0.1630E-02  0.2639E-02  0.9249E-01  0.9215E-01
     35.550  0.3988E-02  0.2129E-02  0.9322E-01  0.9254E-01
     35.732  0.7392E-03  0.4377E-02  0.9336E-01  0.9333E-01
     35.914  0.2901E-02  0.5924E-03  0.9388E-01  0.9344E-01
     36.096  0.1082E-02  0.2414E-02  0.9408E-01  0.9388E-01
     36.278  0.2795E-02  0.9981E-03  0.9459E-01  0.9406E-01
     36.460  0.3781E-02  0.2515E-02  0.9528E-01  0.9452E-01
     36.642  0.2838E-02  0.3742E-02  0.9579E-01  0.9520E-01
     36.824  0.2623E-02  0.3352E-02  0.9627E-01  0.9581E-01
     37.006  0.1427E-02  0.9396E-03  0.9653E-01  0.9598E-01
     37.188  0.2588E-02  0.2931E-02  0.9700E-01  0.9652E-01
     37.370  0.1939E-02  0.2254E-02  0.9736E-01  0.9693E-01
     37.552  0.4264E-02  0.3691E-02  0.9813E-01  0.9760E-01
     37.735  0.2016E-02  0.2125E-02  0.9850E-01  0.9799E-01
     37.917  0.7336E-03  0.2906E-02  0.9863E-01  0.9851E-01
     38.099  0.1054E-03  0.5381E-05  0.9865E-01  0.9852E-01
     38.281  0.1827E-02  0.5931E-03  0.9898E-01  0.9862E-01
     38.463  0.2571E-02  0.1725E-02  0.9945E-01  0.9894E-01
     38.645  0.2415E-02  0.1644E-02  0.9989E-01  0.9924E-01
     38.827  0.1181E-02  0.4172E-02  0.1001E+00  0.1000E+00
     39.009  0.6980E-03  0.1867E-04  0.1002E+00  0.1000E+00
     39.191  0.5951E-04  0.1282E-03  0.1002E+00  0.1000E+00
     39.373  0.1020E-02  0.1159E-02  0.1004E+00  0.1002E+00
     39.555  0.3123E-02  0.1051E-02  0.1010E+00  0.1004E+00
     39.737  0.2911E-02  0.3311E-02  0.1015E+00  0.1010E+00
     39.919  0.1239E-02  0.1857E-02  0.1018E+00  0.1014E+00
     40.101  0.1088E-02  0.2265E-03  0.1020E+00  0.1014E+00
     40.284  0.6431E-03  0.2696E-02  0.1021E+00  0.1019E+00
     40.466  0.1977E-02  0.9394E-03  0.1024E+00  0.1021E+00
     40.648  0.2565E-02  0.1780E-02  0.1029E+00  0.1024E+00
     40.830  0.1116E-02  0.1486E-02  0.1031E+00  0.1027E+00
     41.012  0.2677E-02  0.2468E-02  0.1036E+00  0.1031E+00
     41.194  0.7346E-02  0.2428E-02  0.1049E+00  0.1036E+00
     41.376  0.5674E-02  0.4978E-02  0.1060E+00  0.1045E+00
     41.558  0.2174E-02  0.6621E-02  0.1064E+00  0.1057E+00
     41.740  0.1905E-02  0.3734E-02  0.1067E+00  0.1063E+00
     41.922  0.7969E-03  0.1861E-02  0.1068E+00  0.1067E+00
     42.104  0.2885E-02  0.8222E-03  0.1074E+00  0.1068E+00
     42.286  0.1197E-02  0.1936E-02  0.1076E+00  0.1072E+00
     42.468  0.2188E-02  0.2059E-02  0.1080E+00  0.1076E+00
     42.650  0.2936E-02  0.1879E-02  0.1085E+00  0.1079E+00
     42.833  0.3701E-02  0.2376E-02  0.1092E+00  0.1083E+00
     43.015  0.1826E-02  0.4590E-02  0.1095E+00  0.1092E+00
     43.197  0.1300E-02  0.2418E-02  0.1098E+00  0.1096E+00
     43.379  0.1782E-03  0.8309E-03  0.1098E+00  0.1098E+00
     43.561  0.3286E-02  0.1479E-03  0.1104E+00  0.1098E+00
     43.743  0.5066E-02  0.4249E-02  0.1113E+00  0.1106E+00
     43.925  0.2421E-02  0.1147E-02  0.1118E+00  0.1108E+00
     44.107  0.2052E-03  0.4890E-02  0.1118E+00  0.1117E+00
     44.289  0.7043E-03  0.7384E-03  0.1119E+00  0.1118E+00
     44.471  0.2914E-02  0.2354E-02  0.1125E+00  0.1122E+00
     44.653  0.1500E-02  0.9852E-03  0.1127E+00  0.1124E+00
     44.835  0.3079E-02  0.1163E-02  0.1133E+00  0.1126E+00
     45.017  0.1754E-02  0.3775E-02  0.1136E+00  0.1133E+00
     45.199  0.2889E-02  0.1403E-02  0.1141E+00  0.1136E+00
     45.382  0.3888E-03  0.7880E-03  0.1142E+00  0.1137E+00
     45.564  0.1868E-02  0.3242E-02  0.1145E+00  0.1143E+00
     45.746  0.1517E-02  0.7934E-03  0.1148E+00  0.1144E+00
     45.928  0.7630E-03  0.2837E-03  0.1150E+00  0.1145E+00
     46.110  0.7725E-03  0.6016E-03  0.1151E+00  0.1146E+00
     46.292  0.2895E-02  0.1330E-02  0.1156E+00  0.1148E+00
     46.474  0.2860E-02  0.2885E-02  0.1161E+00  0.1154E+00
     46.656  0.1881E-02  0.1631E-02  0.1165E+00  0.1157E+00
     46.838  0.1701E-02  0.1777E-02  0.1168E+00  0.1160E+00
     47.020  0.1245E-02  0.1430E-02  0.1170E+00  0.1162E+00
     47.202  0.1360E-02  0.2615E-03  0.1173E+00  0.1163E+00
     47.384  0.4447E-02  0.2470E-02  0.1181E+00  0.1167E+00
     47.566  0.3088E-02  0.2393E-02  0.1186E+00  0.1172E+00
     47.748  0.1535E-02  0.1425E-02  0.1189E+00  0.1174E+00
     47.931  0.5244E-02  0.1174E-02  0.1199E+00  0.1177E+00
     48.113  0.6466E-03  0.1886E-04  0.1200E+00  0.1177E+00
     48.295  0.1577E-08  0.1240E-02  0.1200E+00  0.1179E+00
     48.477  0.0000E+00  0.1958E-02  0.1200E+00  0.1182E+00
     48.659  0.0000E+00  0.1145E-02  0.1200E+00  0.1185E+00
     48.841  0.0000E+00  0.7865E-03  0.1200E+00  0.1186E+00
     49.023  0.0000E+00  0.1553E-07  0.1200E+00  0.1186E+00
     49.205  0.0000E+00  0.3032E-03  0.1200E+00  0.1186E+00
     49.387  0.0000E+00  0.9840E-03  0.1200E+00  0.1188E+00
     49.569  0.0000E+00  0.6091E-08  0.1200E+00  0.1188E+00
     49.751  0.0000E+00  0.0000E+00  0.1200E+00  0.1188E+00
     49.933  0.0000E+00  0.1671E-06  0.1200E+00  0.1188E+00
     50.115  0.0000E+00  0.6185E-03  0.1200E+00  0.1189E+00
     50.297  0.0000E+00  0.1758E-02  0.1200E+00  0.1193E+00
     50.480  0.0000E+00  0.1980E-03  0.1200E+00  0.1193E+00
     50.662  0.0000E+00  0.0000E+00  0.1200E+00  0.1193E+00
     50.844  0.0000E+00  0.0000E+00  0.1200E+00  0.1193E+00
     51.026  0.0000E+00  0.6066E-14  0.1200E+00  0.1193E+00
     51.208  0.0000E+00  0.6990E-04  0.1200E+00  0.1193E+00
     51.390  0.0000E+00  0.2981E-02  0.1200E+00  0.1199E+00
     51.572  0.0000E+00  0.8101E-03  0.1200E+00  0.1200E+00
     51.754  0.0000E+00  0.3375E-06  0.1200E+00  0.1200E+00
     51.936  0.0000E+00  0.0000E+00  0.1200E+00  0.1200E+00
     52.118  0.0000E+00  0.0000E+00  0.1200E+00  0.1200E+00
     52.300  0.0000E+00  0.0000E+00  0.1200E+00  0.1200E+00
     52.482  0.0000E+00  0.0000E+00  0.1200E+00  0.1200E+00
     52.664  0.0000E+00  0.0000E+00  0.1200E+00  0.1200E+00
     52.846  0.0000E+00  0.0000E+00  0.1200E+00  0.1200E+00
     53.028  0.0000E+00  0.0000E+00  0.1200E+00  0.1200E+00
     53.211  0.0000E+00  0.0000E+00  0.1200E+00  0.1200E+00
     53.393  0.0000E+00  0.0000E+00  0.1200E+00  0.1200E+00
     53.575  0.0000E+00  0.0000E+00  0.1200E+00  0.1200E+00
     53.757  0.0000E+00  0.0000E+00  0.1200E+00  0.1200E+00
     53.939  0.0000E+00  0.0000E+00  0.1200E+00  0.1200E+00
     53.93885391     -0.68240776  301     10.82822163      1.00000000
     -0.682  0.0000E+00  0.0000E+00  0.0000E+00  0.0000E+00  0.0000E+00  0.0000E+00  0.0000E+00  0.0000E+00  0.0000E+00  0.0000E+00  0.0000E+00  0.0000E+00  0.0000E+00  0.0000E+00  0.0000E+00  0.0000E+00  0.0000E+00  0.0000E+00
     -0.500  0.0000E+00  0.0000E+00  0.0000E+00  0.0000E+00  0.0000E+00  0.0000E+00  0.0000E+00  0.0000E+00  0.0000E+00  0.0000E+00  0.0000E+00  0.0000E+00  0.0000E+00  0.0000E+00  0.0000E+00  0.0000E+00  0.0000E+00  0.0000E+00
     -0.318  0.0000E+00  0.0000E+00  0.0000E+00  0.0000E+00  0.0000E+00  0.0000E+00  0.0000E+00  0.0000E+00  0.0000E+00  0.0000E+00  0.0000E+00  0.0000E+00  0.0000E+00  0.0000E+00  0.0000E+00  0.0000E+00  0.0000E+00  0.0000E+00
     -0.136  0.0000E+00  0.0000E+00  0.0000E+00  0.0000E+00  0.0000E+00  0.0000E+00  0.0000E+00  0.0000E+00  0.0000E+00  0.0000E+00  0.0000E+00  0.0000E+00  0.0000E+00  0.0000E+00  0.0000E+00  0.0000E+00  0.0000E+00  0.0000E+00
      0.046  0.0000E+00  0.0000E+00  0.0000E+00  0.0000E+00  0.0000E+00  0.0000E+00  0.0000E+00  0.0000E+00  0.0000E+00  0.0000E+00  0.0000E+00  0.0000E+00  0.0000E+00  0.0000E+00  0.0000E+00  0.0000E+00  0.0000E+00  0.0000E+00
      0.228  0.0000E+00  0.0000E+00  0.0000E+00  0.0000E+00  0.0000E+00  0.0000E+00  0.0000E+00  0.0000E+00  0.0000E+00  0.0000E+00  0.0000E+00  0.0000E+00  0.0000E+00  0.0000E+00  0.0000E+00  0.0000E+00  0.0000E+00  0.0000E+00
      0.410  0.0000E+00  0.0000E+00  0.0000E+00  0.0000E+00  0.0000E+00  0.0000E+00  0.0000E+00  0.0000E+00  0.0000E+00  0.0000E+00  0.0000E+00  0.0000E+00  0.0000E+00  0.0000E+00  0.0000E+00  0.0000E+00  0.0000E+00  0.0000E+00
      0.592  0.0000E+00  0.0000E+00  0.0000E+00  0.0000E+00  0.0000E+00  0.0000E+00  0.0000E+00  0.0000E+00  0.0000E+00  0.0000E+00  0.0000E+00  0.0000E+00  0.0000E+00  0.0000E+00  0.0000E+00  0.0000E+00  0.0000E+00  0.0000E+00
      0.774  0.0000E+00  0.0000E+00  0.0000E+00  0.0000E+00  0.0000E+00  0.0000E+00  0.0000E+00  0.0000E+00  0.0000E+00  0.0000E+00  0.0000E+00  0.0000E+00  0.0000E+00  0.0000E+00  0.0000E+00  0.0000E+00  0.0000E+00  0.0000E+00
      0.956  0.0000E+00  0.0000E+00  0.0000E+00  0.0000E+00  0.0000E+00  0.0000E+00  0.0000E+00  0.0000E+00  0.0000E+00  0.0000E+00  0.0000E+00  0.0000E+00  0.0000E+00  0.0000E+00  0.0000E+00  0.0000E+00  0.0000E+00  0.0000E+00
      1.138  0.0000E+00  0.0000E+00  0.0000E+00  0.0000E+00  0.0000E+00  0.0000E+00  0.0000E+00  0.0000E+00  0.0000E+00  0.0000E+00  0.0000E+00  0.0000E+00  0.0000E+00  0.0000E+00  0.0000E+00  0.0000E+00  0.0000E+00  0.0000E+00
      1.320  0.0000E+00  0.0000E+00  0.0000E+00  0.0000E+00  0.0000E+00  0.0000E+00  0.0000E+00  0.0000E+00  0.0000E+00  0.0000E+00  0.0000E+00  0.0000E+00  0.0000E+00  0.0000E+00  0.0000E+00  0.0000E+00  0.0000E+00  0.0000E+00
      1.502  0.0000E+00  0.0000E+00  0.0000E+00  0.0000E+00  0.0000E+00  0.0000E+00  0.0000E+00  0.0000E+00  0.0000E+00  0.0000E+00  0.0000E+00  0.0000E+00  0.0000E+00  0.0000E+00  0.0000E+00  0.0000E+00  0.0000E+00  0.0000E+00
      1.685  0.8361E-05  0.2984E-05  0.4224E-07  0.1514E-07  0.4224E-07  0.1514E-07  0.4224E-07  0.1514E-07  0.6576E-09  0.1775E-09  0.6576E-09  0.1775E-09  0.8816E-23  0.4808E-23  0.6576E-09  0.1775E-09  0.8816E-23  0.4808E-23
      1.867  0.1545E-01  0.1507E-01  0.7804E-04  0.7644E-04  0.7804E-04  0.7644E-04  0.7804E-04  0.7644E-04  0.1215E-05  0.8962E-06  0.1215E-05  0.8962E-06  0.1629E-19  0.2428E-19  0.1215E-05  0.8962E-06  0.1629E-19  0.2428E-19
      2.049  0.4873E-03  0.8888E-03  0.2462E-05  0.4509E-05  0.2462E-05  0.4509E-05  0.2462E-05  0.4509E-05  0.3835E-07  0.5287E-07  0.3835E-07  0.5287E-07  0.2788E-10  0.3400E-11  0.3835E-07  0.5287E-07  0.2788E-10  0.3400E-11
      2.231  0.2942E-01  0.2310E-01  0.5526E-03  0.4364E-03  0.5526E-03  0.4364E-03  0.5526E-03  0.4364E-03  0.1592E-04  0.9260E-05  0.1592E-04  0.9260E-05  0.2127E-04  0.1262E-04  0.1592E-04  0.9260E-05  0.2127E-04  0.1262E-04
      2.413  0.1647E-01  0.2284E-01  0.3094E-03  0.4314E-03  0.3094E-03  0.4314E-03  0.3094E-03  0.4314E-03  0.8913E-05  0.9154E-05  0.8913E-05  0.9154E-05  0.1191E-04  0.1247E-04  0.8913E-05  0.9154E-05  0.1191E-04  0.1247E-04
      2.595  0.1003E-01  0.4745E-02  0.3254E-03  0.1556E-03  0.3254E-03  0.1556E-03  0.3254E-03  0.1556E-03  0.3150E-04  0.1077E-04  0.3150E-04  0.1077E-04  0.7072E-05  0.2540E-05  0.3150E-04  0.1077E-04  0.7072E-05  0.2540E-05
      2.777  0.3394E-01  0.3928E-01  0.1101E-02  0.1288E-02  0.1101E-02  0.1288E-02  0.1101E-02  0.1288E-02  0.1066E-03  0.8914E-04  0.1066E-03  0.8914E-04  0.2393E-04  0.2103E-04  0.1066E-03  0.8914E-04  0.2393E-04  0.2103E-04
      2.959  0.4235E-02  0.8794E-03  0.1980E-03  0.4163E-04  0.1980E-03  0.4163E-04  0.1980E-03  0.4163E-04  0.1939E-04  0.2743E-05  0.1939E-04  0.2743E-05  0.2407E-04  0.3575E-05  0.1939E-04  0.2743E-05  0.2407E-04  0.3575E-05
      3.141  0.5160E-01  0.5509E-01  0.2426E-02  0.2620E-02  0.2426E-02  0.2620E-02  0.2426E-02  0.2620E-02  0.1899E-03  0.1430E-03  0.1899E-03  0.1430E-03  0.3426E-03  0.2566E-03  0.1899E-03  0.1430E-03  0.3426E-03  0.2566E-03
      3.323  0.3086E-02  0.3121E-03  0.1890E-03  0.1827E-04  0.1890E-03  0.1827E-04  0.1890E-03  0.1827E-04  0.3009E-04  0.1733E-05  0.3009E-04  0.1733E-05  0.2109E-04  0.1541E-05  0.3009E-04  0.1733E-05  0.2109E-04  0.1541E-05
      3.505  0.7673E-01  0.7939E-01  0.4701E-02  0.4944E-02  0.4701E-02  0.4944E-02  0.4701E-02  0.4944E-02  0.7493E-03  0.5369E-03  0.7493E-03  0.5369E-03  0.5241E-03  0.3836E-03  0.7493E-03  0.5369E-03  0.5241E-03  0.3836E-03
      3.687  0.6579E-02  0.8638E-03  0.4697E-03  0.5601E-04  0.4697E-03  0.5601E-04  0.4697E-03  0.5601E-04  0.1849E-03  0.7942E-05  0.1849E-03  0.7942E-05  0.2808E-04  0.3827E-05  0.1849E-03  0.7942E-05  0.2808E-04  0.3827E-05
      3.869  0.3121E-01  0.3789E-01  0.2230E-02  0.2812E-02  0.2230E-02  0.2812E-02  0.2230E-02  0.2812E-02  0.8799E-03  0.6844E-03  0.8799E-03  0.6844E-03  0.1328E-03  0.1124E-03  0.8799E-03  0.6844E-03  0.1328E-03  0.1124E-03
      4.051  0.1835E-01  0.4684E-03  0.1692E-02  0.4018E-04  0.1692E-02  0.4018E-04  0.1692E-02  0.4018E-04  0.2463E-03  0.5877E-05  0.2463E-03  0.5877E-05  0.7615E-03  0.7894E-05  0.2463E-03  0.5877E-05  0.7615E-03  0.7894E-05
      4.234  0.5250E-01  0.7136E-01  0.4803E-02  0.6695E-02  0.4803E-02  0.6695E-02  0.4803E-02  0.6695E-02  0.1028E-02  0.8404E-03  0.1028E-02  0.8404E-03  0.1589E-02  0.1525E-02  0.1028E-02  0.8404E-03  0.1589E-02  0.1525E-02
      4.416  0.8100E-01  0.6677E-02  0.8197E-02  0.6706E-03  0.8197E-02  0.6706E-03  0.8197E-02  0.6706E-03  0.3757E-02  0.2600E-03  0.3757E-02  0.2600E-03  0.2658E-02  0.6163E-04  0.3757E-02  0.2600E-03  0.2658E-02  0.6163E-04
      4.598  0.2015E-01  0.9629E-01  0.2179E-02  0.1030E-01  0.2179E-02  0.1030E-01  0.2179E-02  0.1030E-01  0.5967E-03  0.2442E-02  0.5967E-03  0.2442E-02  0.1025E-02  0.2264E-02  0.5967E-03  0.2442E-02  0.1025E-02  0.2264E-02
      4.780  0.3542E-01  0.1086E-01  0.3856E-02  0.1303E-02  0.3856E-02  0.1303E-02  0.3856E-02  0.1303E-02  0.3467E-02  0.4588E-03  0.3467E-02  0.4588E-03  0.1243E-02  0.2955E-03  0.3467E-02  0.4588E-03  0.1243E-02  0.2955E-03
      4.962  0.1671E-01  0.2250E-01  0.2189E-02  0.2688E-02  0.2189E-02  0.2688E-02  0.2189E-02  0.2688E-02  0.1680E-02  0.1033E-02  0.1680E-02  0.1033E-02  0.5977E-03  0.5819E-03  0.1680E-02  0.1033E-02  0.5977E-03  0.5819E-03
      5.144  0.1153E+00  0.4296E-01  0.1530E-01  0.5864E-02  0.1530E-01  0.5864E-02  0.1530E-01  0.5864E-02  0.1388E-01  0.2761E-02  0.1388E-01  0.2761E-02  0.1132E-01  0.9060E-03  0.1388E-01  0.2761E-02  0.1132E-01  0.9060E-03
      5.326  0.3385E-01  0.5096E-01  0.4033E-02  0.7367E-02  0.4033E-02  0.7367E-02  0.4033E-02  0.7367E-02  0.1039E-01  0.3093E-02  0.1039E-01  0.3093E-02  0.4167E-02  0.2768E-02  0.1039E-01  0.3093E-02  0.4167E-02  0.2768E-02
      5.508  0.6458E-01  0.5913E-01  0.8437E-02  0.8479E-02  0.8437E-02  0.8479E-02  0.8437E-02  0.8479E-02  0.2012E-01  0.4843E-02  0.2012E-01  0.4843E-02  0.4103E-01  0.4086E-02  0.2012E-01  0.4843E-02  0.4103E-01  0.4086E-02
      5.690  0.7476E-01  0.5190E-01  0.9398E-02  0.8886E-02  0.9398E-02  0.8886E-02  0.9398E-02  0.8886E-02  0.3722E-01  0.3443E-02  0.3722E-01  0.3443E-02  0.6731E-01  0.8044E-02  0.3722E-01  0.3443E-02  0.6731E-01  0.8044E-02
      5.872  0.1459E+00  0.2956E-01  0.2328E-01  0.4388E-02  0.2328E-01  0.4388E-02  0.2328E-01  0.4388E-02  0.7662E-01  0.5198E-02  0.7662E-01  0.5198E-02  0.1388E+00  0.2365E-02  0.7662E-01  0.5198E-02  0.1388E+00  0.2365E-02
      6.054  0.4951E-01  0.5579E-01  0.8430E-02  0.1029E-01  0.8430E-02  0.1029E-01  0.8430E-02  0.1029E-01  0.4654E-01  0.9118E-02  0.4654E-01  0.9118E-02  0.7930E-01  0.3712E-02  0.4654E-01  0.9118E-02  0.7930E-01  0.3712E-02
      6.236  0.5769E-01  0.7706E-01  0.1280E-01  0.1396E-01  0.1280E-01  0.1396E-01  0.1280E-01  0.1396E-01  0.1067E+00  0.1786E-01  0.1067E+00  0.1786E-01  0.1415E+00  0.1544E-01  0.1067E+00  0.1786E-01  0.1415E+00  0.1544E-01
      6.418  0.6205E-01  0.6216E-01  0.1895E-01  0.1099E-01  0.1895E-01  0.1099E-01  0.1895E-01  0.1099E-01  0.1615E+00  0.1965E-01  0.1615E+00  0.1965E-01  0.1302E+00  0.1068E-01  0.1615E+00  0.1965E-01  0.1302E+00  0.1068E-01
      6.600  0.1977E-01  0.8138E-01  0.1100E-01  0.1129E-01  0.1100E-01  0.1129E-01  0.1100E-01  0.1129E-01  0.1382E+00  0.4111E-01  0.1382E+00  0.4111E-01  0.1182E+00  0.6636E-01  0.1382E+00  0.4111E-01  0.1182E+00  0.6636E-01
      6.782  0.2635E-01  0.6186E-01  0.2072E-01  0.1102E-01  0.2072E-01  0.1102E-01  0.2072E-01  0.1102E-01  0.1964E+00  0.3663E-01  0.1964E+00  0.3663E-01  0.8871E-01  0.3859E-01  0.1964E+00  0.3663E-01  0.8871E-01  0.3859E-01
      6.965  0.9288E-02  0.5865E-01  0.1736E-01  0.1485E-01  0.1736E-01  0.1485E-01  0.1736E-01  0.1485E-01  0.1608E+00  0.1930E-01  0.1608E+00  0.1930E-01  0.9547E-01  0.8451E-01  0.1608E+00  0.1930E-01  0.9547E-01  0.8451E-01
      7.147  0.5596E-02  0.8674E-01  0.2103E-01  0.1927E-01  0.2103E-01  0.1927E-01  0.2103E-01  0.1927E-01  0.1782E+00  0.7088E-01  0.1782E+00  0.7088E-01  0.1149E+00  0.7995E-01  0.1782E+00  0.7088E-01  0.1149E+00  0.7995E-01
      7.329  0.8508E-03  0.2507E-01  0.9123E-02  0.9124E-02  0.9123E-02  0.9124E-02  0.9123E-02  0.9124E-02  0.9283E-01  0.2707E-01  0.9283E-01  0.2707E-01  0.1119E+00  0.9446E-01  0.9283E-01  0.2707E-01  0.1119E+00  0.9446E-01
      7.511  0.8261E-02  0.5351E-01  0.1902E-01  0.1900E-01  0.1902E-01  0.1900E-01  0.1902E-01  0.1900E-01  0.1690E+00  0.1217E+00  0.1690E+00  0.1217E+00  0.1182E+00  0.9225E-01  0.1690E+00  0.1217E+00  0.1182E+00  0.9225E-01
      7.693  0.9208E-02  0.1696E-01  0.1879E-01  0.1335E-01  0.1879E-01  0.1335E-01  0.1879E-01  0.1335E-01  0.2211E+00  0.9752E-01  0.2211E+00  0.9752E-01  0.1032E+00  0.8238E-01  0.2211E+00  0.9752E-01  0.1032E+00  0.8238E-01
      7.875  0.1129E-01  0.2504E-01  0.2320E-01  0.2576E-01  0.2320E-01  0.2576E-01  0.2320E-01  0.2576E-01  0.2363E+00  0.1802E+00  0.2363E+00  0.1802E+00  0.1347E+00  0.1077E+00  0.2363E+00  0.1802E+00  0.1347E+00  0.1077E+00
      8.057  0.2038E-01  0.1597E-02  0.2720E-01  0.1430E-01  0.2720E-01  0.1430E-01  0.2720E-01  0.1430E-01  0.2497E+00  0.1203E+00  0.2497E+00  0.1203E+00  0.1695E+00  0.4238E-01  0.2497E+00  0.1203E+00  0.1695E+00  0.4238E-01
      8.239  0.1876E-01  0.5972E-02  0.2462E-01  0.1893E-01  0.2462E-01  0.1893E-01  0.2462E-01  0.1893E-01  0.2741E+00  0.1351E+00  0.2741E+00  0.1351E+00  0.2333E+00  0.8684E-01  0.2741E+00  0.1351E+00  0.2333E+00  0.8684E-01
      8.421  0.1142E-01  0.2513E-02  0.2134E-01  0.2358E-01  0.2134E-01  0.2358E-01  0.2134E-01  0.2358E-01  0.3132E+00  0.1598E+00  0.3132E+00  0.1598E+00  0.2022E+00  0.8744E-01  0.3132E+00  0.1598E+00  0.2022E+00  0.8744E-01