    1    1  100    2
  0.1047667E+02  0.2456100E-09  0.2456100E-09  0.2456100E-09  0.5000000E-15
  1.000000000000000E-004
  CAR 
 Co-fcc                                  
      9     60     12
 
  0.6250000E-01  0.6250000E-01  0.6250000E-01  0.3906250E-02
      1          1.800377        1.810300   1.000000   1.000000
      2          8.050860        9.583572   1.000000   1.000000
      3          8.136760        9.686057   1.000000   1.000000
      4          8.136760        9.686057   1.000000   1.000000
      5          9.228449       11.093918   1.000000   0.000000
      6          9.228449       11.093918   1.000000   0.000000
      7         33.876195       33.650215   0.000000   0.000000
      8         37.025794       37.127097   0.000000   0.000000
      9         38.562765       38.734986   0.000000   0.000000
     10         38.562765       38.734986   0.000000   0.000000
     11         42.588270       42.844309   0.000000   0.000000
     12         42.588281       42.844638   0.000000   0.000000
 
  0.1875000E+00  0.6250000E-01  0.6250000E-01  0.1171875E-01
      1          2.621211        2.638655   1.000000   1.000000
      2          7.824868        9.296002   1.000000   1.000000
      3          8.304067        9.871020   1.000000   1.000000
      4          8.309025        9.879455   1.000000   1.000000
      5          9.063395       10.895608   1.000000   0.028327
      6          9.322197       11.175847   1.000000   0.000000
      7         31.171083       31.361552   0.000000   0.000000
      8         33.831355       33.899720   0.000000   0.000000
      9         37.395993       37.455041   0.000000   0.000000
     10         39.599642       39.774190   0.000000   0.000000
     11         41.364888       41.357374   0.000000   0.000000
     12         42.697494       42.923619   0.000000   0.000000
 
  0.3125000E+00  0.6250000E-01  0.6250000E-01  0.1171875E-01
      1          4.332122        4.453220   1.000000   1.000000
      2          7.706277        8.963441   1.000000   1.000000
      3          8.247396        9.852137   1.000000   1.000000
      4          8.326318        9.959578   1.000000   1.000000
      5          9.285033       11.062613   1.000000   0.000000
      6          9.744033       11.548014   1.000000   0.000000
      7         25.035436       25.483656   0.000000   0.000000
      8         32.706600       32.758643   0.000000   0.000000
      9         36.342827       36.425038   0.000000   0.000000
     10         39.239462       39.550659   0.000000   0.000000
     11         40.408436       40.665996   0.000000   0.000000
     12         41.360443       41.425637   0.000000   0.000000
 
  0.4375000E+00  0.6250000E-01  0.6250000E-01  0.1171875E-01
      1          5.460000        6.129063   1.000000   1.000000
      2          8.004552        9.436868   1.000000   1.000000
      3          8.109532        9.647240   1.000000   1.000000
      4          8.812804        9.743579   1.000000   1.000000
      5          9.870398       11.680956   1.000000   0.000000
      6         10.560256       12.179924   1.000000   0.000000
      7         19.613960       20.340027   0.000000   0.000000
      8         32.152286       32.085360   0.000000   0.000000
      9         35.126723       35.294986   0.000000   0.000000
     10         37.066937       37.386665   0.000000   0.000000
     11         39.538446       39.815477   0.000000   0.000000
     12         41.120782       41.321203   0.000000   0.000000
 
 -0.4375000E+00  0.6250000E-01  0.6250000E-01  0.1171875E-01
      1          5.578770        6.468793   1.000000   1.000000
      2          7.903360        9.472916   1.000000   1.000000
      3          8.053143        9.679214   1.000000   1.000000
      4          9.416882       10.149287   1.000000   1.000000
      5         10.169180       12.016384   1.000000   0.000000
      6         11.336835       12.463431   0.000000   0.000000
      7         17.442621       18.404377   0.000000   0.000000
      8         32.204155       32.026516   0.000000   0.000000
      9         35.159975       35.470942   0.000000   0.000000
     10         35.329124       35.603270   0.000000   0.000000
     11         40.379744       40.614041   0.000000   0.000000
     12         40.392486       40.641982   0.000000   0.000000
 
 -0.3125000E+00  0.6250000E-01  0.6250000E-01  0.1171875E-01
      1          5.249890        5.706360   1.000000   1.000000
      2          8.043275        9.117825   1.000000   1.000000
      3          8.203455        9.681741   1.000000   1.000000
      4          8.266691        9.832443   1.000000   1.000000
      5          9.951318       11.678511   1.000000   0.000000
      6         10.006434       11.790162   1.000000   0.000000
      7         21.254787       21.870951   0.000000   0.000000
      8         32.938272       32.758031   0.000000   0.000000
      9         34.613702       34.949665   0.000000   0.000000
     10         37.106171       37.440792   0.000000   0.000000
     11         40.186789       40.374070   0.000000   0.000000
     12         42.110985       42.315928   0.000000   0.000000
 
 -0.1875000E+00  0.6250000E-01  0.6250000E-01  0.1171875E-01
      1          3.720547        3.778720   1.000000   1.000000
      2          7.656134        9.017892   1.000000   1.000000
      3          8.314648        9.925679   1.000000   1.000000
      4          8.376279        9.981518   1.000000   1.000000
      5          9.210845       10.974304   1.000000   0.000018
      6          9.487801       11.328375   1.000000   0.000000
      7         27.068209       27.442272   0.000000   0.000000
      8         34.057004       33.923238   0.000000   0.000000
      9         35.166484       35.502681   0.000000   0.000000
     10         39.717939       39.822560   0.000000   0.000000
     11         40.012025       40.273732   0.000000   0.000000
     12         44.350710       44.448669   0.000000   0.000000
 
 -0.6250000E-01  0.6250000E-01  0.6250000E-01  0.1171875E-01
      1          2.217953        2.230472   1.000000   1.000000
      2          7.899000        9.401939   1.000000   1.000000
      3          8.252653        9.810273   1.000000   1.000000
      4          8.257235        9.815762   1.000000   1.000000
      5          9.084605       10.922247   1.000000   0.003914
      6          9.298762       11.169714   1.000000   0.000000
      7         32.919701       32.913384   0.000000   0.000000
      8         35.404609       35.416567   0.000000   0.000000
      9         36.557560       36.835486   0.000000   0.000000
     10         38.373019       38.455583   0.000000   0.000000
     11         42.512081       42.700642   0.000000   0.000000
     12         44.311764       44.413479   0.000000   0.000000
 
  0.1875000E+00  0.1875000E+00  0.6250000E-01  0.1171875E-01
      1          3.012364        3.036980   1.000000   1.000000
      2          7.606190        9.058337   1.000000   1.000000
      3          8.459721       10.045864   1.000000   1.000000
      4          8.491438       10.069883   1.000000   1.000000
      5          8.887933       10.651571   1.000000   1.000000
      6          9.429681       11.310268   1.000000   0.000000
      7         31.487323       31.684952   0.000000   0.000000
      8         33.939204       33.926248   0.000000   0.000000
      9         34.237683       34.558942   0.000000   0.000000
     10         36.398463       36.471594   0.000000   0.000000
     11         42.391334       43.050692   0.000000   0.000000
     12         44.845940       44.969689   0.000000   0.000000
 
  0.3125000E+00  0.1875000E+00  0.6250000E-01  0.2343750E-01
      1          4.393916        4.490003   1.000000   1.000000
      2          7.287252        8.655669   1.000000   1.000000
      3          8.232653        9.842544   1.000000   1.000000
      4          8.765445       10.395590   1.000000   1.000000
      5          9.169593       10.846016   1.000000   0.307372
      6          9.828010       11.650587   1.000000   0.000000
      7         27.624639       27.982740   0.000000   0.000000
      8         30.256092       30.505949   0.000000   0.000000
      9         34.061447       34.201154   0.000000   0.000000
     10         36.113037       36.262887   0.000000   0.000000
     11         41.202033       41.746013   0.000000   0.000000
     12         44.582966       44.643701   0.000000   0.000000
 
  0.4375000E+00  0.1875000E+00  0.6250000E-01  0.2343750E-01
      1          5.773289        6.293284   1.000000   1.000000
      2          7.414948        8.565790   1.000000   1.000000
      3          7.908089        9.396015   1.000000   1.000000
      4          8.600766       10.260675   1.000000   1.000000
      5          9.915567       11.688066   1.000000   0.000000
      6         11.068238       12.551400   0.000000   0.000000
      7         21.762557       22.321164   0.000000   0.000000
      8         29.613476       29.834633   0.000000   0.000000
      9         31.690520       31.962721   0.000000   0.000000
     10         35.787320       35.990595   0.000000   0.000000
     11         42.576964       42.708286   0.000000   0.000000
     12         45.129667       45.418925   0.000000   0.000000
 
 -0.4375000E+00  0.1875000E+00  0.6250000E-01  0.2343750E-01
      1          6.070971        7.029802   1.000000   1.000000
      2          7.452050        8.758002   1.000000   1.000000
      3          8.366179        9.519134   1.000000   1.000000
      4          8.440278       10.091193   1.000000   1.000000
      5         10.129434       11.958755   1.000000   0.000000
      6         13.257115       14.154435   0.000000   0.000000
      7         17.624413       18.500599   0.000000   0.000000
      8         28.998728       29.209631   0.000000   0.000000
      9         30.995437       31.328246   0.000000   0.000000
     10         35.542227       35.658171   0.000000   0.000000
     11         41.719559       41.934593   0.000000   0.000000
     12         45.402404       45.513326   0.000000   0.000000
 
 -0.3125000E+00  0.1875000E+00  0.6250000E-01  0.2343750E-01
      1          6.009361        6.727923   1.000000   1.000000
      2          7.608428        8.816551   1.000000   1.000000
      3          7.977925        9.280370   1.000000   1.000000
      4          8.482943       10.146312   1.000000   1.000000
      5          9.789789       11.560300   1.000000   0.000000
      6         11.941909       13.271680   0.000000   0.000000
      7         20.079571       20.738967   0.000000   0.000000
      8         28.206962       28.490818   0.000000   0.000000
      9         32.543000       32.772849   0.000000   0.000000
     10         36.669537       36.797569   0.000000   0.000000
     11         41.070742       41.272586   0.000000   0.000000
     12         44.786313       44.910235   0.000000   0.000000
 
 -0.1875000E+00  0.1875000E+00  0.6250000E-01  0.2343750E-01
      1          4.986191        5.138668   1.000000   1.000000
      2          7.366107        8.688671   1.000000   1.000000
      3          8.047312        9.622578   1.000000   1.000000
      4          8.696459       10.372236   1.000000   1.000000
      5          9.096984       10.799795   1.000000   0.789312
      6         10.352174       12.086493   1.000000   0.000000
      7         25.604925       26.033301   0.000000   0.000000
      8         28.369720       28.671288   0.000000   0.000000
      9         35.079856       35.209875   0.000000   0.000000
     10         38.635845       38.735041   0.000000   0.000000
     11         40.516118       40.644780   0.000000   0.000000
     12         43.673662       43.986449   0.000000   0.000000
 
 -0.6250000E-01  0.1875000E+00  0.6250000E-01  0.2343750E-01
      1          3.385641        3.420752   1.000000   1.000000
      2          7.603792        9.027232   1.000000   1.000000
      3          8.351856        9.944473   1.000000   1.000000
      4          8.494568       10.087656   1.000000   1.000000
      5          8.970234       10.743060   1.000000   0.991996
      6          9.521353       11.366353   1.000000   0.000000
      7         29.336109       29.632314   0.000000   0.000000
      8         31.998287       32.168475   0.000000   0.000000
      9         36.463478       36.536832   0.000000   0.000000
     10         38.283654       38.329640   0.000000   0.000000
     11         41.992455       42.234195   0.000000   0.000000
     12         43.420887       43.667114   0.000000   0.000000
 
  0.3125000E+00  0.3125000E+00  0.6250000E-01  0.1171875E-01
      1          5.064600        5.339592   1.000000   1.000000
      2          6.846087        8.178643   1.000000   1.000000
      3          8.574037        9.993795   1.000000   1.000000
      4          9.215754       10.879564   1.000000   0.073227
      5          9.567404       11.146986   1.000000   0.000000
      6          9.801078       11.698956   1.000000   0.000000
      7         28.211310       28.520417   0.000000   0.000000
      8         29.950171       30.203799   0.000000   0.000000
      9         29.962911       30.247160   0.000000   0.000000
     10         32.846679       33.086179   0.000000   0.000000
     11         37.732388       38.256382   0.000000   0.000000
     12         47.782921       50.056000   0.000000   0.000000
 
  0.4375000E+00  0.3125000E+00  0.6250000E-01  0.2343750E-01
      1          5.794044        6.506797   1.000000   1.000000
      2          6.629159        7.900898   1.000000   1.000000
      3          8.509713        9.775880   1.000000   1.000000
      4          9.475610       11.207133   1.000000   0.000000
      5          9.966396       11.750161   1.000000   0.000000
      6         11.331967       12.663397   0.000000   0.000000
      7         24.749201       25.133338   0.000000   0.000000
      8         26.716496       27.081191   0.000000   0.000000
      9         27.773573       28.115102   0.000000   0.000000
     10         34.121583       34.355798   0.000000   0.000000
     11         38.830719       39.236507   0.000000   0.000000
     12         47.543197       48.626488   0.000000   0.000000
 
 -0.4375000E+00  0.3125000E+00  0.6250000E-01  0.2343750E-01
      1          6.289041        7.402715   1.000000   1.000000
      2          6.771736        7.938354   1.000000   1.000000
      3          8.189667        9.420381   1.000000   1.000000
      4          9.179501       10.937213   1.000000   0.001026
      5         10.196370       12.009859   1.000000   0.000000
      6         14.571291       15.420185   0.000000   0.000000
      7         19.579694       20.146474   0.000000   0.000000
      8         24.535282       25.015574   0.000000   0.000000
      9         27.942433       28.257513   0.000000   0.000000
     10         34.581336       34.788165   0.000000   0.000000
     11         43.727211       44.028595   0.000000   0.000000
     12         46.396450       46.858101   0.000000   0.000000
 
 -0.3125000E+00  0.3125000E+00  0.6250000E-01  0.2343750E-01
      1          6.794897        7.796824   1.000000   1.000000
      2          6.951032        8.206255   1.000000   1.000000
      3          7.710567        8.938779   1.000000   1.000000
      4          8.970208       10.736657   1.000000   0.995199
      5          9.861236       11.603582   1.000000   0.000000
      6         14.900099       15.788870   0.000000   0.000000
      7         19.419055       20.031686   0.000000   0.000000
      8         23.208368       23.713460   0.000000   0.000000
      9         29.699712       30.020355   0.000000   0.000000
     10         35.455825       35.608179   0.000000   0.000000
     11         44.298381       44.368748   0.000000   0.000000
     12         47.346956       49.230490   0.000000   0.000000
 
 -0.1875000E+00  0.3125000E+00  0.6250000E-01  0.2343750E-01
      1          6.320072        6.844361   1.000000   1.000000
      2          7.383113        8.598597   1.000000   1.000000
      3          7.547409        9.024563   1.000000   1.000000
      4          8.782856       10.507045   1.000000   1.000000
      5          9.465026       11.169591   1.000000   0.000000
      6         12.050786       13.445185   0.000000   0.000000
      7         22.297919       22.836053   0.000000   0.000000
      8         25.345750       25.739981   0.000000   0.000000
      9         32.302228       32.550823   0.000000   0.000000
     10         37.240559       37.381449   0.000000   0.000000
     11         41.501265       41.567797   0.000000   0.000000
     12         46.259407       46.410863   0.000000   0.000000
 
 -0.6250000E-01  0.3125000E+00  0.6250000E-01  0.2343750E-01
      1          5.086559        5.348478   1.000000   1.000000
      2          7.660261        8.820158   1.000000   1.000000
      3          8.064595        9.663840   1.000000   1.000000
      4          8.395899       10.038972   1.000000   1.000000
      5          9.528341       11.264724   1.000000   0.000000
      6         10.212690       11.951727   1.000000   0.000000
      7         23.268769       23.782075   0.000000   0.000000
      8         31.123189       31.282883   0.000000   0.000000
      9         34.718573       34.825682   0.000000   0.000000
     10         37.491015       37.767906   0.000000   0.000000
     11         41.154050       41.322660   0.000000   0.000000
     12         42.737537       42.894214   0.000000   0.000000
 
  0.4375000E+00  0.4375000E+00  0.6250000E-01  0.1171875E-01
      1          5.550880        6.540357   1.000000   1.000000
      2          6.243070        7.491551   1.000000   1.000000
      3          9.829211       11.169768   1.000000   0.000000
      4          9.885588       11.739865   1.000000   0.000000
      5         10.221207       12.059631   1.000000   0.000000
      6         11.977339       12.753119   0.000000   0.000000
      7         23.439183       24.035574   0.000000   0.000000
      8         25.842008       26.103842   0.000000   0.000000
      9         27.026008       27.229749   0.000000   0.000000
     10         31.990360       32.346273   0.000000   0.000000
     11         36.241263       36.675587   0.000000   0.000000
     12         47.835467       51.369297   0.000000   0.000000
 
 -0.4375000E+00  0.4375000E+00  0.6250000E-01  0.2343750E-01
      1          5.699595        6.822223   1.000000   1.000000
      2          6.269762        7.494383   1.000000   1.000000
      3          9.387834       10.718222   1.000000   0.999069
      4          9.831131       11.725027   1.000000   0.000000
      5         10.367307       12.160180   1.000000   0.000000
      6         14.572627       15.097554   0.000000   0.000000
      7         21.274527       22.033698   0.000000   0.000000
      8         23.385545       23.719509   0.000000   0.000000
      9         25.874281       26.120951   0.000000   0.000000
     10         33.483492       33.772744   0.000000   0.000000
     11         38.147926       38.544976   0.000000   0.000000
     12         47.835361       51.266683   0.000000   0.000000
 
 -0.3125000E+00  0.4375000E+00  0.6250000E-01  0.2343750E-01
      1          6.233026        7.441283   1.000000   1.000000
      2          6.673848        7.830127   1.000000   1.000000
      3          8.370768        9.602339   1.000000   1.000000
      4          9.369325       11.190785   1.000000   0.000000
      5         10.183112       11.959291   1.000000   0.000000
      6         16.642284       17.263192   0.000000   0.000000
      7         18.894709       19.452351   0.000000   0.000000
      8         22.045146       22.676431   0.000000   0.000000
      9         27.452763       27.760122   0.000000   0.000000
     10         34.418584       34.641933   0.000000   0.000000
     11         43.711224       44.095840   0.000000   0.000000
     12         47.474267       47.793094   0.000000   0.000000
 
 -0.1875000E+00  0.4375000E+00  0.6250000E-01  0.2343750E-01
      1          6.458195        7.483158   1.000000   1.000000
      2          7.132961        8.362665   1.000000   1.000000
      3          8.025943        9.237471   1.000000   1.000000
      4          8.713878       10.424257   1.000000   1.000000
      5         10.023813       11.820240   1.000000   0.000000
      6         14.537593       15.363714   0.000000   0.000000
      7         17.866690       18.664681   0.000000   0.000000
      8         25.982185       26.363305   0.000000   0.000000
      9         30.077185       30.390648   0.000000   0.000000
     10         35.460670       35.590434   0.000000   0.000000
     11         43.054929       43.209797   0.000000   0.000000
     12         47.300845       47.672313   0.000000   0.000000
 
 -0.6250000E-01  0.4375000E+00  0.6250000E-01  0.2343750E-01
      1          5.730868        6.571654   1.000000   1.000000
      2          7.782842        9.212275   1.000000   1.000000
      3          8.200872        9.667260   1.000000   1.000000
      4          8.720694        9.848580   1.000000   1.000000
      5         10.069814       11.891342   1.000000   0.000000
      6         11.683924       12.890536   0.000000   0.000000
      7         18.368708       19.192279   0.000000   0.000000
      8         30.953513       31.003931   0.000000   0.000000
      9         33.265334       33.542651   0.000000   0.000000
     10         35.868227       36.052271   0.000000   0.000000
     11         40.643160       40.893984   0.000000   0.000000
     12         42.809608       42.973056   0.000000   0.000000
 
 -0.4375000E+00 -0.4375000E+00  0.6250000E-01  0.1171875E-01
      1          5.479386        6.576775   1.000000   1.000000
      2          6.106731        7.337331   1.000000   1.000000
      3         10.011875       11.670148   1.000000   0.000000
      4         10.133923       11.947249   1.000000   0.000000
      5         10.380595       12.179081   1.000000   0.000000
      6         13.524383       13.840791   0.000000   0.000000
      7         21.201116       22.003946   0.000000   0.000000
      8         25.227522       25.451469   0.000000   0.000000
      9         26.372021       26.542299   0.000000   0.000000
     10         31.855905       32.238094   0.000000   0.000000
     11         36.058379       36.489990   0.000000   0.000000
     12         47.908677       51.456069   0.000000   0.000000
 
 -0.3125000E+00 -0.4375000E+00  0.6250000E-01  0.2343750E-01
      1          5.784919        6.803519   1.000000   1.000000
      2          6.393968        7.634699   1.000000   1.000000
      3          9.033507       10.290492   1.000000   1.000000
      4          9.748160       11.567185   1.000000   0.000000
      5         10.209582       12.013037   1.000000   0.000000
      6         12.949207       13.834397   0.000000   0.000000
      7         23.390297       23.873269   0.000000   0.000000
      8         24.152446       24.592030   0.000000   0.000000
      9         26.460948       26.734513   0.000000   0.000000
     10         33.684515       33.953858   0.000000   0.000000
     11         38.346606       38.742088   0.000000   0.000000
     12         47.739805       50.261133   0.000000   0.000000
 
 -0.1875000E+00 -0.4375000E+00  0.6250000E-01  0.2343750E-01
      1          6.189661        7.044017   1.000000   1.000000
      2          7.042521        8.225875   1.000000   1.000000
      3          7.976505        9.288092   1.000000   1.000000
      4          8.888792       10.586416   1.000000   1.000000
      5         10.134111       11.958303   1.000000   0.000000
      6         12.571126       13.707757   0.000000   0.000000
      7         20.523299       21.098994   0.000000   0.000000
      8         27.582419       27.897011   0.000000   0.000000
      9         29.043262       29.388300   0.000000   0.000000
     10         34.978099       35.166519   0.000000   0.000000
     11         43.484620       43.645990   0.000000   0.000000
     12         45.558933       46.116870   0.000000   0.000000
 
 -0.3125000E+00 -0.3125000E+00  0.6250000E-01  0.1171875E-01
      1          5.535333        6.221596   1.000000   1.000000
      2          6.500086        7.783369   1.000000   1.000000
      3          9.208805       10.367018   1.000000   1.000000
      4          9.604039       11.346486   1.000000   0.000000
      5         10.007510       11.809734   1.000000   0.000000
      6         10.446488       11.893766   1.000000   0.000000
      7         26.345634       26.714714   0.000000   0.000000
      8         27.137763       27.484515   0.000000   0.000000
      9         28.257365       28.510008   0.000000   0.000000
     10         32.287895       32.593063   0.000000   0.000000
     11         36.722421       37.178514   0.000000   0.000000
     12         47.805692       51.291833   0.000000   0.000000
 
 -0.1875000E+00 -0.3125000E+00  0.6250000E-01  0.2343750E-01
      1          5.349882        5.648751   1.000000   1.000000
      2          6.943446        8.258636   1.000000   1.000000
      3          8.166806        9.648676   1.000000   1.000000
      4          9.107145       10.779317   1.000000   0.916705
      5          9.604566       11.289078   1.000000   0.000000
      6         10.319942       12.015819   1.000000   0.000000
      7         26.082322       26.468170   0.000000   0.000000
      8         28.606020       28.893964   0.000000   0.000000
      9         30.737249       31.019122   0.000000   0.000000
     10         34.872875       35.066707   0.000000   0.000000
     11         39.739561       40.189729   0.000000   0.000000
     12         46.522012       46.739094   0.000000   0.000000
 
 -0.1875000E+00 -0.1875000E+00  0.6250000E-01  0.1171875E-01
      1          4.065563        4.142206   1.000000   1.000000
      2          7.234186        8.625747   1.000000   1.000000
      3          8.468137       10.097637   1.000000   1.000000
      4          8.822631       10.434631   1.000000   1.000000
      5          9.044707       10.667098   1.000000   0.999997
      6          9.603771       11.495237   1.000000   0.000000
      7         29.858260       30.149021   0.000000   0.000000
      8         31.983767       32.306953   0.000000   0.000000
      9         32.503487       32.555989   0.000000   0.000000
     10         34.138423       34.303188   0.000000   0.000000
     11         39.598855       40.231560   0.000000   0.000000
     12         47.321337       47.320232   0.000000   0.000000
 
  0.1875000E+00  0.1875000E+00  0.1875000E+00  0.3906250E-02
      1          3.003069        3.030595   1.000000   1.000000
      2          7.795233        9.219529   1.000000   1.000000
      3          8.312884        9.897952   1.000000   1.000000
      4          8.312884        9.897952   1.000000   1.000000
      5          9.229613       11.061899   1.000000   0.000000
      6          9.229613       11.061899   1.000000   0.000000
      7         29.047236       29.344538   0.000000   0.000000
      8         35.017159       34.798952   0.000000   0.000000
      9         37.531668       37.829923   0.000000   0.000000
     10         37.531668       37.829923   0.000000   0.000000
     11         42.949527       42.870028   0.000000   0.000000
     12         43.434301       43.550638   0.000000   0.000000
 
  0.3125000E+00  0.1875000E+00  0.1875000E+00  0.1171875E-01
      1          4.084357        4.151205   1.000000   1.000000
      2          7.534817        8.909736   1.000000   1.000000
      3          8.255944        9.837736   1.000000   1.000000
      4          8.559436       10.190007   1.000000   1.000000
      5          8.923938       10.690413   1.000000   0.999951
      6          9.853143       11.651234   1.000000   0.000000
      7         27.358621       27.728539   0.000000   0.000000
      8         30.075092       30.317726   0.000000   0.000000
      9         37.734887       37.708315   0.000000   0.000000
     10         39.715842       39.682361   0.000000   0.000000
     11         39.937196       40.116585   0.000000   0.000000
     12         42.067354       42.429532   0.000000   0.000000
 
  0.4375000E+00  0.1875000E+00  0.1875000E+00  0.1171875E-01
      1          5.695947        5.981638   1.000000   1.000000
      2          7.418498        8.681993   1.000000   1.000000
      3          7.863271        9.384738   1.000000   1.000000
      4          8.624200       10.349301   1.000000   1.000000
      5          9.181947       10.873762   1.000000   0.098858
      6         11.054322       12.672888   0.000000   0.000000
      7         23.830038       24.322509   0.000000   0.000000
      8         26.713858       27.065771   0.000000   0.000000
      9         35.764155       35.768767   0.000000   0.000000
     10         36.473606       36.806183   0.000000   0.000000
     11         41.690106       41.639667   0.000000   0.000000
     12         43.621914       43.858032   0.000000   0.000000
 
 -0.4375000E+00  0.1875000E+00  0.1875000E+00  0.1171875E-01
      1          6.226919        7.120366   1.000000   1.000000
      2          7.444141        8.737574   1.000000   1.000000
      3          8.126191        9.283778   1.000000   1.000000
      4          8.500875       10.190627   1.000000   1.000000
      5          9.855655       11.639498   1.000000   0.000000
      6         13.100971       14.174334   0.000000   0.000000
      7         18.742265       19.491161   0.000000   0.000000
      8         26.951641       27.287235   0.000000   0.000000
      9         33.322653       33.656503   0.000000   0.000000
     10         34.123709       34.183839   0.000000   0.000000