PROCAR lm decomposed
# of k-points:   60         # of bands:   12         # of ions:    1

 k-point     1 :    0.06250000 0.06250000 0.06250000     weight = 0.00390625

band     1 # energy    1.80037686 # occ.  1.00000000
 
ion      s     py     pz     px    dxy    dyz    dz2    dxz  x2-y2    tot
    1  0.743  0.004  0.004  0.004  0.000  0.000  0.000  0.000  0.000  0.755
 
band     2 # energy    8.05085994 # occ.  1.00000000
 
ion      s     py     pz     px    dxy    dyz    dz2    dxz  x2-y2    tot
    1  0.000  0.000  0.000  0.000  0.324  0.324  0.000  0.324  0.000  0.974
 
band     3 # energy    8.13676038 # occ.  1.00000000
 
ion      s     py     pz     px    dxy    dyz    dz2    dxz  x2-y2    tot
    1  0.000  0.000  0.000  0.000  0.028  0.531  0.000  0.415  0.001  0.976
 
band     4 # energy    8.13676038 # occ.  1.00000000
 
ion      s     py     pz     px    dxy    dyz    dz2    dxz  x2-y2    tot
    1  0.000  0.000  0.000  0.000  0.621  0.118  0.001  0.235  0.000  0.976
 
band     5 # energy    9.22844861 # occ.  1.00000000
 
ion      s     py     pz     px    dxy    dyz    dz2    dxz  x2-y2    tot
    1  0.000  0.000  0.000  0.000  0.000  0.001  0.002  0.001  0.983  0.986
 
band     6 # energy    9.22844861 # occ.  1.00000000
 
ion      s     py     pz     px    dxy    dyz    dz2    dxz  x2-y2    tot
    1  0.000  0.000  0.000  0.000  0.001  0.000  0.983  0.000  0.002  0.986
 
band     7 # energy   33.87619476 # occ.  0.00000000
 
ion      s     py     pz     px    dxy    dyz    dz2    dxz  x2-y2    tot
    1  0.001  0.005  0.005  0.005  0.047  0.047  0.000  0.047  0.000  0.158
 
band     8 # energy   37.02579439 # occ.  0.00000000
 
ion      s     py     pz     px    dxy    dyz    dz2    dxz  x2-y2    tot
    1  0.021  0.083  0.083  0.083  0.043  0.043  0.000  0.043  0.000  0.399
 
band     9 # energy   38.56276500 # occ.  0.00000000
 
ion      s     py     pz     px    dxy    dyz    dz2    dxz  x2-y2    tot
    1  0.000  0.119  0.159  0.007  0.081  0.003  0.016  0.061  0.003  0.448
 
band    10 # energy   38.56276500 # occ.  0.00000000
 
ion      s     py     pz     px    dxy    dyz    dz2    dxz  x2-y2    tot
    1  0.000  0.071  0.030  0.183  0.016  0.093  0.003  0.036  0.016  0.448
 
band    11 # energy   42.58827046 # occ.  0.00000000
 
ion      s     py     pz     px    dxy    dyz    dz2    dxz  x2-y2    tot
    1  0.000  0.002  0.003  0.000  0.741  0.086  0.006  0.391  0.001  1.228
 
band    12 # energy   42.58828070 # occ.  0.00000000
 
ion      s     py     pz     px    dxy    dyz    dz2    dxz  x2-y2    tot
    1  0.000  0.002  0.000  0.003  0.069  0.730  0.001  0.418  0.006  1.229
 

 k-point     2 :    0.18750000 0.06250000 0.06250000     weight = 0.01171875

band     1 # energy    2.62121058 # occ.  1.00000000
 
ion      s     py     pz     px    dxy    dyz    dz2    dxz  x2-y2    tot
    1  0.683  0.032  0.032  0.003  0.001  0.005  0.000  0.001  0.001  0.757
 
band     2 # energy    7.82486758 # occ.  1.00000000
 
ion      s     py     pz     px    dxy    dyz    dz2    dxz  x2-y2    tot
    1  0.001  0.001  0.001  0.007  0.460  0.034  0.000  0.460  0.000  0.964
 
band     3 # energy    8.30406703 # occ.  1.00000000
 
ion      s     py     pz     px    dxy    dyz    dz2    dxz  x2-y2    tot
    1  0.000  0.003  0.003  0.000  0.017  0.847  0.022  0.017  0.066  0.973
 
band     4 # energy    8.30902546 # occ.  1.00000000
 
ion      s     py     pz     px    dxy    dyz    dz2    dxz  x2-y2    tot
    1  0.000  0.000  0.000  0.000  0.477  0.000  0.016  0.477  0.005  0.975
 
band     5 # energy    9.06339533 # occ.  1.00000000
 
ion      s     py     pz     px    dxy    dyz    dz2    dxz  x2-y2    tot
    1  0.000  0.000  0.000  0.000  0.011  0.000  0.719  0.011  0.240  0.980
 
band     6 # energy    9.32219744 # occ.  1.00000000
 
ion      s     py     pz     px    dxy    dyz    dz2    dxz  x2-y2    tot
    1  0.001  0.000  0.000  0.000  0.002  0.083  0.224  0.002  0.672  0.984
 
band     7 # energy   31.17108293 # occ.  0.00000000
 
ion      s     py     pz     px    dxy    dyz    dz2    dxz  x2-y2    tot
    1  0.025  0.043  0.043  0.113  0.185  0.085  0.001  0.185  0.002  0.682
 
band     8 # energy   33.83135473 # occ.  0.00000000
 
ion      s     py     pz     px    dxy    dyz    dz2    dxz  x2-y2    tot
    1  0.040  0.076  0.076  0.025  0.057  0.137  0.007  0.057  0.020  0.494
 
band     9 # energy   37.39599266 # occ.  0.00000000
 
ion      s     py     pz     px    dxy    dyz    dz2    dxz  x2-y2    tot
    1  0.001  0.007  0.007  0.224  0.016  0.074  0.001  0.016  0.004  0.350
 
band    10 # energy   39.59964217 # occ.  0.00000000
 
ion      s     py     pz     px    dxy    dyz    dz2    dxz  x2-y2    tot
    1  0.000  0.098  0.098  0.000  0.092  0.000  0.139  0.092  0.046  0.565
 
band    11 # energy   41.36488752 # occ.  0.00000000
 
ion      s     py     pz     px    dxy    dyz    dz2    dxz  x2-y2    tot
    1  0.000  0.063  0.063  0.010  0.000  0.308  0.012  0.000  0.037  0.493
 
band    12 # energy   42.69749400 # occ.  0.00000000
 
ion      s     py     pz     px    dxy    dyz    dz2    dxz  x2-y2    tot
    1  0.000  0.003  0.003  0.000  0.499  0.000  0.083  0.499  0.028  1.116
 

 k-point     3 :    0.31250000 0.06250000 0.06250000     weight = 0.01171875

band     1 # energy    4.33212250 # occ.  1.00000000
 
ion      s     py     pz     px    dxy    dyz    dz2    dxz  x2-y2    tot
    1  0.515  0.062  0.062  0.018  0.033  0.057  0.001  0.033  0.003  0.782
 
band     2 # energy    7.70627738 # occ.  1.00000000
 
ion      s     py     pz     px    dxy    dyz    dz2    dxz  x2-y2    tot
    1  0.024  0.024  0.024  0.035  0.380  0.058  0.001  0.380  0.002  0.928
 
band     3 # energy    8.24739590 # occ.  1.00000000
 
ion      s     py     pz     px    dxy    dyz    dz2    dxz  x2-y2    tot
    1  0.000  0.003  0.003  0.000  0.034  0.477  0.104  0.034  0.312  0.968
 
band     4 # energy    8.32631764 # occ.  1.00000000
 
ion      s     py     pz     px    dxy    dyz    dz2    dxz  x2-y2    tot
    1  0.000  0.000  0.000  0.000  0.271  0.000  0.322  0.271  0.107  0.972
 
band     5 # energy    9.28503291 # occ.  1.00000000
 
ion      s     py     pz     px    dxy    dyz    dz2    dxz  x2-y2    tot
    1  0.000  0.001  0.001  0.000  0.217  0.000  0.408  0.217  0.136  0.979
 
band     6 # energy    9.74403344 # occ.  1.00000000
 
ion      s     py     pz     px    dxy    dyz    dz2    dxz  x2-y2    tot
    1  0.009  0.005  0.005  0.000  0.017  0.369  0.139  0.017  0.418  0.981
 
band     7 # energy   25.03543600 # occ.  0.00000000
 
ion      s     py     pz     px    dxy    dyz    dz2    dxz  x2-y2    tot
    1  0.122  0.078  0.078  0.135  0.144  0.114  0.001  0.144  0.003  0.820
 
band     8 # energy   32.70659971 # occ.  0.00000000
 
ion      s     py     pz     px    dxy    dyz    dz2    dxz  x2-y2    tot
    1  0.026  0.025  0.025  0.106  0.105  0.060  0.017  0.105  0.050  0.520
 
band     9 # energy   36.34282690 # occ.  0.00000000
 
ion      s     py     pz     px    dxy    dyz    dz2    dxz  x2-y2    tot
    1  0.001  0.068  0.068  0.136  0.006  0.148  0.001  0.006  0.004  0.437
 
band    10 # energy   39.23946150 # occ.  0.00000000
 
ion      s     py     pz     px    dxy    dyz    dz2    dxz  x2-y2    tot
    1  0.000  0.130  0.130  0.000  0.251  0.000  0.114  0.251  0.038  0.914
 
band    11 # energy   40.40843615 # occ.  0.00000000
 
ion      s     py     pz     px    dxy    dyz    dz2    dxz  x2-y2    tot
    1  0.000  0.104  0.104  0.000  0.002  0.000  0.465  0.002  0.155  0.832
 
band    12 # energy   41.36044338 # occ.  0.00000000
 
ion      s     py     pz     px    dxy    dyz    dz2    dxz  x2-y2    tot
    1  0.070  0.056  0.056  0.011  0.010  0.015  0.067  0.010  0.202  0.498
 

 k-point     4 :    0.43750000 0.06250000 0.06250000     weight = 0.01171875

band     1 # energy    5.46000016 # occ.  1.00000000
 
ion      s     py     pz     px    dxy    dyz    dz2    dxz  x2-y2    tot
    1  0.236  0.022  0.022  0.002  0.193  0.212  0.000  0.193  0.001  0.881
 
band     2 # energy    8.00455227 # occ.  1.00000000
 
ion      s     py     pz     px    dxy    dyz    dz2    dxz  x2-y2    tot
    1  0.000  0.003  0.003  0.000  0.045  0.287  0.145  0.045  0.435  0.963
 
band     3 # energy    8.10953225 # occ.  1.00000000
 
ion      s     py     pz     px    dxy    dyz    dz2    dxz  x2-y2    tot
    1  0.000  0.000  0.000  0.000  0.186  0.000  0.446  0.186  0.149  0.968
 
band     4 # energy    8.81280445 # occ.  1.00000000
 
ion      s     py     pz     px    dxy    dyz    dz2    dxz  x2-y2    tot
    1  0.061  0.105  0.105  0.105  0.186  0.023  0.019  0.186  0.056  0.846
 
band     5 # energy    9.87039831 # occ.  1.00000000
 
ion      s     py     pz     px    dxy    dyz    dz2    dxz  x2-y2    tot
    1  0.000  0.001  0.001  0.000  0.304  0.000  0.282  0.304  0.094  0.986
 
band     6 # energy   10.56025648 # occ.  1.00000000
 
ion      s     py     pz     px    dxy    dyz    dz2    dxz  x2-y2    tot
    1  0.041  0.050  0.050  0.030  0.011  0.425  0.080  0.011  0.239  0.937
 
band     7 # energy   19.61396020 # occ.  0.00000000
 
ion      s     py     pz     px    dxy    dyz    dz2    dxz  x2-y2    tot
    1  0.293  0.046  0.046  0.098  0.140  0.113  0.001  0.140  0.002  0.879
 
band     8 # energy   32.15228585 # occ.  0.00000000
 
ion      s     py     pz     px    dxy    dyz    dz2    dxz  x2-y2    tot
    1  0.012  0.004  0.004  0.106  0.054  0.034  0.026  0.054  0.078  0.371
 
band     9 # energy   35.12672308 # occ.  0.00000000
 
ion      s     py     pz     px    dxy    dyz    dz2    dxz  x2-y2    tot
    1  0.016  0.104  0.104  0.194  0.017  0.033  0.004  0.017  0.013  0.503
 
band    10 # energy   37.06693657 # occ.  0.00000000
 
ion      s     py     pz     px    dxy    dyz    dz2    dxz  x2-y2    tot
    1  0.000  0.254  0.254  0.000  0.001  0.000  0.149  0.001  0.050  0.708
 
band    11 # energy   39.53844601 # occ.  0.00000000
 
ion      s     py     pz     px    dxy    dyz    dz2    dxz  x2-y2    tot
    1  0.000  0.030  0.030  0.000  0.216  0.000  0.440  0.217  0.147  1.079
 
band    12 # energy   41.12078159 # occ.  0.00000000
 
ion      s     py     pz     px    dxy    dyz    dz2    dxz  x2-y2    tot
    1  0.059  0.016  0.016  0.013  0.000  0.222  0.141  0.000  0.423  0.891
 

 k-point     5 :   -0.43750000 0.06250000 0.06250000     weight = 0.01171875

band     1 # energy    5.57876978 # occ.  1.00000000
 
ion      s     py     pz     px    dxy    dyz    dz2    dxz  x2-y2    tot
    1  0.169  0.000  0.000  0.007  0.237  0.258  0.000  0.237  0.000  0.908
 
band     2 # energy    7.90335950 # occ.  1.00000000
 
ion      s     py     pz     px    dxy    dyz    dz2    dxz  x2-y2    tot
    1  0.000  0.003  0.003  0.000  0.063  0.199  0.157  0.063  0.472  0.961
 
band     3 # energy    8.05314324 # occ.  1.00000000
 
ion      s     py     pz     px    dxy    dyz    dz2    dxz  x2-y2    tot
    1  0.000  0.000  0.000  0.000  0.184  0.000  0.449  0.184  0.150  0.968
 
band     4 # energy    9.41688247 # occ.  1.00000000
 
ion      s     py     pz     px    dxy    dyz    dz2    dxz  x2-y2    tot
    1  0.003  0.081  0.081  0.080  0.061  0.349  0.044  0.061  0.132  0.891
 
band     5 # energy   10.16917952 # occ.  1.00000000
 
ion      s     py     pz     px    dxy    dyz    dz2    dxz  x2-y2    tot
    1  0.000  0.000  0.000  0.000  0.308  0.000  0.281  0.308  0.094  0.992
 
band     6 # energy   11.33683461 # occ.  0.00000000
 
ion      s     py     pz     px    dxy    dyz    dz2    dxz  x2-y2    tot
    1  0.007  0.143  0.143  0.161  0.055  0.092  0.042  0.055  0.127  0.826
 
band     7 # energy   17.44262125 # occ.  0.00000000
 
ion      s     py     pz     px    dxy    dyz    dz2    dxz  x2-y2    tot
    1  0.440  0.011  0.011  0.000  0.149  0.162  0.000  0.149  0.000  0.923
 
band     8 # energy   32.20415502 # occ.  0.00000000
 
ion      s     py     pz     px    dxy    dyz    dz2    dxz  x2-y2    tot
    1  0.000  0.002  0.002  0.045  0.009  0.042  0.027  0.009  0.081  0.216
 
band     9 # energy   35.15997454 # occ.  0.00000000
 
ion      s     py     pz     px    dxy    dyz    dz2    dxz  x2-y2    tot
    1  0.000  0.249  0.249  0.000  0.038  0.000  0.122  0.038  0.041  0.737
 
band    10 # energy   35.32912388 # occ.  0.00000000
 
ion      s     py     pz     px    dxy    dyz    dz2    dxz  x2-y2    tot
    1  0.037  0.090  0.090  0.310  0.015  0.004  0.016  0.015  0.049  0.625
 
band    11 # energy   40.37974398 # occ.  0.00000000
 
ion      s     py     pz     px    dxy    dyz    dz2    dxz  x2-y2    tot
    1  0.000  0.051  0.051  0.000  0.151  0.000  0.454  0.151  0.151  1.009
 
band    12 # energy   40.39248554 # occ.  0.00000000
 
ion      s     py     pz     px    dxy    dyz    dz2    dxz  x2-y2    tot
    1  0.013  0.003  0.003  0.029  0.029  0.285  0.151  0.029  0.452  0.994
 

 k-point     6 :   -0.31250000 0.06250000 0.06250000     weight = 0.01171875

band     1 # energy    5.24988986 # occ.  1.00000000
 
ion      s     py     pz     px    dxy    dyz    dz2    dxz  x2-y2    tot
    1  0.316  0.016  0.016  0.054  0.147  0.148  0.002  0.147  0.005  0.849
 
band     2 # energy    8.04327500 # occ.  1.00000000
 
ion      s     py     pz     px    dxy    dyz    dz2    dxz  x2-y2    tot
    1  0.002  0.007  0.007  0.005  0.117  0.081  0.154  0.117  0.463  0.955
 
band     3 # energy    8.20345501 # occ.  1.00000000
 
ion      s     py     pz     px    dxy    dyz    dz2    dxz  x2-y2    tot
    1  0.000  0.001  0.001  0.000  0.226  0.000  0.386  0.226  0.129  0.970
 
band     4 # energy    8.26669139 # occ.  1.00000000
 
ion      s     py     pz     px    dxy    dyz    dz2    dxz  x2-y2    tot
    1  0.068  0.074  0.074  0.076  0.010  0.560  0.000  0.010  0.001  0.874
 
band     5 # energy    9.95131821 # occ.  1.00000000
 
ion      s     py     pz     px    dxy    dyz    dz2    dxz  x2-y2    tot
    1  0.000  0.001  0.001  0.000  0.262  0.000  0.347  0.262  0.116  0.988
 
band     6 # energy   10.00643388 # occ.  1.00000000
 
ion      s     py     pz     px    dxy    dyz    dz2    dxz  x2-y2    tot
    1  0.031  0.015  0.015  0.036  0.186  0.144  0.086  0.186  0.258  0.957
 
band     7 # energy   21.25478707 # occ.  0.00000000
 
ion      s     py     pz     px    dxy    dyz    dz2    dxz  x2-y2    tot
    1  0.225  0.099  0.099  0.050  0.117  0.148  0.001  0.117  0.002  0.858
 
band     8 # energy   32.93827208 # occ.  0.00000000
 
ion      s     py     pz     px    dxy    dyz    dz2    dxz  x2-y2    tot
    1  0.006  0.007  0.007  0.004  0.000  0.102  0.022  0.000  0.066  0.214
 
band     9 # energy   34.61370162 # occ.  0.00000000
 
ion      s     py     pz     px    dxy    dyz    dz2    dxz  x2-y2    tot
    1  0.000  0.225  0.225  0.000  0.129  0.000  0.082  0.129  0.027  0.817
 
band    10 # energy   37.10617056 # occ.  0.00000000
 
ion      s     py     pz     px    dxy    dyz    dz2    dxz  x2-y2    tot
    1  0.049  0.043  0.043  0.381  0.000  0.090  0.030  0.000  0.089  0.725
 
band    11 # energy   40.18678856 # occ.  0.00000000
 
ion      s     py     pz     px    dxy    dyz    dz2    dxz  x2-y2    tot
    1  0.000  0.003  0.003  0.017  0.070  0.191  0.141  0.070  0.424  0.920
 
band    12 # energy   42.11098452 # occ.  0.00000000
 
ion      s     py     pz     px    dxy    dyz    dz2    dxz  x2-y2    tot
    1  0.000  0.061  0.061  0.000  0.044  0.000  0.468  0.044  0.156  0.833
 

 k-point     7 :   -0.18750000 0.06250000 0.06250000     weight = 0.01171875

band     1 # energy    3.72054749 # occ.  1.00000000
 
ion      s     py     pz     px    dxy    dyz    dz2    dxz  x2-y2    tot
    1  0.587  0.025  0.025  0.076  0.019  0.011  0.001  0.019  0.004  0.767
 
band     2 # energy    7.65613424 # occ.  1.00000000
 
ion      s     py     pz     px    dxy    dyz    dz2    dxz  x2-y2    tot
    1  0.009  0.015  0.015  0.010  0.136  0.625  0.000  0.136  0.001  0.947
 
band     3 # energy    8.31464822 # occ.  1.00000000
 
ion      s     py     pz     px    dxy    dyz    dz2    dxz  x2-y2    tot
    1  0.000  0.001  0.001  0.001  0.198  0.216  0.089  0.198  0.268  0.971
 
band     4 # energy    8.37627858 # occ.  1.00000000
 
ion      s     py     pz     px    dxy    dyz    dz2    dxz  x2-y2    tot
    1  0.000  0.002  0.002  0.000  0.357  0.000  0.191  0.357  0.064  0.974
 
band     5 # energy    9.21084507 # occ.  1.00000000
 
ion      s     py     pz     px    dxy    dyz    dz2    dxz  x2-y2    tot
    1  0.006  0.001  0.001  0.006  0.123  0.105  0.153  0.123  0.458  0.976
 
band     6 # energy    9.48780066 # occ.  1.00000000
 
ion      s     py     pz     px    dxy    dyz    dz2    dxz  x2-y2    tot
    1  0.000  0.001  0.001  0.000  0.128  0.000  0.545  0.128  0.182  0.984
 
band     7 # energy   27.06820862 # occ.  0.00000000
 
ion      s     py     pz     px    dxy    dyz    dz2    dxz  x2-y2    tot
    1  0.084  0.112  0.112  0.060  0.129  0.164  0.001  0.129  0.003  0.794
 
band     8 # energy   34.05700415 # occ.  0.00000000
 
ion      s     py     pz     px    dxy    dyz    dz2    dxz  x2-y2    tot
    1  0.025  0.001  0.001  0.011  0.001  0.176  0.014  0.001  0.043  0.272
 
band     9 # energy   35.16648409 # occ.  0.00000000
 
ion      s     py     pz     px    dxy    dyz    dz2    dxz  x2-y2    tot
    1  0.000  0.192  0.192  0.000  0.200  0.000  0.043  0.200  0.014  0.841
 
band    10 # energy   39.71793874 # occ.  0.00000000
 
ion      s     py     pz     px    dxy    dyz    dz2    dxz  x2-y2    tot
    1  0.030  0.006  0.006  0.162  0.007  0.069  0.087  0.007  0.261  0.634
 
band    11 # energy   40.01202458 # occ.  0.00000000
 
ion      s     py     pz     px    dxy    dyz    dz2    dxz  x2-y2    tot
    1  0.004  0.038  0.038  0.174  0.071  0.202  0.024  0.071  0.073  0.695
 
band    12 # energy   44.35071001 # occ.  0.00000000
 
ion      s     py     pz     px    dxy    dyz    dz2    dxz  x2-y2    tot
    1  0.000  0.035  0.037  0.000  0.016  0.000  0.359  0.016  0.116  0.580
 

 k-point     8 :   -0.06250000 0.06250000 0.06250000     weight = 0.01171875

band     1 # energy    2.21795347 # occ.  1.00000000
 
ion      s     py     pz     px    dxy    dyz    dz2    dxz  x2-y2    tot
    1  0.713  0.004  0.004  0.033  0.001  0.000  0.000  0.001  0.001  0.755
 
band     2 # energy    7.89900034 # occ.  1.00000000
 
ion      s     py     pz     px    dxy    dyz    dz2    dxz  x2-y2    tot
    1  0.000  0.001  0.001  0.000  0.058  0.850  0.000  0.058  0.000  0.969
 
band     3 # energy    8.25265346 # occ.  1.00000000
 
ion      s     py     pz     px    dxy    dyz    dz2    dxz  x2-y2    tot
    1  0.000  0.001  0.001  0.001  0.423  0.118  0.002  0.423  0.007  0.975
 
band     4 # energy    8.25723513 # occ.  1.00000000
 
ion      s     py     pz     px    dxy    dyz    dz2    dxz  x2-y2    tot
    1  0.000  0.001  0.001  0.000  0.480  0.000  0.009  0.480  0.003  0.975
 
band     5 # energy    9.08460536 # occ.  1.00000000
 
ion      s     py     pz     px    dxy    dyz    dz2    dxz  x2-y2    tot
    1  0.001  0.000  0.000  0.000  0.004  0.001  0.243  0.004  0.729  0.982
 
band     6 # energy    9.29876240 # occ.  1.00000000
 
ion      s     py     pz     px    dxy    dyz    dz2    dxz  x2-y2    tot
    1  0.000  0.000  0.000  0.000  0.006  0.000  0.731  0.006  0.244  0.986
 
band     7 # energy   32.91970061 # occ.  0.00000000
 
ion      s     py     pz     px    dxy    dyz    dz2    dxz  x2-y2    tot
    1  0.006  0.041  0.041  0.012  0.073  0.234  0.000  0.073  0.001  0.481
 
band     8 # energy   35.40460862 # occ.  0.00000000
 
ion      s     py     pz     px    dxy    dyz    dz2    dxz  x2-y2    tot
    1  0.035  0.048  0.048  0.069  0.048  0.029  0.006  0.048  0.019  0.350
 
band     9 # energy   36.55755996 # occ.  0.00000000
 
ion      s     py     pz     px    dxy    dyz    dz2    dxz  x2-y2    tot
    1  0.000  0.164  0.164  0.000  0.196  0.000  0.008  0.196  0.003  0.729
 
band    10 # energy   38.37301855 # occ.  0.00000000
 
ion      s     py     pz     px    dxy    dyz    dz2    dxz  x2-y2    tot
    1  0.009  0.079  0.079  0.049  0.034  0.004  0.025  0.034  0.076  0.388
 
band    11 # energy   42.51208107 # occ.  0.00000000
 
ion      s     py     pz     px    dxy    dyz    dz2    dxz  x2-y2    tot
    1  0.001  0.000  0.000  0.066  0.251  0.440  0.001  0.251  0.002  1.011
 
band    12 # energy   44.31176419 # occ.  0.00000000
 
ion      s     py     pz     px    dxy    dyz    dz2    dxz  x2-y2    tot
    1  0.000  0.001  0.000  0.001  0.330  0.004  0.025  0.359  0.008  0.728
 

 k-point     9 :    0.18750000 0.18750000 0.06250000     weight = 0.01171875

band     1 # energy    3.01236405 # occ.  1.00000000
 
ion      s     py     pz     px    dxy    dyz    dz2    dxz  x2-y2    tot
    1  0.650  0.003  0.086  0.003  0.000  0.002  0.011  0.002  0.000  0.758
 
band     2 # energy    7.60618965 # occ.  1.00000000
 
ion      s     py     pz     px    dxy    dyz    dz2    dxz  x2-y2    tot
    1  0.000  0.001  0.000  0.001  0.921  0.019  0.000  0.019  0.000  0.962
 
band     3 # energy    8.45972107 # occ.  1.00000000
 
ion      s     py     pz     px    dxy    dyz    dz2    dxz  x2-y2    tot
    1  0.000  0.003  0.000  0.003  0.035  0.398  0.135  0.398  0.000  0.973
 
band     4 # energy    8.49143759 # occ.  1.00000000
 
ion      s     py     pz     px    dxy    dyz    dz2    dxz  x2-y2    tot
    1  0.000  0.003  0.000  0.003  0.000  0.467  0.000  0.467  0.035  0.974
 
band     5 # energy    8.88793282 # occ.  1.00000000
 
ion      s     py     pz     px    dxy    dyz    dz2    dxz  x2-y2    tot
    1  0.008  0.001  0.004  0.001  0.005  0.064  0.827  0.064  0.000  0.973
 
band     6 # energy    9.42968134 # occ.  1.00000000
 
ion      s     py     pz     px    dxy    dyz    dz2    dxz  x2-y2    tot
    1  0.000  0.000  0.000  0.000  0.000  0.017  0.000  0.017  0.952  0.987
 
band     7 # energy   31.48732258 # occ.  0.00000000
 
ion      s     py     pz     px    dxy    dyz    dz2    dxz  x2-y2    tot
    1  0.018  0.095  0.014  0.095  0.267  0.101  0.011  0.101  0.000  0.702
 
band     8 # energy   33.93920406 # occ.  0.00000000
 
ion      s     py     pz     px    dxy    dyz    dz2    dxz  x2-y2    tot
    1  0.032  0.020  0.019  0.020  0.207  0.020  0.092  0.020  0.000  0.429
 
band     9 # energy   34.23768299 # occ.  0.00000000
 
ion      s     py     pz     px    dxy    dyz    dz2    dxz  x2-y2    tot
    1  0.000  0.199  0.000  0.199  0.000  0.197  0.000  0.197  0.007  0.799
 
band    10 # energy   36.39846320 # occ.  0.00000000
 
ion      s     py     pz     px    dxy    dyz    dz2    dxz  x2-y2    tot
    1  0.003  0.075  0.001  0.075  0.042  0.061  0.204  0.061  0.000  0.521
 
band    11 # energy   42.39133407 # occ.  0.00000000
 
ion      s     py     pz     px    dxy    dyz    dz2    dxz  x2-y2    tot
    1  0.256  0.016  0.560  0.016  0.009  0.000  0.141  0.000  0.000  0.998
 
band    12 # energy   44.84593986 # occ.  0.00000000
 
ion      s     py     pz     px    dxy    dyz    dz2    dxz  x2-y2    tot
    1  0.061  0.000  0.005  0.000  0.381  0.156  0.083  0.156  0.000  0.842
 

 k-point    10 :    0.31250000 0.18750000 0.06250000     weight = 0.02343750

band     1 # energy    4.39391583 # occ.  1.00000000
 
ion      s     py     pz     px    dxy    dyz    dz2    dxz  x2-y2    tot
    1  0.514  0.025  0.139  0.002  0.003  0.030  0.053  0.004  0.001  0.771
 
band     2 # energy    7.28725203 # occ.  1.00000000
 
ion      s     py     pz     px    dxy    dyz    dz2    dxz  x2-y2    tot
    1  0.001  0.002  0.001  0.012  0.850  0.006  0.003  0.076  0.000  0.951
 
band     3 # energy    8.23265318 # occ.  1.00000000
 
ion      s     py     pz     px    dxy    dyz    dz2    dxz  x2-y2    tot
    1  0.007  0.004  0.002  0.000  0.017  0.349  0.532  0.016  0.036  0.962
 
band     4 # energy    8.76544508 # occ.  1.00000000
 
ion      s     py     pz     px    dxy    dyz    dz2    dxz  x2-y2    tot
    1  0.002  0.002  0.002  0.005  0.044  0.121  0.049  0.568  0.182  0.974
 
band     5 # energy    9.16959343 # occ.  1.00000000
 
ion      s     py     pz     px    dxy    dyz    dz2    dxz  x2-y2    tot
    1  0.016  0.004  0.015  0.003  0.036  0.119  0.260  0.292  0.225  0.970
 
band     6 # energy    9.82801017 # occ.  1.00000000
 
ion      s     py     pz     px    dxy    dyz    dz2    dxz  x2-y2    tot
    1  0.014  0.005  0.008  0.000  0.001  0.342  0.068  0.003  0.541  0.982
 
band     7 # energy   27.62463912 # occ.  0.00000000
 
ion      s     py     pz     px    dxy    dyz    dz2    dxz  x2-y2    tot
    1  0.056  0.103  0.020  0.191  0.197  0.084  0.020  0.128  0.003  0.801
 
band     8 # energy   30.25609226 # occ.  0.00000000
 
ion      s     py     pz     px    dxy    dyz    dz2    dxz  x2-y2    tot
    1  0.039  0.140  0.009  0.131  0.118  0.118  0.060  0.079  0.020  0.713
 
band     9 # energy   34.06144723 # occ.  0.00000000
 
ion      s     py     pz     px    dxy    dyz    dz2    dxz  x2-y2    tot
    1  0.011  0.074  0.092  0.029  0.028  0.037  0.332  0.020  0.006  0.628
 
band    10 # energy   36.11303726 # occ.  0.00000000
 
ion      s     py     pz     px    dxy    dyz    dz2    dxz  x2-y2    tot
    1  0.027  0.001  0.071  0.105  0.320  0.001  0.064  0.067  0.000  0.655
 
band    11 # energy   41.20203264 # occ.  0.00000000
 
ion      s     py     pz     px    dxy    dyz    dz2    dxz  x2-y2    tot
    1  0.222  0.181  0.327  0.024  0.012  0.054  0.008  0.005  0.000  0.831
 
band    12 # energy   44.58296604 # occ.  0.00000000
 
ion      s     py     pz     px    dxy    dyz    dz2    dxz  x2-y2    tot
    1  0.057  0.022  0.022  0.001  0.064  0.010  0.192  0.029  0.157  0.555
 

 k-point    11 :    0.43750000 0.18750000 0.06250000     weight = 0.02343750

band     1 # energy    5.77328900 # occ.  1.00000000
 
ion      s     py     pz     px    dxy    dyz    dz2    dxz  x2-y2    tot
    1  0.248  0.020  0.097  0.001  0.165  0.144  0.091  0.086  0.001  0.852
 
band     2 # energy    7.41494775 # occ.  1.00000000
 
ion      s     py     pz     px    dxy    dyz    dz2    dxz  x2-y2    tot
    1  0.015  0.042  0.026  0.042  0.355  0.024  0.331  0.062  0.011  0.907
 
band     3 # energy    7.90808890 # occ.  1.00000000
 
ion      s     py     pz     px    dxy    dyz    dz2    dxz  x2-y2    tot
    1  0.026  0.001  0.023  0.007  0.313  0.278  0.254  0.006  0.042  0.951
 
band     4 # energy    8.60076604 # occ.  1.00000000
 
ion      s     py     pz     px    dxy    dyz    dz2    dxz  x2-y2    tot
    1  0.002  0.004  0.006  0.001  0.038  0.077  0.051  0.298  0.491  0.969
 
band     5 # energy    9.91556664 # occ.  1.00000000
 
ion      s     py     pz     px    dxy    dyz    dz2    dxz  x2-y2    tot
    1  0.003  0.001  0.008  0.004  0.037  0.059  0.055  0.468  0.347  0.983
 
band     6 # energy   11.06823790 # occ.  0.00000000
 
ion      s     py     pz     px    dxy    dyz    dz2    dxz  x2-y2    tot
    1  0.087  0.034  0.090  0.017  0.016  0.389  0.180  0.031  0.085  0.931
 
band     7 # energy   21.76255749 # occ.  0.00000000
 
ion      s     py     pz     px    dxy    dyz    dz2    dxz  x2-y2    tot
    1  0.185  0.103  0.019  0.175  0.168  0.077  0.015  0.099  0.004  0.845
 
band     8 # energy   29.61347647 # occ.  0.00000000
 
ion      s     py     pz     px    dxy    dyz    dz2    dxz  x2-y2    tot
    1  0.015  0.097  0.003  0.161  0.108  0.070  0.135  0.041  0.058  0.688
 
band     9 # energy   31.69051955 # occ.  0.00000000
 
ion      s     py     pz     px    dxy    dyz    dz2    dxz  x2-y2    tot
    1  0.072  0.029  0.216  0.085  0.000  0.001  0.247  0.041  0.026  0.718
 
band    10 # energy   35.78731974 # occ.  0.00000000
 
ion      s     py     pz     px    dxy    dyz    dz2    dxz  x2-y2    tot
    1  0.064  0.138  0.109  0.026  0.242  0.021  0.008  0.015  0.007  0.630
 
band    11 # energy   42.57696372 # occ.  0.00000000
 
ion      s     py     pz     px    dxy    dyz    dz2    dxz  x2-y2    tot
    1  0.021  0.105  0.002  0.002  0.202  0.019  0.114  0.045  0.219  0.730
 
band    12 # energy   45.12966659 # occ.  0.00000000
 
ion      s     py     pz     px    dxy    dyz    dz2    dxz  x2-y2    tot
    1  0.308  0.109  0.099  0.047  0.001  0.000  0.233  0.007  0.000  0.804
 

 k-point    12 :   -0.43750000 0.18750000 0.06250000     weight = 0.02343750

band     1 # energy    6.07097080 # occ.  1.00000000
 
ion      s     py     pz     px    dxy    dyz    dz2    dxz  x2-y2    tot
    1  0.123  0.000  0.026  0.010  0.338  0.238  0.010  0.168  0.000  0.913
 
band     2 # energy    7.45205012 # occ.  1.00000000
 
ion      s     py     pz     px    dxy    dyz    dz2    dxz  x2-y2    tot
    1  0.000  0.031  0.004  0.013  0.030  0.075  0.683  0.011  0.075  0.922
 
band     3 # energy    8.36617932 # occ.  1.00000000
 
ion      s     py     pz     px    dxy    dyz    dz2    dxz  x2-y2    tot
    1  0.002  0.032  0.045  0.055  0.273  0.332  0.071  0.013  0.104  0.927
 
band     4 # energy    8.44027792 # occ.  1.00000000
 
ion      s     py     pz     px    dxy    dyz    dz2    dxz  x2-y2    tot
    1  0.001  0.016  0.027  0.004  0.155  0.001  0.021  0.248  0.483  0.955
 
band     5 # energy   10.12943405 # occ.  1.00000000
 
ion      s     py     pz     px    dxy    dyz    dz2    dxz  x2-y2    tot
    1  0.000  0.000  0.000  0.000  0.037  0.171  0.030  0.464  0.287  0.990
 
band     6 # energy   13.25711542 # occ.  0.00000000
 
ion      s     py     pz     px    dxy    dyz    dz2    dxz  x2-y2    tot
    1  0.012  0.132  0.188  0.133  0.061  0.111  0.163  0.015  0.021  0.837
 
band     7 # energy   17.62441270 # occ.  0.00000000
 
ion      s     py     pz     px    dxy    dyz    dz2    dxz  x2-y2    tot
    1  0.407  0.015  0.011  0.056  0.169  0.123  0.001  0.121  0.001  0.904
 
band     8 # energy   28.99872763 # occ.  0.00000000
 
ion      s     py     pz     px    dxy    dyz    dz2    dxz  x2-y2    tot