<?xml version="1.0" encoding="ISO-8859-1"?>
<modeling>
 <generator>
  <i name="program" type="string">vasp </i>
  <i name="version" type="string">6.3.2  </i>
  <i name="subversion" type="string">27Jun22 (build Aug 12 2022 00:53:59) complex                          parallel </i>
  <i name="platform" type="string">tv2STD </i>
  <i name="date" type="string">2024 12 03 </i>
  <i name="time" type="string">02:19:15 </i>
 </generator>
 <incar>
  <i type="string" name="SYSTEM">Co-fcc</i>
  <i type="int" name="ISTART">     0</i>
  <i type="string" name="PREC">Accurate      normal | accurate</i>
  <i type="string" name="ALGO">Normal     Normal, Fast, Very_Fast</i>
  <i type="logical" name="ADDGRID"> F  </i>
  <i type="int" name="ISPIN">     2</i>
  <i type="int" name="ICHARG">     2</i>
  <i type="int" name="INIWAV">     1</i>
  <i type="int" name="NELM">   100</i>
  <i type="int" name="IBRION">     2</i>
  <i name="EDIFF">      0.00000100</i>
  <i name="EDIFFG">     -0.02000000</i>
  <i type="int" name="NSW">   100</i>
  <i type="int" name="ISIF">     2</i>
  <i type="int" name="ISYM">     1</i>
  <i name="ENCUT">    400.00000000</i>
  <v name="MAGMOM">      3.00000000</v>
  <i type="logical" name="LREAL"> F  </i>
  <i type="int" name="ISMEAR">     0</i>
  <i name="SIGMA">      0.05000000</i>
  <i type="int" name="NWRITE">     2</i>
  <i type="logical" name="LWAVE"> T  </i>
  <i type="logical" name="LCHARG"> T  </i>
  <i type="int" name="LORBIT">    11</i>
 </incar>
 <primitive_cell>
  <structure name="primitive_cell" >
   <crystal>
    <varray name="basis" >
     <v>       0.00000000       1.73672488       1.73672488 </v>
     <v>       1.73672488       0.00000000       1.73672488 </v>
     <v>       1.73672488       1.73672488       0.00000000 </v>
    </varray>
    <i name="volume">     10.47666541 </i>
    <varray name="rec_basis" >
     <v>      -0.28789822       0.28789822       0.28789822 </v>
     <v>       0.28789822      -0.28789822       0.28789822 </v>
     <v>       0.28789822       0.28789822      -0.28789822 </v>
    </varray>
   </crystal>
   <varray name="positions" >
    <v>       0.00000000       0.00000000       0.00000000 </v>
   </varray>
  </structure>
  <varray name="primitive_index" >
   <v type="int" >        1 </v>
  </varray>
 </primitive_cell>
 <kpoints>
  <generation param="Monkhorst-Pack">
   <v type="int" name="divisions">       8        8        8 </v>
   <v name="usershift">      0.00000000       0.00000000       0.00000000 </v>
   <v name="genvec1">      0.12500000       0.00000000       0.00000000 </v>
   <v name="genvec2">      0.00000000       0.12500000       0.00000000 </v>
   <v name="genvec3">      0.00000000       0.00000000       0.12500000 </v>
   <v name="shift">      0.50000000       0.50000000       0.50000000 </v>
  </generation>
  <varray name="kpointlist" >
   <v>       0.06250000       0.06250000       0.06250000 </v>
   <v>       0.18750000       0.06250000       0.06250000 </v>
   <v>       0.31250000       0.06250000       0.06250000 </v>
   <v>       0.43750000       0.06250000       0.06250000 </v>
   <v>      -0.43750000       0.06250000       0.06250000 </v>
   <v>      -0.31250000       0.06250000       0.06250000 </v>
   <v>      -0.18750000       0.06250000       0.06250000 </v>
   <v>      -0.06250000       0.06250000       0.06250000 </v>
   <v>       0.18750000       0.18750000       0.06250000 </v>
   <v>       0.31250000       0.18750000       0.06250000 </v>
   <v>       0.43750000       0.18750000       0.06250000 </v>
   <v>      -0.43750000       0.18750000       0.06250000 </v>
   <v>      -0.31250000       0.18750000       0.06250000 </v>
   <v>      -0.18750000       0.18750000       0.06250000 </v>
   <v>      -0.06250000       0.18750000       0.06250000 </v>
   <v>       0.31250000       0.31250000       0.06250000 </v>
   <v>       0.43750000       0.31250000       0.06250000 </v>
   <v>      -0.43750000       0.31250000       0.06250000 </v>
   <v>      -0.31250000       0.31250000       0.06250000 </v>
   <v>      -0.18750000       0.31250000       0.06250000 </v>
   <v>      -0.06250000       0.31250000       0.06250000 </v>
   <v>       0.43750000       0.43750000       0.06250000 </v>
   <v>      -0.43750000       0.43750000       0.06250000 </v>
   <v>      -0.31250000       0.43750000       0.06250000 </v>
   <v>      -0.18750000       0.43750000       0.06250000 </v>
   <v>      -0.06250000       0.43750000       0.06250000 </v>
   <v>      -0.43750000      -0.43750000       0.06250000 </v>
   <v>      -0.31250000      -0.43750000       0.06250000 </v>
   <v>      -0.18750000      -0.43750000       0.06250000 </v>
   <v>      -0.31250000      -0.31250000       0.06250000 </v>
   <v>      -0.18750000      -0.31250000       0.06250000 </v>
   <v>      -0.18750000      -0.18750000       0.06250000 </v>
   <v>       0.18750000       0.18750000       0.18750000 </v>
   <v>       0.31250000       0.18750000       0.18750000 </v>
   <v>       0.43750000       0.18750000       0.18750000 </v>
   <v>      -0.43750000       0.18750000       0.18750000 </v>
   <v>      -0.31250000       0.18750000       0.18750000 </v>
   <v>      -0.18750000       0.18750000       0.18750000 </v>
   <v>       0.31250000       0.31250000       0.18750000 </v>
   <v>       0.43750000       0.31250000       0.18750000 </v>
   <v>      -0.43750000       0.31250000       0.18750000 </v>
   <v>      -0.31250000       0.31250000       0.18750000 </v>
   <v>      -0.18750000       0.31250000       0.18750000 </v>
   <v>       0.43750000       0.43750000       0.18750000 </v>
   <v>      -0.43750000       0.43750000       0.18750000 </v>
   <v>      -0.31250000       0.43750000       0.18750000 </v>
   <v>      -0.18750000       0.43750000       0.18750000 </v>
   <v>      -0.43750000      -0.43750000       0.18750000 </v>
   <v>      -0.31250000      -0.43750000       0.18750000 </v>
   <v>      -0.31250000      -0.31250000       0.18750000 </v>
   <v>       0.31250000       0.31250000       0.31250000 </v>
   <v>       0.43750000       0.31250000       0.31250000 </v>
   <v>      -0.43750000       0.31250000       0.31250000 </v>
   <v>      -0.31250000       0.31250000       0.31250000 </v>
   <v>       0.43750000       0.43750000       0.31250000 </v>
   <v>      -0.43750000       0.43750000       0.31250000 </v>
   <v>      -0.31250000       0.43750000       0.31250000 </v>
   <v>      -0.43750000      -0.43750000       0.31250000 </v>
   <v>       0.43750000       0.43750000       0.43750000 </v>
   <v>      -0.43750000       0.43750000       0.43750000 </v>
  </varray>
  <varray name="weights" >
   <v>       0.00390625 </v>
   <v>       0.01171875 </v>
   <v>       0.01171875 </v>
   <v>       0.01171875 </v>
   <v>       0.01171875 </v>
   <v>       0.01171875 </v>
   <v>       0.01171875 </v>
   <v>       0.01171875 </v>
   <v>       0.01171875 </v>
   <v>       0.02343750 </v>
   <v>       0.02343750 </v>
   <v>       0.02343750 </v>
   <v>       0.02343750 </v>
   <v>       0.02343750 </v>
   <v>       0.02343750 </v>
   <v>       0.01171875 </v>
   <v>       0.02343750 </v>
   <v>       0.02343750 </v>
   <v>       0.02343750 </v>
   <v>       0.02343750 </v>
   <v>       0.02343750 </v>
   <v>       0.01171875 </v>
   <v>       0.02343750 </v>
   <v>       0.02343750 </v>
   <v>       0.02343750 </v>
   <v>       0.02343750 </v>
   <v>       0.01171875 </v>
   <v>       0.02343750 </v>
   <v>       0.02343750 </v>
   <v>       0.01171875 </v>
   <v>       0.02343750 </v>
   <v>       0.01171875 </v>
   <v>       0.00390625 </v>
   <v>       0.01171875 </v>
   <v>       0.01171875 </v>
   <v>       0.01171875 </v>
   <v>       0.01171875 </v>
   <v>       0.01171875 </v>
   <v>       0.01171875 </v>
   <v>       0.02343750 </v>
   <v>       0.02343750 </v>
   <v>       0.02343750 </v>
   <v>       0.02343750 </v>
   <v>       0.01171875 </v>
   <v>       0.02343750 </v>
   <v>       0.02343750 </v>
   <v>       0.02343750 </v>
   <v>       0.01171875 </v>
   <v>       0.02343750 </v>
   <v>       0.01171875 </v>
   <v>       0.00390625 </v>
   <v>       0.01171875 </v>
   <v>       0.01171875 </v>
   <v>       0.01171875 </v>
   <v>       0.01171875 </v>
   <v>       0.02343750 </v>
   <v>       0.02343750 </v>
   <v>       0.01171875 </v>
   <v>       0.00390625 </v>
   <v>       0.01171875 </v>
  </varray>
 </kpoints>
 <parameters>
  <separator name="general" >
   <i type="string" name="SYSTEM">Co-fcc</i>
   <i type="logical" name="LCOMPAT"> F  </i>
  </separator>
  <separator name="electronic" >
   <i type="string" name="PREC">accura</i>
   <i name="ENMAX">    400.00000000</i>
   <i name="ENAUG">    477.81800000</i>
   <i name="EDIFF">      0.00000100</i>
   <i type="int" name="IALGO">    38</i>
   <i type="int" name="IWAVPR">    11</i>
   <i type="int" name="NBANDS">    12</i>
   <i type="int" name="NBANDSLOW">    -1</i>
   <i type="int" name="NBANDSHIGH">    -1</i>
   <i name="NELECT">      9.00000000</i>
   <i type="int" name="TURBO">     0</i>
   <i type="int" name="IRESTART">     0</i>
   <i type="int" name="NREBOOT">     0</i>
   <i type="int" name="NMIN">     0</i>
   <i name="EREF">      0.00000000</i>
   <separator name="electronic smearing" >
    <i type="int" name="ISMEAR">     0</i>
    <i name="SIGMA">      0.05000000</i>
    <i name="KSPACING">      0.50000000</i>
    <i type="logical" name="KGAMMA"> T  </i>
    <i type="logical" name="KBLOWUP"> T  </i>
   </separator>
   <separator name="electronic projectors" >
    <i type="logical" name="LREAL"> F  </i>
    <v name="ROPT">      0.00000000</v>
    <i type="int" name="LMAXPAW">  -100</i>
    <i type="int" name="LMAXMIX">     2</i>
    <i type="logical" name="NLSPLINE"> F  </i>
   </separator>
   <separator name="electronic startup" >
    <i type="int" name="ISTART">     0</i>
    <i type="int" name="ICHARG">     2</i>
    <i type="int" name="INIWAV">     1</i>
   </separator>
   <separator name="electronic spin" >
    <i type="int" name="ISPIN">     2</i>
    <i type="logical" name="LNONCOLLINEAR"> F  </i>
    <v name="MAGMOM">      3.00000000</v>
    <i name="NUPDOWN">     -1.00000000</i>
    <i type="logical" name="LSORBIT"> F  </i>
    <v name="SAXIS">      0.00000000      0.00000000      1.00000000</v>
    <i type="logical" name="LSPIRAL"> F  </i>
    <v name="QSPIRAL">      0.00000000      0.00000000      0.00000000</v>
    <i type="logical" name="LZEROZ"> F  </i>
   </separator>
   <separator name="electronic exchange-correlation" >
    <i type="logical" name="LASPH"> F  </i>
    <i type="logical" name="LMETAGGA"> F  </i>
   </separator>
   <separator name="electronic convergence" >
    <i type="int" name="NELM">   100</i>
    <i type="int" name="NELMDL">    -5</i>
    <i type="int" name="NELMIN">     2</i>
    <i name="ENINI">    400.00000000</i>
    <separator name="electronic convergence detail" >
     <i type="logical" name="LDIAG"> T  </i>
     <i type="logical" name="LSUBROT"> F  </i>
     <i name="WEIMIN">      0.00100000</i>
     <i name="EBREAK">      0.00000002</i>
     <i name="DEPER">      0.30000000</i>
     <i type="int" name="NRMM">     4</i>
     <i name="TIME">      0.40000000</i>
    </separator>
   </separator>
   <separator name="electronic mixer" >
    <i name="AMIX">      0.40000000</i>
    <i name="BMIX">      1.00000000</i>
    <i name="AMIN">      0.10000000</i>
    <i name="AMIX_MAG">      1.60000000</i>
    <i name="BMIX_MAG">      1.00000000</i>
    <separator name="electronic mixer details" >
     <i type="int" name="IMIX">     4</i>
     <i type="logical" name="MIXFIRST"> F  </i>
     <i type="int" name="MAXMIX">   -45</i>
     <i name="WC">    100.00000000</i>
     <i type="int" name="INIMIX">     1</i>
     <i type="int" name="MIXPRE">     1</i>
     <i type="int" name="MREMOVE">     5</i>
    </separator>
   </separator>
   <separator name="electronic dipolcorrection" >
    <i type="logical" name="LDIPOL"> F  </i>
    <i type="logical" name="LMONO"> F  </i>
    <i type="int" name="IDIPOL">     0</i>
    <i name="EPSILON">      1.00000000</i>
    <v name="DIPOL">   -100.00000000   -100.00000000   -100.00000000</v>
    <i name="EFIELD">      0.00000000</i>
   </separator>
  </separator>
  <separator name="grids" >
   <i type="int" name="NGX">    16</i>
   <i type="int" name="NGY">    16</i>
   <i type="int" name="NGZ">    16</i>
   <i type="int" name="NGXF">    32</i>
   <i type="int" name="NGYF">    32</i>
   <i type="int" name="NGZF">    32</i>
   <i type="logical" name="ADDGRID"> F  </i>
  </separator>
  <separator name="ionic" >
   <i type="int" name="NSW">   100</i>
   <i type="int" name="IBRION">     2</i>
   <i type="int" name="MDALGO">     0</i>
   <i type="int" name="ISIF">     2</i>
   <i name="PSTRESS">      0.00000000</i>
   <i name="EDIFFG">     -0.02000000</i>
   <i type="int" name="NFREE">     1</i>
   <i name="POTIM">      0.50000000</i>
   <i name="SMASS">     -3.00000000</i>
   <i name="SCALEE">      1.00000000</i>
  </separator>
  <separator name="ionic md" >
   <i name="TEBEG">      0.00010000</i>
   <i name="TEEND">      0.00010000</i>
   <i type="int" name="NBLOCK">     1</i>
   <i type="int" name="KBLOCK">   100</i>
   <i type="int" name="NPACO">   256</i>
   <i name="APACO">     10.00000000</i>
  </separator>
  <separator name="symmetry" >
   <i type="int" name="ISYM">     1</i>
   <i name="SYMPREC">      0.00001000</i>
  </separator>
  <separator name="dos" >
   <i type="int" name="LORBIT">    11</i>
   <v name="RWIGS">     -1.00000000</v>
   <i type="int" name="NEDOS">   301</i>
   <i name="EMIN">     10.00000000</i>
   <i name="EMAX">    -10.00000000</i>
   <i name="EFERMI">      0.00000000</i>
  </separator>
  <separator name="writing" >
   <i type="int" name="NWRITE">     2</i>
   <i type="logical" name="LWAVE"> T  </i>
   <i type="logical" name="LDOWNSAMPLE"> F  </i>
   <i type="logical" name="LCHARG"> T  </i>
   <i type="logical" name="LPARD"> F  </i>
   <i type="logical" name="LVTOT"> F  </i>
   <i type="logical" name="LVHAR"> F  </i>
   <i type="logical" name="LELF"> F  </i>
   <i type="logical" name="LOPTICS"> F  </i>
   <v name="STM">      0.00000000      0.00000000      0.00000000      0.00000000      0.00000000      0.00000000      0.00000000</v>
  </separator>
  <separator name="performance" >
   <i type="int" name="NPAR">     4</i>
   <i type="int" name="NSIM">     4</i>
   <i type="int" name="NBLK">    -1</i>
   <i type="logical" name="LPLANE"> T  </i>
   <i type="logical" name="LSCALAPACK"> T  </i>
   <i type="logical" name="LSCAAWARE"> T  </i>
   <i type="logical" name="LSCALU"> F  </i>
   <i type="logical" name="LASYNC"> F  </i>
   <i type="logical" name="LORBITALREAL"> F  </i>
  </separator>
  <separator name="miscellaneous" >
   <i type="int" name="IDIOT">     3</i>
   <i type="int" name="PHON_NSTRUCT">    -1</i>
   <i type="logical" name="LMUSIC"> F  </i>
   <v name="POMASS">     58.93300000</v>
   <v name="DARWINR">      0.00000000</v>
   <v name="DARWINV">      1.00000000</v>
   <i type="logical" name="LCORR"> T  </i>
  </separator>
  <i type="logical" name="GGA_COMPAT"> T  </i>
  <i type="logical" name="LBERRY"> F  </i>
  <i type="int" name="ICORELEVEL">     0</i>
  <i type="logical" name="LDAU"> F  </i>
  <i type="int" name="I_CONSTRAINED_M">     0</i>
  <separator name="electronic exchange-correlation" >
   <i type="string" name="GGA">--</i>
   <i type="int" name="VOSKOWN">     0</i>
   <i type="logical" name="LHFCALC"> F  </i>
   <i type="string" name="PRECFOCK"></i>
   <i type="logical" name="LSYMGRAD"> F  </i>
   <i type="logical" name="LHFONE"> F  </i>
   <i type="logical" name="LRHFCALC"> F  </i>
   <i type="logical" name="LTHOMAS"> F  </i>
   <i type="logical" name="LMODELHF"> F  </i>
   <i type="logical" name="LFOCKACE"> F  </i>
   <i name="ENCUT4O">     -1.00000000</i>
   <i type="int" name="EXXOEP">     0</i>
   <i type="int" name="FOURORBIT">     0</i>
   <i name="AEXX">      0.00000000</i>
   <i name="HFALPHA">      0.00000000</i>
   <i name="MCALPHA">      0.00000000</i>
   <i name="ALDAX">      1.00000000</i>
   <i name="AGGAX">      1.00000000</i>
   <i name="ALDAC">      1.00000000</i>
   <i name="AGGAC">      1.00000000</i>
   <i type="int" name="NKREDX">     1</i>
   <i type="int" name="NKREDY">     1</i>
   <i type="int" name="NKREDZ">     1</i>
   <i type="logical" name="SHIFTRED"> F  </i>
   <i type="logical" name="ODDONLY"> F  </i>
   <i type="logical" name="EVENONLY"> F  </i>
   <i type="int" name="LMAXFOCK">     0</i>
   <i type="int" name="NMAXFOCKAE">     0</i>
   <i type="logical" name="LFOCKAEDFT"> F  </i>
   <i name="HFSCREEN">      0.00000000</i>
   <i name="HFSCREENC">      0.00000000</i>
   <i type="int" name="NBANDSGWLOW">     0</i>
  </separator>
  <separator name="vdW DFT" >
   <i type="logical" name="LUSE_VDW"> F  </i>
   <i name="Zab_VDW">     -0.84910000</i>
   <i name="PARAM1">      0.12340000</i>
   <i name="PARAM2">      1.00000000</i>
   <i name="PARAM3">      0.00000000</i>
  </separator>
  <separator name="model GW" >
   <i type="int" name="MODEL_GW">     0</i>
   <i name="MODEL_EPS0">      6.28599925</i>
   <i name="MODEL_ALPHA">      1.00000000</i>
  </separator>
  <separator name="linear response parameters" >
   <i type="logical" name="LEPSILON"> F  </i>
   <i type="logical" name="LRPA"> F  </i>
   <i type="logical" name="LNABLA"> F  </i>
   <i type="logical" name="LVEL"> F  </i>
   <i name="CSHIFT">      0.10000000</i>
   <i name="OMEGAMAX">     -1.00000000</i>
   <i name="DEG_THRESHOLD">      0.00200000</i>
   <i name="RTIME">     -0.10000000</i>
   <i name="WPLASMAI">      0.00000000</i>
   <v name="DFIELD">      0.00000000      0.00000000      0.00000000</v>
   <v name="WPLASMA">      0.00000000      0.00000000      0.00000000      0.00000000      0.00000000      0.00000000      0.00000000      0.00000000      0.00000000</v>
  </separator>
  <separator name="orbital magnetization" >
   <i type="logical" name="NUCIND"> F  </i>
   <v name="MAGPOS">      0.00000000      0.00000000      0.00000000</v>
   <i type="logical" name="LNICSALL"> T  </i>
   <i type="logical" name="ORBITALMAG"> F  </i>
   <i type="logical" name="LMAGBLOCH"> F  </i>
   <i type="logical" name="LCHIMAG"> F  </i>
   <i type="logical" name="LGAUGE"> T  </i>
   <i type="int" name="MAGATOM">     0</i>
   <v name="MAGDIPOL">      0.00000000      0.00000000      0.00000000</v>
   <v name="AVECCONST">      0.00000000      0.00000000      0.00000000</v>
  </separator>
  <separator name="response functions" >
   <i type="logical" name="LFINITE_TEMPERATURE"> F  </i>
   <i type="logical" name="LADDER"> F  </i>
   <i type="logical" name="LRPAFORCE"> F  </i>
   <i type="logical" name="LFXC"> F  </i>
   <i type="logical" name="LHARTREE"> T  </i>
   <i type="int" name="IBSE">     0</i>
   <v type="int" name="KPOINT">    -1     0     0     0</v>
   <i type="logical" name="LTCTC"> F  </i>
   <i type="logical" name="LTCTE"> F  </i>
   <i type="logical" name="LTETE"> F  </i>
   <i type="logical" name="LTRIPLET"> F  </i>
   <i type="logical" name="LFXCEPS"> F  </i>
   <i type="logical" name="LFXHEG"> F  </i>
   <i type="int" name="NATURALO">     2</i>
   <i type="logical" name="LHOLEGF"> F  </i>
   <i type="logical" name="L2ORDER"> F  </i>
   <i type="logical" name="LDMP1"> F  </i>
   <i type="logical" name="LMP2LT"> F  </i>
   <i type="logical" name="LSMP2LT"> F  </i>
   <i type="logical" name="LGWLF"> F  </i>
   <i name="ENCUTGW">     -2.00000000</i>
   <i name="ENCUTGWSOFT">     -2.00000000</i>
   <i name="ENCUTLF">     -1.00000000</i>
   <i type="logical" name="LESF_SPLINES"> F  </i>
   <i type="int" name="LMAXMP2">    -1</i>
   <i name="SCISSOR">      0.00000000</i>
   <i type="int" name="NOMEGA">     0</i>
   <i type="int" name="NOMEGAR">     0</i>
   <i type="int" name="NBANDSGW">    -1</i>
   <i type="int" name="NBANDSO">    -1</i>
   <i type="int" name="NBANDSV">    -1</i>
   <i type="int" name="NELMGW">     1</i>
   <i type="int" name="NELMHF">     1</i>
   <i type="int" name="DIM">     3</i>
   <i type="int" name="IESPILON">     4</i>
   <i type="int" name="ANTIRES">     0</i>
   <i name="OMEGAMAX">    -30.00000000</i>
   <i name="OMEGAMIN">    -30.00000000</i>
   <i name="OMEGATL">   -200.00000000</i>
   <i type="int" name="OMEGAGRID">     0</i>
   <i name="CSHIFT">     -0.10000000</i>
   <i type="logical" name="LSELFENERGY"> F  </i>
   <i type="logical" name="LSPECTRAL"> F  </i>
   <i type="logical" name="LSPECTRALGW"> F  </i>
   <i type="logical" name="LSINGLES"> F  </i>
   <i type="logical" name="LFERMIGW"> F  </i>
   <i type="logical" name="ODDONLYGW"> F  </i>
   <i type="logical" name="EVENONLYGW"> F  </i>
   <i type="int" name="NKREDLFX">     1</i>
   <i type="int" name="NKREDLFY">     1</i>
   <i type="int" name="NKREDLFZ">     1</i>
   <i type="int" name="MAXMEM">  2800</i>
   <i type="int" name="TELESCOPE">     0</i>
   <i type="int" name="NTAUPAR">    -1</i>
   <i type="int" name="NOMEGAPAR">    -1</i>
   <i name="DAMP_NEWTON">      0.80000001</i>
   <i name="LAMBDA">      1.00000000</i>
  </separator>
  <separator name="External order field" >
   <i name="OFIELD_KAPPA">      0.00000000</i>
   <v name="OFIELD_K">      0.00000000      0.00000000      0.00000000</v>
   <i name="OFIELD_Q6_NEAR">      0.00000000</i>
   <i name="OFIELD_Q6_FAR">      0.00000000</i>
   <i name="OFIELD_A">      0.00000000</i>
  </separator>
  <separator name="optional k-points parameters" >
   <i type="int" name="KPOINTS_OPT_MODE">     1</i>
   <i type="logical" name="LKPOINTS_OPT"> F  </i>
  </separator>
 </parameters>
 <atominfo>
  <atoms>       1 </atoms>
  <types>       1 </types>
  <array name="atoms" >
   <dimension dim="1">ion</dimension>
   <field type="string">element</field>
   <field type="int">atomtype</field>
   <set>
    <rc><c>Co</c><c>   1</c></rc>
   </set>
  </array>
  <array name="atomtypes" >
   <dimension dim="1">type</dimension>
   <field type="int">atomspertype</field>
   <field type="string">element</field>
   <field>mass</field>
   <field>valence</field>
   <field type="string">pseudopotential</field>
   <set>
    <rc><c>   1</c><c>Co</c><c>     58.93300000</c><c>      9.00000000</c><c>  PAW_PBE Co 02Aug2007                  </c></rc>
   </set>
  </array>
 </atominfo>
 <structure name="initialpos" >
  <crystal>
   <varray name="basis" >
    <v>       0.00000000       1.73672488       1.73672488 </v>
    <v>       1.73672488       0.00000000       1.73672488 </v>
    <v>       1.73672488       1.73672488       0.00000000 </v>
   </varray>
   <i name="volume">     10.47666541 </i>
   <varray name="rec_basis" >
    <v>      -0.28789822       0.28789822       0.28789822 </v>
    <v>       0.28789822      -0.28789822       0.28789822 </v>
    <v>       0.28789822       0.28789822      -0.28789822 </v>
   </varray>
  </crystal>
  <varray name="positions" >
   <v>       0.00000000       0.00000000       0.00000000 </v>
  </varray>
 </structure>
 <calculation>
  <scstep>
   <time name="dav">    0.26    0.27</time>
   <time name="total">    0.28    0.28</time>
   <energy>
    <i name="alphaZ">     40.43050840 </i>
    <i name="ewald">   -769.79724018 </i>
    <i name="hartreedc">   -146.26378861 </i>
    <i name="XCdc">     17.92971367 </i>
    <i name="pawpsdc">    719.99081943 </i>
    <i name="pawaedc">   -772.94345096 </i>
    <i name="eentropy">     -0.00114174 </i>
    <i name="bandstr">    120.13701166 </i>
    <i name="atom">    813.35773410 </i>
    <i name="e_fr_energy">     22.84016576 </i>
    <i name="e_wo_entrp">     22.84130750 </i>
    <i name="e_0_energy">     22.84073663 </i>
   </energy>
  </scstep>
  <scstep>
   <time name="dav">    0.25    0.26</time>
   <time name="total">    0.26    0.26</time>
   <energy>
    <i name="e_fr_energy">     -6.97570241 </i>
    <i name="e_wo_entrp">     -6.97419474 </i>
    <i name="e_0_energy">     -6.97494858 </i>
   </energy>
  </scstep>
  <scstep>
   <time name="dav">    0.27    0.27</time>
   <time name="total">    0.27    0.28</time>
   <energy>
    <i name="e_fr_energy">     -7.76055643 </i>
    <i name="e_wo_entrp">     -7.75954932 </i>
    <i name="e_0_energy">     -7.76005287 </i>
   </energy>
  </scstep>
  <scstep>
   <time name="dav">    0.27    0.27</time>
   <time name="total">    0.27    0.27</time>
   <energy>
    <i name="e_fr_energy">     -7.76783638 </i>
    <i name="e_wo_entrp">     -7.76682681 </i>
    <i name="e_0_energy">     -7.76733160 </i>
   </energy>
  </scstep>
  <scstep>
   <time name="dav">    0.30    0.31</time>
   <time name="total">    0.32    0.32</time>
   <energy>
    <i name="e_fr_energy">     -7.76799712 </i>
    <i name="e_wo_entrp">     -7.76698744 </i>
    <i name="e_0_energy">     -7.76749228 </i>
   </energy>
  </scstep>
  <scstep>
   <time name="dav">    0.29    0.29</time>
   <time name="total">    0.31    0.31</time>
   <energy>
    <i name="e_fr_energy">     -7.17025399 </i>
    <i name="e_wo_entrp">     -7.16859638 </i>
    <i name="e_0_energy">     -7.16942519 </i>
   </energy>
  </scstep>
  <scstep>
   <time name="dav">    0.28    0.28</time>
   <time name="total">    0.30    0.30</time>
   <energy>
    <i name="e_fr_energy">     -7.02932124 </i>
    <i name="e_wo_entrp">     -7.02805588 </i>
    <i name="e_0_energy">     -7.02868856 </i>
   </energy>
  </scstep>
  <scstep>
   <time name="dav">    0.29    0.30</time>
   <time name="total">    0.31    0.31</time>
   <energy>
    <i name="e_fr_energy">     -7.01733918 </i>
    <i name="e_wo_entrp">     -7.01611968 </i>
    <i name="e_0_energy">     -7.01672943 </i>
   </energy>
  </scstep>
  <scstep>
   <time name="dav">    0.34    0.35</time>
   <time name="total">    0.36    0.36</time>
   <energy>
    <i name="e_fr_energy">     -7.01158263 </i>
    <i name="e_wo_entrp">     -7.01038155 </i>
    <i name="e_0_energy">     -7.01098209 </i>
   </energy>
  </scstep>
  <scstep>
   <time name="dav">    0.32    0.32</time>
   <time name="total">    0.34    0.34</time>
   <energy>
    <i name="e_fr_energy">     -7.01102645 </i>
    <i name="e_wo_entrp">     -7.00981471 </i>
    <i name="e_0_energy">     -7.01042058 </i>
   </energy>
  </scstep>
  <scstep>
   <time name="dav">    0.27    0.28</time>
   <time name="total">    0.29    0.29</time>
   <energy>
    <i name="e_fr_energy">     -7.01103146 </i>
    <i name="e_wo_entrp">     -7.00982292 </i>
    <i name="e_0_energy">     -7.01042719 </i>
   </energy>
  </scstep>
  <scstep>
   <time name="dav">    0.27    0.27</time>
   <time name="total">    0.28    0.28</time>
   <energy>
    <i name="alphaZ">     40.43050840 </i>
    <i name="ewald">   -769.79724018 </i>
    <i name="hartreedc">   -128.65381118 </i>
    <i name="XCdc">     16.49725424 </i>
    <i name="pawpsdc">    922.64990393 </i>
    <i name="pawaedc">   -975.81452564 </i>
    <i name="eentropy">     -0.00120978 </i>
    <i name="bandstr">     74.32035443 </i>
    <i name="atom">    813.35773410 </i>
    <i name="e_fr_energy">     -7.01103170 </i>
    <i name="e_wo_entrp">     -7.00982192 </i>
    <i name="e_0_energy">     -7.01042681 </i>
   </energy>
  </scstep>
  <structure>
   <crystal>
    <varray name="basis" >
     <v>       0.00000000       1.73672488       1.73672488 </v>
     <v>       1.73672488       0.00000000       1.73672488 </v>
     <v>       1.73672488       1.73672488       0.00000000 </v>
    </varray>
    <i name="volume">     10.47666541 </i>
    <varray name="rec_basis" >
     <v>      -0.28789822       0.28789822       0.28789822 </v>
     <v>       0.28789822      -0.28789822       0.28789822 </v>
     <v>       0.28789822       0.28789822      -0.28789822 </v>
    </varray>
   </crystal>
   <varray name="positions" >
    <v>       0.00000000       0.00000000       0.00000000 </v>
   </varray>
  </structure>
  <varray name="forces" >
   <v>       0.00000000       0.00000000      -0.00000000 </v>
  </varray>
  <varray name="stress" >
   <v>      70.57755755      -0.00000000      -0.00000000 </v>
   <v>      -0.00000000      70.57755755       0.00000000 </v>
   <v>       0.00000000       0.00000000      70.57755755 </v>
  </varray>
  <energy>
   <i name="e_fr_energy">     -7.01103170 </i>
   <i name="e_wo_entrp">     -7.00982192 </i>
   <i name="e_0_energy">     -7.01042681 </i>
  </energy>
  <time name="totalsc">    3.70    3.83</time>
  <eigenvalues>
   <array>
    <dimension dim="1">band</dimension>
    <dimension dim="2">kpoint</dimension>
    <dimension dim="3">spin</dimension>
    <field>eigene</field>
    <field>occ</field>
    <set>
     <set comment="spin 1">
      <set comment="kpoint 1">
       <r>    1.8004    1.0000 </r>
       <r>    8.0509    1.0000 </r>
       <r>    8.1368    1.0000 </r>
       <r>    8.1368    1.0000 </r>
       <r>    9.2284    1.0000 </r>
       <r>    9.2284    1.0000 </r>
       <r>   33.8762    0.0000 </r>
       <r>   37.0258    0.0000 </r>
       <r>   38.5628    0.0000 </r>
       <r>   38.5628    0.0000 </r>
       <r>   42.5883    0.0000 </r>
       <r>   42.5883    0.0000 </r>
      </set>
      <set comment="kpoint 2">
       <r>    2.6212    1.0000 </r>
       <r>    7.8249    1.0000 </r>
       <r>    8.3041    1.0000 </r>
       <r>    8.3090    1.0000 </r>
       <r>    9.0634    1.0000 </r>
       <r>    9.3222    1.0000 </r>
       <r>   31.1711    0.0000 </r>
       <r>   33.8314    0.0000 </r>
       <r>   37.3960    0.0000 </r>
       <r>   39.5996    0.0000 </r>
       <r>   41.3649    0.0000 </r>
       <r>   42.6975    0.0000 </r>
      </set>
      <set comment="kpoint 3">
       <r>    4.3321    1.0000 </r>
       <r>    7.7063    1.0000 </r>
       <r>    8.2474    1.0000 </r>
       <r>    8.3263    1.0000 </r>
       <r>    9.2850    1.0000 </r>
       <r>    9.7440    1.0000 </r>
       <r>   25.0354    0.0000 </r>
       <r>   32.7066    0.0000 </r>
       <r>   36.3428    0.0000 </r>
       <r>   39.2395    0.0000 </r>
       <r>   40.4084    0.0000 </r>
       <r>   41.3604    0.0000 </r>
      </set>
      <set comment="kpoint 4">
       <r>    5.4600    1.0000 </r>
       <r>    8.0046    1.0000 </r>
       <r>    8.1095    1.0000 </r>
       <r>    8.8128    1.0000 </r>
       <r>    9.8704    1.0000 </r>
       <r>   10.5603    1.0000 </r>
       <r>   19.6140    0.0000 </r>
       <r>   32.1523    0.0000 </r>
       <r>   35.1267    0.0000 </r>
       <r>   37.0669    0.0000 </r>
       <r>   39.5384    0.0000 </r>
       <r>   41.1208    0.0000 </r>
      </set>
      <set comment="kpoint 5">
       <r>    5.5788    1.0000 </r>
       <r>    7.9034    1.0000 </r>
       <r>    8.0531    1.0000 </r>
       <r>    9.4169    1.0000 </r>
       <r>   10.1692    1.0000 </r>
       <r>   11.3368    0.0000 </r>
       <r>   17.4426    0.0000 </r>
       <r>   32.2042    0.0000 </r>
       <r>   35.1600    0.0000 </r>
       <r>   35.3291    0.0000 </r>
       <r>   40.3797    0.0000 </r>
       <r>   40.3925    0.0000 </r>
      </set>
      <set comment="kpoint 6">
       <r>    5.2499    1.0000 </r>
       <r>    8.0433    1.0000 </r>
       <r>    8.2035    1.0000 </r>
       <r>    8.2667    1.0000 </r>
       <r>    9.9513    1.0000 </r>
       <r>   10.0064    1.0000 </r>
       <r>   21.2548    0.0000 </r>
       <r>   32.9383    0.0000 </r>
       <r>   34.6137    0.0000 </r>
       <r>   37.1062    0.0000 </r>
       <r>   40.1868    0.0000 </r>
       <r>   42.1110    0.0000 </r>
      </set>
      <set comment="kpoint 7">
       <r>    3.7205    1.0000 </r>
       <r>    7.6561    1.0000 </r>
       <r>    8.3146    1.0000 </r>
       <r>    8.3763    1.0000 </r>
       <r>    9.2108    1.0000 </r>
       <r>    9.4878    1.0000 </r>
       <r>   27.0682    0.0000 </r>
       <r>   34.0570    0.0000 </r>
       <r>   35.1665    0.0000 </r>
       <r>   39.7179    0.0000 </r>
       <r>   40.0120    0.0000 </r>
       <r>   44.3507    0.0000 </r>
      </set>
      <set comment="kpoint 8">
       <r>    2.2180    1.0000 </r>
       <r>    7.8990    1.0000 </r>
       <r>    8.2527    1.0000 </r>
       <r>    8.2572    1.0000 </r>
       <r>    9.0846    1.0000 </r>
       <r>    9.2988    1.0000 </r>
       <r>   32.9197    0.0000 </r>
       <r>   35.4046    0.0000 </r>
       <r>   36.5576    0.0000 </r>
       <r>   38.3730    0.0000 </r>
       <r>   42.5121    0.0000 </r>
       <r>   44.3118    0.0000 </r>
      </set>
      <set comment="kpoint 9">
       <r>    3.0124    1.0000 </r>
       <r>    7.6062    1.0000 </r>
       <r>    8.4597    1.0000 </r>
       <r>    8.4914    1.0000 </r>
       <r>    8.8879    1.0000 </r>
       <r>    9.4297    1.0000 </r>
       <r>   31.4873    0.0000 </r>
       <r>   33.9392    0.0000 </r>
       <r>   34.2377    0.0000 </r>
       <r>   36.3985    0.0000 </r>
       <r>   42.3913    0.0000 </r>
       <r>   44.8459    0.0000 </r>
      </set>
      <set comment="kpoint 10">
       <r>    4.3939    1.0000 </r>
       <r>    7.2873    1.0000 </r>
       <r>    8.2327    1.0000 </r>
       <r>    8.7654    1.0000 </r>
       <r>    9.1696    1.0000 </r>
       <r>    9.8280    1.0000 </r>
       <r>   27.6246    0.0000 </r>
       <r>   30.2561    0.0000 </r>
       <r>   34.0614    0.0000 </r>
       <r>   36.1130    0.0000 </r>
       <r>   41.2020    0.0000 </r>
       <r>   44.5830    0.0000 </r>
      </set>
      <set comment="kpoint 11">
       <r>    5.7733    1.0000 </r>
       <r>    7.4149    1.0000 </r>
       <r>    7.9081    1.0000 </r>
       <r>    8.6008    1.0000 </r>
       <r>    9.9156    1.0000 </r>
       <r>   11.0682    0.0000 </r>
       <r>   21.7626    0.0000 </r>
       <r>   29.6135    0.0000 </r>
       <r>   31.6905    0.0000 </r>
       <r>   35.7873    0.0000 </r>
       <r>   42.5770    0.0000 </r>
       <r>   45.1297    0.0000 </r>
      </set>
      <set comment="kpoint 12">
       <r>    6.0710    1.0000 </r>
       <r>    7.4521    1.0000 </r>
       <r>    8.3662    1.0000 </r>
       <r>    8.4403    1.0000 </r>
       <r>   10.1294    1.0000 </r>
       <r>   13.2571    0.0000 </r>
       <r>   17.6244    0.0000 </r>
       <r>   28.9987    0.0000 </r>
       <r>   30.9954    0.0000 </r>
       <r>   35.5422    0.0000 </r>
       <r>   41.7196    0.0000 </r>
       <r>   45.4024    0.0000 </r>
      </set>
      <set comment="kpoint 13">
       <r>    6.0094    1.0000 </r>
       <r>    7.6084    1.0000 </r>
       <r>    7.9779    1.0000 </r>
       <r>    8.4829    1.0000 </r>
       <r>    9.7898    1.0000 </r>
       <r>   11.9419    0.0000 </r>
       <r>   20.0796    0.0000 </r>
       <r>   28.2070    0.0000 </r>
       <r>   32.5430    0.0000 </r>
       <r>   36.6695    0.0000 </r>
       <r>   41.0707    0.0000 </r>
       <r>   44.7863    0.0000 </r>
      </set>
      <set comment="kpoint 14">
       <r>    4.9862    1.0000 </r>
       <r>    7.3661    1.0000 </r>
       <r>    8.0473    1.0000 </r>
       <r>    8.6965    1.0000 </r>
       <r>    9.0970    1.0000 </r>
       <r>   10.3522    1.0000 </r>
       <r>   25.6049    0.0000 </r>
       <r>   28.3697    0.0000 </r>
       <r>   35.0799    0.0000 </r>
       <r>   38.6358    0.0000 </r>
       <r>   40.5161    0.0000 </r>
       <r>   43.6737    0.0000 </r>
      </set>
      <set comment="kpoint 15">
       <r>    3.3856    1.0000 </r>
       <r>    7.6038    1.0000 </r>
       <r>    8.3519    1.0000 </r>
       <r>    8.4946    1.0000 </r>
       <r>    8.9702    1.0000 </r>
       <r>    9.5214    1.0000 </r>
       <r>   29.3361    0.0000 </r>
       <r>   31.9983    0.0000 </r>
       <r>   36.4635    0.0000 </r>
       <r>   38.2837    0.0000 </r>
       <r>   41.9925    0.0000 </r>
       <r>   43.4209    0.0000 </r>
      </set>
      <set comment="kpoint 16">
       <r>    5.0646    1.0000 </r>
       <r>    6.8461    1.0000 </r>
       <r>    8.5740    1.0000 </r>
       <r>    9.2158    1.0000 </r>
       <r>    9.5674    1.0000 </r>
       <r>    9.8011    1.0000 </r>
       <r>   28.2113    0.0000 </r>
       <r>   29.9502    0.0000 </r>
       <r>   29.9629    0.0000 </r>
       <r>   32.8467    0.0000 </r>
       <r>   37.7324    0.0000 </r>
       <r>   47.7829    0.0000 </r>
      </set>
      <set comment="kpoint 17">
       <r>    5.7940    1.0000 </r>
       <r>    6.6292    1.0000 </r>
       <r>    8.5097    1.0000 </r>
       <r>    9.4756    1.0000 </r>
       <r>    9.9664    1.0000 </r>
       <r>   11.3320    0.0000 </r>
       <r>   24.7492    0.0000 </r>
       <r>   26.7165    0.0000 </r>
       <r>   27.7736    0.0000 </r>
       <r>   34.1216    0.0000 </r>
       <r>   38.8307    0.0000 </r>
       <r>   47.5432    0.0000 </r>
      </set>
      <set comment="kpoint 18">
       <r>    6.2890    1.0000 </r>
       <r>    6.7717    1.0000 </r>
       <r>    8.1897    1.0000 </r>
       <r>    9.1795    1.0000 </r>
       <r>   10.1964    1.0000 </r>
       <r>   14.5713    0.0000 </r>
       <r>   19.5797    0.0000 </r>
       <r>   24.5353    0.0000 </r>
       <r>   27.9424    0.0000 </r>
       <r>   34.5813    0.0000 </r>
       <r>   43.7272    0.0000 </r>
       <r>   46.3965    0.0000 </r>
      </set>
      <set comment="kpoint 19">
       <r>    6.7949    1.0000 </r>
       <r>    6.9510    1.0000 </r>
       <r>    7.7106    1.0000 </r>
       <r>    8.9702    1.0000 </r>
       <r>    9.8612    1.0000 </r>
       <r>   14.9001    0.0000 </r>
       <r>   19.4191    0.0000 </r>
       <r>   23.2084    0.0000 </r>
       <r>   29.6997    0.0000 </r>
       <r>   35.4558    0.0000 </r>
       <r>   44.2984    0.0000 </r>
       <r>   47.3470    0.0000 </r>
      </set>
      <set comment="kpoint 20">
       <r>    6.3201    1.0000 </r>
       <r>    7.3831    1.0000 </r>
       <r>    7.5474    1.0000 </r>
       <r>    8.7829    1.0000 </r>
       <r>    9.4650    1.0000 </r>
       <r>   12.0508    0.0000 </r>
       <r>   22.2979    0.0000 </r>
       <r>   25.3458    0.0000 </r>
       <r>   32.3022    0.0000 </r>
       <r>   37.2406    0.0000 </r>
       <r>   41.5013    0.0000 </r>
       <r>   46.2594    0.0000 </r>
      </set>
      <set comment="kpoint 21">
       <r>    5.0866    1.0000 </r>
       <r>    7.6603    1.0000 </r>
       <r>    8.0646    1.0000 </r>
       <r>    8.3959    1.0000 </r>
       <r>    9.5283    1.0000 </r>
       <r>   10.2127    1.0000 </r>
       <r>   23.2688    0.0000 </r>
       <r>   31.1232    0.0000 </r>
       <r>   34.7186    0.0000 </r>
       <r>   37.4910    0.0000 </r>
       <r>   41.1541    0.0000 </r>
       <r>   42.7375    0.0000 </r>
      </set>
      <set comment="kpoint 22">
       <r>    5.5509    1.0000 </r>
       <r>    6.2431    1.0000 </r>
       <r>    9.8292    1.0000 </r>
       <r>    9.8856    1.0000 </r>
       <r>   10.2212    1.0000 </r>
       <r>   11.9773    0.0000 </r>
       <r>   23.4392    0.0000 </r>
       <r>   25.8420    0.0000 </r>
       <r>   27.0260    0.0000 </r>
       <r>   31.9904    0.0000 </r>
       <r>   36.2413    0.0000 </r>
       <r>   47.8355    0.0000 </r>
      </set>
      <set comment="kpoint 23">
       <r>    5.6996    1.0000 </r>
       <r>    6.2698    1.0000 </r>
       <r>    9.3878    1.0000 </r>
       <r>    9.8311    1.0000 </r>
       <r>   10.3673    1.0000 </r>
       <r>   14.5726    0.0000 </r>
       <r>   21.2745    0.0000 </r>
       <r>   23.3855    0.0000 </r>
       <r>   25.8743    0.0000 </r>
       <r>   33.4835    0.0000 </r>
       <r>   38.1479    0.0000 </r>
       <r>   47.8354    0.0000 </r>
      </set>
      <set comment="kpoint 24">
       <r>    6.2330    1.0000 </r>
       <r>    6.6738    1.0000 </r>
       <r>    8.3708    1.0000 </r>
       <r>    9.3693    1.0000 </r>
       <r>   10.1831    1.0000 </r>
       <r>   16.6423    0.0000 </r>
       <r>   18.8947    0.0000 </r>
       <r>   22.0451    0.0000 </r>
       <r>   27.4528    0.0000 </r>
       <r>   34.4186    0.0000 </r>
       <r>   43.7112    0.0000 </r>
       <r>   47.4743    0.0000 </r>
      </set>
      <set comment="kpoint 25">
       <r>    6.4582    1.0000 </r>
       <r>    7.1330    1.0000 </r>
       <r>    8.0259    1.0000 </r>
       <r>    8.7139    1.0000 </r>
       <r>   10.0238    1.0000 </r>
       <r>   14.5376    0.0000 </r>
       <r>   17.8667    0.0000 </r>
       <r>   25.9822    0.0000 </r>
       <r>   30.0772    0.0000 </r>
       <r>   35.4607    0.0000 </r>
       <r>   43.0549    0.0000 </r>
       <r>   47.3008    0.0000 </r>
      </set>
      <set comment="kpoint 26">
       <r>    5.7309    1.0000 </r>
       <r>    7.7828    1.0000 </r>
       <r>    8.2009    1.0000 </r>
       <r>    8.7207    1.0000 </r>
       <r>   10.0698    1.0000 </r>
       <r>   11.6839    0.0000 </r>
       <r>   18.3687    0.0000 </r>
       <r>   30.9535    0.0000 </r>
       <r>   33.2653    0.0000 </r>
       <r>   35.8682    0.0000 </r>
       <r>   40.6432    0.0000 </r>
       <r>   42.8096    0.0000 </r>
      </set>
      <set comment="kpoint 27">
       <r>    5.4794    1.0000 </r>
       <r>    6.1067    1.0000 </r>
       <r>   10.0119    1.0000 </r>
       <r>   10.1339    1.0000 </r>
       <r>   10.3806    1.0000 </r>
       <r>   13.5244    0.0000 </r>
       <r>   21.2011    0.0000 </r>
       <r>   25.2275    0.0000 </r>
       <r>   26.3720    0.0000 </r>
       <r>   31.8559    0.0000 </r>
       <r>   36.0584    0.0000 </r>
       <r>   47.9087    0.0000 </r>
      </set>
      <set comment="kpoint 28">
       <r>    5.7849    1.0000 </r>
       <r>    6.3940    1.0000 </r>
       <r>    9.0335    1.0000 </r>
       <r>    9.7482    1.0000 </r>
       <r>   10.2096    1.0000 </r>
       <r>   12.9492    0.0000 </r>
       <r>   23.3903    0.0000 </r>
       <r>   24.1524    0.0000 </r>
       <r>   26.4609    0.0000 </r>
       <r>   33.6845    0.0000 </r>
       <r>   38.3466    0.0000 </r>
       <r>   47.7398    0.0000 </r>
      </set>
      <set comment="kpoint 29">
       <r>    6.1897    1.0000 </r>
       <r>    7.0425    1.0000 </r>
       <r>    7.9765    1.0000 </r>
       <r>    8.8888    1.0000 </r>
       <r>   10.1341    1.0000 </r>
       <r>   12.5711    0.0000 </r>
       <r>   20.5233    0.0000 </r>
       <r>   27.5824    0.0000 </r>
       <r>   29.0433    0.0000 </r>
       <r>   34.9781    0.0000 </r>
       <r>   43.4846    0.0000 </r>
       <r>   45.5589    0.0000 </r>
      </set>
      <set comment="kpoint 30">
       <r>    5.5353    1.0000 </r>
       <r>    6.5001    1.0000 </r>
       <r>    9.2088    1.0000 </r>
       <r>    9.6040    1.0000 </r>
       <r>   10.0075    1.0000 </r>
       <r>   10.4465    1.0000 </r>
       <r>   26.3456    0.0000 </r>
       <r>   27.1378    0.0000 </r>
       <r>   28.2574    0.0000 </r>
       <r>   32.2879    0.0000 </r>
       <r>   36.7224    0.0000 </r>
       <r>   47.8057    0.0000 </r>
      </set>
      <set comment="kpoint 31">
       <r>    5.3499    1.0000 </r>
       <r>    6.9434    1.0000 </r>
       <r>    8.1668    1.0000 </r>
       <r>    9.1071    1.0000 </r>
       <r>    9.6046    1.0000 </r>
       <r>   10.3199    1.0000 </r>
       <r>   26.0823    0.0000 </r>
       <r>   28.6060    0.0000 </r>
       <r>   30.7372    0.0000 </r>
       <r>   34.8729    0.0000 </r>
       <r>   39.7396    0.0000 </r>
       <r>   46.5220    0.0000 </r>
      </set>
      <set comment="kpoint 32">
       <r>    4.0656    1.0000 </r>
       <r>    7.2342    1.0000 </r>
       <r>    8.4681    1.0000 </r>
       <r>    8.8226    1.0000 </r>
       <r>    9.0447    1.0000 </r>
       <r>    9.6038    1.0000 </r>
       <r>   29.8583    0.0000 </r>
       <r>   31.9838    0.0000 </r>
       <r>   32.5035    0.0000 </r>
       <r>   34.1384    0.0000 </r>
       <r>   39.5989    0.0000 </r>
       <r>   47.3213    0.0000 </r>
      </set>
      <set comment="kpoint 33">
       <r>    3.0031    1.0000 </r>
       <r>    7.7952    1.0000 </r>
       <r>    8.3129    1.0000 </r>
       <r>    8.3129    1.0000 </r>
       <r>    9.2296    1.0000 </r>
       <r>    9.2296    1.0000 </r>
       <r>   29.0472    0.0000 </r>
       <r>   35.0172    0.0000 </r>
       <r>   37.5317    0.0000 </r>
       <r>   37.5317    0.0000 </r>
       <r>   42.9495    0.0000 </r>
       <r>   43.4343    0.0000 </r>
      </set>
      <set comment="kpoint 34">
       <r>    4.0844    1.0000 </r>
       <r>    7.5348    1.0000 </r>
       <r>    8.2559    1.0000 </r>
       <r>    8.5594    1.0000 </r>
       <r>    8.9239    1.0000 </r>
       <r>    9.8531    1.0000 </r>
       <r>   27.3586    0.0000 </r>
       <r>   30.0751    0.0000 </r>
       <r>   37.7349    0.0000 </r>
       <r>   39.7158    0.0000 </r>
       <r>   39.9372    0.0000 </r>
       <r>   42.0674    0.0000 </r>
      </set>
      <set comment="kpoint 35">
       <r>    5.6959    1.0000 </r>
       <r>    7.4185    1.0000 </r>
       <r>    7.8633    1.0000 </r>
       <r>    8.6242    1.0000 </r>
       <r>    9.1819    1.0000 </r>
       <r>   11.0543    0.0000 </r>
       <r>   23.8300    0.0000 </r>
       <r>   26.7139    0.0000 </r>
       <r>   35.7642    0.0000 </r>
       <r>   36.4736    0.0000 </r>
       <r>   41.6901    0.0000 </r>
       <r>   43.6219    0.0000 </r>
      </set>
      <set comment="kpoint 36">
       <r>    6.2269    1.0000 </r>
       <r>    7.4441    1.0000 </r>
       <r>    8.1262    1.0000 </r>
       <r>    8.5009    1.0000 </r>
       <r>    9.8557    1.0000 </r>
       <r>   13.1010    0.0000 </r>
       <r>   18.7423    0.0000 </r>
       <r>   26.9516    0.0000 </r>
       <r>   33.3227    0.0000 </r>
       <r>   34.1237    0.0000 </r>
       <r>   43.8522    0.0000 </r>
       <r>   43.8796    0.0000 </r>
      </set>
      <set comment="kpoint 37">
       <r>    6.1199    1.0000 </r>
       <r>    7.2934    1.0000 </r>
       <r>    8.1697    1.0000 </r>
       <r>    8.5812    1.0000 </r>
       <r>   10.2043    1.0000 </r>
       <r>   12.9276    0.0000 </r>
       <r>   18.6997    0.0000 </r>
       <r>   28.2908    0.0000 </r>
       <r>   31.3756    0.0000 </r>
       <r>   33.7014    0.0000 </r>
       <r>   44.8474    0.0000 </r>
       <r>   45.0269    0.0000 </r>
      </set>
      <set comment="kpoint 38">
       <r>    5.5226    1.0000 </r>
       <r>    7.1006    1.0000 </r>
       <r>    8.0538    1.0000 </r>
       <r>    8.7801    1.0000 </r>
       <r>   10.0188    1.0000 </r>
       <r>   10.4213    1.0000 </r>
       <r>   23.7780    0.0000 </r>
       <r>   30.4069    0.0000 </r>
       <r>   30.9539    0.0000 </r>
       <r>   34.1650    0.0000 </r>
       <r>   42.1230    0.0000 </r>
       <r>   46.0669    0.0000 </r>
      </set>
      <set comment="kpoint 39">
       <r>    4.6512    1.0000 </r>
       <r>    7.4110    1.0000 </r>
       <r>    8.1624    1.0000 </r>
       <r>    8.5324    1.0000 </r>
       <r>    9.5797    1.0000 </r>
       <r>    9.7689    1.0000 </r>
       <r>   25.3100    0.0000 </r>
       <r>   32.6956    0.0000 </r>
       <r>   32.9245    0.0000 </r>
       <r>   36.3398    0.0000 </r>
       <r>   42.6356    0.0000 </r>
       <r>   43.8951    0.0000 </r>
      </set>
      <set comment="kpoint 40">
       <r>    5.8328    1.0000 </r>
       <r>    7.1328    1.0000 </r>
       <r>    7.7967    1.0000 </r>
       <r>    8.9715    1.0000 </r>
       <r>    9.4795    1.0000 </r>
       <r>   11.1092    0.0000 </r>
       <r>   24.0809    0.0000 </r>
       <r>   26.8951    0.0000 </r>
       <r>   31.3933    0.0000 </r>
       <r>   37.6849    0.0000 </r>
       <r>   40.9634    0.0000 </r>
       <r>   44.4401    0.0000 </r>
      </set>
      <set comment="kpoint 41">
       <r>    6.6778    1.0000 </r>
       <r>    7.1254    1.0000 </r>
       <r>    7.4500    1.0000 </r>
       <r>    9.0407    1.0000 </r>
       <r>    9.8239    1.0000 </r>
       <r>   13.5365    0.0000 </r>
       <r>   21.0226    0.0000 </r>
       <r>   24.2835    0.0000 </r>
       <r>   28.6296    0.0000 </r>
       <r>   38.5892    0.0000 </r>
       <r>   40.9020    0.0000 </r>
       <r>   46.2897    0.0000 </r>
      </set>
      <set comment="kpoint 42">
       <r>    6.6490    1.0000 </r>
       <r>    6.8991    1.0000 </r>
       <r>    7.8120    1.0000 </r>
       <r>    8.9875    1.0000 </r>
       <r>   10.1269    1.0000 </r>
       <r>   15.5135    0.0000 </r>
       <r>   18.1895    0.0000 </r>
       <r>   25.2309    0.0000 </r>
       <r>   26.8292    0.0000 </r>
       <r>   37.3935    0.0000 </r>
       <r>   42.3142    0.0000 </r>
       <r>   46.9876    0.0000 </r>
      </set>
      <set comment="kpoint 43">
       <r>    6.2324    1.0000 </r>
       <r>    6.8810    1.0000 </r>
       <r>    7.8573    1.0000 </r>
       <r>    9.2878    1.0000 </r>
       <r>    9.8629    1.0000 </r>
       <r>   12.3742    0.0000 </r>
       <r>   22.8091    0.0000 </r>
       <r>   25.6430    0.0000 </r>
       <r>   27.8344    0.0000 </r>
       <r>   36.9428    0.0000 </r>
       <r>   41.1286    0.0000 </r>
       <r>   45.0823    0.0000 </r>
      </set>
      <set comment="kpoint 44">
       <r>    5.9561    1.0000 </r>
       <r>    6.7759    1.0000 </r>
       <r>    8.2920    1.0000 </r>
       <r>    9.0905    1.0000 </r>
       <r>   10.1934    1.0000 </r>
       <r>   11.7781    0.0000 </r>
       <r>   22.4930    0.0000 </r>
       <r>   27.2073    0.0000 </r>
       <r>   29.3572    0.0000 </r>
       <r>   33.3193    0.0000 </r>
       <r>   41.2990    0.0000 </r>
       <r>   47.4905    0.0000 </r>
      </set>
      <set comment="kpoint 45">
       <r>    6.1795    1.0000 </r>
       <r>    6.6898    1.0000 </r>
       <r>    8.2151    1.0000 </r>
       <r>    9.4773    1.0000 </r>
       <r>   10.1703    1.0000 </r>
       <r>   14.1826    0.0000 </r>
       <r>   21.8374    0.0000 </r>
       <r>   24.0407    0.0000 </r>
       <r>   25.2854    0.0000 </r>
       <r>   36.4572    0.0000 </r>
       <r>   41.1595    0.0000 </r>
       <r>   46.1455    0.0000 </r>
      </set>
      <set comment="kpoint 46">
       <r>    6.3876    1.0000 </r>
       <r>    7.0697    1.0000 </r>
       <r>    7.7214    1.0000 </r>
       <r>    9.2153    1.0000 </r>
       <r>   10.3617    1.0000 </r>
       <r>   17.6640    0.0000 </r>
       <r>   19.4734    0.0000 </r>
       <r>   22.0535    0.0000 </r>
       <r>   23.6192    0.0000 </r>
       <r>   39.4724    0.0000 </r>
       <r>   42.9751    0.0000 </r>
       <r>   44.8196    0.0000 </r>
      </set>
      <set comment="kpoint 47">
       <r>    6.5587    1.0000 </r>
       <r>    7.0745    1.0000 </r>
       <r>    7.5640    1.0000 </r>
       <r>    9.1890    1.0000 </r>
       <r>   10.1525    1.0000 </r>
       <r>   15.5223    0.0000 </r>
       <r>   20.0610    0.0000 </r>
       <r>   23.4655    0.0000 </r>
       <r>   25.3332    0.0000 </r>
       <r>   39.4684    0.0000 </r>
       <r>   41.3015    0.0000 </r>
       <r>   45.7540    0.0000 </r>
      </set>
      <set comment="kpoint 48">
       <r>    5.8962    1.0000 </r>
       <r>    6.4120    1.0000 </r>
       <r>    9.0103    1.0000 </r>
       <r>    9.6365    1.0000 </r>
       <r>   10.2566    1.0000 </r>
       <r>   15.3932    0.0000 </r>
       <r>   20.6559    0.0000 </r>
       <r>   21.9055    0.0000 </r>
       <r>   27.6371    0.0000 </r>
       <r>   32.8427    0.0000 </r>
       <r>   40.5869    0.0000 </r>
       <r>   47.8418    0.0000 </r>
      </set>
      <set comment="kpoint 49">
       <r>    6.0645    1.0000 </r>
       <r>    6.5937    1.0000 </r>
       <r>    8.5090    1.0000 </r>
       <r>    9.5068    1.0000 </r>
       <r>   10.3630    1.0000 </r>
       <r>   16.0409    0.0000 </r>
       <r>   21.0437    0.0000 </r>
       <r>   21.9410    0.0000 </r>
       <r>   24.6328    0.0000 </r>
       <r>   36.2194    0.0000 </r>
       <r>   41.1673    0.0000 </r>
       <r>   47.2495    0.0000 </r>
      </set>
      <set comment="kpoint 50">
       <r>    5.9736    1.0000 </r>
       <r>    6.5313    1.0000 </r>
       <r>    8.7232    1.0000 </r>
       <r>    9.4078    1.0000 </r>
       <r>   10.2666    1.0000 </r>
       <r>   13.6005    0.0000 </r>
       <r>   21.4919    0.0000 </r>
       <r>   24.0646    0.0000 </r>
       <r>   28.2259    0.0000 </r>
       <r>   32.9755    0.0000 </r>
       <r>   40.8058    0.0000 </r>
       <r>   47.7563    0.0000 </r>
      </set>
      <set comment="kpoint 51">
       <r>    4.7578    1.0000 </r>
       <r>    8.0313    1.0000 </r>
       <r>    8.1999    1.0000 </r>
       <r>    8.1999    1.0000 </r>
       <r>    9.6477    1.0000 </r>
       <r>    9.6477    1.0000 </r>
       <r>   22.9909    0.0000 </r>
       <r>   33.8336    0.0000 </r>
       <r>   36.7952    0.0000 </r>
       <r>   36.7952    0.0000 </r>
       <r>   41.0736    0.0000 </r>
       <r>   41.0736    0.0000 </r>
      </set>
      <set comment="kpoint 52">
       <r>    5.5701    1.0000 </r>
       <r>    7.9159    1.0000 </r>
       <r>    7.9376    1.0000 </r>
       <r>    8.3331    1.0000 </r>
       <r>    9.5367    1.0000 </r>
       <r>   10.8939    0.0316 </r>
       <r>   21.5274    0.0000 </r>
       <r>   29.5528    0.0000 </r>
       <r>   35.3176    0.0000 </r>
       <r>   36.7393    0.0000 </r>
       <r>   41.3943    0.0000 </r>
       <r>   41.7409    0.0000 </r>
      </set>
      <set comment="kpoint 53">
       <r>    6.6316    1.0000 </r>
       <r>    7.2832    1.0000 </r>
       <r>    7.6110    1.0000 </r>
       <r>    8.7746    1.0000 </r>
       <r>    9.6029    1.0000 </r>
       <r>   13.2686    0.0000 </r>
       <r>   20.7366    0.0000 </r>
       <r>   24.1074    0.0000 </r>
       <r>   32.9496    0.0000 </r>
       <r>   34.1825    0.0000 </r>
       <r>   44.8040    0.0000 </r>
       <r>   45.5770    0.0000 </r>
      </set>
      <set comment="kpoint 54">
       <r>    6.5024    1.0000 </r>
       <r>    6.8336    1.0000 </r>
       <r>    8.0800    1.0000 </r>
       <r>    9.1473    1.0000 </r>
       <r>    9.9851    1.0000 </r>
       <r>   16.4847    0.0000 </r>
       <r>   18.1154    0.0000 </r>
       <r>   22.4757    0.0000 </r>
       <r>   29.9245    0.0000 </r>
       <r>   33.3273    0.0000 </r>
       <r>   46.5784    0.0000 </r>
       <r>   47.9510    0.0000 </r>
      </set>
      <set comment="kpoint 55">
       <r>    5.7189    1.0000 </r>
       <r>    7.7086    1.0000 </r>
       <r>    8.2462    1.0000 </r>
       <r>    8.3375    1.0000 </r>
       <r>   10.1473    1.0000 </r>
       <r>   11.1783    0.0000 </r>
       <r>   19.8211    0.0000 </r>
       <r>   31.2186    0.0000 </r>
       <r>   32.7898    0.0000 </r>
       <r>   34.6923    0.0000 </r>
       <r>   42.7222    0.0000 </r>
       <r>   43.4503    0.0000 </r>
      </set>
      <set comment="kpoint 56">
       <r>    6.3865    1.0000 </r>
       <r>    7.1969    1.0000 </r>
       <r>    7.9087    1.0000 </r>
       <r>    8.7381    1.0000 </r>
       <r>   10.0235    1.0000 </r>
       <r>   13.5356    0.0000 </r>
       <r>   18.9345    0.0000 </r>
       <r>   27.0724    0.0000 </r>
       <r>   29.0661    0.0000 </r>
       <r>   37.1568    0.0000 </r>
       <r>   41.2999    0.0000 </r>
       <r>   47.1744    0.0000 </r>
      </set>
      <set comment="kpoint 57">
       <r>    6.5803    1.0000 </r>
       <r>    6.9739    1.0000 </r>
       <r>    7.7337    1.0000 </r>
       <r>    9.1414    1.0000 </r>
       <r>   10.1544    1.0000 </r>
       <r>   16.9088    0.0000 </r>
       <r>   18.4780    0.0000 </r>
       <r>   22.6083    0.0000 </r>
       <r>   26.3199    0.0000 </r>
       <r>   37.4530    0.0000 </r>
       <r>   43.6344    0.0000 </r>
       <r>   46.8009    0.0000 </r>
      </set>
      <set comment="kpoint 58">
       <r>    6.4050    1.0000 </r>
       <r>    6.9610    1.0000 </r>
       <r>    8.1092    1.0000 </r>
       <r>    8.8862    1.0000 </r>
       <r>   10.1254    1.0000 </r>
       <r>   14.9704    0.0000 </r>
       <r>   17.9778    0.0000 </r>
       <r>   25.1137    0.0000 </r>
       <r>   30.4119    0.0000 </r>
       <r>   33.4078    0.0000 </r>
       <r>   46.3822    0.0000 </r>
       <r>   46.7057    0.0000 </r>
      </set>
      <set comment="kpoint 59">
       <r>    5.4515    1.0000 </r>
       <r>    8.0112    1.0000 </r>
       <r>    8.0112    1.0000 </r>
       <r>    9.9534    1.0000 </r>
       <r>   10.0959    1.0000 </r>
       <r>   10.0959    1.0000 </r>
       <r>   18.2157    0.0000 </r>
       <r>   32.8807    0.0000 </r>
       <r>   36.4508    0.0000 </r>
       <r>   36.4508    0.0000 </r>
       <r>   39.2733    0.0000 </r>
       <r>   39.2733    0.0000 </r>
      </set>
      <set comment="kpoint 60">
       <r>    5.8452    1.0000 </r>
       <r>    7.6889    1.0000 </r>
       <r>    8.2281    1.0000 </r>
       <r>    8.7537    1.0000 </r>
       <r>   10.0788    1.0000 </r>
       <r>   12.4954    0.0000 </r>
       <r>   17.5309    0.0000 </r>
       <r>   29.9859    0.0000 </r>
       <r>   34.0672    0.0000 </r>
       <r>   34.2374    0.0000 </r>
       <r>   41.9830    0.0000 </r>
       <r>   42.4462    0.0000 </r>
      </set>
     </set>
     <set comment="spin 2">
      <set comment="kpoint 1">
       <r>    1.8103    1.0000 </r>
       <r>    9.5836    1.0000 </r>
       <r>    9.6861    1.0000 </r>
       <r>    9.6861    1.0000 </r>
       <r>   11.0939    0.0000 </r>
       <r>   11.0939    0.0000 </r>
       <r>   33.6502    0.0000 </r>
       <r>   37.1271    0.0000 </r>
       <r>   38.7350    0.0000 </r>
       <r>   38.7350    0.0000 </r>
       <r>   42.8443    0.0000 </r>
       <r>   42.8446    0.0000 </r>
      </set>
      <set comment="kpoint 2">
       <r>    2.6387    1.0000 </r>
       <r>    9.2960    1.0000 </r>
       <r>    9.8710    1.0000 </r>
       <r>    9.8795    1.0000 </r>
       <r>   10.8956    0.0283 </r>
       <r>   11.1758    0.0000 </r>
       <r>   31.3616    0.0000 </r>
       <r>   33.8997    0.0000 </r>
       <r>   37.4550    0.0000 </r>
       <r>   39.7742    0.0000 </r>
       <r>   41.3574    0.0000 </r>
       <r>   42.9236    0.0000 </r>
      </set>
      <set comment="kpoint 3">
       <r>    4.4532    1.0000 </r>
       <r>    8.9634    1.0000 </r>
       <r>    9.8521    1.0000 </r>
       <r>    9.9596    1.0000 </r>
       <r>   11.0626    0.0000 </r>
       <r>   11.5480    0.0000 </r>
       <r>   25.4837    0.0000 </r>
       <r>   32.7586    0.0000 </r>
       <r>   36.4250    0.0000 </r>
       <r>   39.5507    0.0000 </r>
       <r>   40.6660    0.0000 </r>
       <r>   41.4256    0.0000 </r>
      </set>
      <set comment="kpoint 4">
       <r>    6.1291    1.0000 </r>
       <r>    9.4369    1.0000 </r>
       <r>    9.6472    1.0000 </r>
       <r>    9.7436    1.0000 </r>
       <r>   11.6810    0.0000 </r>
       <r>   12.1799    0.0000 </r>
       <r>   20.3400    0.0000 </r>
       <r>   32.0854    0.0000 </r>
       <r>   35.2950    0.0000 </r>
       <r>   37.3867    0.0000 </r>
       <r>   39.8155    0.0000 </r>
       <r>   41.3212    0.0000 </r>
      </set>
      <set comment="kpoint 5">
       <r>    6.4688    1.0000 </r>
       <r>    9.4729    1.0000 </r>
       <r>    9.6792    1.0000 </r>
       <r>   10.1493    1.0000 </r>
       <r>   12.0164    0.0000 </r>
       <r>   12.4634    0.0000 </r>
       <r>   18.4044    0.0000 </r>
       <r>   32.0265    0.0000 </r>
       <r>   35.4709    0.0000 </r>
       <r>   35.6033    0.0000 </r>
       <r>   40.6140    0.0000 </r>
       <r>   40.6420    0.0000 </r>
      </set>
      <set comment="kpoint 6">
       <r>    5.7064    1.0000 </r>
       <r>    9.1178    1.0000 </r>
       <r>    9.6817    1.0000 </r>
       <r>    9.8324    1.0000 </r>
       <r>   11.6785    0.0000 </r>
       <r>   11.7902    0.0000 </r>
       <r>   21.8710    0.0000 </r>
       <r>   32.7580    0.0000 </r>
       <r>   34.9497    0.0000 </r>
       <r>   37.4408    0.0000 </r>
       <r>   40.3741    0.0000 </r>
       <r>   42.3159    0.0000 </r>
      </set>
      <set comment="kpoint 7">
       <r>    3.7787    1.0000 </r>
       <r>    9.0179    1.0000 </r>
       <r>    9.9257    1.0000 </r>
       <r>    9.9815    1.0000 </r>
       <r>   10.9743    0.0000 </r>
       <r>   11.3284    0.0000 </r>
       <r>   27.4423    0.0000 </r>
       <r>   33.9232    0.0000 </r>
       <r>   35.5027    0.0000 </r>
       <r>   39.8226    0.0000 </r>
       <r>   40.2737    0.0000 </r>
       <r>   44.4487    0.0000 </r>
      </set>
      <set comment="kpoint 8">
       <r>    2.2305    1.0000 </r>
       <r>    9.4019    1.0000 </r>
       <r>    9.8103    1.0000 </r>
       <r>    9.8158    1.0000 </r>
       <r>   10.9222    0.0039 </r>
       <r>   11.1697    0.0000 </r>
       <r>   32.9134    0.0000 </r>
       <r>   35.4166    0.0000 </r>
       <r>   36.8355    0.0000 </r>
       <r>   38.4556    0.0000 </r>
       <r>   42.7006    0.0000 </r>
       <r>   44.4135    0.0000 </r>
      </set>
      <set comment="kpoint 9">
       <r>    3.0370    1.0000 </r>
       <r>    9.0583    1.0000 </r>
       <r>   10.0459    1.0000 </r>
       <r>   10.0699    1.0000 </r>
       <r>   10.6516    1.0000 </r>
       <r>   11.3103    0.0000 </r>
       <r>   31.6850    0.0000 </r>
       <r>   33.9262    0.0000 </r>
       <r>   34.5589    0.0000 </r>
       <r>   36.4716    0.0000 </r>
       <r>   43.0507    0.0000 </r>
       <r>   44.9697    0.0000 </r>
      </set>
      <set comment="kpoint 10">
       <r>    4.4900    1.0000 </r>
       <r>    8.6557    1.0000 </r>
       <r>    9.8425    1.0000 </r>
       <r>   10.3956    1.0000 </r>
       <r>   10.8460    0.3074 </r>
       <r>   11.6506    0.0000 </r>
       <r>   27.9827    0.0000 </r>
       <r>   30.5059    0.0000 </r>
       <r>   34.2012    0.0000 </r>
       <r>   36.2629    0.0000 </r>
       <r>   41.7460    0.0000 </r>
       <r>   44.6437    0.0000 </r>
      </set>
      <set comment="kpoint 11">
       <r>    6.2933    1.0000 </r>
       <r>    8.5658    1.0000 </r>
       <r>    9.3960    1.0000 </r>
       <r>   10.2607    1.0000 </r>
       <r>   11.6881    0.0000 </r>
       <r>   12.5514    0.0000 </r>
       <r>   22.3212    0.0000 </r>
       <r>   29.8346    0.0000 </r>
       <r>   31.9627    0.0000 </r>
       <r>   35.9906    0.0000 </r>
       <r>   42.7083    0.0000 </r>
       <r>   45.4189    0.0000 </r>
      </set>
      <set comment="kpoint 12">
       <r>    7.0298    1.0000 </r>
       <r>    8.7580    1.0000 </r>
       <r>    9.5191    1.0000 </r>
       <r>   10.0912    1.0000 </r>
       <r>   11.9588    0.0000 </r>
       <r>   14.1544    0.0000 </r>
       <r>   18.5006    0.0000 </r>
       <r>   29.2096    0.0000 </r>
       <r>   31.3282    0.0000 </r>
       <r>   35.6582    0.0000 </r>
       <r>   41.9346    0.0000 </r>
       <r>   45.5133    0.0000 </r>
      </set>
      <set comment="kpoint 13">
       <r>    6.7279    1.0000 </r>
       <r>    8.8166    1.0000 </r>
       <r>    9.2804    1.0000 </r>
       <r>   10.1463    1.0000 </r>
       <r>   11.5603    0.0000 </r>
       <r>   13.2717    0.0000 </r>
       <r>   20.7390    0.0000 </r>
       <r>   28.4908    0.0000 </r>
       <r>   32.7728    0.0000 </r>
       <r>   36.7976    0.0000 </r>
       <r>   41.2726    0.0000 </r>
       <r>   44.9102    0.0000 </r>
      </set>
      <set comment="kpoint 14">
       <r>    5.1387    1.0000 </r>
       <r>    8.6887    1.0000 </r>
       <r>    9.6226    1.0000 </r>
       <r>   10.3722    1.0000 </r>
       <r>   10.7998    0.7893 </r>
       <r>   12.0865    0.0000 </r>
       <r>   26.0333    0.0000 </r>
       <r>   28.6713    0.0000 </r>
       <r>   35.2099    0.0000 </r>
       <r>   38.7350    0.0000 </r>
       <r>   40.6448    0.0000 </r>
       <r>   43.9864    0.0000 </r>
      </set>
      <set comment="kpoint 15">
       <r>    3.4208    1.0000 </r>
       <r>    9.0272    1.0000 </r>
       <r>    9.9445    1.0000 </r>
       <r>   10.0877    1.0000 </r>
       <r>   10.7431    0.9920 </r>
       <r>   11.3664    0.0000 </r>
       <r>   29.6323    0.0000 </r>
       <r>   32.1685    0.0000 </r>
       <r>   36.5368    0.0000 </r>
       <r>   38.3296    0.0000 </r>
       <r>   42.2342    0.0000 </r>
       <r>   43.6671    0.0000 </r>
      </set>
      <set comment="kpoint 16">
       <r>    5.3396    1.0000 </r>
       <r>    8.1786    1.0000 </r>
       <r>    9.9938    1.0000 </r>
       <r>   10.8796    0.0732 </r>
       <r>   11.1470    0.0000 </r>
       <r>   11.6990    0.0000 </r>
       <r>   28.5204    0.0000 </r>
       <r>   30.2038    0.0000 </r>
       <r>   30.2472    0.0000 </r>
       <r>   33.0862    0.0000 </r>
       <r>   38.2564    0.0000 </r>
       <r>   50.0560    0.0000 </r>
      </set>
      <set comment="kpoint 17">
       <r>    6.5068    1.0000 </r>
       <r>    7.9009    1.0000 </r>
       <r>    9.7759    1.0000 </r>
       <r>   11.2071    0.0000 </r>
       <r>   11.7502    0.0000 </r>
       <r>   12.6634    0.0000 </r>
       <r>   25.1333    0.0000 </r>
       <r>   27.0812    0.0000 </r>
       <r>   28.1151    0.0000 </r>
       <r>   34.3558    0.0000 </r>
       <r>   39.2365    0.0000 </r>
       <r>   48.6265    0.0000 </r>
      </set>
      <set comment="kpoint 18">
       <r>    7.4027    1.0000 </r>
       <r>    7.9384    1.0000 </r>
       <r>    9.4204    1.0000 </r>
       <r>   10.9372    0.0010 </r>
       <r>   12.0099    0.0000 </r>
       <r>   15.4202    0.0000 </r>
       <r>   20.1465    0.0000 </r>
       <r>   25.0156    0.0000 </r>
       <r>   28.2575    0.0000 </r>
       <r>   34.7882    0.0000 </r>
       <r>   44.0286    0.0000 </r>
       <r>   46.8581    0.0000 </r>
      </set>
      <set comment="kpoint 19">
       <r>    7.7968    1.0000 </r>
       <r>    8.2063    1.0000 </r>
       <r>    8.9388    1.0000 </r>
       <r>   10.7367    0.9952 </r>
       <r>   11.6036    0.0000 </r>
       <r>   15.7889    0.0000 </r>
       <r>   20.0317    0.0000 </r>
       <r>   23.7135    0.0000 </r>
       <r>   30.0204    0.0000 </r>
       <r>   35.6082    0.0000 </r>
       <r>   44.3687    0.0000 </r>
       <r>   49.2305    0.0000 </r>
      </set>
      <set comment="kpoint 20">
       <r>    6.8444    1.0000 </r>
       <r>    8.5986    1.0000 </r>
       <r>    9.0246    1.0000 </r>
       <r>   10.5070    1.0000 </r>
       <r>   11.1696    0.0000 </r>
       <r>   13.4452    0.0000 </r>
       <r>   22.8361    0.0000 </r>
       <r>   25.7400    0.0000 </r>
       <r>   32.5508    0.0000 </r>
       <r>   37.3814    0.0000 </r>
       <r>   41.5678    0.0000 </r>
       <r>   46.4109    0.0000 </r>
      </set>
      <set comment="kpoint 21">
       <r>    5.3485    1.0000 </r>
       <r>    8.8202    1.0000 </r>
       <r>    9.6638    1.0000 </r>
       <r>   10.0390    1.0000 </r>
       <r>   11.2647    0.0000 </r>
       <r>   11.9517    0.0000 </r>
       <r>   23.7821    0.0000 </r>
       <r>   31.2829    0.0000 </r>
       <r>   34.8257    0.0000 </r>
       <r>   37.7679    0.0000 </r>
       <r>   41.3227    0.0000 </r>
       <r>   42.8942    0.0000 </r>
      </set>
      <set comment="kpoint 22">
       <r>    6.5404    1.0000 </r>
       <r>    7.4916    1.0000 </r>
       <r>   11.1698    0.0000 </r>
       <r>   11.7399    0.0000 </r>
       <r>   12.0596    0.0000 </r>
       <r>   12.7531    0.0000 </r>
       <r>   24.0356    0.0000 </r>
       <r>   26.1038    0.0000 </r>
       <r>   27.2297    0.0000 </r>
       <r>   32.3463    0.0000 </r>
       <r>   36.6756    0.0000 </r>
       <r>   51.3693    0.0000 </r>
      </set>
      <set comment="kpoint 23">
       <r>    6.8222    1.0000 </r>
       <r>    7.4944    1.0000 </r>
       <r>   10.7182    0.9991 </r>
       <r>   11.7250    0.0000 </r>
       <r>   12.1602    0.0000 </r>
       <r>   15.0976    0.0000 </r>
       <r>   22.0337    0.0000 </r>
       <r>   23.7195    0.0000 </r>
       <r>   26.1210    0.0000 </r>
       <r>   33.7727    0.0000 </r>
       <r>   38.5450    0.0000 </r>
       <r>   51.2667    0.0000 </r>
      </set>
      <set comment="kpoint 24">
       <r>    7.4413    1.0000 </r>
       <r>    7.8301    1.0000 </r>
       <r>    9.6023    1.0000 </r>
       <r>   11.1908    0.0000 </r>
       <r>   11.9593    0.0000 </r>
       <r>   17.2632    0.0000 </r>
       <r>   19.4524    0.0000 </r>
       <r>   22.6764    0.0000 </r>
       <r>   27.7601    0.0000 </r>
       <r>   34.6419    0.0000 </r>
       <r>   44.0958    0.0000 </r>
       <r>   47.7931    0.0000 </r>
      </set>
      <set comment="kpoint 25">
       <r>    7.4832    1.0000 </r>
       <r>    8.3627    1.0000 </r>
       <r>    9.2375    1.0000 </r>
       <r>   10.4243    1.0000 </r>
       <r>   11.8202    0.0000 </r>
       <r>   15.3637    0.0000 </r>
       <r>   18.6647    0.0000 </r>
       <r>   26.3633    0.0000 </r>
       <r>   30.3906    0.0000 </r>
       <r>   35.5904    0.0000 </r>
       <r>   43.2098    0.0000 </r>
       <r>   47.6723    0.0000 </r>
      </set>
      <set comment="kpoint 26">
       <r>    6.5717    1.0000 </r>
       <r>    9.2123    1.0000 </r>
       <r>    9.6673    1.0000 </r>
       <r>    9.8486    1.0000 </r>
       <r>   11.8913    0.0000 </r>
       <r>   12.8905    0.0000 </r>
       <r>   19.1923    0.0000 </r>
       <r>   31.0039    0.0000 </r>
       <r>   33.5427    0.0000 </r>
       <r>   36.0523    0.0000 </r>
       <r>   40.8940    0.0000 </r>
       <r>   42.9731    0.0000 </r>
      </set>
      <set comment="kpoint 27">
       <r>    6.5768    1.0000 </r>
       <r>    7.3373    1.0000 </r>
       <r>   11.6701    0.0000 </r>
       <r>   11.9472    0.0000 </r>
       <r>   12.1791    0.0000 </r>
       <r>   13.8408    0.0000 </r>
       <r>   22.0039    0.0000 </r>
       <r>   25.4515    0.0000 </r>
       <r>   26.5423    0.0000 </r>
       <r>   32.2381    0.0000 </r>
       <r>   36.4900    0.0000 </r>
       <r>   51.4561    0.0000 </r>
      </set>
      <set comment="kpoint 28">
       <r>    6.8035    1.0000 </r>
       <r>    7.6347    1.0000 </r>
       <r>   10.2905    1.0000 </r>
       <r>   11.5672    0.0000 </r>
       <r>   12.0130    0.0000 </r>
       <r>   13.8344    0.0000 </r>
       <r>   23.8733    0.0000 </r>
       <r>   24.5920    0.0000 </r>
       <r>   26.7345    0.0000 </r>
       <r>   33.9539    0.0000 </r>
       <r>   38.7421    0.0000 </r>
       <r>   50.2611    0.0000 </r>
      </set>
      <set comment="kpoint 29">
       <r>    7.0440    1.0000 </r>
       <r>    8.2259    1.0000 </r>
       <r>    9.2881    1.0000 </r>
       <r>   10.5864    1.0000 </r>
       <r>   11.9583    0.0000 </r>
       <r>   13.7078    0.0000 </r>
       <r>   21.0990    0.0000 </r>
       <r>   27.8970    0.0000 </r>
       <r>   29.3883    0.0000 </r>
       <r>   35.1665    0.0000 </r>
       <r>   43.6460    0.0000 </r>
       <r>   46.1169    0.0000 </r>
      </set>
      <set comment="kpoint 30">
       <r>    6.2216    1.0000 </r>
       <r>    7.7834    1.0000 </r>
       <r>   10.3670    1.0000 </r>
       <r>   11.3465    0.0000 </r>
       <r>   11.8097    0.0000 </r>
       <r>   11.8938    0.0000 </r>
       <r>   26.7147    0.0000 </r>
       <r>   27.4845    0.0000 </r>
       <r>   28.5100    0.0000 </r>
       <r>   32.5931    0.0000 </r>
       <r>   37.1785    0.0000 </r>
       <r>   51.2918    0.0000 </r>
      </set>
      <set comment="kpoint 31">
       <r>    5.6488    1.0000 </r>
       <r>    8.2586    1.0000 </r>
       <r>    9.6487    1.0000 </r>
       <r>   10.7793    0.9167 </r>
       <r>   11.2891    0.0000 </r>
       <r>   12.0158    0.0000 </r>
       <r>   26.4682    0.0000 </r>
       <r>   28.8940    0.0000 </r>
       <r>   31.0191    0.0000 </r>
       <r>   35.0667    0.0000 </r>
       <r>   40.1897    0.0000 </r>
       <r>   46.7391    0.0000 </r>
      </set>
      <set comment="kpoint 32">
       <r>    4.1422    1.0000 </r>
       <r>    8.6257    1.0000 </r>
       <r>   10.0976    1.0000 </r>
       <r>   10.4346    1.0000 </r>
       <r>   10.6671    1.0000 </r>
       <r>   11.4952    0.0000 </r>
       <r>   30.1490    0.0000 </r>
       <r>   32.3070    0.0000 </r>
       <r>   32.5560    0.0000 </r>
       <r>   34.3032    0.0000 </r>
       <r>   40.2316    0.0000 </r>
       <r>   47.3202    0.0000 </r>
      </set>
      <set comment="kpoint 33">
       <r>    3.0306    1.0000 </r>
       <r>    9.2195    1.0000 </r>
       <r>    9.8980    1.0000 </r>
       <r>    9.8980    1.0000 </r>
       <r>   11.0619    0.0000 </r>
       <r>   11.0619    0.0000 </r>
       <r>   29.3445    0.0000 </r>
       <r>   34.7990    0.0000 </r>
       <r>   37.8299    0.0000 </r>
       <r>   37.8299    0.0000 </r>
       <r>   42.8700    0.0000 </r>
       <r>   43.5506    0.0000 </r>
      </set>
      <set comment="kpoint 34">
       <r>    4.1512    1.0000 </r>
       <r>    8.9097    1.0000 </r>
       <r>    9.8377    1.0000 </r>
       <r>   10.1900    1.0000 </r>
       <r>   10.6904    1.0000 </r>
       <r>   11.6512    0.0000 </r>
       <r>   27.7285    0.0000 </r>
       <r>   30.3177    0.0000 </r>
       <r>   37.7083    0.0000 </r>
       <r>   39.6824    0.0000 </r>
       <r>   40.1166    0.0000 </r>
       <r>   42.4295    0.0000 </r>
      </set>
      <set comment="kpoint 35">
       <r>    5.9816    1.0000 </r>
       <r>    8.6820    1.0000 </r>
       <r>    9.3847    1.0000 </r>
       <r>   10.3493    1.0000 </r>
       <r>   10.8738    0.0989 </r>
       <r>   12.6729    0.0000 </r>
       <r>   24.3225    0.0000 </r>
       <r>   27.0658    0.0000 </r>
       <r>   35.7688    0.0000 </r>
       <r>   36.8062    0.0000 </r>
       <r>   41.6397    0.0000 </r>
       <r>   43.8580    0.0000 </r>
      </set>
      <set comment="kpoint 36">
       <r>    7.1204    1.0000 </r>
       <r>    8.7376    1.0000 </r>
       <r>    9.2838    1.0000 </r>
       <r>   10.1906    1.0000 </r>
       <r>   11.6395    0.0000 </r>
       <r>   14.1743    0.0000 </r>
       <r>   19.4912    0.0000 </r>
       <r>   27.2872    0.0000 </r>
       <r>   33.6565    0.0000 </r>
       <r>   34.1838    0.0000 </r>
       <r>   43.9518    0.0000 </r>
       <r>   44.0715    0.0000 </r>
      </set>
      <set comment="kpoint 37">
       <r>    7.0517    1.0000 </r>
       <r>    8.4917    1.0000 </r>
       <r>    9.4164    1.0000 </r>
       <r>   10.2617    1.0000 </r>
       <r>   12.0514    0.0000 </r>
       <r>   13.9355    0.0000 </r>
       <r>   19.4261    0.0000 </r>
       <r>   28.5702    0.0000 </r>
       <r>   31.6861    0.0000 </r>
       <r>   33.8734    0.0000 </r>
       <r>   44.9216    0.0000 </r>
       <r>   45.2127    0.0000 </r>
      </set>
      <set comment="kpoint 38">
       <r>    5.8908    1.0000 </r>
       <r>    8.3547    1.0000 </r>
       <r>    9.5458    1.0000 </r>
       <r>   10.4515    1.0000 </r>
       <r>   11.8828    0.0000 </r>
       <r>   11.8973    0.0000 </r>
       <r>   24.2425    0.0000 </r>
       <r>   30.5786    0.0000 </r>
       <r>   31.2657    0.0000 </r>
       <r>   34.4370    0.0000 </r>
       <r>   42.5081    0.0000 </r>
       <r>   46.1566    0.0000 </r>
      </set>
      <set comment="kpoint 39">
       <r>    4.7948    1.0000 </r>
       <r>    8.7112    1.0000 </r>
       <r>    9.7747    1.0000 </r>
       <r>   10.1650    1.0000 </r>
       <r>   11.2203    0.0000 </r>
       <r>   11.6227    0.0000 </r>
       <r>   25.7419    0.0000 </r>
       <r>   32.6655    0.0000 </r>
       <r>   33.2585    0.0000 </r>
       <r>   36.6105    0.0000 </r>
       <r>   42.9233    0.0000 </r>
       <r>   44.0756    0.0000 </r>
      </set>
      <set comment="kpoint 40">
       <r>    6.1995    1.0000 </r>
       <r>    8.4096    1.0000 </r>
       <r>    9.3033    1.0000 </r>
       <r>   10.6638    1.0000 </r>
       <r>   11.1823    0.0000 </r>
       <r>   12.6694    0.0000 </r>
       <r>   24.5455    0.0000 </r>
       <r>   27.2350    0.0000 </r>
       <r>   31.6604    0.0000 </r>
       <r>   37.8137    0.0000 </r>
       <r>   41.1360    0.0000 </r>
       <r>   44.9352    0.0000 </r>
      </set>
      <set comment="kpoint 41">
       <r>    7.5085    1.0000 </r>
       <r>    8.3989    1.0000 </r>
       <r>    8.7584    1.0000 </r>
       <r>   10.7851    0.8887 </r>
       <r>   11.5572    0.0000 </r>
       <r>   14.6190    0.0000 </r>
       <r>   21.5778    0.0000 </r>
       <r>   24.7121    0.0000 </r>
       <r>   28.9759    0.0000 </r>
       <r>   38.6971    0.0000 </r>
       <r>   41.0135    0.0000 </r>
       <r>   47.2372    0.0000 </r>
      </set>
      <set comment="kpoint 42">
       <r>    7.7781    1.0000 </r>
       <r>    8.0641    1.0000 </r>
       <r>    9.0488    1.0000 </r>
       <r>   10.7302    0.9972 </r>
       <r>   11.9147    0.0000 </r>
       <r>   16.2768    0.0000 </r>
       <r>   18.8951    0.0000 </r>
       <r>   25.6486    0.0000 </r>
       <r>   27.2087    0.0000 </r>
       <r>   37.5160    0.0000 </r>
       <r>   42.4588    0.0000 </r>
       <r>   48.2989    0.0000 </r>
      </set>
      <set comment="kpoint 43">
       <r>    6.9972    1.0000 </r>
       <r>    8.1307    1.0000 </r>
       <r>    9.1787    1.0000 </r>
       <r>   11.0237    0.0000 </r>
       <r>   11.6084    0.0000 </r>
       <r>   13.6051    0.0000 </r>
       <r>   23.2819    0.0000 </r>
       <r>   26.0049    0.0000 </r>
       <r>   28.2143    0.0000 </r>
       <r>   37.1005    0.0000 </r>
       <r>   41.3783    0.0000 </r>
       <r>   45.5408    0.0000 </r>
      </set>
      <set comment="kpoint 44">
       <r>    6.7204    1.0000 </r>
       <r>    8.0072    1.0000 </r>
       <r>    9.5705    1.0000 </r>
       <r>   10.8145    0.6508 </r>
       <r>   12.0557    0.0000 </r>
       <r>   12.9880    0.0000 </r>
       <r>   22.9601    0.0000 </r>
       <r>   27.5765    0.0000 </r>
       <r>   29.6379    0.0000 </r>
       <r>   33.5822    0.0000 </r>
       <r>   41.6640    0.0000 </r>
       <r>   48.6972    0.0000 </r>
      </set>
      <set comment="kpoint 45">
       <r>    7.2511    1.0000 </r>
       <r>    7.9169    1.0000 </r>
       <r>    9.4422    1.0000 </r>
       <r>   11.2774    0.0000 </r>
       <r>   11.9421    0.0000 </r>
       <r>   15.0597    0.0000 </r>
       <r>   22.2994    0.0000 </r>
       <r>   24.5280    0.0000 </r>
       <r>   25.6664    0.0000 </r>
       <r>   36.6391    0.0000 </r>
       <r>   41.4878    0.0000 </r>
       <r>   46.5407    0.0000 </r>
      </set>
      <set comment="kpoint 46">
       <r>    7.5890    1.0000 </r>
       <r>    8.2775    1.0000 </r>
       <r>    8.9409    1.0000 </r>
       <r>   11.0037    0.0000 </r>
       <r>   12.1496    0.0000 </r>
       <r>   18.2504    0.0000 </r>
       <r>   20.0060    0.0000 </r>
       <r>   22.6456    0.0000 </r>
       <r>   24.0650    0.0000 </r>
       <r>   39.6002    0.0000 </r>
       <r>   43.0842    0.0000 </r>
       <r>   45.1619    0.0000 </r>
      </set>
      <set comment="kpoint 47">
       <r>    7.6954    1.0000 </r>
       <r>    8.2798    1.0000 </r>
       <r>    8.7795    1.0000 </r>
       <r>   10.9658    0.0000 </r>
       <r>   11.9158    0.0000 </r>
       <r>   16.3257    0.0000 </r>
       <r>   20.6062    0.0000 </r>
       <r>   23.9313    0.0000 </r>
       <r>   25.7660    0.0000 </r>
       <r>   39.5806    0.0000 </r>
       <r>   41.4199    0.0000 </r>
       <r>   46.4162    0.0000 </r>
      </set>
      <set comment="kpoint 48">
       <r>    7.0513    1.0000 </r>
       <r>    7.6125    1.0000 </r>
       <r>   10.2729    1.0000 </r>
       <r>   11.5002    0.0000 </r>
       <r>   12.0486    0.0000 </r>
       <r>   15.9852    0.0000 </r>
       <r>   21.1831    0.0000 </r>
[...]
       </set>
       <set comment="band 5">
        <r>  0.0001  0.0000  0.0004  0.0007  0.0025  0.0310  0.0001  0.9520  0.0063 </r>
       </set>
       <set comment="band 6">
        <r>  0.0255  0.0070  0.4835  0.0010  0.0002  0.3018  0.0312  0.0150  0.0020 </r>
       </set>
       <set comment="band 7">
        <r>  0.0017  0.1378  0.0117  0.2786  0.1516  0.0082  0.2024  0.0048  0.0187 </r>
       </set>
       <set comment="band 8">
        <r>  0.3052  0.0136  0.0348  0.1051  0.0823  0.0049  0.2891  0.0004  0.0001 </r>
       </set>
       <set comment="band 9">
        <r>  0.2477  0.1819  0.0035  0.1547  0.0536  0.0013  0.0072  0.0014  0.0927 </r>
       </set>
       <set comment="band 10">
        <r>  0.0235  0.0295  0.0005  0.0690  0.6381  0.0000  0.0155  0.0010  0.0045 </r>
       </set>
       <set comment="band 11">
        <r>  0.2113  0.2535  0.0048  0.0150  0.0719  0.0000  0.1643  0.0002  0.0086 </r>
       </set>
       <set comment="band 12">
        <r>  0.0495  0.0019  0.0298  0.0002  0.0001  0.3740  0.0184  0.0022  0.0288 </r>
       </set>
      </set>
      <set comment="kpoint 50">
       <set comment="band 1">
        <r>  0.0857  0.0096  0.0491  0.0096  0.0564  0.0083  0.6275  0.0083  0.0000 </r>
       </set>
       <set comment="band 2">
        <r>  0.0005  0.0254  0.0002  0.0254  0.8101  0.0079  0.0512  0.0079  0.0000 </r>
       </set>
       <set comment="band 3">
        <r>  0.0366  0.0000  0.1756  0.0000  0.0328  0.2914  0.0874  0.2914  0.0000 </r>
       </set>
       <set comment="band 4">
        <r>  0.0000  0.0053  0.0000  0.0053  0.0000  0.1660  0.0000  0.1660  0.6335 </r>
       </set>
       <set comment="band 5">
        <r>  0.0000  0.0000  0.0000  0.0000  0.0000  0.3259  0.0000  0.3259  0.3417 </r>
       </set>
       <set comment="band 6">
        <r>  0.0746  0.0153  0.2855  0.0153  0.0046  0.1871  0.1280  0.1871  0.0000 </r>
       </set>
       <set comment="band 7">
        <r>  0.1077  0.1961  0.0014  0.1961  0.1682  0.0323  0.0662  0.0323  0.0000 </r>
       </set>
       <set comment="band 8">
        <r>  0.2249  0.0001  0.1713  0.0001  0.0189  0.0051  0.3891  0.0051  0.0000 </r>
       </set>
       <set comment="band 9">
        <r>  0.0000  0.2914  0.0000  0.2914  0.0000  0.0211  0.0000  0.0211  0.0832 </r>
       </set>
       <set comment="band 10">
        <r>  0.1374  0.0013  0.0199  0.0013  0.6144  0.0001  0.0376  0.0001  0.0000 </r>
       </set>
       <set comment="band 11">
        <r>  0.2062  0.0995  0.0301  0.0995  0.1926  0.0053  0.1118  0.0053  0.0000 </r>
       </set>
       <set comment="band 12">
        <r>  0.0000  0.0198  0.0000  0.0197  0.0000  0.1125  0.0000  0.1123  0.2121 </r>
       </set>
      </set>
      <set comment="kpoint 51">
       <set comment="band 1">
        <r>  0.4719  0.0514  0.0514  0.0514  0.0544  0.0544  0.0000  0.0544  0.0000 </r>
       </set>
       <set comment="band 2">
        <r>  0.0206  0.0545  0.0545  0.0545  0.2372  0.2372  0.0000  0.2372  0.0000 </r>
       </set>
       <set comment="band 3">
        <r>  0.0000  0.0006  0.0000  0.0004  0.0067  0.2288  0.0078  0.3096  0.4168 </r>
       </set>
       <set comment="band 4">
        <r>  0.0000  0.0001  0.0007  0.0003  0.3567  0.1346  0.4168  0.0538  0.0078 </r>
       </set>
       <set comment="band 5">
        <r>  0.0000  0.0000  0.0010  0.0008  0.2370  0.1914  0.4539  0.0028  0.0966 </r>
       </set>
       <set comment="band 6">
        <r>  0.0000  0.0012  0.0002  0.0004  0.0504  0.0961  0.0966  0.2846  0.4539 </r>
       </set>
       <set comment="band 7">
        <r>  0.1752  0.0842  0.0842  0.0842  0.1374  0.1374  0.0000  0.1374  0.0000 </r>
       </set>
       <set comment="band 8">
        <r>  0.0097  0.0032  0.0032  0.0032  0.0210  0.0210  0.0000  0.0210  0.0000 </r>
       </set>
       <set comment="band 9">
        <r>  0.0000  0.2474  0.0324  0.1018  0.0321  0.1010  0.0117  0.2455  0.0799 </r>
       </set>
       <set comment="band 10">
        <r>  0.0000  0.0070  0.2219  0.1526  0.2203  0.1514  0.0799  0.0069  0.0117 </r>
       </set>
       <set comment="band 11">
        <r>  0.0000  0.0753  0.0536  0.0043  0.0090  0.0007  0.3877  0.0127  0.2551 </r>
       </set>
       <set comment="band 12">
        <r>  0.0000  0.0135  0.0352  0.0845  0.0059  0.0142  0.2551  0.0023  0.3877 </r>
       </set>
      </set>
      <set comment="kpoint 52">
       <set comment="band 1">
        <r>  0.3477  0.0815  0.0815  0.0038  0.0688  0.1516  0.0032  0.0688  0.0097 </r>
       </set>
       <set comment="band 2">
        <r>  0.0170  0.0570  0.0570  0.0806  0.2951  0.0159  0.0165  0.2951  0.0495 </r>
       </set>
       <set comment="band 3">
        <r>  0.0011  0.0023  0.0023  0.0026  0.0618  0.3434  0.1203  0.0618  0.3609 </r>
       </set>
       <set comment="band 4">
        <r>  0.0000  0.0006  0.0006  0.0000  0.1909  0.0000  0.4389  0.1909  0.1463 </r>
       </set>
       <set comment="band 5">
        <r>  0.0000  0.0010  0.0010  0.0000  0.2988  0.0000  0.2855  0.2988  0.0952 </r>
       </set>
       <set comment="band 6">
        <r>  0.0357  0.0256  0.0256  0.0066  0.0070  0.4512  0.1028  0.0070  0.3083 </r>
       </set>
       <set comment="band 7">
        <r>  0.2028  0.0459  0.0459  0.1574  0.1488  0.0931  0.0040  0.1488  0.0121 </r>
       </set>
       <set comment="band 8">
        <r>  0.0470  0.0284  0.0284  0.1762  0.0892  0.0677  0.0324  0.0892  0.0971 </r>
       </set>
       <set comment="band 9">
        <r>  0.0355  0.0982  0.0982  0.0729  0.0021  0.0004  0.0037  0.0021  0.0111 </r>
       </set>
       <set comment="band 10">
        <r>  0.0000  0.1783  0.1783  0.0000  0.0009  0.0000  0.3601  0.0009  0.1200 </r>
       </set>
       <set comment="band 11">
        <r>  0.0000  0.0757  0.0757  0.0000  0.2690  0.0000  0.1897  0.2690  0.0632 </r>
       </set>
       <set comment="band 12">
        <r>  0.0627  0.0090  0.0090  0.0255  0.0158  0.1409  0.0627  0.0158  0.1880 </r>
       </set>
      </set>
      <set comment="kpoint 53">
       <set comment="band 1">
        <r>  0.1658  0.1000  0.1000  0.0015  0.0272  0.3941  0.0092  0.0272  0.0275 </r>
       </set>
       <set comment="band 2">
        <r>  0.0005  0.0308  0.0308  0.0266  0.0673  0.1037  0.1418  0.0673  0.4254 </r>
       </set>
       <set comment="band 3">
        <r>  0.0035  0.0008  0.0008  0.0791  0.3156  0.1174  0.0255  0.3156  0.0764 </r>
       </set>
       <set comment="band 4">
        <r>  0.0000  0.0042  0.0042  0.0000  0.0455  0.0000  0.6502  0.0455  0.2167 </r>
       </set>
       <set comment="band 5">
        <r>  0.0000  0.0003  0.0003  0.0000  0.4453  0.0000  0.0677  0.4453  0.0226 </r>
       </set>
       <set comment="band 6">
        <r>  0.1195  0.0824  0.0824  0.0052  0.0002  0.3886  0.0599  0.0002  0.1797 </r>
       </set>
       <set comment="band 7">
        <r>  0.1061  0.0102  0.0102  0.3487  0.1746  0.0258  0.0072  0.1746  0.0217 </r>
       </set>
       <set comment="band 8">
        <r>  0.2222  0.0463  0.0463  0.1137  0.0372  0.0630  0.0507  0.0372  0.1520 </r>
       </set>
       <set comment="band 9">
        <r>  0.0000  0.2234  0.2234  0.0000  0.0009  0.0000  0.2840  0.0009  0.0947 </r>
       </set>
       <set comment="band 10">
        <r>  0.1038  0.0638  0.0638  0.0048  0.0000  0.1474  0.0224  0.0000  0.0673 </r>
       </set>
       <set comment="band 11">
        <r>  0.0139  0.0001  0.0001  0.0800  0.0492  0.0323  0.0070  0.0492  0.0211 </r>
       </set>
       <set comment="band 12">
        <r>  0.0000  0.0128  0.0128  0.0000  0.3512  0.0000  0.0439  0.3512  0.0146 </r>
       </set>
      </set>
      <set comment="kpoint 54">
       <set comment="band 1">
        <r>  0.0485  0.0008  0.0008  0.0063  0.0102  0.5067  0.0833  0.0102  0.2500 </r>
       </set>
       <set comment="band 2">
        <r>  0.0055  0.0827  0.0827  0.0002  0.0031  0.2557  0.1087  0.0031  0.3261 </r>
       </set>
       <set comment="band 3">
        <r>  0.0013  0.0012  0.0012  0.1542  0.3643  0.0306  0.0014  0.3643  0.0042 </r>
       </set>
       <set comment="band 4">
        <r>  0.0000  0.0058  0.0058  0.0000  0.0366  0.0000  0.6638  0.0366  0.2213 </r>
       </set>
       <set comment="band 5">
        <r>  0.0000  0.0001  0.0001  0.0000  0.4566  0.0000  0.0551  0.4566  0.0184 </r>
       </set>
       <set comment="band 6">
        <r>  0.0737  0.1527  0.1527  0.0703  0.0148  0.2067  0.0402  0.0148  0.1207 </r>
       </set>
       <set comment="band 7">
        <r>  0.1205  0.0083  0.0083  0.3702  0.1630  0.0481  0.0002  0.1630  0.0007 </r>
       </set>
       <set comment="band 8">
        <r>  0.3283  0.0189  0.0189  0.0653  0.0105  0.0342  0.0800  0.0105  0.2399 </r>
       </set>
       <set comment="band 9">
        <r>  0.0000  0.2675  0.2675  0.0000  0.0017  0.0000  0.1644  0.0017  0.0548 </r>
       </set>
       <set comment="band 10">
        <r>  0.1416  0.0261  0.0261  0.0032  0.0000  0.3793  0.0203  0.0000  0.0610 </r>
       </set>
       <set comment="band 11">
        <r>  0.2356  0.0990  0.0990  0.0107  0.0013  0.3310  0.0181  0.0013  0.0543 </r>
       </set>
       <set comment="band 12">
        <r>  0.0000  0.0059  0.0060  0.0000  0.2594  0.0000  0.0331  0.2591  0.0111 </r>
       </set>
      </set>
      <set comment="kpoint 55">
       <set comment="band 1">
        <r>  0.2643  0.0086  0.0879  0.0086  0.1669  0.1437  0.0298  0.1437  0.0000 </r>
       </set>
       <set comment="band 2">
        <r>  0.0123  0.0842  0.0598  0.0842  0.1998  0.0469  0.3253  0.0469  0.0000 </r>
       </set>
       <set comment="band 3">
        <r>  0.0134  0.0094  0.0288  0.0094  0.4370  0.0754  0.3013  0.0754  0.0000 </r>
       </set>
       <set comment="band 4">
        <r>  0.0000  0.0028  0.0000  0.0028  0.0000  0.2238  0.0000  0.2238  0.5153 </r>
       </set>
       <set comment="band 5">
        <r>  0.0000  0.0002  0.0000  0.0002  0.0000  0.2660  0.0000  0.2660  0.4598 </r>
       </set>
       <set comment="band 6">
        <r>  0.0353  0.0314  0.0749  0.0314  0.0943  0.1827  0.3057  0.1827  0.0000 </r>
       </set>
       <set comment="band 7">
        <r>  0.2690  0.0905  0.0134  0.0905  0.1771  0.1133  0.0088  0.1133  0.0000 </r>
       </set>
       <set comment="band 8">
        <r>  0.0031  0.0001  0.0837  0.0001  0.0827  0.0074  0.2685  0.0074  0.0000 </r>
       </set>
       <set comment="band 9">
        <r>  0.0000  0.2417  0.0000  0.2417  0.0000  0.0794  0.0000  0.0794  0.1379 </r>
       </set>
       <set comment="band 10">
        <r>  0.1072  0.0400  0.2506  0.0400  0.1460  0.0060  0.0501  0.0060  0.0000 </r>
       </set>
       <set comment="band 11">
        <r>  0.0196  0.0003  0.0139  0.0003  0.2864  0.0216  0.4212  0.0216  0.0000 </r>
       </set>
       <set comment="band 12">
        <r>  0.0000  0.0539  0.0000  0.0539  0.0000  0.0776  0.0000  0.0776  0.5214 </r>
       </set>
      </set>
      <set comment="kpoint 56">
       <set comment="band 1">
        <r>  0.1399  0.0178  0.0808  0.0064  0.2342  0.2448  0.0632  0.0953  0.0018 </r>
       </set>
       <set comment="band 2">
        <r>  0.0001  0.0744  0.0244  0.0521  0.1005  0.0285  0.4531  0.0257  0.1113 </r>
       </set>
       <set comment="band 3">
        <r>  0.0106  0.0071  0.0448  0.0396  0.3962  0.3283  0.0659  0.0042  0.0392 </r>
       </set>
       <set comment="band 4">
        <r>  0.0000  0.0015  0.0118  0.0023  0.0324  0.0104  0.1480  0.2427  0.5167 </r>
       </set>
       <set comment="band 5">
        <r>  0.0006  0.0003  0.0024  0.0017  0.0867  0.0628  0.0640  0.5475  0.2205 </r>
       </set>
       <set comment="band 6">
        <r>  0.0663  0.0678  0.1548  0.0451  0.0216  0.2983  0.1615  0.0114  0.0713 </r>
       </set>
       <set comment="band 7">
        <r>  0.2681  0.0372  0.0000  0.1753  0.1965  0.0729  0.0122  0.1054  0.0118 </r>
       </set>
       <set comment="band 8">
        <r>  0.0362  0.0954  0.0037  0.1759  0.0898  0.0542  0.1436  0.0184  0.1116 </r>
       </set>
       <set comment="band 9">
        <r>  0.1584  0.0014  0.2668  0.0667  0.0007  0.0199  0.1873  0.0260  0.0289 </r>
       </set>
       <set comment="band 10">
        <r>  0.0043  0.2500  0.0392  0.0328  0.1002  0.0051  0.0009  0.0029  0.0002 </r>
       </set>
       <set comment="band 11">
        <r>  0.0552  0.0202  0.0006  0.0052  0.2621  0.1547  0.0729  0.0369  0.2274 </r>
       </set>
       <set comment="band 12">
        <r>  0.0053  0.0374  0.0193  0.0009  0.0763  0.0702  0.2426  0.0243  0.0369 </r>
       </set>
      </set>
      <set comment="kpoint 57">
       <set comment="band 1">
        <r>  0.0008  0.0722  0.0200  0.0031  0.0003  0.0001  0.4470  0.0000  0.3204 </r>
       </set>
       <set comment="band 2">
        <r>  0.0376  0.0075  0.0761  0.0063  0.0366  0.7336  0.0001  0.0126  0.0116 </r>
       </set>
       <set comment="band 3">
        <r>  0.0007  0.0010  0.0050  0.1258  0.6740  0.0515  0.0048  0.0618  0.0011 </r>
       </set>
       <set comment="band 4">
        <r>  0.0078  0.0010  0.0073  0.0015  0.0004  0.0035  0.3879  0.0276  0.5293 </r>
       </set>
       <set comment="band 5">
        <r>  0.0007  0.0000  0.0000  0.0026  0.1101  0.0060  0.0111  0.8437  0.0146 </r>
       </set>
       <set comment="band 6">
        <r>  0.0649  0.0993  0.2359  0.0574  0.0233  0.2141  0.1025  0.0006  0.0540 </r>
       </set>
       <set comment="band 7">
        <r>  0.1139  0.0000  0.0209  0.3841  0.2396  0.0426  0.0003  0.0698  0.0046 </r>
       </set>
       <set comment="band 8">
        <r>  0.2636  0.0814  0.0001  0.0740  0.0234  0.0325  0.1105  0.0038  0.2104 </r>
       </set>
       <set comment="band 9">
        <r>  0.1796  0.0760  0.2497  0.0031  0.0004  0.0657  0.1887  0.0019  0.0063 </r>
       </set>
       <set comment="band 10">
        <r>  0.0341  0.1553  0.0348  0.0021  0.0003  0.3130  0.0026  0.0004  0.0715 </r>
       </set>
       <set comment="band 11">
        <r>  0.0052  0.0189  0.0004  0.0466  0.4227  0.0345  0.0124  0.0144  0.0169 </r>
       </set>
       <set comment="band 12">
        <r>  0.1185  0.2571  0.0250  0.0005  0.0426  0.2629  0.0329  0.0001  0.0530 </r>
       </set>
      </set>
      <set comment="kpoint 58">
       <set comment="band 1">
        <r>  0.0888  0.0024  0.0392  0.0024  0.4779  0.0824  0.1342  0.0824  0.0000 </r>
       </set>
       <set comment="band 2">
        <r>  0.0000  0.0740  0.0089  0.0740  0.1135  0.0087  0.5755  0.0087  0.0000 </r>
       </set>
       <set comment="band 3">
        <r>  0.0091  0.0085  0.1176  0.0085  0.2163  0.2605  0.0462  0.2605  0.0000 </r>
       </set>
       <set comment="band 4">
        <r>  0.0000  0.0050  0.0000  0.0050  0.0000  0.1383  0.0000  0.1383  0.6821 </r>
       </set>
       <set comment="band 5">
        <r>  0.0000  0.0002  0.0000  0.0002  0.0000  0.3542  0.0000  0.3542  0.2814 </r>
       </set>
       <set comment="band 6">
        <r>  0.0081  0.0919  0.2226  0.0919  0.0669  0.0923  0.2003  0.0923  0.0000 </r>
       </set>
       <set comment="band 7">
        <r>  0.3169  0.0655  0.0407  0.0655  0.1891  0.0983  0.0070  0.0983  0.0000 </r>
       </set>
       <set comment="band 8">
        <r>  0.1574  0.0145  0.1973  0.0145  0.0239  0.0265  0.3154  0.0265  0.0000 </r>
       </set>
       <set comment="band 9">
        <r>  0.0000  0.2637  0.0000  0.2637  0.0000  0.0149  0.0000  0.0149  0.2016 </r>
       </set>
       <set comment="band 10">
        <r>  0.1366  0.0292  0.0307  0.0292  0.3403  0.0001  0.0486  0.0001  0.0000 </r>
       </set>
       <set comment="band 11">
        <r>  0.0006  0.0556  0.0322  0.0556  0.3593  0.0047  0.0212  0.0047  0.0000 </r>
       </set>
       <set comment="band 12">
        <r>  0.0000  0.0298  0.0000  0.0299  0.0000  0.1896  0.0000  0.1896  0.2419 </r>
       </set>
      </set>
      <set comment="kpoint 59">
       <set comment="band 1">
        <r>  0.2446  0.0093  0.0093  0.0093  0.2036  0.2036  0.0000  0.2036  0.0000 </r>
       </set>
       <set comment="band 2">
        <r>  0.0000  0.0001  0.0000  0.0000  0.1036  0.0436  0.2069  0.2679  0.3455 </r>
       </set>
       <set comment="band 3">
        <r>  0.0000  0.0000  0.0001  0.0001  0.1731  0.2331  0.3455  0.0089  0.2069 </r>
       </set>
       <set comment="band 4">
        <r>  0.0284  0.1966  0.1966  0.1966  0.0428  0.0428  0.0000  0.0428  0.0000 </r>
       </set>
       <set comment="band 5">
        <r>  0.0000  0.0001  0.0001  0.0003  0.0750  0.3672  0.0832  0.1270  0.3377 </r>
       </set>
       <set comment="band 6">
        <r>  0.0000  0.0002  0.0002  0.0000  0.3045  0.0122  0.3377  0.2525  0.0832 </r>
       </set>
       <set comment="band 7">
        <r>  0.3623  0.0252  0.0252  0.0252  0.1594  0.1594  0.0000  0.1594  0.0000 </r>
       </set>
       <set comment="band 8">
        <r>  0.0009  0.0096  0.0096  0.0096  0.0027  0.0027  0.0000  0.0027  0.0000 </r>
       </set>
       <set comment="band 9">
        <r>  0.0000  0.2023  0.0310  0.3195  0.0042  0.0438  0.0016  0.0278  0.0170 </r>
       </set>
       <set comment="band 10">
        <r>  0.0000  0.1662  0.3375  0.0490  0.0463  0.0067  0.0170  0.0228  0.0016 </r>
       </set>
       <set comment="band 11">
        <r>  0.0000  0.0083  0.0028  0.0181  0.0290  0.1843  0.1096  0.0843  0.6408 </r>
       </set>
       <set comment="band 12">
        <r>  0.0000  0.0112  0.0166  0.0014  0.1694  0.0141  0.6408  0.1141  0.1096 </r>
       </set>
      </set>
      <set comment="kpoint 60">
       <set comment="band 1">
        <r>  0.1795  0.0105  0.0105  0.0103  0.2042  0.2806  0.0000  0.2042  0.0000 </r>
       </set>
       <set comment="band 2">
        <r>  0.0002  0.0565  0.0565  0.0267  0.0076  0.0562  0.1684  0.0076  0.5052 </r>
       </set>
       <set comment="band 3">
        <r>  0.0009  0.0782  0.0782  0.1079  0.1479  0.3190  0.0013  0.1479  0.0039 </r>
       </set>
       <set comment="band 4">
        <r>  0.0000  0.0016  0.0016  0.0000  0.1824  0.0000  0.4490  0.1824  0.1497 </r>
       </set>
       <set comment="band 5">
        <r>  0.0000  0.0002  0.0002  0.0000  0.3099  0.0000  0.2770  0.3099  0.0923 </r>
       </set>
       <set comment="band 6">
        <r>  0.0075  0.0923  0.0923  0.0901  0.0331  0.2527  0.0739  0.0331  0.2216 </r>
       </set>
       <set comment="band 7">
        <r>  0.3945  0.0000  0.0000  0.0438  0.1675  0.1495  0.0005  0.1675  0.0016 </r>
       </set>
       <set comment="band 8">
        <r>  0.0271  0.0077  0.0077  0.1674  0.0419  0.0493  0.0553  0.0419  0.1658 </r>
       </set>
       <set comment="band 9">
        <r>  0.0714  0.0833  0.0833  0.1414  0.0067  0.0420  0.0000  0.0067  0.0000 </r>
       </set>
       <set comment="band 10">
        <r>  0.0000  0.2329  0.2329  0.0000  0.0208  0.0000  0.2012  0.0208  0.0671 </r>
       </set>
       <set comment="band 11">
        <r>  0.0000  0.0580  0.0580  0.0000  0.1838  0.0000  0.3230  0.1838  0.1077 </r>
       </set>
       <set comment="band 12">
        <r>  0.0567  0.0003  0.0003  0.0009  0.0000  0.3052  0.1062  0.0000  0.3187 </r>
       </set>
      </set>
     </set>
    </set>
   </array>
  </projected>
 </calculation>
 <structure name="finalpos" >
  <crystal>
   <varray name="basis" >
    <v>       0.00000000       1.73672488       1.73672488 </v>
    <v>       1.73672488       0.00000000       1.73672488 </v>
    <v>       1.73672488       1.73672488       0.00000000 </v>
   </varray>
   <i name="volume">     10.47666541 </i>
   <varray name="rec_basis" >
    <v>      -0.28789822       0.28789822       0.28789822 </v>
    <v>       0.28789822      -0.28789822       0.28789822 </v>
    <v>       0.28789822       0.28789822      -0.28789822 </v>
   </varray>
  </crystal>
  <varray name="positions" >
   <v>       0.00000000       0.00000000       0.00000000 </v>
  </varray>
 </structure>
</modeling>
