Pt-hcc                                  
   1.00000000000000     
     2.729404    0.000000   -0.000000
    -1.364702    2.363733    0.000000
     0.000000    0.000000    4.734744
   Pt
     2
Direct
  0.000000  0.000000  0.000000
  0.333333  0.666667  0.500000
 
   40   40   72
  276.61      276.27      274.66      270.16      260.78      244.91      222.06      193.20      160.67      127.60    
  97.085      71.436      51.738      37.794      28.468      22.165      17.863      15.074      13.375      12.476    
  12.192      12.476      13.375      15.075      17.863      22.167      28.465      37.796      51.738      71.437    
  97.084      127.60      160.67      193.20      222.06      244.91      260.78      270.16      274.66      276.27    
  276.27      276.27      275.29      272.20      265.17      252.37      232.75      206.57      175.57      142.53    
  110.65      82.646      60.197      43.691      32.397      24.859      19.684      16.228      14.051      12.791    
  12.221      12.219      12.793      14.050      16.230      19.682      24.861      32.398      43.690      60.198    
  82.645      110.65      142.53      175.57      206.57      232.75      252.37      265.17      272.20      275.29    
  274.66      275.30      274.66      272.20      266.51      255.85      238.92      215.43      186.50      154.45    
  122.28      92.896      68.390      49.683      36.484      27.632      21.595      17.467      14.789      13.155    
  12.288      12.015      12.288      13.155      14.789      17.467      21.596      27.629      36.486      49.682    
  68.391      92.895      122.28      154.45      186.50      215.43      238.92      255.85      266.51      272.20    
  270.16      272.22      272.22      270.16      265.17      255.85      240.92      219.81      193.13      162.69    
  131.16      101.36      75.641      55.302      40.484      30.360      23.497      18.739      15.563      13.555    
  12.390      11.860      11.859      12.391      13.554      15.564      18.737      23.500      30.358      40.485    
  55.301      75.640      101.36      131.16      162.69      193.13      219.81      240.92      255.85      265.17    
  260.78      265.20      266.55      265.20      260.78      252.37      238.92      219.81      195.35      166.89    
  136.70      107.39      81.321      60.054      44.080      32.891      25.285      19.974      16.338      13.971    
  12.520      11.746      11.503      11.746      12.521      13.970      16.339      19.973      25.285      32.891    
  44.079      60.055      81.320      107.39      136.70      166.89      195.35      219.81      238.92      252.37    
  244.91      252.40      255.91      255.91      252.41      244.91      232.75      215.43      193.13      166.89    
  138.58      110.51      84.938      63.500      46.939      35.035      26.842      21.093      17.069      14.381    
  12.667      11.668      11.209      11.209      11.668      12.668      14.380      17.070      21.094      26.841    
  35.036      46.938      63.500      84.937      110.51      138.58      166.89      193.13      215.43      232.75    
  222.06      232.78      238.98      240.99      238.98      232.78      222.06      206.57      186.50      162.69    
  136.70      110.51      86.178      65.310      48.781      36.598      28.056      22.017      17.708      14.758    
  12.817      11.619      10.970      10.768      10.970      11.619      12.817      14.758      17.707      22.018    
  28.055      36.599      48.781      65.310      86.178      110.51      136.70      162.69      186.50      206.57    
  193.20      206.59      215.48      219.88      219.88      215.48      206.59      193.20      175.57      154.45    
  131.16      107.39      84.938      65.310      49.417      37.423      28.832      22.677      18.207      15.072    
  12.955      11.590      10.782      10.408      10.408      10.782      11.591      12.955      15.073      18.206    
  22.678      28.832      37.423      49.417      65.310      84.937      107.39      131.16      154.45      175.57    
  160.67      175.57      186.52      193.17      195.39      193.17      186.52      175.57      160.67      142.53    
  122.28      101.36      81.321      63.500      48.781      37.423      29.098      23.022      18.523      15.299    
  13.066      11.577      10.639      10.125      9.9608      10.125      10.639      11.577      13.066      15.299    
  18.523      23.021      29.099      37.423      48.781      63.500      81.320      101.36      122.28      142.53    
  127.60      142.52      154.44      162.69      166.89      166.89      162.69      154.44      142.52      127.60    
  110.65      92.895      75.642      60.054      46.939      36.598      28.831      23.022      18.632      15.418    
  13.139      11.571      10.538      9.9132      9.6190      9.6189      9.9132      10.538      11.572      13.138    
  15.418      18.632      23.021      28.832      36.599      46.938      60.055      75.640      92.895      110.65    
  97.084      110.62      122.23      131.10      136.64      138.52      136.64      131.10      122.23      110.62    
  97.084      82.646      68.391      55.300      44.080      35.035      28.056      22.678      18.523      15.418    
  13.163      11.570      10.478      9.7721      9.3756      9.2485      9.3756      9.7723      10.477      11.570    
  13.163      15.418      18.523      22.678      28.055      35.036      44.079      55.301      68.391      82.645    
  71.437      82.602      92.818      101.26      107.28      110.40      110.40      107.28      101.26      92.818    
  82.603      71.437      60.197      49.682      40.486      32.889      26.842      22.017      18.206      15.299    
  13.138      11.570      10.458      9.7011      9.2299      9.0037      9.0038      9.2297      9.7015      10.458    
  11.570      13.138      15.299      18.206      22.018      26.841      32.891      40.485      49.682      60.198    
  51.738      60.149      68.299      75.513      81.169      84.771      86.008      84.771      81.170      75.514    
  68.299      60.148      51.737      43.692      36.485      30.358      25.287      21.092      17.709      15.072    
  13.066      11.572      10.478      9.7013      9.1810      8.8823      8.7840      8.8824      9.1807      9.7015    
  10.477      11.572      13.066      15.073      17.707      21.094      25.285      30.358      36.486      43.690    
  37.796      43.643      49.587      55.165      59.884      63.306      65.104      65.104      63.305      59.882    
  55.163      49.588      43.645      37.796      32.395      27.632      23.499      19.972      17.071      14.757    
  12.955      11.577      10.538      9.7717      9.2301      8.8819      8.7116      8.7113      8.8824      9.2297    
  9.7723      10.538      11.577      12.955      14.758      17.070      19.973      23.500      27.629      32.398    
  28.465      32.357      36.399      40.353      43.908      46.739      48.562      49.192      48.562      46.739    
  43.910      40.355      36.398      32.354      28.467      24.863      21.593      18.739      16.339      14.380    
  12.817      11.590      10.639      9.9132      9.3758      9.0038      8.7842      8.7116      8.7840      9.0038    
  9.3756      9.9132      10.639      11.591      12.817      14.380      16.339      18.737      21.596      24.861    
  22.167      24.827      27.555      30.245      32.740      34.852      36.391      37.203      37.203      36.390    
  34.850      32.738      30.244      27.558      24.828      22.164      19.682      17.468      15.563      13.970    
  12.668      11.618      10.782      10.125      9.6190      9.2482      9.0038      8.8819      8.8823      9.0037    
  9.2485      9.6189      10.125      10.782      11.619      12.668      13.970      15.564      17.467      19.682    
  17.863      19.655      21.537      23.407      25.158      26.681      27.871      28.632      28.894      28.632    
  27.872      26.682      25.160      23.407      21.534      19.655      17.865      16.229      14.788      13.554    
  12.521      11.668      10.971      10.408      9.9611      9.6190      9.3758      9.2301      9.1810      9.2299    
  9.3756      9.6190      9.9608      10.408      10.970      11.668      12.521      13.554      14.789      16.230    
  15.075      16.209      17.421      18.664      19.872      20.966      21.869      22.513      22.849      22.849    
  22.513      21.868      20.964      19.871      18.666      17.423      16.208      15.073      14.051      13.156    
  12.390      11.746      11.209      10.767      10.408      10.125      9.9132      9.7717      9.7013      9.7011    
  9.7721      9.9132      10.125      10.408      10.768      11.209      11.746      12.391      13.155      14.050    
  13.375      14.034      14.754      15.508      16.261      16.971      17.590      18.073      18.380      18.485    
  18.380      18.074      17.592      16.972      16.261      15.507      14.753      14.034      13.376      12.792    
  12.287      11.860      11.503      11.209      10.971      10.782      10.639      10.538      10.478      10.458    
  10.478      10.538      10.639      10.782      10.970      11.209      11.503      11.859      12.288      12.793    
  12.476      12.780      13.127      13.511      13.911      14.306      14.669      14.972      15.190      15.305    
  15.305      15.190      14.971      14.668      14.306      13.911      13.511      13.128      12.779      12.475    
  12.220      12.016      11.860      11.746      11.668      11.618      11.590      11.577      11.572      11.570    
  11.570      11.571      11.577      11.590      11.619      11.668      11.746      11.860      12.015      12.219    
  12.192      12.208      12.265      12.356      12.475      12.611      12.750      12.880      12.985      13.054    
  13.078      13.054      12.986      12.881      12.751      12.611      12.475      12.356      12.264      12.208    
  12.193      12.220      12.287      12.390      12.521      12.668      12.817      12.955      13.066      13.138    
  13.163      13.139      13.066      12.955      12.817      12.667      12.520      12.390      12.288      12.221    
  12.476      12.209      11.993      11.829      11.708      11.623      11.569      11.536      11.519      11.512    
  11.509      11.509      11.511      11.519      11.536      11.568      11.623      11.707      11.829      11.994    
  12.208      12.475      12.792      13.156      13.554      13.970      14.380      14.757      15.072      15.299    
  15.418      15.418      15.299      15.072      14.758      14.381      13.971      13.555      13.155      12.791    
  13.375      12.778      12.265      11.829      11.467      11.170      10.929      10.741      10.597      10.496    
  10.437      10.417      10.437      10.497      10.597      10.741      10.930      11.170      11.467      11.829    
  12.264      12.779      13.376      14.051      14.788      15.563      16.339      17.071      17.709      18.206    
  18.523      18.632      18.523      18.207      17.708      17.069      16.338      15.563      14.789      14.051    
  15.074      14.035      13.127      12.355      11.708      11.170      10.730      10.373      10.093      9.8844    
  9.7454      9.6760      9.6756      9.7452      9.8841      10.093      10.373      10.729      11.170      11.707    
  12.356      13.128      14.034      15.073      16.229      17.468      18.739      19.972      21.092      22.017    
  22.678      23.022      23.022      22.677      22.017      21.093      19.974      18.739      17.467      16.228    
  17.863      16.207      14.754      13.511      12.474      11.623      10.929      10.373      9.9318      9.5957    
  9.3576      9.2149      9.1678      9.2152      9.3578      9.5959      9.9322      10.373      10.930      11.623    
  12.475      13.511      14.753      16.208      17.865      19.682      21.593      23.499      25.287      26.842    
  28.056      28.831      29.098      28.832      28.056      26.842      25.285      23.497      21.595      19.684    
  22.165      19.657      17.421      15.507      13.912      12.610      11.569      10.741      10.093      9.5962    
  9.2331      8.9945      8.8753      8.8756      8.9943      9.2331      9.5959      10.093      10.741      11.568    
  12.611      13.911      15.507      17.423      19.655      22.164      24.863      27.632      30.358      32.889    
  35.035      36.598      37.423      37.423      36.598      35.035      32.891      30.360      27.632      24.859    
  28.468      24.825      21.536      18.667      16.260      14.307      12.750      11.536      10.597      9.8840    
  9.3577      8.9941      8.7803      8.7093      8.7801      8.9943      9.3578      9.8841      10.597      11.536    
  12.751      14.306      16.261      18.666      21.534      24.828      28.467      32.395      36.485      40.486    
  44.080      46.939      48.781      49.417      48.781      46.939      44.080      40.484      36.484      32.397    
  37.794      32.356      27.558      23.405      19.873      16.971      14.669      12.881      11.519      10.497    
  9.7452      9.2155      8.8753      8.7093      8.7093      8.8756      9.2152      9.7452      10.497      11.519    
  12.881      14.668      16.972      19.871      23.407      27.558      32.354      37.796      43.692      49.682    
  55.300      60.054      63.500      65.310      65.310      63.500      60.054      55.302      49.683      43.691    
  51.738      43.644      36.396      30.247      25.158      20.965      17.591      14.971      12.986      11.511    
  10.437      9.6753      9.1681      8.8753      8.7803      8.8753      9.1678      9.6756      10.437      11.511    
  12.986      14.971      17.592      20.964      25.160      30.244      36.398      43.645      51.737      60.197    
  68.391      75.642      81.321      84.938      86.178      84.938      81.321      75.641      68.390      60.197    
  71.436      60.148      49.589      40.352      32.739      26.682      21.868      18.074      15.189      13.055    
  11.509      10.418      9.6753      9.2155      8.9941      8.9945      9.2149      9.6760      10.417      11.509    
  13.054      15.190      18.074      21.868      26.682      32.738      40.355      49.588      60.148      71.437    
  82.646      92.895      101.36      107.39      110.51      110.51      107.39      101.36      92.896      82.646    
  97.085      82.603      68.298      55.165      43.910      34.850      27.872      22.512      18.381      15.304    
  13.078      11.509      10.437      9.7452      9.3577      9.2331      9.3576      9.7454      10.437      11.509    
  13.078      15.305      18.380      22.513      27.872      34.850      43.910      55.163      68.299      82.603    
  97.084      110.65      122.28      131.16      136.70      138.58      136.70      131.16      122.28      110.65    
  127.60      110.62      92.819      75.513      59.883      46.740      36.390      28.633      22.848      18.486    
  15.304      13.055      11.511      10.497      9.8840      9.5962      9.5957      9.8844      10.496      11.512    
  13.054      15.305      18.485      22.849      28.632      36.390      46.739      59.882      75.514      92.818    
  110.62      127.60      142.53      154.45      162.69      166.89      166.89      162.69      154.45      142.53    
  160.67      142.52      122.23      101.26      81.169      63.305      48.563      37.202      28.894      22.848    
  18.381      15.189      12.986      11.519      10.597      10.093      9.9318      10.093      10.597      11.519    
  12.985      15.190      18.380      22.849      28.894      37.203      48.562      63.305      81.170      101.26    
  122.23      142.52      160.67      175.57      186.50      193.13      195.35      193.13      186.50      175.57    
  193.20      175.57      154.44      131.10      107.28      84.772      65.103      49.193      37.202      28.633    
  22.512      18.074      14.971      12.881      11.536      10.741      10.373      10.373      10.741      11.536    
  12.880      14.972      18.073      22.513      28.632      37.203      49.192      65.104      84.771      107.28    
  131.10      154.44      175.57      193.20      206.57      215.43      219.81      219.81      215.43      206.57    
  222.06      206.59      186.52      162.69      136.64      110.40      86.008      65.103      48.563      36.390    
  27.872      21.868      17.591      14.669      12.750      11.569      10.929      10.730      10.929      11.569    
  12.750      14.669      17.590      21.869      27.871      36.391      48.562      65.104      86.008      110.40    
  136.64      162.69      186.52      206.59      222.06      232.75      238.92      240.92      238.92      232.75    
  244.91      232.78      215.48      193.17      166.89      138.52      110.40      84.772      63.305      46.740    
  34.850      26.682      20.965      16.971      14.307      12.610      11.623      11.170      11.170      11.623    
  12.611      14.306      16.971      20.966      26.681      34.852      46.739      63.306      84.771      110.40    
  138.52      166.89      193.17      215.48      232.78      244.91      252.37      255.85      255.85      252.37    
  260.78      252.41      238.98      219.88      195.39      166.89      136.64      107.28      81.169      59.883    
  43.910      32.739      25.158      19.873      16.260      13.912      12.474      11.708      11.467      11.708    
  12.475      13.911      16.261      19.872      25.158      32.740      43.908      59.884      81.169      107.28    
  136.64      166.89      195.39      219.88      238.98      252.41      260.78      265.17      266.51      265.17    
  270.16      265.20      255.91      240.99      219.88      193.17      162.69      131.10      101.26      75.513    
  55.165      40.352      30.247      23.405      18.667      15.507      13.511      12.355      11.829      11.829    
  12.356      13.511      15.508      18.664      23.407      30.245      40.353      55.165      75.513      101.26    
  131.10      162.69      193.17      219.88      240.99      255.91      265.20      270.16      272.20      272.20    
  274.66      272.22      266.55      255.91      238.98      215.48      186.52      154.44      122.23      92.819    
  68.298      49.589      36.396      27.558      21.536      17.421      14.754      13.127      12.265      11.993    
  12.265      13.127      14.754      17.421      21.537      27.555      36.399      49.587      68.299      92.818    
  122.23      154.44      186.52      215.48      238.98      255.91      266.55      272.22      274.66      275.29    
  276.27      275.30      272.22      265.20      252.41      232.78      206.59      175.57      142.52      110.62    
  82.603      60.148      43.644      32.356      24.825      19.657      16.207      14.035      12.778      12.209    
  12.208      12.780      14.034      16.209      19.655      24.827      32.357      43.643      60.149      82.602    
  110.62      142.52      175.57      206.59      232.78      252.40      265.20      272.22      275.30      276.27    
  276.46      276.06      274.24      269.45      259.74      243.58      220.52      191.58      159.11      126.22    
  95.958      70.590      51.149      37.408      28.215      21.986      17.733      14.977      13.296      12.406    
  12.126      12.406      13.296      14.977      17.733      21.988      28.212      37.409      51.148      70.590    
  95.957      126.22      159.11      191.58      220.52      243.58      259.74      269.45      274.24      276.05    
  276.05      276.06      274.94      271.60      264.26      251.15      231.28      204.97      173.96      141.05    
  109.40      81.667      59.491      43.216      32.088      24.648      19.532      16.116      13.964      12.718    
  12.153      12.152      12.719      13.962      16.117      19.530      24.650      32.089      43.215      59.492    
  81.666      109.40      141.05      173.96      204.97      231.28      251.15      264.26      271.60      274.94    
  274.24      274.95      274.24      271.60      265.65      254.70      237.51      213.85      184.87      152.91    
  120.93      91.807      67.577      49.119      36.113      27.386      21.420      17.339      14.692      13.076    
  12.219      11.948      12.219      13.076      14.692      17.339      21.421      27.384      36.116      49.118    
  67.578      91.806      120.93      152.91      184.87      213.85      237.51      254.70      265.65      271.60    
  269.45      271.62      271.62      269.45      264.26      254.70      239.53      218.25      191.50      161.12    
  129.74      100.19      74.738      54.658      40.052      30.077      23.299      18.596      15.456      13.470    
  12.318      11.794      11.793      12.319      13.469      15.457      18.594      23.302      30.075      40.054    
  54.658      74.738      100.19      129.74      161.12      191.50      218.25      239.53      254.70      264.26    
  259.74      264.29      265.69      264.29      259.74      251.15      237.51      218.25      193.72      165.30    
  135.25      106.16      80.352      59.345      43.594      32.571      25.066      19.816      16.221      13.881    
  12.446      11.679      11.439      11.679      12.447      13.880      16.223      19.814      25.066      32.571    
  43.593      59.346      80.352      106.16      135.25      165.30      193.72      218.25      237.51      251.15    
  243.58      251.19      254.76      254.76      251.19      243.58      231.28      213.85      191.50      165.30    
  137.12      109.26      83.929      62.745      46.411      34.682      26.603      20.921      16.944      14.285    
  12.590      11.601      11.147      11.147      11.601      12.591      14.285      16.944      20.921      26.602    
  34.684      46.410      62.746      83.928      109.26      137.12      165.30      191.50      213.85      231.28    
  220.52      231.31      237.57      239.61      237.57      231.31      220.52      204.97      184.88      161.12    
  135.25      109.26      85.155      64.531      48.226      36.222      27.802      21.834      17.574      14.657    
  12.737      11.552      10.910      10.709      10.910      11.552      12.737      14.657      17.573      21.835    
  27.801      36.222      48.226      64.532      85.155      109.26      135.25      161.12      184.87      204.97    
  191.58      204.99      213.91      218.33      218.33      213.91      204.99      191.58      173.96      152.91    
  129.74      106.16      83.929      64.532      48.853      37.034      28.567      22.486      18.066      14.967    
  12.873      11.523      10.723      10.352      10.352      10.723      11.523      12.873      14.968      18.065    
  22.487      28.566      37.034      48.853      64.532      83.928      106.16      129.74      152.91      173.96    
  159.11      173.97      184.90      191.55      193.78      191.55      184.91      173.97      159.11      141.06    
  120.93      100.19      80.353      62.745      48.226      37.034      28.829      22.826      18.379      15.191    
  12.983      11.509      10.580      10.071      9.9078      10.071      10.580      11.509      12.982      15.192    
  18.378      22.826      28.829      37.034      48.226      62.745      80.352      100.19      120.93      141.05    
  126.22      141.05      152.90      161.12      165.32      165.32      161.12      152.90      141.05      126.22    
  109.40      91.805      74.739      59.345      46.411      36.222      28.566      22.826      18.486      15.309    
  13.054      11.503      10.480      9.8602      9.5683      9.5683      9.8602      10.479      11.504      13.054    
  15.309      18.486      22.826      28.566      36.222      46.411      59.346      74.738      91.806      109.40    
  95.958      109.37      120.89      129.70      135.21      137.08      135.21      129.70      120.89      109.37    
  95.958      81.667      67.578      54.656      43.595      34.682      27.801      22.487      18.378      15.309    
  13.079      11.502      10.420      9.7201      9.3266      9.2005      9.3266      9.7201      10.419      11.502    
  13.078      15.309      18.378      22.487      27.801      34.683      43.593      54.658      67.578      81.666    
  70.590      81.628      91.738      100.11      106.06      109.16      109.16      106.06      100.10      91.738    
  81.629      70.590      59.491      49.118      40.055      32.569      26.603      21.834      18.066      15.191    
  13.054      11.502      10.400      9.6494      9.1820      8.9573      8.9575      9.1817      9.6499      10.400    
  11.502      13.054      15.192      18.065      21.835      26.602      32.571      40.053      49.118      59.492    
  51.149      59.447      67.495      74.624      80.217      83.781      85.004      83.781      80.218      74.625    
  67.495      59.446      51.148      43.216      36.114      30.075      25.068      20.920      17.575      14.967    
  12.983      11.503      10.420      9.6496      9.1334      8.8367      8.7390      8.8368      9.1331      9.6498    
  10.419      11.504      12.982      14.968      17.573      20.921      25.066      30.075      36.116      43.215    
  37.409      43.172      49.032      54.533      59.191      62.569      64.345      64.345      62.569      59.189    
  54.532      49.032      43.173      37.410      32.086      27.386      23.301      19.814      16.945      14.656    
  12.874      11.509      10.480      9.7196      9.1821      8.8363      8.6672      8.6669      8.8368      9.1818    
  9.7202      10.479      11.509      12.873      14.657      16.944      19.814      23.302      27.384      32.089    
  28.212      32.051      36.036      39.933      43.437      46.228      48.026      48.647      48.026      46.228    
  43.439      39.934      36.035      32.048      28.214      24.651      21.418      18.595      16.222      14.285    
  12.738      11.523      10.580      9.8602      9.3269      8.9574      8.7393      8.6672      8.7391      8.9574    
  9.3266      9.8602      10.580      11.523      12.737      14.285      16.222      18.594      21.421      24.650    
  21.988      24.619      27.316      29.971      32.433      34.515      36.032      36.832      36.832      36.031    
  34.514      32.431      29.971      27.319      24.620      21.985      19.530      17.341      15.456      13.880    
  12.591      11.551      10.723      10.070      9.5684      9.2002      8.9575      8.8363      8.8367      8.9573    
  9.2006      9.5682      10.071      10.723      11.552      12.591      13.880      15.457      17.339      19.530    
  17.733      19.506      21.367      23.218      24.950      26.457      27.632      28.384      28.642      28.384    
  27.633      26.458      24.952      23.217      21.364      19.506      17.735      16.117      14.691      13.470    
  12.446      11.601      10.910      10.352      9.9081      9.5684      9.3268      9.1821      9.1333      9.1819    
  9.3265      9.5684      9.9078      10.352      10.910      11.601      12.446      13.469      14.692      16.118    
  14.977      16.099      17.299      18.529      19.724      20.806      21.700      22.338      22.670      22.670    
  22.337      21.699      20.804      19.723      18.530      17.300      16.098      14.975      13.963      13.077    
  12.318      11.679      11.147      10.708      10.352      10.070      9.8602      9.7197      9.6496      9.6495    
  9.7201      9.8601      10.071      10.352      10.709      11.147      11.679      12.319      13.076      13.962    
  13.296      13.948      14.662      15.408      16.154      16.857      17.470      17.948      18.251      18.356    
  18.252      17.948      17.471      16.858      16.154      15.407      14.661      13.949      13.297      12.718    
  12.218      11.793      11.439      11.147      10.910      10.723      10.580      10.480      10.420      10.400    
  10.419      10.480      10.580      10.723      10.910      11.146      11.439      11.793      12.219      12.719    
  12.406      12.708      13.053      13.433      13.830      14.221      14.581      14.881      15.097      15.211    
  15.211      15.097      14.880      14.580      14.221      13.830      13.434      13.054      12.707      12.405    
  12.152      11.949      11.793      11.679      11.601      11.551      11.523      11.509      11.503      11.502    
  11.502      11.503      11.509      11.523      11.552      11.602      11.680      11.793      11.948      12.152    
  12.126      12.142      12.200      12.291      12.409      12.544      12.683      12.812      12.916      12.984    
  13.008      12.984      12.917      12.812      12.683      12.544      12.409      12.290      12.199      12.143    
  12.127      12.152      12.218      12.318      12.446      12.591      12.738      12.874      12.983      13.054    
  13.079      13.054      12.983      12.873      12.737      12.590      12.446      12.318      12.219      12.153    
  12.406      12.143      11.931      11.769      11.649      11.566      11.513      11.481      11.465      11.458    