Pt-hcc                                  
   1.00000000000000     
     2.752972   -0.000000   -0.000000
    -1.376486    2.384144   -0.000000
     0.000000    0.000000    4.769460
   Pt
     2
Direct
  0.000000  0.000000  0.000000
  0.333333  0.666667  0.500000
 
   40   40   72
 0.27402933259E+03 0.27369667110E+03 0.27210429038E+03 0.26768012263E+03 0.25846451555E+03
 0.24287344714E+03 0.22040186864E+03 0.19198109339E+03 0.15989060191E+03 0.12719040741E+03
 0.96943362860E+02 0.71448309436E+02 0.51809268316E+02 0.37869124681E+02 0.28532988974E+02
 0.22230376996E+02 0.17924678844E+02 0.15129529727E+02 0.13424686751E+02 0.12521924307E+02
 0.12237352935E+02 0.12521963564E+02 0.13424579427E+02 0.15129785682E+02 0.17924022633E+02
 0.22232739654E+02 0.28529909777E+02 0.37870436355E+02 0.51809201167E+02 0.71448372656E+02
 0.96943179997E+02 0.12719064801E+03 0.15989033982E+03 0.19198135000E+03 0.22040160879E+03
 0.24287384957E+03 0.25846427645E+03 0.26768031513E+03 0.27210425701E+03 0.27369647555E+03
 0.27369647555E+03 0.27369672316E+03 0.27272727080E+03 0.26968536034E+03 0.26277519858E+03
 0.25020093601E+03 0.23091306613E+03 0.20515585056E+03 0.17459249835E+03 0.14196687105E+03
 0.11040063938E+03 0.82600097584E+02 0.60250068176E+02 0.43768675377E+02 0.32465480256E+02
 0.24923904003E+02 0.19748503536E+02 0.16285936429E+02 0.14103359547E+02 0.12838998694E+02
 0.12265908957E+02 0.12264741784E+02 0.12840236887E+02 0.14101951018E+02 0.16287655590E+02
 0.19746146518E+02 0.24925148752E+02 0.32466463378E+02 0.43767396142E+02 0.60250759063E+02
 0.82599557673E+02 0.11040116404E+03 0.14196637819E+03 0.17459307911E+03 0.20515537843E+03
 0.23091351564E+03 0.25020076525E+03 0.26277527096E+03 0.26968532296E+03 0.27272746292E+03
 0.27210425701E+03 0.27273440536E+03 0.27210386743E+03 0.26968538288E+03 0.26409112506E+03
 0.25362412866E+03 0.23697936921E+03 0.21387755361E+03 0.18537596939E+03 0.15374555505E+03
 0.12192569986E+03 0.92784520556E+02 0.68414695408E+02 0.49756889175E+02 0.36557066387E+02
 0.27695929519E+02 0.21659602652E+02 0.17527469617E+02 0.14843587055E+02 0.13203717928E+02
 0.12334039898E+02 0.12059677666E+02 0.12334025602E+02 0.13203727966E+02 0.14843632761E+02
 0.17527277075E+02 0.21661257906E+02 0.27693100341E+02 0.36559232562E+02 0.49755438762E+02
 0.68415866457E+02 0.92783743162E+02 0.12192620792E+03 0.15374513844E+03 0.18537618239E+03
 0.21387753659E+03 0.23697913431E+03 0.25362445942E+03 0.26409116697E+03 0.26968532296E+03
 0.26768031513E+03 0.26970291326E+03 0.26970334707E+03 0.26768039476E+03 0.26277524246E+03
 0.25362416702E+03 0.23895002768E+03 0.21818971524E+03 0.19191321441E+03 0.16188686431E+03
 0.13071070371E+03 0.10118963713E+03 0.75632313390E+02 0.55366100549E+02 0.40560209721E+02
 0.30425497886E+02 0.23561792474E+02 0.18802218511E+02 0.15619036139E+02 0.13605205439E+02
 0.12436361658E+02 0.11904329064E+02 0.11903463723E+02 0.12437289269E+02 0.13604119218E+02
 0.15620372573E+02 0.18799941338E+02 0.23564284148E+02 0.30424052510E+02 0.40560922397E+02
 0.55365960312E+02 0.75632041610E+02 0.10118979866E+03 0.13071069737E+03 0.16188698379E+03
 0.19191320902E+03 0.21819019738E+03 0.23894989174E+03 0.25362445942E+03 0.26277527096E+03
 0.25846427645E+03 0.26280412867E+03 0.26413079640E+03 0.26280369507E+03 0.25846405961E+03
 0.25020063109E+03 0.23697966649E+03 0.21818951971E+03 0.19409896626E+03 0.16603296662E+03
 0.13619418926E+03 0.10716434833E+03 0.81281923855E+02 0.60106478804E+02 0.44156474302E+02
 0.32959425628E+02 0.25348704635E+02 0.20038169120E+02 0.16396004738E+02 0.14023002451E+02
 0.12567511601E+02 0.11790323780E+02 0.11545974598E+02 0.11790133832E+02 0.12567908231E+02
 0.14022404886E+02 0.16397145147E+02 0.20037253994E+02 0.25348648154E+02 0.32960129184E+02
 0.44155395061E+02 0.60107348112E+02 0.81281424649E+02 0.10716471363E+03 0.13619365853E+03
 0.16603342218E+03 0.19409809905E+03 0.21819019738E+03 0.23697913431E+03 0.25020076525E+03
 0.24287384957E+03 0.25023467111E+03 0.25368028476E+03 0.25368004146E+03 0.25023529879E+03
 0.24287372595E+03 0.23091337127E+03 0.21387696008E+03 0.19191378048E+03 0.16603255462E+03
 0.13805597394E+03 0.11026281115E+03 0.84877290457E+02 0.63541307273E+02 0.47014672380E+02
 0.35106041388E+02 0.26904620440E+02 0.21157031447E+02 0.17129099048E+02 0.14434429616E+02
 0.12715049720E+02 0.11712656281E+02 0.11251576388E+02 0.11252098736E+02 0.11712116691E+02
 0.12715549010E+02 0.14433752287E+02 0.17129327312E+02 0.21157694641E+02 0.26903516603E+02
 0.35107162610E+02 0.47013936926E+02 0.63541820064E+02 0.84876675423E+02 0.11026329947E+03
 0.13805552783E+03 0.16603342218E+03 0.19191320902E+03 0.21387753659E+03 0.23091351564E+03
 0.22040160879E+03 0.23094543444E+03 0.23703900860E+03 0.23902030654E+03 0.23703898575E+03
 0.23094510972E+03 0.22040171667E+03 0.20515566960E+03 0.18537670041E+03 0.16188649444E+03
 0.13619447352E+03 0.11026316209E+03 0.86109875472E+02 0.65345150743E+02 0.48854923300E+02
 0.36671076300E+02 0.28119249209E+02 0.22080723153E+02 0.17768890070E+02 0.14812030083E+02
 0.12865465603E+02 0.11663792967E+02 0.11012929826E+02 0.10809372732E+02 0.11012913943E+02
 0.11663852823E+02 0.12865476279E+02 0.14812391383E+02 0.17767913931E+02 0.22081826756E+02
 0.28118369733E+02 0.36671587763E+02 0.48854505857E+02 0.65345314788E+02 0.86109803556E+02
 0.11026329947E+03 0.13619365853E+03 0.16188698379E+03 0.18537618239E+03 0.20515537843E+03
 0.19198135000E+03 0.20517668974E+03 0.21392423479E+03 0.21825353040E+03 0.21825355113E+03
 0.21392404749E+03 0.20517692523E+03 0.19198134704E+03 0.17459270426E+03 0.15374479624E+03
 0.13071135353E+03 0.10716392789E+03 0.84877098853E+02 0.65345309392E+02 0.49489917306E+02
 0.37496706574E+02 0.28895159488E+02 0.22740169769E+02 0.18267673601E+02 0.15126896382E+02
 0.13004436593E+02 0.11635462528E+02 0.10824904323E+02 0.10449209542E+02 0.10449390925E+02
 0.10824662017E+02 0.11635613536E+02 0.13003971310E+02 0.15127759969E+02 0.18266862901E+02
 0.22740768649E+02 0.28894896935E+02 0.37496825599E+02 0.49490076422E+02 0.65345314788E+02
 0.84876675423E+02 0.10716471363E+03 0.13071069737E+03 0.15374513844E+03 0.17459307911E+03
 0.15989033982E+03 0.17459720417E+03 0.18539595998E+03 0.19194858965E+03 0.19414042645E+03
 0.19194899932E+03 0.18539636425E+03 0.17459710589E+03 0.15989049711E+03 0.14196699479E+03
 0.12192658750E+03 0.10118918825E+03 0.81282066734E+02 0.63541539858E+02 0.48854543648E+02
 0.37497130254E+02 0.29161838224E+02 0.23084392295E+02 0.18584250119E+02 0.15354248320E+02
 0.13115958329E+02 0.11622198597E+02 0.10681286533E+02 0.10165910012E+02 0.10001345516E+02
 0.10165961208E+02 0.10681277363E+02 0.11622421317E+02 0.13115435621E+02 0.15354637196E+02
 0.18584070716E+02 0.23084315628E+02 0.29162103233E+02 0.37496825599E+02 0.48854505857E+02
 0.63541820064E+02 0.81281424649E+02 0.10118979866E+03 0.12192620792E+03 0.14196637819E+03
 0.12719064801E+03 0.14195166827E+03 0.15372992498E+03 0.16187861226E+03 0.16603097220E+03
 0.16603056165E+03 0.16187808311E+03 0.15372957449E+03 0.14195197756E+03 0.12719064978E+03
 0.11040063869E+03 0.92783418296E+02 0.75633172355E+02 0.60106327278E+02 0.47014213730E+02
 0.36671378848E+02 0.28894639184E+02 0.23084510581E+02 0.18692896557E+02 0.15473238252E+02
 0.13188637041E+02 0.11616863343E+02 0.10580522740E+02 0.99538923482E+01 0.96590041321E+01
 0.96588996291E+01 0.99539263426E+01 0.10580318802E+02 0.11617267906E+02 0.13188403133E+02
 0.15473328608E+02 0.18693068824E+02 0.23084315628E+02 0.28894896935E+02 0.36671587763E+02
 0.47013936926E+02 0.60107348112E+02 0.75632041610E+02 0.92783743162E+02 0.11040116404E+03
 0.96943179997E+02 0.11036915642E+03 0.12187620378E+03 0.13065334115E+03 0.13613558977E+03
 0.13799766771E+03 0.13613626204E+03 0.13065420878E+03 0.12187672092E+03 0.11036889171E+03
 0.96943198115E+02 0.82600240998E+02 0.68415832721E+02 0.55364572585E+02 0.44156870945E+02
 0.35106406355E+02 0.28118684429E+02 0.22740902417E+02 0.18583875085E+02 0.15473550877E+02
 0.13213543225E+02 0.11615714041E+02 0.10520201364E+02 0.98127617198E+01 0.94154240523E+01
 0.92880013581E+01 0.94154773436E+01 0.98128657217E+01 0.10519949254E+02 0.11615788455E+02
 0.13213547222E+02 0.15473328608E+02 0.18584070716E+02 0.22740768649E+02 0.28118369733E+02
 0.35107162610E+02 0.44155395061E+02 0.55365960312E+02 0.68415866457E+02 0.82599557673E+02
 0.71448372656E+02 0.82556445508E+02 0.92706615121E+02 0.10109057765E+03 0.10705292070E+03
 0.11014627108E+03 0.11014608965E+03 0.10705208729E+03 0.10108958059E+03 0.92706232138E+02
 0.82556868322E+02 0.71448519318E+02 0.60249949834E+02 0.49755575005E+02 0.40562079920E+02
 0.32958172503E+02 0.26904771893E+02 0.22080912930E+02 0.18267125785E+02 0.15354548958E+02
 0.13188407418E+02 0.11615655663E+02 0.10500354417E+02 0.97417408644E+01 0.92696327146E+01
 0.90430748739E+01 0.90431269942E+01 0.92694792566E+01 0.97420761590E+01 0.10500223342E+02
 0.11615788455E+02 0.13188403133E+02 0.15354637196E+02 0.18266862901E+02 0.22081826756E+02
 0.26903516603E+02 0.32960129184E+02 0.40560922397E+02 0.49755438762E+02 0.60250759063E+02
 0.51809201167E+02 0.60201847915E+02 0.68323883778E+02 0.75504657987E+02 0.81129871592E+02
 0.84710538991E+02 0.85939535865E+02 0.84710949427E+02 0.81130867670E+02 0.75505912766E+02
 0.68324059000E+02 0.60201149187E+02 0.51808378214E+02 0.43768800686E+02 0.36558421599E+02
 0.30423119826E+02 0.25350454181E+02 0.21156243694E+02 0.17769222655E+02 0.15127249694E+02
 0.13115830955E+02 0.11617142318E+02 0.10520182163E+02 0.97419243182E+01 0.92206959987E+01
 0.89215584847E+01 0.88231425447E+01 0.89216849040E+01 0.92204187061E+01 0.97420761590E+01
 0.10519949254E+02 0.11617267906E+02 0.13115435621E+02 0.15127759969E+02 0.17767913931E+02
 0.21157694641E+02 0.25348648154E+02 0.30424052510E+02 0.36559232562E+02 0.43767396142E+02
 0.37870436355E+02 0.43720806162E+02 0.49661353656E+02 0.55229380991E+02 0.59936450086E+02
 0.63347716643E+02 0.65139233380E+02 0.65139174816E+02 0.63346984629E+02 0.59935289757E+02
 0.55227682514E+02 0.49661464058E+02 0.43722080448E+02 0.37871118495E+02 0.32463715296E+02
 0.27695333803E+02 0.23564087349E+02 0.20036154513E+02 0.17130504683E+02 0.14811160992E+02
 0.13004672862E+02 0.11621899520E+02 0.10580661375E+02 0.98124167105E+01 0.92697890238E+01
 0.89211563616E+01 0.87507648407E+01 0.87504209390E+01 0.89216849040E+01 0.92694792566E+01
 0.98128657217E+01 0.10580318802E+02 0.11622421317E+02 0.13003971310E+02 0.14812391383E+02
 0.17129327312E+02 0.20037253994E+02 0.23564284148E+02 0.27693100341E+02 0.32466463378E+02
 0.28529909777E+02 0.32425037725E+02 0.36471833394E+02 0.40429622652E+02 0.43985387147E+02
 0.46814245588E+02 0.48635841321E+02 0.49265157186E+02 0.48636131767E+02 0.46814849740E+02
 0.43987005394E+02 0.40430995610E+02 0.36471030856E+02 0.32422449778E+02 0.28531202780E+02
 0.24927200249E+02 0.21658320292E+02 0.18801364440E+02 0.16397279403E+02 0.14433540249E+02
 0.12866240172E+02 0.11635408349E+02 0.10681508657E+02 0.99538986627E+01 0.94156431323E+01
 0.90431088569E+01 0.88233913888E+01 0.87507648407E+01 0.88231425447E+01 0.90431269942E+01
 0.94154773436E+01 0.99539263426E+01 0.10681277363E+02 0.11635613536E+02 0.12865476279E+02
 0.14433752287E+02 0.16397145147E+02 0.18799941338E+02 0.21661257906E+02 0.24925148752E+02
 0.22232739654E+02 0.24891083467E+02 0.27619196720E+02 0.30310711421E+02 0.32808310973E+02
 0.34922693207E+02 0.36463507916E+02 0.37276392109E+02 0.37276380531E+02 0.36462991578E+02
 0.34921636494E+02 0.32806251666E+02 0.30309613483E+02 0.27621419673E+02 0.24893001580E+02
 0.22229882389E+02 0.19746290501E+02 0.17529227401E+02 0.15619375207E+02 0.14022406161E+02
 0.12715657285E+02 0.11663161044E+02 0.10824869776E+02 0.10165675977E+02 0.96589766157E+01
 0.92877521336E+01 0.90431088569E+01 0.89211563616E+01 0.89215584847E+01 0.90430748739E+01
 0.92880013581E+01 0.96588996291E+01 0.10165961208E+02 0.10824662017E+02 0.11663852823E+02
 0.12715549010E+02 0.14022404886E+02 0.15620372573E+02 0.17527277075E+02 0.19746146518E+02
 0.17924022633E+02 0.19719206647E+02 0.21602066164E+02 0.23471598443E+02 0.25220745264E+02
 0.26743644542E+02 0.27934253612E+02 0.28695480678E+02 0.28957398700E+02 0.28695517895E+02
 0.27934969818E+02 0.26744999377E+02 0.25222745238E+02 0.23471473799E+02 0.21599225211E+02
 0.19719419831E+02 0.17926244125E+02 0.16287144305E+02 0.14842409781E+02 0.13604913405E+02
 0.12567975327E+02 0.11712161836E+02 0.11013507589E+02 0.10449251191E+02 0.10001550953E+02
 0.96589766157E+01 0.94156431323E+01 0.92697890238E+01 0.92206959987E+01 0.92696327146E+01
 0.94154240523E+01 0.96590041321E+01 0.10001345516E+02 0.10449390925E+02 0.11012913943E+02
 0.11712116691E+02 0.12567908231E+02 0.13604119218E+02 0.14843632761E+02 0.16287655590E+02
 0.15129785682E+02 0.16266903449E+02 0.17481643425E+02 0.18727158425E+02 0.19935841015E+02
 0.21029645067E+02 0.21932511072E+02 0.22576086850E+02 0.22911348729E+02 0.22911316780E+02
 0.22575852078E+02 0.21931385376E+02 0.21028043171E+02 0.19934640174E+02 0.18728490010E+02
 0.17483548842E+02 0.16266348919E+02 0.15128397693E+02 0.14102541313E+02 0.13204813253E+02
 0.12436645917E+02 0.11789964531E+02 0.11251852604E+02 0.10808703644E+02 0.10449251191E+02
 0.10165675977E+02 0.99538986627E+01 0.98124167105E+01 0.97419243182E+01 0.97417408644E+01
 0.98127617198E+01 0.99538923482E+01 0.10165910012E+02 0.10449209542E+02 0.10809372732E+02
 0.11252098736E+02 0.11790133832E+02 0.12437289269E+02 0.13203727966E+02 0.14101951018E+02
 0.13424579427E+02 0.14085864718E+02 0.14808639289E+02 0.15564502661E+02 0.16319162548E+02
 0.17030605348E+02 0.17650507921E+02 0.18133977353E+02 0.18441140499E+02 0.18546590511E+02
 0.18441302635E+02 0.18134483708E+02 0.17652076283E+02 0.17031828147E+02 0.16319460980E+02
 0.15563538100E+02 0.14807477662E+02 0.14086468206E+02 0.13425810425E+02 0.12839639507E+02
 0.12333004222E+02 0.11903881729E+02 0.11546097721E+02 0.11251852604E+02 0.11013507589E+02
 0.10824869776E+02 0.10681508657E+02 0.10580661375E+02 0.10520182163E+02 0.10500354417E+02
 0.10520201364E+02 0.10580522740E+02 0.10681286533E+02 0.10824904323E+02 0.11012929826E+02
 0.11251576388E+02 0.11545974598E+02 0.11903463723E+02 0.12334025602E+02 0.12840236887E+02
 0.12521963564E+02 0.12827291605E+02 0.13176398320E+02 0.13561259356E+02 0.13963540683E+02
 0.14359425027E+02 0.14723626751E+02 0.15027086589E+02 0.15245965574E+02 0.15360558504E+02
 0.15360487856E+02 0.15245662945E+02 0.15026259065E+02 0.14722310019E+02 0.14359078347E+02
 0.13963466040E+02 0.13561997322E+02 0.13177459233E+02 0.12826674960E+02 0.12520843921E+02
 0.12265240865E+02 0.12060554129E+02 0.11903881729E+02 0.11789964531E+02 0.11712161836E+02
 0.11663161044E+02 0.11635408349E+02 0.11621899520E+02 0.11617142318E+02 0.11615655663E+02
 0.11615714041E+02 0.11616863343E+02 0.11622198597E+02 0.11635462528E+02 0.11663792967E+02
 0.11712656281E+02 0.11790323780E+02 0.11904329064E+02 0.12059677666E+02 0.12264741784E+02
 0.12237352935E+02 0.12253312020E+02 0.12311097109E+02 0.12402920255E+02 0.12522230365E+02
 0.12659262138E+02 0.12799332295E+02 0.12929886632E+02 0.13035304615E+02 0.13104110913E+02
 0.13128054378E+02 0.13104296819E+02 0.13036045689E+02 0.12930664463E+02 0.12800275208E+02
 0.12659400824E+02 0.12522412358E+02 0.12402272693E+02 0.12310119873E+02 0.12253804709E+02
 0.12238315083E+02 0.12265240865E+02 0.12333004222E+02 0.12436645917E+02 0.12567975327E+02
 0.12715657285E+02 0.12866240172E+02 0.13004672862E+02 0.13115830955E+02 0.13188407418E+02
 0.13213543225E+02 0.13188637041E+02 0.13115958329E+02 0.13004436593E+02 0.12865465603E+02
 0.12715049720E+02 0.12567511601E+02 0.12436361658E+02 0.12334039898E+02 0.12265908957E+02
 0.12521924307E+02 0.12254471406E+02 0.12038281566E+02 0.11873315419E+02 0.11752457843E+02
 0.11667896121E+02 0.11614228683E+02 0.11581810674E+02 0.11565295739E+02 0.11557949740E+02
 0.11555458782E+02 0.11555429265E+02 0.11557443786E+02 0.11564683242E+02 0.11581398677E+02
 0.11613450212E+02 0.11667844004E+02 0.11752236555E+02 0.11873702395E+02 0.12039139265E+02
 0.12253804709E+02 0.12520843921E+02 0.12839639507E+02 0.13204813253E+02 0.13604913405E+02
 0.14022406161E+02 0.14433540249E+02 0.14811160992E+02 0.15127249694E+02 0.15354548958E+02
 0.15473550877E+02 0.15473238252E+02 0.15354248320E+02 0.15126896382E+02 0.14812030083E+02
 0.14434429616E+02 0.14023002451E+02 0.13605205439E+02 0.13203717928E+02 0.12838998694E+02
 0.13424686751E+02 0.12826059466E+02 0.12311112625E+02 0.11874173211E+02 0.11510722335E+02
 0.11213663385E+02 0.10972603105E+02 0.10783637775E+02 0.10640071832E+02 0.10539538935E+02
 0.10479897779E+02 0.10460083744E+02 0.10480283922E+02 0.10539966585E+02 0.10640518219E+02
 0.10783894224E+02 0.10973349197E+02 0.11213415363E+02 0.11510944304E+02 0.11873702395E+02
 0.12310119873E+02 0.12826674960E+02 0.13425810425E+02 0.14102541313E+02 0.14842409781E+02
 0.15619375207E+02 0.16397279403E+02 0.17130504683E+02 0.17769222655E+02 0.18267125785E+02
 0.18583875085E+02 0.18692896557E+02 0.18584250119E+02 0.18267673601E+02 0.17768890070E+02
 0.17129099048E+02 0.16396004738E+02 0.15619036139E+02 0.14843587055E+02 0.14103359547E+02
 0.15129529727E+02 0.14087260937E+02 0.13176379905E+02 0.12401994674E+02 0.11752636626E+02
 0.11213197534E+02 0.10772395484E+02 0.10414979271E+02 0.10134727342E+02 0.99259448883E+01
 0.97869504955E+01 0.97174956496E+01 0.97171093457E+01 0.97867158060E+01 0.99256458919E+01
 0.10134370008E+02 0.10414687362E+02 0.10771670567E+02 0.11213415363E+02 0.11752236555E+02
 0.12402272693E+02 0.13177459233E+02 0.14086468206E+02 0.15128397693E+02 0.16287144305E+02
 0.17529227401E+02 0.18801364440E+02 0.20036154513E+02 0.21156243694E+02 0.22080912930E+02
 0.22740902417E+02 0.23084510581E+02 0.23084392295E+02 0.22740169769E+02 0.22080723153E+02
 0.21157031447E+02 0.20038169120E+02 0.18802218511E+02 0.17527469617E+02 0.16285936429E+02
 0.17924678844E+02 0.16265204720E+02 0.14808606975E+02 0.13562340116E+02 0.12521845659E+02
 0.11668361302E+02 0.10972624708E+02 0.10414629716E+02 0.99730433116E+01 0.96365837043E+01
 0.93983576609E+01 0.92555775977E+01 0.92084267223E+01 0.92558338235E+01 0.93985261107E+01
 0.96367723217E+01 0.99734313669E+01 0.10414687362E+02 0.10973349197E+02 0.11667844004E+02
 0.12522412358E+02 0.13561997322E+02 0.14807477662E+02 0.16266348919E+02 0.17926244125E+02
 0.19746290501E+02 0.21658320292E+02 0.23564087349E+02 0.25350454181E+02 0.26904771893E+02
 0.28118684429E+02 0.28894639184E+02 0.29161838224E+02 0.28895159488E+02 0.28119249209E+02
 0.26904620440E+02 0.25348704635E+02 0.23561792474E+02 0.21659602652E+02 0.19748503536E+02
 0.22230376996E+02 0.19721556581E+02 0.17481813299E+02 0.15563179983E+02 0.13964103125E+02
 0.12658826878E+02 0.11614110320E+02 0.10784032886E+02 0.10134609653E+02 0.96370901570E+01
 0.92736059553E+01 0.90348698236E+01 0.89156236683E+01 0.89158537538E+01 0.90345690583E+01
 0.92735903151E+01 0.96367723217E+01 0.10134370008E+02 0.10783894224E+02 0.11613450212E+02
 0.12659400824E+02 0.13963466040E+02 0.15563538100E+02 0.17483548842E+02 0.19719419831E+02
 0.22229882389E+02 0.24927200249E+02 0.27695333803E+02 0.30423119826E+02 0.32958172503E+02
 0.35106406355E+02 0.36671378848E+02 0.37497130254E+02 0.37496706574E+02 0.36671076300E+02
 0.35106041388E+02 0.32959425628E+02 0.30425497886E+02 0.27695929519E+02 0.24923904003E+02
 0.28532988974E+02 0.24889824987E+02 0.21600488996E+02 0.18729429808E+02 0.16318087684E+02
 0.14360004020E+02 0.12799366360E+02 0.11581451029E+02 0.10640169081E+02 0.99255070397E+01
 0.93983949546E+01 0.90343928255E+01 0.88204826278E+01 0.87494676954E+01 0.88203020419E+01
 0.90345690583E+01 0.93985261107E+01 0.99256458919E+01 0.10640518219E+02 0.11581398677E+02
 0.12800275208E+02 0.14359078347E+02 0.16319460980E+02 0.18728490010E+02 0.21599225211E+02
 0.24893001580E+02 0.28531202780E+02 0.32463715296E+02 0.36558421599E+02 0.40562079920E+02
 0.44156870945E+02 0.47014213730E+02 0.48854543648E+02 0.49489917306E+02 0.48854923300E+02
 0.47014672380E+02 0.44156474302E+02 0.40560209721E+02 0.36557066387E+02 0.32465480256E+02
 0.37869124681E+02 0.32424158144E+02 0.27621965580E+02 0.23469140545E+02 0.19936666897E+02
 0.17030475971E+02 0.14723187097E+02 0.12930516505E+02 0.11564925615E+02 0.10540130403E+02
 0.97867455020E+01 0.92561406594E+01 0.89155930392E+01 0.87495355793E+01 0.87494676954E+01
 0.89158537538E+01 0.92558338235E+01 0.97867158060E+01 0.10539966585E+02 0.11564683242E+02
 0.12930664463E+02 0.14722310019E+02 0.17031828147E+02 0.19934640174E+02 0.23471473799E+02
 0.27621419673E+02 0.32422449778E+02 0.37871118495E+02 0.43768800686E+02 0.49755575005E+02
 0.55364572585E+02 0.60106327278E+02 0.63541539858E+02 0.65345309392E+02 0.65345150743E+02
 0.63541307273E+02 0.60106478804E+02 0.55366100549E+02 0.49756889175E+02 0.43768675377E+02
 0.51809268316E+02 0.43721988194E+02 0.36469692450E+02 0.30312146234E+02 0.25220936320E+02
 0.21028906776E+02 0.17651565261E+02 0.15026005174E+02 0.13036020484E+02 0.11557101091E+02
 0.10480393486E+02 0.97167767714E+01 0.92087113199E+01 0.89155930392E+01 0.88204826278E+01
 0.89156236683E+01 0.92084267223E+01 0.97171093457E+01 0.10480283922E+02 0.11557443786E+02
 0.13036045689E+02 0.15026259065E+02 0.17652076283E+02 0.21028043171E+02 0.25222745238E+02
 0.30309613483E+02 0.36471030856E+02 0.43722080448E+02 0.51808378214E+02 0.60249949834E+02
 0.68415832721E+02 0.75633172355E+02 0.81282066734E+02 0.84877098853E+02 0.86109875472E+02
 0.84877290457E+02 0.81281923855E+02 0.75632313390E+02 0.68414695408E+02 0.60250068176E+02
 0.71448309436E+02 0.60201214811E+02 0.49662837384E+02 0.40429024491E+02 0.32807430597E+02
 0.26744861341E+02 0.21931214545E+02 0.18135173973E+02 0.15245165581E+02 0.13104993177E+02
 0.11554885642E+02 0.10460867466E+02 0.97167767714E+01 0.92561406594E+01 0.90343928255E+01
 0.90348698236E+01 0.92555775977E+01 0.97174956496E+01 0.10460083744E+02 0.11555429265E+02
 0.13104296819E+02 0.15245662945E+02 0.18134483708E+02 0.21931385376E+02 0.26744999377E+02
 0.32806251666E+02 0.40430995610E+02 0.49661464058E+02 0.60201149187E+02 0.71448519318E+02
 0.82600240998E+02 0.92783418296E+02 0.10118918825E+03 0.10716392789E+03 0.11026316209E+03
 0.11026281115E+03 0.10716434833E+03 0.10118963713E+03 0.92784520556E+02 0.82600097584E+02
 0.96943362860E+02 0.82556864990E+02 0.68322834577E+02 0.55229269187E+02 0.43986594756E+02
 0.34921439933E+02 0.27935415576E+02 0.22575129506E+02 0.18441742588E+02 0.15359911264E+02
 0.13128445713E+02 0.11554885642E+02 0.10480393486E+02 0.97867455020E+01 0.93983949546E+01
 0.92736059553E+01 0.93983576609E+01 0.97869504955E+01 0.10479897779E+02 0.11555458782E+02
 0.13128054378E+02 0.15360487856E+02 0.18441302635E+02 0.22575852078E+02 0.27934969818E+02
 0.34921636494E+02 0.43987005394E+02 0.55227682514E+02 0.68324059000E+02 0.82556868322E+02
 0.96943198115E+02 0.11040063869E+03 0.12192658750E+03 0.13071135353E+03 0.13619447352E+03
 0.13805597394E+03 0.13619418926E+03 0.13071070371E+03 0.12192569986E+03 0.11040063938E+03
 0.12719040741E+03 0.11036889164E+03 0.92707199590E+02 0.75505125834E+02 0.59935372047E+02
 0.46815310228E+02 0.36462468654E+02 0.28696383074E+02 0.22910765893E+02 0.18547325635E+02
 0.15359911264E+02 0.13104993177E+02 0.11557101091E+02 0.10540130403E+02 0.99255070397E+01
 0.96370901570E+01 0.96365837043E+01 0.99259448883E+01 0.10539538935E+02 0.11557949740E+02
 0.13104110913E+02 0.15360558504E+02 0.18546590511E+02 0.22911316780E+02 0.28695517895E+02
 0.36462991578E+02 0.46814849740E+02 0.59935289757E+02 0.75505912766E+02 0.92706232138E+02
 0.11036889171E+03 0.12719064978E+03 0.14196699479E+03 0.15374479624E+03 0.16188649444E+03
 0.16603255462E+03 0.16603296662E+03 0.16188686431E+03 0.15374555505E+03 0.14196687105E+03
 0.15989060191E+03 0.14195186524E+03 0.12187584705E+03 0.10109011703E+03 0.81130696162E+02
 0.63346605533E+02 0.48636750107E+02 0.37275708284E+02 0.28957893610E+02 0.22910765893E+02
 0.18441742588E+02 0.15245165581E+02 0.13036020484E+02 0.11564925615E+02 0.10640169081E+02
 0.10134609653E+02 0.99730433116E+01 0.10134727342E+02 0.10640071832E+02 0.11565295739E+02
 0.13035304615E+02 0.15245965574E+02 0.18441140499E+02 0.22911348729E+02 0.28957398700E+02
 0.37276380531E+02 0.48636131767E+02 0.63346984629E+02 0.81130867670E+02 0.10108958059E+03
 0.12187672092E+03 0.14195197756E+03 0.15989049711E+03 0.17459270426E+03 0.18537670041E+03
 0.19191378048E+03 0.19409896626E+03 0.19191321441E+03 0.18537596939E+03 0.17459249835E+03
 0.19198109339E+03 0.17459716919E+03 0.15373002991E+03 0.13065392199E+03 0.10705191693E+03
 0.84711693781E+02 0.65138394948E+02 0.49265915796E+02 0.37275708284E+02 0.28696383074E+02
 0.22575129506E+02 0.18135173973E+02 0.15026005174E+02 0.12930516505E+02 0.11581451029E+02
 0.10784032886E+02 0.10414629716E+02 0.10414979271E+02 0.10783637775E+02 0.11581810674E+02
 0.12929886632E+02 0.15027086589E+02 0.18133977353E+02 0.22576086850E+02 0.28695480678E+02
 0.37276392109E+02 0.49265157186E+02 0.65139174816E+02 0.84710949427E+02 0.10705208729E+03
 0.13065420878E+03 0.15372957449E+03 0.17459710589E+03 0.19198134704E+03 0.20515566960E+03
 0.21387696008E+03 0.21818951971E+03 0.21818971524E+03 0.21387755361E+03 0.20515585056E+03
 0.22040186864E+03 0.20517673646E+03 0.18539592988E+03 0.16187815901E+03 0.13613636081E+03
 0.11014532472E+03 0.85940093692E+02 0.65138394948E+02 0.48636750107E+02 0.36462468654E+02
 0.27935415576E+02 0.21931214545E+02 0.17651565261E+02 0.14723187097E+02 0.12799366360E+02
 0.11614110320E+02 0.10972624708E+02 0.10772395484E+02 0.10972603105E+02 0.11614228683E+02
 0.12799332295E+02 0.14723626751E+02 0.17650507921E+02 0.21932511072E+02 0.27934253612E+02
 0.36463507916E+02 0.48635841321E+02 0.65139233380E+02 0.85939535865E+02 0.11014608965E+03
 0.13613626204E+03 0.16187808311E+03 0.18539636425E+03 0.20517692523E+03 0.22040171667E+03
 0.23091337127E+03 0.23697966649E+03 0.23895002768E+03 0.23697936921E+03 0.23091306613E+03
 0.24287344714E+03 0.23094555703E+03 0.21392419426E+03 0.19194920095E+03 0.16603012067E+03
 0.13799861041E+03 0.11014532472E+03 0.84711693781E+02 0.63346605533E+02 0.46815310228E+02
 0.34921439933E+02 0.26744861341E+02 0.21028906776E+02 0.17030475971E+02 0.14360004020E+02
 0.12658826878E+02 0.11668361302E+02 0.11213197534E+02 0.11213663385E+02 0.11667896121E+02
 0.12659262138E+02 0.14359425027E+02 0.17030605348E+02 0.21029645067E+02 0.26743644542E+02
 0.34922693207E+02 0.46814245588E+02 0.63347716643E+02 0.84710538991E+02 0.11014627108E+03
 0.13799766771E+03 0.16603056165E+03 0.19194899932E+03 0.21392404749E+03 0.23094510972E+03
 0.24287372595E+03 0.25020063109E+03 0.25362416702E+03 0.25362412866E+03 0.25020093601E+03
 0.25846451555E+03 0.25023506499E+03 0.23703884292E+03 0.21825341908E+03 0.19414081582E+03
 0.16603012067E+03 0.13613636081E+03 0.10705191693E+03 0.81130696162E+02 0.59935372047E+02
 0.43986594756E+02 0.32807430597E+02 0.25220936320E+02 0.19936666897E+02 0.16318087684E+02
 0.13964103125E+02 0.12521845659E+02 0.11752636626E+02 0.11510722335E+02 0.11752457843E+02
 0.12522230365E+02 0.13963540683E+02 0.16319162548E+02 0.19935841015E+02 0.25220745264E+02
 0.32808310973E+02 0.43985387147E+02 0.59936450086E+02 0.81129871592E+02 0.10705292070E+03
 0.13613558977E+03 0.16603097220E+03 0.19414042645E+03 0.21825355113E+03 0.23703898575E+03
 0.25023529879E+03 0.25846405961E+03 0.26277524246E+03 0.26409112506E+03 0.26277519858E+03
 0.26768012263E+03 0.26280376841E+03 0.25368042145E+03 0.23902054072E+03 0.21825341908E+03
 0.19194920095E+03 0.16187815901E+03 0.13065392199E+03 0.10109011703E+03 0.75505125834E+02
 0.55229269187E+02 0.40429024491E+02 0.30312146234E+02 0.23469140545E+02 0.18729429808E+02
 0.15563179983E+02 0.13562340116E+02 0.12401994674E+02 0.11874173211E+02 0.11873315419E+02
 0.12402920255E+02 0.13561259356E+02 0.15564502661E+02 0.18727158425E+02 0.23471598443E+02
 0.30310711421E+02 0.40429622652E+02 0.55229380991E+02 0.75504657987E+02 0.10109057765E+03
 0.13065334115E+03 0.16187861226E+03 0.19194858965E+03 0.21825353040E+03 0.23902030654E+03
 0.25368004146E+03 0.26280369507E+03 0.26768039476E+03 0.26968538288E+03 0.26968536034E+03
 0.27210429038E+03 0.26970348663E+03 0.26413066056E+03 0.25368042145E+03 0.23703884292E+03
 0.21392419426E+03 0.18539592988E+03 0.15373002991E+03 0.12187584705E+03 0.92707199590E+02
 0.68322834577E+02 0.49662837384E+02 0.36469692450E+02 0.27621965580E+02 0.21600488996E+02
 0.17481813299E+02 0.14808606975E+02 0.13176379905E+02 0.12311112625E+02 0.12038281566E+02
 0.12311097109E+02 0.13176398320E+02 0.14808639289E+02 0.17481643425E+02 0.21602066164E+02
 0.27619196720E+02 0.36471833394E+02 0.49661353656E+02 0.68323883778E+02 0.92706615121E+02
 0.12187620378E+03 0.15372992498E+03 0.18539595998E+03 0.21392423479E+03 0.23703900860E+03
 0.25368028476E+03 0.26413079640E+03 0.26970334707E+03 0.27210386743E+03 0.27272727080E+03
 0.27369667110E+03 0.27273392285E+03 0.26970348663E+03 0.26280376841E+03 0.25023506499E+03
 0.23094555703E+03 0.20517673646E+03 0.17459716919E+03 0.14195186524E+03 0.11036889164E+03
 0.82556864990E+02 0.60201214811E+02 0.43721988194E+02 0.32424158144E+02 0.24889824987E+02
 0.19721556581E+02 0.16265204720E+02 0.14087260937E+02 0.12826059466E+02 0.12254471406E+02
 0.12253312020E+02 0.12827291605E+02 0.14085864718E+02 0.16266903449E+02 0.19719206647E+02
 0.24891083467E+02 0.32425037725E+02 0.43720806162E+02 0.60201847915E+02 0.82556445508E+02
 0.11036915642E+03 0.14195166827E+03 0.17459720417E+03 0.20517668974E+03 0.23094543444E+03
 0.25023467111E+03 0.26280412867E+03 0.26970291326E+03 0.27273440536E+03 0.27369672316E+03
 0.27387879433E+03 0.27347667526E+03 0.27168866555E+03 0.26697960111E+03 0.25744422224E+03
 0.24156236017E+03 0.21888558402E+03 0.19038525076E+03 0.15835103191E+03 0.12582467702E+03
 0.95827370239E+02 0.70607560546E+02 0.51222542452E+02 0.37483055560E+02 0.28279907905E+02
 0.22051832634E+02 0.17794972884E+02 0.15031870968E+02 0.13345847819E+02 0.12452874961E+02
 0.12171255915E+02 0.12452892327E+02 0.13345790796E+02 0.15032041467E+02 0.17794464673E+02
 0.22053935146E+02 0.28276842908E+02 0.37484663884E+02 0.51222267068E+02 0.70607614046E+02