   2   2   1   0
  0.1579990E+02  0.2760000E-09  0.2760000E-09  0.4790000E-09  0.5000000E-15
  1.000000000000000E-004
  CAR 
 Pt-hcc                                  
     36.12203941    -45.24495847  301     11.30311679      1.00000000
    -45.245  0.0000E+00  0.0000E+00
    -44.974  0.0000E+00  0.0000E+00
    -44.703  0.0000E+00  0.0000E+00
    -44.431  0.0000E+00  0.0000E+00
    -44.160  0.0000E+00  0.0000E+00
    -43.889  0.0000E+00  0.0000E+00
    -43.618  0.0000E+00  0.0000E+00
    -43.346  0.0000E+00  0.0000E+00
    -43.075  0.0000E+00  0.0000E+00
    -42.804  0.0000E+00  0.0000E+00
    -42.533  0.0000E+00  0.0000E+00
    -42.262  0.0000E+00  0.0000E+00
    -41.990  0.0000E+00  0.0000E+00
    -41.719  0.1153E-08  0.3126E-09
    -41.448  0.6563E-01  0.1780E-01
    -41.177  0.2246E+00  0.7872E-01
    -40.905  0.1522E+00  0.1200E+00
    -40.634  0.1122E-04  0.1200E+00
    -40.363  0.0000E+00  0.1200E+00
    -40.092  0.0000E+00  0.1200E+00
    -39.820  0.0000E+00  0.1200E+00
    -39.549  0.0000E+00  0.1200E+00
    -39.278  0.0000E+00  0.1200E+00
    -39.007  0.0000E+00  0.1200E+00
    -38.736  0.0000E+00  0.1200E+00
    -38.464  0.0000E+00  0.1200E+00
    -38.193  0.0000E+00  0.1200E+00
    -37.922  0.0000E+00  0.1200E+00
    -37.651  0.0000E+00  0.1200E+00
    -37.379  0.0000E+00  0.1200E+00
    -37.108  0.0000E+00  0.1200E+00
    -36.837  0.0000E+00  0.1200E+00
    -36.566  0.0000E+00  0.1200E+00
    -36.295  0.0000E+00  0.1200E+00
    -36.023  0.0000E+00  0.1200E+00
    -35.752  0.0000E+00  0.1200E+00
    -35.481  0.0000E+00  0.1200E+00
    -35.210  0.0000E+00  0.1200E+00
    -34.938  0.0000E+00  0.1200E+00
    -34.667  0.0000E+00  0.1200E+00
    -34.396  0.0000E+00  0.1200E+00
    -34.125  0.0000E+00  0.1200E+00
    -33.854  0.0000E+00  0.1200E+00
    -33.582  0.0000E+00  0.1200E+00
    -33.311  0.0000E+00  0.1200E+00
    -33.040  0.0000E+00  0.1200E+00
    -32.769  0.0000E+00  0.1200E+00
    -32.497  0.0000E+00  0.1200E+00
    -32.226  0.0000E+00  0.1200E+00
    -31.955  0.0000E+00  0.1200E+00
    -31.684  0.0000E+00  0.1200E+00
    -31.413  0.0000E+00  0.1200E+00
    -31.141  0.0000E+00  0.1200E+00
    -30.870  0.0000E+00  0.1200E+00
    -30.599  0.0000E+00  0.1200E+00
    -30.328  0.0000E+00  0.1200E+00
    -30.056  0.0000E+00  0.1200E+00
    -29.785  0.0000E+00  0.1200E+00
    -29.514  0.0000E+00  0.1200E+00
    -29.243  0.0000E+00  0.1200E+00
    -28.972  0.0000E+00  0.1200E+00
    -28.700  0.0000E+00  0.1200E+00
    -28.429  0.0000E+00  0.1200E+00
    -28.158  0.0000E+00  0.1200E+00
    -27.887  0.0000E+00  0.1200E+00
    -27.615  0.0000E+00  0.1200E+00
    -27.344  0.0000E+00  0.1200E+00
    -27.073  0.0000E+00  0.1200E+00
    -26.802  0.0000E+00  0.1200E+00
    -26.531  0.0000E+00  0.1200E+00
    -26.259  0.0000E+00  0.1200E+00
    -25.988  0.0000E+00  0.1200E+00
    -25.717  0.0000E+00  0.1200E+00
    -25.446  0.0000E+00  0.1200E+00
    -25.174  0.0000E+00  0.1200E+00
    -24.903  0.0000E+00  0.1200E+00
    -24.632  0.0000E+00  0.1200E+00
    -24.361  0.0000E+00  0.1200E+00
    -24.090  0.0000E+00  0.1200E+00
    -23.818  0.0000E+00  0.1200E+00
    -23.547  0.0000E+00  0.1200E+00
    -23.276  0.0000E+00  0.1200E+00
    -23.005  0.0000E+00  0.1200E+00
    -22.733  0.0000E+00  0.1200E+00
    -22.462  0.0000E+00  0.1200E+00
    -22.191  0.0000E+00  0.1200E+00
    -21.920  0.0000E+00  0.1200E+00
    -21.649  0.0000E+00  0.1200E+00
    -21.377  0.0000E+00  0.1200E+00
    -21.106  0.0000E+00  0.1200E+00
    -20.835  0.0000E+00  0.1200E+00
    -20.564  0.0000E+00  0.1200E+00
    -20.292  0.0000E+00  0.1200E+00
    -20.021  0.0000E+00  0.1200E+00
    -19.750  0.0000E+00  0.1200E+00
    -19.479  0.0000E+00  0.1200E+00
    -19.208  0.0000E+00  0.1200E+00
    -18.936  0.0000E+00  0.1200E+00
    -18.665  0.0000E+00  0.1200E+00
    -18.394  0.0000E+00  0.1200E+00
    -18.123  0.0000E+00  0.1200E+00
    -17.851  0.0000E+00  0.1200E+00
    -17.580  0.0000E+00  0.1200E+00
    -17.309  0.0000E+00  0.1200E+00
    -17.038  0.0000E+00  0.1200E+00
    -16.767  0.0000E+00  0.1200E+00
    -16.495  0.0000E+00  0.1200E+00
    -16.224  0.0000E+00  0.1200E+00
    -15.953  0.0000E+00  0.1200E+00
    -15.682  0.0000E+00  0.1200E+00
    -15.410  0.0000E+00  0.1200E+00
    -15.139  0.0000E+00  0.1200E+00
    -14.868  0.0000E+00  0.1200E+00
    -14.597  0.0000E+00  0.1200E+00
    -14.325  0.0000E+00  0.1200E+00
    -14.054  0.0000E+00  0.1200E+00
    -13.783  0.0000E+00  0.1200E+00
    -13.512  0.0000E+00  0.1200E+00
    -13.241  0.0000E+00  0.1200E+00
    -12.969  0.0000E+00  0.1200E+00
    -12.698  0.0000E+00  0.1200E+00
    -12.427  0.0000E+00  0.1200E+00
    -12.156  0.0000E+00  0.1200E+00
    -11.884  0.0000E+00  0.1200E+00
    -11.613  0.0000E+00  0.1200E+00
    -11.342  0.0000E+00  0.1200E+00
    -11.071  0.0000E+00  0.1200E+00
    -10.800  0.0000E+00  0.1200E+00
    -10.528  0.0000E+00  0.1200E+00
    -10.257  0.0000E+00  0.1200E+00
     -9.986  0.0000E+00  0.1200E+00
     -9.715  0.0000E+00  0.1200E+00
     -9.443  0.0000E+00  0.1200E+00
     -9.172  0.0000E+00  0.1200E+00
     -8.901  0.0000E+00  0.1200E+00
     -8.630  0.0000E+00  0.1200E+00
     -8.359  0.0000E+00  0.1200E+00
     -8.087  0.0000E+00  0.1200E+00
     -7.816  0.0000E+00  0.1200E+00
     -7.545  0.0000E+00  0.1200E+00
     -7.274  0.0000E+00  0.1200E+00
     -7.002  0.0000E+00  0.1200E+00
     -6.731  0.0000E+00  0.1200E+00
     -6.460  0.0000E+00  0.1200E+00
     -6.189  0.0000E+00  0.1200E+00
     -5.918  0.0000E+00  0.1200E+00
     -5.646  0.0000E+00  0.1200E+00
     -5.375  0.0000E+00  0.1200E+00
     -5.104  0.0000E+00  0.1200E+00
     -4.833  0.0000E+00  0.1200E+00
     -4.561  0.0000E+00  0.1200E+00
     -4.290  0.0000E+00  0.1200E+00
     -4.019  0.0000E+00  0.1200E+00
     -3.748  0.0000E+00  0.1200E+00
     -3.477  0.0000E+00  0.1200E+00
     -3.205  0.0000E+00  0.1200E+00
     -2.934  0.0000E+00  0.1200E+00
     -2.663  0.0000E+00  0.1200E+00
     -2.392  0.0000E+00  0.1200E+00
     -2.120  0.0000E+00  0.1200E+00
     -1.849  0.0000E+00  0.1200E+00
     -1.578  0.0000E+00  0.1200E+00
     -1.307  0.0000E+00  0.1200E+00
     -1.036  0.0000E+00  0.1200E+00
     -0.764  0.0000E+00  0.1200E+00
     -0.493  0.0000E+00  0.1200E+00
     -0.222  0.0000E+00  0.1200E+00
      0.049  0.0000E+00  0.1200E+00
      0.321  0.0000E+00  0.1200E+00
      0.592  0.0000E+00  0.1200E+00
      0.863  0.0000E+00  0.1200E+00
      1.134  0.0000E+00  0.1200E+00
      1.405  0.4248E-06  0.1200E+00
      1.677  0.2563E-03  0.1201E+00
      1.948  0.6777E-03  0.1203E+00
      2.219  0.1186E-02  0.1206E+00
      2.490  0.1134E-02  0.1209E+00
      2.762  0.1812E-02  0.1214E+00
      3.033  0.3275E-02  0.1223E+00
      3.304  0.1265E-02  0.1226E+00
      3.575  0.1315E-02  0.1230E+00
      3.846  0.5378E-02  0.1244E+00
      4.118  0.4341E-02  0.1256E+00
      4.389  0.4618E-02  0.1269E+00
      4.660  0.1055E-01  0.1297E+00
      4.931  0.2077E-01  0.1353E+00
      5.203  0.2569E-01  0.1423E+00
      5.474  0.2146E-01  0.1481E+00
      5.745  0.1942E-01  0.1534E+00
      6.016  0.2348E-01  0.1598E+00
      6.287  0.3457E-01  0.1691E+00
      6.559  0.2708E-01  0.1765E+00
      6.830  0.2964E-01  0.1845E+00
      7.101  0.3083E-01  0.1929E+00
      7.372  0.2707E-01  0.2002E+00
      7.644  0.3013E-01  0.2084E+00
      7.915  0.3296E-01  0.2173E+00
      8.186  0.4031E-01  0.2283E+00
      8.457  0.2681E-01  0.2355E+00
      8.728  0.4476E-01  0.2477E+00
      9.000  0.3217E-01  0.2564E+00
      9.271  0.2185E-01  0.2623E+00
      9.542  0.2336E-01  0.2687E+00
      9.813  0.2205E-01  0.2747E+00
     10.085  0.2831E-01  0.2823E+00
     10.356  0.2490E-01  0.2891E+00
     10.627  0.2518E-01  0.2959E+00
     10.898  0.2335E-01  0.3022E+00
     11.169  0.4410E-01  0.3142E+00
     11.441  0.3944E-01  0.3249E+00
     11.712  0.2456E-01  0.3316E+00
     11.983  0.9954E-02  0.3343E+00
     12.254  0.6123E-02  0.3359E+00
     12.526  0.3040E-02  0.3368E+00
     12.797  0.1675E-02  0.3372E+00
     13.068  0.2939E-02  0.3380E+00
     13.339  0.1115E-01  0.3410E+00
     13.611  0.9726E-02  0.3437E+00
     13.882  0.5377E-02  0.3451E+00
     14.153  0.1078E-02  0.3454E+00
     14.424  0.4210E-02  0.3466E+00
     14.695  0.6550E-02  0.3483E+00
     14.967  0.2170E-02  0.3489E+00
     15.238  0.7135E-02  0.3509E+00
     15.509  0.4725E-02  0.3521E+00
     15.780  0.4699E-02  0.3534E+00
     16.052  0.9154E-02  0.3559E+00
     16.323  0.5387E-02  0.3574E+00
     16.594  0.4121E-02  0.3585E+00
     16.865  0.3223E-02  0.3593E+00
     17.136  0.2125E-02  0.3599E+00
     17.408  0.2054E-02  0.3605E+00
     17.679  0.5457E-02  0.3620E+00
     17.950  0.1050E-01  0.3648E+00
     18.221  0.9594E-02  0.3674E+00
     18.493  0.8415E-02  0.3697E+00
     18.764  0.7282E-02  0.3717E+00
     19.035  0.8295E-02  0.3739E+00
     19.306  0.7315E-02  0.3759E+00
     19.577  0.4854E-02  0.3772E+00
     19.849  0.4943E-02  0.3786E+00
     20.120  0.7404E-02  0.3806E+00
     20.391  0.9858E-02  0.3832E+00
     20.662  0.9716E-02  0.3859E+00
     20.934  0.5870E-02  0.3875E+00
     21.205  0.2815E-02  0.3882E+00
     21.476  0.6591E-02  0.3900E+00
     21.747  0.1048E-01  0.3929E+00
     22.018  0.6940E-02  0.3947E+00
     22.290  0.5215E-02  0.3962E+00
     22.561  0.3289E-02  0.3971E+00
     22.832  0.1050E-01  0.3999E+00
     23.103  0.3237E-02  0.4008E+00
     23.375  0.4372E-02  0.4020E+00
     23.646  0.1123E-01  0.4050E+00
     23.917  0.1185E-01  0.4082E+00
     24.188  0.9901E-02  0.4109E+00
     24.459  0.6866E-02  0.4128E+00
     24.731  0.7317E-02  0.4148E+00
     25.002  0.3563E-02  0.4157E+00
     25.273  0.9808E-02  0.4184E+00
     25.544  0.1978E-01  0.4237E+00
     25.816  0.1973E-01  0.4291E+00
     26.087  0.1370E-01  0.4328E+00
     26.358  0.1586E-01  0.4371E+00
     26.629  0.1047E-01  0.4400E+00
     26.900  0.1183E-01  0.4432E+00
     27.172  0.1094E-01  0.4461E+00
     27.443  0.1983E-01  0.4515E+00
     27.714  0.1948E-01  0.4568E+00
     27.985  0.1093E-01  0.4598E+00
     28.257  0.1202E-01  0.4630E+00
     28.528  0.1263E-01  0.4664E+00
     28.799  0.8001E-02  0.4686E+00
     29.070  0.8107E-02  0.4708E+00
     29.341  0.7150E-02  0.4728E+00
     29.613  0.5885E-02  0.4743E+00
     29.884  0.2323E-02  0.4750E+00
     30.155  0.5901E-02  0.4766E+00
     30.426  0.3424E-02  0.4775E+00
     30.698  0.1129E-02  0.4778E+00
     30.969  0.6215E-02  0.4795E+00
     31.240  0.4761E-03  0.4796E+00
     31.511  0.6330E-03  0.4798E+00
     31.782  0.1972E-03  0.4799E+00
     32.054  0.3558E-03  0.4799E+00
     32.325  0.4865E-06  0.4800E+00
     32.596  0.1839E-03  0.4800E+00
     32.867  0.0000E+00  0.4800E+00
     33.139  0.0000E+00  0.4800E+00
     33.410  0.0000E+00  0.4800E+00
     33.681  0.0000E+00  0.4800E+00
     33.952  0.0000E+00  0.4800E+00
     34.223  0.0000E+00  0.4800E+00
     34.495  0.0000E+00  0.4800E+00
     34.766  0.0000E+00  0.4800E+00
     35.037  0.0000E+00  0.4800E+00
     35.308  0.0000E+00  0.4800E+00
     35.580  0.0000E+00  0.4800E+00
     35.851  0.0000E+00  0.4800E+00
     36.122  0.0000E+00  0.4800E+00
     36.12203941    -45.24495847  301     11.30311679      1.00000000
    -45.245  0.0000E+00  0.0000E+00  0.0000E+00  0.0000E+00  0.0000E+00  0.0000E+00  0.0000E+00  0.0000E+00  0.0000E+00
    -44.974  0.0000E+00  0.0000E+00  0.0000E+00  0.0000E+00  0.0000E+00  0.0000E+00  0.0000E+00  0.0000E+00  0.0000E+00
    -44.703  0.0000E+00  0.0000E+00  0.0000E+00  0.0000E+00  0.0000E+00  0.0000E+00  0.0000E+00  0.0000E+00  0.0000E+00
    -44.431  0.0000E+00  0.0000E+00  0.0000E+00  0.0000E+00  0.0000E+00  0.0000E+00  0.0000E+00  0.0000E+00  0.0000E+00
    -44.160  0.0000E+00  0.0000E+00  0.0000E+00  0.0000E+00  0.0000E+00  0.0000E+00  0.0000E+00  0.0000E+00  0.0000E+00
    -43.889  0.0000E+00  0.0000E+00  0.0000E+00  0.0000E+00  0.0000E+00  0.0000E+00  0.0000E+00  0.0000E+00  0.0000E+00
    -43.618  0.0000E+00  0.0000E+00  0.0000E+00  0.0000E+00  0.0000E+00  0.0000E+00  0.0000E+00  0.0000E+00  0.0000E+00
    -43.346  0.0000E+00  0.0000E+00  0.0000E+00  0.0000E+00  0.0000E+00  0.0000E+00  0.0000E+00  0.0000E+00  0.0000E+00
    -43.075  0.0000E+00  0.0000E+00  0.0000E+00  0.0000E+00  0.0000E+00  0.0000E+00  0.0000E+00  0.0000E+00  0.0000E+00
    -42.804  0.0000E+00  0.0000E+00  0.0000E+00  0.0000E+00  0.0000E+00  0.0000E+00  0.0000E+00  0.0000E+00  0.0000E+00
    -42.533  0.0000E+00  0.0000E+00  0.0000E+00  0.0000E+00  0.0000E+00  0.0000E+00  0.0000E+00  0.0000E+00  0.0000E+00
    -42.262  0.0000E+00  0.0000E+00  0.0000E+00  0.0000E+00  0.0000E+00  0.0000E+00  0.0000E+00  0.0000E+00  0.0000E+00
    -41.990  0.0000E+00  0.0000E+00  0.0000E+00  0.0000E+00  0.0000E+00  0.0000E+00  0.0000E+00  0.0000E+00  0.0000E+00
    -41.719  0.3028E-12  0.2771E-07  0.1221E-08  0.2771E-07  0.5668E-13  0.2094E-13  0.3265E-12  0.2094E-13  0.5668E-13
    -41.448  0.6803E-04  0.1576E+01  0.7898E-01  0.1576E+01  0.3168E-04  0.2801E-05  0.3873E-04  0.2801E-05  0.3168E-04
    -41.177  0.2366E-03  0.4656E+01  0.1811E+01  0.4656E+01  0.1527E-03  0.3243E-04  0.1051E-03  0.3243E-04  0.1527E-03
    -40.905  0.2980E-04  0.1071E+01  0.5413E+01  0.1071E+01  0.1748E-04  0.3586E-04  0.4151E-04  0.3586E-04  0.1748E-04
    -40.634  0.9490E-09  0.7820E-06  0.5565E-03  0.7820E-06  0.3012E-10  0.6754E-09  0.8474E-09  0.6754E-09  0.3012E-10
    -40.363  0.0000E+00  0.0000E+00  0.0000E+00  0.0000E+00  0.0000E+00  0.0000E+00  0.0000E+00  0.0000E+00  0.0000E+00
    -40.092  0.0000E+00  0.0000E+00  0.0000E+00  0.0000E+00  0.0000E+00  0.0000E+00  0.0000E+00  0.0000E+00  0.0000E+00
    -39.820  0.0000E+00  0.0000E+00  0.0000E+00  0.0000E+00  0.0000E+00  0.0000E+00  0.0000E+00  0.0000E+00  0.0000E+00
    -39.549  0.0000E+00  0.0000E+00  0.0000E+00  0.0000E+00  0.0000E+00  0.0000E+00  0.0000E+00  0.0000E+00  0.0000E+00
    -39.278  0.0000E+00  0.0000E+00  0.0000E+00  0.0000E+00  0.0000E+00  0.0000E+00  0.0000E+00  0.0000E+00  0.0000E+00
    -39.007  0.0000E+00  0.0000E+00  0.0000E+00  0.0000E+00  0.0000E+00  0.0000E+00  0.0000E+00  0.0000E+00  0.0000E+00
    -38.736  0.0000E+00  0.0000E+00  0.0000E+00  0.0000E+00  0.0000E+00  0.0000E+00  0.0000E+00  0.0000E+00  0.0000E+00
    -38.464  0.0000E+00  0.0000E+00  0.0000E+00  0.0000E+00  0.0000E+00  0.0000E+00  0.0000E+00  0.0000E+00  0.0000E+00
    -38.193  0.0000E+00  0.0000E+00  0.0000E+00  0.0000E+00  0.0000E+00  0.0000E+00  0.0000E+00  0.0000E+00  0.0000E+00
    -37.922  0.0000E+00  0.0000E+00  0.0000E+00  0.0000E+00  0.0000E+00  0.0000E+00  0.0000E+00  0.0000E+00  0.0000E+00
    -37.651  0.0000E+00  0.0000E+00  0.0000E+00  0.0000E+00  0.0000E+00  0.0000E+00  0.0000E+00  0.0000E+00  0.0000E+00
    -37.379  0.0000E+00  0.0000E+00  0.0000E+00  0.0000E+00  0.0000E+00  0.0000E+00  0.0000E+00  0.0000E+00  0.0000E+00
    -37.108  0.0000E+00  0.0000E+00  0.0000E+00  0.0000E+00  0.0000E+00  0.0000E+00  0.0000E+00  0.0000E+00  0.0000E+00
    -36.837  0.0000E+00  0.0000E+00  0.0000E+00  0.0000E+00  0.0000E+00  0.0000E+00  0.0000E+00  0.0000E+00  0.0000E+00
    -36.566  0.0000E+00  0.0000E+00  0.0000E+00  0.0000E+00  0.0000E+00  0.0000E+00  0.0000E+00  0.0000E+00  0.0000E+00
    -36.295  0.0000E+00  0.0000E+00  0.0000E+00  0.0000E+00  0.0000E+00  0.0000E+00  0.0000E+00  0.0000E+00  0.0000E+00
    -36.023  0.0000E+00  0.0000E+00  0.0000E+00  0.0000E+00  0.0000E+00  0.0000E+00  0.0000E+00  0.0000E+00  0.0000E+00
    -35.752  0.0000E+00  0.0000E+00  0.0000E+00  0.0000E+00  0.0000E+00  0.0000E+00  0.0000E+00  0.0000E+00  0.0000E+00
    -35.481  0.0000E+00  0.0000E+00  0.0000E+00  0.0000E+00  0.0000E+00  0.0000E+00  0.0000E+00  0.0000E+00  0.0000E+00
    -35.210  0.0000E+00  0.0000E+00  0.0000E+00  0.0000E+00  0.0000E+00  0.0000E+00  0.0000E+00  0.0000E+00  0.0000E+00
    -34.938  0.0000E+00  0.0000E+00  0.0000E+00  0.0000E+00  0.0000E+00  0.0000E+00  0.0000E+00  0.0000E+00  0.0000E+00
    -34.667  0.0000E+00  0.0000E+00  0.0000E+00  0.0000E+00  0.0000E+00  0.0000E+00  0.0000E+00  0.0000E+00  0.0000E+00
    -34.396  0.0000E+00  0.0000E+00  0.0000E+00  0.0000E+00  0.0000E+00  0.0000E+00  0.0000E+00  0.0000E+00  0.0000E+00
    -34.125  0.0000E+00  0.0000E+00  0.0000E+00  0.0000E+00  0.0000E+00  0.0000E+00  0.0000E+00  0.0000E+00  0.0000E+00
    -33.854  0.0000E+00  0.0000E+00  0.0000E+00  0.0000E+00  0.0000E+00  0.0000E+00  0.0000E+00  0.0000E+00  0.0000E+00
    -33.582  0.0000E+00  0.0000E+00  0.0000E+00  0.0000E+00  0.0000E+00  0.0000E+00  0.0000E+00  0.0000E+00  0.0000E+00
    -33.311  0.0000E+00  0.0000E+00  0.0000E+00  0.0000E+00  0.0000E+00  0.0000E+00  0.0000E+00  0.0000E+00  0.0000E+00
    -33.040  0.0000E+00  0.0000E+00  0.0000E+00  0.0000E+00  0.0000E+00  0.0000E+00  0.0000E+00  0.0000E+00  0.0000E+00
    -32.769  0.0000E+00  0.0000E+00  0.0000E+00  0.0000E+00  0.0000E+00  0.0000E+00  0.0000E+00  0.0000E+00  0.0000E+00
    -32.497  0.0000E+00  0.0000E+00  0.0000E+00  0.0000E+00  0.0000E+00  0.0000E+00  0.0000E+00  0.0000E+00  0.0000E+00
    -32.226  0.0000E+00  0.0000E+00  0.0000E+00  0.0000E+00  0.0000E+00  0.0000E+00  0.0000E+00  0.0000E+00  0.0000E+00
    -31.955  0.0000E+00  0.0000E+00  0.0000E+00  0.0000E+00  0.0000E+00  0.0000E+00  0.0000E+00  0.0000E+00  0.0000E+00
    -31.684  0.0000E+00  0.0000E+00  0.0000E+00  0.0000E+00  0.0000E+00  0.0000E+00  0.0000E+00  0.0000E+00  0.0000E+00
    -31.413  0.0000E+00  0.0000E+00  0.0000E+00  0.0000E+00  0.0000E+00  0.0000E+00  0.0000E+00  0.0000E+00  0.0000E+00
    -31.141  0.0000E+00  0.0000E+00  0.0000E+00  0.0000E+00  0.0000E+00  0.0000E+00  0.0000E+00  0.0000E+00  0.0000E+00
    -30.870  0.0000E+00  0.0000E+00  0.0000E+00  0.0000E+00  0.0000E+00  0.0000E+00  0.0000E+00  0.0000E+00  0.0000E+00
    -30.599  0.0000E+00  0.0000E+00  0.0000E+00  0.0000E+00  0.0000E+00  0.0000E+00  0.0000E+00  0.0000E+00  0.0000E+00
    -30.328  0.0000E+00  0.0000E+00  0.0000E+00  0.0000E+00  0.0000E+00  0.0000E+00  0.0000E+00  0.0000E+00  0.0000E+00
    -30.056  0.0000E+00  0.0000E+00  0.0000E+00  0.0000E+00  0.0000E+00  0.0000E+00  0.0000E+00  0.0000E+00  0.0000E+00
    -29.785  0.0000E+00  0.0000E+00  0.0000E+00  0.0000E+00  0.0000E+00  0.0000E+00  0.0000E+00  0.0000E+00  0.0000E+00
    -29.514  0.0000E+00  0.0000E+00  0.0000E+00  0.0000E+00  0.0000E+00  0.0000E+00  0.0000E+00  0.0000E+00  0.0000E+00
    -29.243  0.0000E+00  0.0000E+00  0.0000E+00  0.0000E+00  0.0000E+00  0.0000E+00  0.0000E+00  0.0000E+00  0.0000E+00
    -28.972  0.0000E+00  0.0000E+00  0.0000E+00  0.0000E+00  0.0000E+00  0.0000E+00  0.0000E+00  0.0000E+00  0.0000E+00
    -28.700  0.0000E+00  0.0000E+00  0.0000E+00  0.0000E+00  0.0000E+00  0.0000E+00  0.0000E+00  0.0000E+00  0.0000E+00
    -28.429  0.0000E+00  0.0000E+00  0.0000E+00  0.0000E+00  0.0000E+00  0.0000E+00  0.0000E+00  0.0000E+00  0.0000E+00
    -28.158  0.0000E+00  0.0000E+00  0.0000E+00  0.0000E+00  0.0000E+00  0.0000E+00  0.0000E+00  0.0000E+00  0.0000E+00
    -27.887  0.0000E+00  0.0000E+00  0.0000E+00  0.0000E+00  0.0000E+00  0.0000E+00  0.0000E+00  0.0000E+00  0.0000E+00
    -27.615  0.0000E+00  0.0000E+00  0.0000E+00  0.0000E+00  0.0000E+00  0.0000E+00  0.0000E+00  0.0000E+00  0.0000E+00
    -27.344  0.0000E+00  0.0000E+00  0.0000E+00  0.0000E+00  0.0000E+00  0.0000E+00  0.0000E+00  0.0000E+00  0.0000E+00
    -27.073  0.0000E+00  0.0000E+00  0.0000E+00  0.0000E+00  0.0000E+00  0.0000E+00  0.0000E+00  0.0000E+00  0.0000E+00
    -26.802  0.0000E+00  0.0000E+00  0.0000E+00  0.0000E+00  0.0000E+00  0.0000E+00  0.0000E+00  0.0000E+00  0.0000E+00
    -26.531  0.0000E+00  0.0000E+00  0.0000E+00  0.0000E+00  0.0000E+00  0.0000E+00  0.0000E+00  0.0000E+00  0.0000E+00
    -26.259  0.0000E+00  0.0000E+00  0.0000E+00  0.0000E+00  0.0000E+00  0.0000E+00  0.0000E+00  0.0000E+00  0.0000E+00
    -25.988  0.0000E+00  0.0000E+00  0.0000E+00  0.0000E+00  0.0000E+00  0.0000E+00  0.0000E+00  0.0000E+00  0.0000E+00
    -25.717  0.0000E+00  0.0000E+00  0.0000E+00  0.0000E+00  0.0000E+00  0.0000E+00  0.0000E+00  0.0000E+00  0.0000E+00
    -25.446  0.0000E+00  0.0000E+00  0.0000E+00  0.0000E+00  0.0000E+00  0.0000E+00  0.0000E+00  0.0000E+00  0.0000E+00
    -25.174  0.0000E+00  0.0000E+00  0.0000E+00  0.0000E+00  0.0000E+00  0.0000E+00  0.0000E+00  0.0000E+00  0.0000E+00
    -24.903  0.0000E+00  0.0000E+00  0.0000E+00  0.0000E+00  0.0000E+00  0.0000E+00  0.0000E+00  0.0000E+00  0.0000E+00
    -24.632  0.0000E+00  0.0000E+00  0.0000E+00  0.0000E+00  0.0000E+00  0.0000E+00  0.0000E+00  0.0000E+00  0.0000E+00
    -24.361  0.0000E+00  0.0000E+00  0.0000E+00  0.0000E+00  0.0000E+00  0.0000E+00  0.0000E+00  0.0000E+00  0.0000E+00
    -24.090  0.0000E+00  0.0000E+00  0.0000E+00  0.0000E+00  0.0000E+00  0.0000E+00  0.0000E+00  0.0000E+00  0.0000E+00
    -23.818  0.0000E+00  0.0000E+00  0.0000E+00  0.0000E+00  0.0000E+00  0.0000E+00  0.0000E+00  0.0000E+00  0.0000E+00
    -23.547  0.0000E+00  0.0000E+00  0.0000E+00  0.0000E+00  0.0000E+00  0.0000E+00  0.0000E+00  0.0000E+00  0.0000E+00
    -23.276  0.0000E+00  0.0000E+00  0.0000E+00  0.0000E+00  0.0000E+00  0.0000E+00  0.0000E+00  0.0000E+00  0.0000E+00
    -23.005  0.0000E+00  0.0000E+00  0.0000E+00  0.0000E+00  0.0000E+00  0.0000E+00  0.0000E+00  0.0000E+00  0.0000E+00
    -22.733  0.0000E+00  0.0000E+00  0.0000E+00  0.0000E+00  0.0000E+00  0.0000E+00  0.0000E+00  0.0000E+00  0.0000E+00
    -22.462  0.0000E+00  0.0000E+00  0.0000E+00  0.0000E+00  0.0000E+00  0.0000E+00  0.0000E+00  0.0000E+00  0.0000E+00
    -22.191  0.0000E+00  0.0000E+00  0.0000E+00  0.0000E+00  0.0000E+00  0.0000E+00  0.0000E+00  0.0000E+00  0.0000E+00
    -21.920  0.0000E+00  0.0000E+00  0.0000E+00  0.0000E+00  0.0000E+00  0.0000E+00  0.0000E+00  0.0000E+00  0.0000E+00
    -21.649  0.0000E+00  0.0000E+00  0.0000E+00  0.0000E+00  0.0000E+00  0.0000E+00  0.0000E+00  0.0000E+00  0.0000E+00
    -21.377  0.0000E+00  0.0000E+00  0.0000E+00  0.0000E+00  0.0000E+00  0.0000E+00  0.0000E+00  0.0000E+00  0.0000E+00
    -21.106  0.0000E+00  0.0000E+00  0.0000E+00  0.0000E+00  0.0000E+00  0.0000E+00  0.0000E+00  0.0000E+00  0.0000E+00
    -20.835  0.0000E+00  0.0000E+00  0.0000E+00  0.0000E+00  0.0000E+00  0.0000E+00  0.0000E+00  0.0000E+00  0.0000E+00
    -20.564  0.0000E+00  0.0000E+00  0.0000E+00  0.0000E+00  0.0000E+00  0.0000E+00  0.0000E+00  0.0000E+00  0.0000E+00
    -20.292  0.0000E+00  0.0000E+00  0.0000E+00  0.0000E+00  0.0000E+00  0.0000E+00  0.0000E+00  0.0000E+00  0.0000E+00
    -20.021  0.0000E+00  0.0000E+00  0.0000E+00  0.0000E+00  0.0000E+00  0.0000E+00  0.0000E+00  0.0000E+00  0.0000E+00
    -19.750  0.0000E+00  0.0000E+00  0.0000E+00  0.0000E+00  0.0000E+00  0.0000E+00  0.0000E+00  0.0000E+00  0.0000E+00
    -19.479  0.0000E+00  0.0000E+00  0.0000E+00  0.0000E+00  0.0000E+00  0.0000E+00  0.0000E+00  0.0000E+00  0.0000E+00
    -19.208  0.0000E+00  0.0000E+00  0.0000E+00  0.0000E+00  0.0000E+00  0.0000E+00  0.0000E+00  0.0000E+00  0.0000E+00
    -18.936  0.0000E+00  0.0000E+00  0.0000E+00  0.0000E+00  0.0000E+00  0.0000E+00  0.0000E+00  0.0000E+00  0.0000E+00
    -18.665  0.0000E+00  0.0000E+00  0.0000E+00  0.0000E+00  0.0000E+00  0.0000E+00  0.0000E+00  0.0000E+00  0.0000E+00
    -18.394  0.0000E+00  0.0000E+00  0.0000E+00  0.0000E+00  0.0000E+00  0.0000E+00  0.0000E+00  0.0000E+00  0.0000E+00
    -18.123  0.0000E+00  0.0000E+00  0.0000E+00  0.0000E+00  0.0000E+00  0.0000E+00  0.0000E+00  0.0000E+00  0.0000E+00
    -17.851  0.0000E+00  0.0000E+00  0.0000E+00  0.0000E+00  0.0000E+00  0.0000E+00  0.0000E+00  0.0000E+00  0.0000E+00
    -17.580  0.0000E+00  0.0000E+00  0.0000E+00  0.0000E+00  0.0000E+00  0.0000E+00  0.0000E+00  0.0000E+00  0.0000E+00
    -17.309  0.0000E+00  0.0000E+00  0.0000E+00  0.0000E+00  0.0000E+00  0.0000E+00  0.0000E+00  0.0000E+00  0.0000E+00
    -17.038  0.0000E+00  0.0000E+00  0.0000E+00  0.0000E+00  0.0000E+00  0.0000E+00  0.0000E+00  0.0000E+00  0.0000E+00
    -16.767  0.0000E+00  0.0000E+00  0.0000E+00  0.0000E+00  0.0000E+00  0.0000E+00  0.0000E+00  0.0000E+00  0.0000E+00
    -16.495  0.0000E+00  0.0000E+00  0.0000E+00  0.0000E+00  0.0000E+00  0.0000E+00  0.0000E+00  0.0000E+00  0.0000E+00
    -16.224  0.0000E+00  0.0000E+00  0.0000E+00  0.0000E+00  0.0000E+00  0.0000E+00  0.0000E+00  0.0000E+00  0.0000E+00
    -15.953  0.0000E+00  0.0000E+00  0.0000E+00  0.0000E+00  0.0000E+00  0.0000E+00  0.0000E+00  0.0000E+00  0.0000E+00
    -15.682  0.0000E+00  0.0000E+00  0.0000E+00  0.0000E+00  0.0000E+00  0.0000E+00  0.0000E+00  0.0000E+00  0.0000E+00
    -15.410  0.0000E+00  0.0000E+00  0.0000E+00  0.0000E+00  0.0000E+00  0.0000E+00  0.0000E+00  0.0000E+00  0.0000E+00
    -15.139  0.0000E+00  0.0000E+00  0.0000E+00  0.0000E+00  0.0000E+00  0.0000E+00  0.0000E+00  0.0000E+00  0.0000E+00
    -14.868  0.0000E+00  0.0000E+00  0.0000E+00  0.0000E+00  0.0000E+00  0.0000E+00  0.0000E+00  0.0000E+00  0.0000E+00
    -14.597  0.0000E+00  0.0000E+00  0.0000E+00  0.0000E+00  0.0000E+00  0.0000E+00  0.0000E+00  0.0000E+00  0.0000E+00
    -14.325  0.0000E+00  0.0000E+00  0.0000E+00  0.0000E+00  0.0000E+00  0.0000E+00  0.0000E+00  0.0000E+00  0.0000E+00
    -14.054  0.0000E+00  0.0000E+00  0.0000E+00  0.0000E+00  0.0000E+00  0.0000E+00  0.0000E+00  0.0000E+00  0.0000E+00
    -13.783  0.0000E+00  0.0000E+00  0.0000E+00  0.0000E+00  0.0000E+00  0.0000E+00  0.0000E+00  0.0000E+00  0.0000E+00
    -13.512  0.0000E+00  0.0000E+00  0.0000E+00  0.0000E+00  0.0000E+00  0.0000E+00  0.0000E+00  0.0000E+00  0.0000E+00
    -13.241  0.0000E+00  0.0000E+00  0.0000E+00  0.0000E+00  0.0000E+00  0.0000E+00  0.0000E+00  0.0000E+00  0.0000E+00
    -12.969  0.0000E+00  0.0000E+00  0.0000E+00  0.0000E+00  0.0000E+00  0.0000E+00  0.0000E+00  0.0000E+00  0.0000E+00
    -12.698  0.0000E+00  0.0000E+00  0.0000E+00  0.0000E+00  0.0000E+00  0.0000E+00  0.0000E+00  0.0000E+00  0.0000E+00
    -12.427  0.0000E+00  0.0000E+00  0.0000E+00  0.0000E+00  0.0000E+00  0.0000E+00  0.0000E+00  0.0000E+00  0.0000E+00
    -12.156  0.0000E+00  0.0000E+00  0.0000E+00  0.0000E+00  0.0000E+00  0.0000E+00  0.0000E+00  0.0000E+00  0.0000E+00
    -11.884  0.0000E+00  0.0000E+00  0.0000E+00  0.0000E+00  0.0000E+00  0.0000E+00  0.0000E+00  0.0000E+00  0.0000E+00
    -11.613  0.0000E+00  0.0000E+00  0.0000E+00  0.0000E+00  0.0000E+00  0.0000E+00  0.0000E+00  0.0000E+00  0.0000E+00
    -11.342  0.0000E+00  0.0000E+00  0.0000E+00  0.0000E+00  0.0000E+00  0.0000E+00  0.0000E+00  0.0000E+00  0.0000E+00
    -11.071  0.0000E+00  0.0000E+00  0.0000E+00  0.0000E+00  0.0000E+00  0.0000E+00  0.0000E+00  0.0000E+00  0.0000E+00
    -10.800  0.0000E+00  0.0000E+00  0.0000E+00  0.0000E+00  0.0000E+00  0.0000E+00  0.0000E+00  0.0000E+00  0.0000E+00
    -10.528  0.0000E+00  0.0000E+00  0.0000E+00  0.0000E+00  0.0000E+00  0.0000E+00  0.0000E+00  0.0000E+00  0.0000E+00
    -10.257  0.0000E+00  0.0000E+00  0.0000E+00  0.0000E+00  0.0000E+00  0.0000E+00  0.0000E+00  0.0000E+00  0.0000E+00
     -9.986  0.0000E+00  0.0000E+00  0.0000E+00  0.0000E+00  0.0000E+00  0.0000E+00  0.0000E+00  0.0000E+00  0.0000E+00
     -9.715  0.0000E+00  0.0000E+00  0.0000E+00  0.0000E+00  0.0000E+00  0.0000E+00  0.0000E+00  0.0000E+00  0.0000E+00
     -9.443  0.0000E+00  0.0000E+00  0.0000E+00  0.0000E+00  0.0000E+00  0.0000E+00  0.0000E+00  0.0000E+00  0.0000E+00
     -9.172  0.0000E+00  0.0000E+00  0.0000E+00  0.0000E+00  0.0000E+00  0.0000E+00  0.0000E+00  0.0000E+00  0.0000E+00
     -8.901  0.0000E+00  0.0000E+00  0.0000E+00  0.0000E+00  0.0000E+00  0.0000E+00  0.0000E+00  0.0000E+00  0.0000E+00
     -8.630  0.0000E+00  0.0000E+00  0.0000E+00  0.0000E+00  0.0000E+00  0.0000E+00  0.0000E+00  0.0000E+00  0.0000E+00
     -8.359  0.0000E+00  0.0000E+00  0.0000E+00  0.0000E+00  0.0000E+00  0.0000E+00  0.0000E+00  0.0000E+00  0.0000E+00
     -8.087  0.0000E+00  0.0000E+00  0.0000E+00  0.0000E+00  0.0000E+00  0.0000E+00  0.0000E+00  0.0000E+00  0.0000E+00
     -7.816  0.0000E+00  0.0000E+00  0.0000E+00  0.0000E+00  0.0000E+00  0.0000E+00  0.0000E+00  0.0000E+00  0.0000E+00
     -7.545  0.0000E+00  0.0000E+00  0.0000E+00  0.0000E+00  0.0000E+00  0.0000E+00  0.0000E+00  0.0000E+00  0.0000E+00
     -7.274  0.0000E+00  0.0000E+00  0.0000E+00  0.0000E+00  0.0000E+00  0.0000E+00  0.0000E+00  0.0000E+00  0.0000E+00
     -7.002  0.0000E+00  0.0000E+00  0.0000E+00  0.0000E+00  0.0000E+00  0.0000E+00  0.0000E+00  0.0000E+00  0.0000E+00
     -6.731  0.0000E+00  0.0000E+00  0.0000E+00  0.0000E+00  0.0000E+00  0.0000E+00  0.0000E+00  0.0000E+00  0.0000E+00
     -6.460  0.0000E+00  0.0000E+00  0.0000E+00  0.0000E+00  0.0000E+00  0.0000E+00  0.0000E+00  0.0000E+00  0.0000E+00
     -6.189  0.0000E+00  0.0000E+00  0.0000E+00  0.0000E+00  0.0000E+00  0.0000E+00  0.0000E+00  0.0000E+00  0.0000E+00
     -5.918  0.0000E+00  0.0000E+00  0.0000E+00  0.0000E+00  0.0000E+00  0.0000E+00  0.0000E+00  0.0000E+00  0.0000E+00
     -5.646  0.0000E+00  0.0000E+00  0.0000E+00  0.0000E+00  0.0000E+00  0.0000E+00  0.0000E+00  0.0000E+00  0.0000E+00
     -5.375  0.0000E+00  0.0000E+00  0.0000E+00  0.0000E+00  0.0000E+00  0.0000E+00  0.0000E+00  0.0000E+00  0.0000E+00
     -5.104  0.0000E+00  0.0000E+00  0.0000E+00  0.0000E+00  0.0000E+00  0.0000E+00  0.0000E+00  0.0000E+00  0.0000E+00
     -4.833  0.0000E+00  0.0000E+00  0.0000E+00  0.0000E+00  0.0000E+00  0.0000E+00  0.0000E+00  0.0000E+00  0.0000E+00
     -4.561  0.0000E+00  0.0000E+00  0.0000E+00  0.0000E+00  0.0000E+00  0.0000E+00  0.0000E+00  0.0000E+00  0.0000E+00
     -4.290  0.0000E+00  0.0000E+00  0.0000E+00  0.0000E+00  0.0000E+00  0.0000E+00  0.0000E+00  0.0000E+00  0.0000E+00
     -4.019  0.0000E+00  0.0000E+00  0.0000E+00  0.0000E+00  0.0000E+00  0.0000E+00  0.0000E+00  0.0000E+00  0.0000E+00
     -3.748  0.0000E+00  0.0000E+00  0.0000E+00  0.0000E+00  0.0000E+00  0.0000E+00  0.0000E+00  0.0000E+00  0.0000E+00
     -3.477  0.0000E+00  0.0000E+00  0.0000E+00  0.0000E+00  0.0000E+00  0.0000E+00  0.0000E+00  0.0000E+00  0.0000E+00
     -3.205  0.0000E+00  0.0000E+00  0.0000E+00  0.0000E+00  0.0000E+00  0.0000E+00  0.0000E+00  0.0000E+00  0.0000E+00
     -2.934  0.0000E+00  0.0000E+00  0.0000E+00  0.0000E+00  0.0000E+00  0.0000E+00  0.0000E+00  0.0000E+00  0.0000E+00