    2    2  100    1
  0.1579990E+02  0.2760000E-09  0.2760000E-09  0.4790000E-09  0.5000000E-15
  1.000000000000000E-004
  CAR 
 Pt-hcc                                  
     32     70     24
 
  0.0000000E+00  0.0000000E+00  0.0000000E+00  0.1250000E-02
      1        -41.338938   1.000000
      2        -41.155936   1.000000
      3        -41.155936   1.000000
      4        -41.113991   1.000000
      5        -41.113991   1.000000
      6        -40.996088   1.000000
      7          1.497516   1.000000
      8          4.159374   1.000000
      9          7.332313   1.000000
     10          7.837221   1.000000
     11          7.837222   1.000000
     12          8.210848   1.000000
     13          8.210848   1.000000
     14          9.482155   1.000000
     15          9.482155   1.000000
     16         10.568265   1.000000
     17         11.094081   1.000000
     18         11.094081   1.000000
     19         16.068086   0.000000
     20         26.381003   0.000000
     21         27.011810   0.000000
     22         28.560049   0.000000
     23         32.423539   0.000000
     24         32.423540   0.000000
 
  0.1000000E+00 -0.1387779E-16  0.0000000E+00  0.7500000E-02
      1        -41.326302   1.000000
      2        -41.192572   1.000000
      3        -41.166053   1.000000
      4        -41.151773   1.000000
      5        -41.121357   1.000000
      6        -40.998699   1.000000
      7          1.861550   1.000000
      8          4.489311   1.000000
      9          7.262574   1.000000
     10          7.849389   1.000000
     11          8.060636   1.000000
     12          8.116802   1.000000
     13          8.476384   1.000000
     14          8.892809   1.000000
     15          9.309212   1.000000
     16          9.461140   1.000000
     17         11.158765   0.999978
     18         12.862851   0.000000
     19         16.030723   0.000000
     20         26.829509   0.000000
     21         27.542085   0.000000
     22         28.909626   0.000000
     23         30.778290   0.000000
     24         30.912181   0.000000
 
  0.2000000E+00 -0.2775558E-16  0.0000000E+00  0.7500000E-02
      1        -41.292487   1.000000
      2        -41.290031   1.000000
      3        -41.249963   1.000000
      4        -41.194014   1.000000
      5        -41.141553   1.000000
      6        -41.007703   1.000000
      7          2.853239   1.000000
      8          5.213394   1.000000
      9          7.030164   1.000000
     10          7.515453   1.000000
     11          7.564324   1.000000
     12          8.479863   1.000000
     13          8.907100   1.000000
     14          8.925407   1.000000
     15          8.943406   1.000000
     16          9.222320   1.000000
     17         11.261303   0.881533
     18         15.053031   0.000000
     19         15.958325   0.000000
     20         25.394698   0.000000
     21         28.148569   0.000000
     22         28.471678   0.000000
     23         29.320101   0.000000
     24         29.525955   0.000000
 
  0.3000000E+00  0.0000000E+00  0.0000000E+00  0.7500000E-02
      1        -41.409779   1.000000
      2        -41.368680   1.000000
      3        -41.244749   1.000000
      4        -41.227464   1.000000
      5        -41.166901   1.000000
      6        -41.024165   1.000000
      7          4.064092   1.000000
      8          5.336119   1.000000
      9          6.448897   1.000000
     10          7.298198   1.000000
     11          7.661398   1.000000
     12          8.429528   1.000000
     13          8.529906   1.000000
     14          9.642460   1.000000
     15         10.043217   1.000000
     16         10.279584   1.000000
     17         11.317411   0.342994
     18         16.073102   0.000000
     19         17.280612   0.000000
     20         21.669823   0.000000
     21         26.072495   0.000000
     22         26.591072   0.000000
     23         28.281886   0.000000
     24         29.341762   0.000000
 
  0.4000000E+00 -0.2775558E-16  0.0000000E+00  0.7500000E-02
      1        -41.507405   1.000000
      2        -41.463161   1.000000
      3        -41.254280   1.000000
      4        -41.197270   1.000000
      5        -41.188601   1.000000
      6        -41.047314   1.000000
      7          4.724132   1.000000
      8          5.018850   1.000000
      9          5.787644   1.000000
     10          7.823338   1.000000
     11          8.053053   1.000000
     12          8.248280   1.000000
     13          8.475636   1.000000
     14         11.139350   0.999998
     15         11.320732   0.309164
     16         11.330173   0.222053
     17         11.531983   0.000000
     18         16.867440   0.000000
     19         18.022073   0.000000
     20         19.254434   0.000000
     21         23.806613   0.000000
     22         24.146169   0.000000
     23         25.254357   0.000000
     24         28.065311   0.000000
 
  0.5000000E+00 -0.2775558E-16  0.0000000E+00  0.3750000E-02
      1        -41.544095   1.000000
      2        -41.499276   1.000000
      3        -41.264712   1.000000
      4        -41.196777   1.000000
      5        -41.173766   1.000000
      6        -41.061921   1.000000
      7          4.810322   1.000000
      8          4.893769   1.000000
      9          5.563655   1.000000
     10          7.916931   1.000000
     11          8.147460   1.000000
     12          8.353448   1.000000
     13          8.676994   1.000000
     14         11.329498   0.227785
     15         11.601413   0.000000
     16         11.806889   0.000000
     17         13.592080   0.000000
     18         15.079505   0.000000
     19         18.622962   0.000000
     20         20.204179   0.000000
     21         20.899564   0.000000
     22         23.357533   0.000000
     23         24.623188   0.000000
     24         27.481760   0.000000
 
  0.1000000E+00  0.1000000E+00  0.0000000E+00  0.7500000E-02
      1        -41.303322   1.000000
      2        -41.253540   1.000000
      3        -41.226754   1.000000
      4        -41.179532   1.000000
      5        -41.140646   1.000000
      6        -41.004556   1.000000
      7          2.547893   1.000000
      8          5.064958   1.000000
      9          6.989471   1.000000
     10          7.762294   1.000000
     11          7.922826   1.000000
     12          8.074179   1.000000
     13          8.706679   1.000000
     14          8.721051   1.000000
     15          9.070612   1.000000
     16          9.373285   1.000000
     17         11.181600   0.999706
     18         14.475496   0.000000
     19         15.977771   0.000000
     20         26.788325   0.000000
     21         27.434063   0.000000
     22         28.448162   0.000000
     23         29.459039   0.000000
     24         30.222562   0.000000
 
  0.2000000E+00  0.1000000E+00  0.0000000E+00  0.1500000E-01
      1        -41.354192   1.000000
      2        -41.327563   1.000000
      3        -41.262112   1.000000
      4        -41.218346   1.000000
      5        -41.171059   1.000000
      6        -41.017638   1.000000
      7          3.724374   1.000000
      8          5.678194   1.000000
      9          6.809008   1.000000
     10          6.863472   1.000000
     11          7.490024   1.000000
     12          8.221679   1.000000
     13          8.692545   1.000000
     14          9.003192   1.000000
     15          9.775459   1.000000
     16         10.185340   1.000000
     17         11.183918   0.999626
     18         16.019106   0.000000
     19         16.577471   0.000000
     20         23.573664   0.000000
     21         25.473852   0.000000
     22         27.587095   0.000000
     23         29.509983   0.000000
     24         30.201455   0.000000
 
  0.3000000E+00  0.1000000E+00  0.0000000E+00  0.1500000E-01
      1        -41.459093   1.000000
      2        -41.422081   1.000000
      3        -41.258426   1.000000
      4        -41.213551   1.000000
      5        -41.200324   1.000000
      6        -41.038565   1.000000
      7          4.784690   1.000000
      8          5.435414   1.000000
      9          6.081612   1.000000
     10          7.311665   1.000000
     11          7.922848   1.000000
     12          7.941278   1.000000
     13          8.508406   1.000000
     14          9.803044   1.000000
     15         10.871432   1.000000
     16         11.171822   0.999898
     17         11.624843   0.000000
     18         16.607778   0.000000
     19         18.721324   0.000000
     20         19.735636   0.000000
     21         23.353120   0.000000
     22         26.139241   0.000000
     23         26.514675   0.000000
     24         28.488147   0.000000
 
  0.4000000E+00  0.1000000E+00  0.0000000E+00  0.1500000E-01
      1        -41.523591   1.000000
      2        -41.479734   1.000000
      3        -41.283050   1.000000
      4        -41.218318   1.000000
      5        -41.173766   1.000000
      6        -41.061547   1.000000
      7          5.088695   1.000000
      8          5.180052   1.000000
      9          5.674502   1.000000
     10          7.868180   1.000000
     11          8.102719   1.000000
     12          8.107861   1.000000
     13          8.443018   1.000000
     14         11.050522   1.000000
     15         11.154991   0.999986
     16         11.434273   0.000104
     17         13.341440   0.000000
     18         16.313735   0.000000
     19         18.287162   0.000000
     20         20.393993   0.000000
     21         21.156926   0.000000
     22         23.510295   0.000000
     23         25.095999   0.000000
     24         27.405060   0.000000
 
  0.2000000E+00  0.2000000E+00  0.0000000E+00  0.7500000E-02
      1        -41.413447   1.000000
      2        -41.412099   1.000000
      3        -41.263359   1.000000
      4        -41.222193   1.000000
      5        -41.219311   1.000000
      6        -41.035587   1.000000
      7          4.940399   1.000000
      8          6.286359   1.000000
      9          6.286448   1.000000
     10          6.354207   1.000000
     11          7.708254   1.000000
     12          7.729992   1.000000
     13          8.703428   1.000000
     14          9.057630   1.000000
     15         10.855848   1.000000
     16         11.002599   1.000000
     17         11.706222   0.000000
     18         16.585499   0.000000
     19         18.599541   0.000000
     20         21.188343   0.000000
     21         22.099491   0.000000
     22         26.887880   0.000000
     23         28.157162   0.000000
     24         28.634329   0.000000
 
  0.3000000E+00  0.2000000E+00  0.0000000E+00  0.1500000E-01
      1        -41.476684   1.000000
      2        -41.446729   1.000000
      3        -41.316643   1.000000
      4        -41.266353   1.000000
      5        -41.174112   1.000000
      6        -41.061003   1.000000
      7          5.724748   1.000000
      8          5.896263   1.000000
      9          5.937834   1.000000
     10          7.096483   1.000000
     11          7.583828   1.000000
     12          8.212246   1.000000
     13          8.261780   1.000000
     14          9.857862   1.000000
     15         10.863722   1.000000
     16         11.302041   0.512138
     17         13.395296   0.000000
     18         17.581868   0.000000
     19         18.515919   0.000000
     20         20.131455   0.000000
     21         20.694542   0.000000
     22         25.117330   0.000000
     23         26.126557   0.000000
     24         27.141592   0.000000
 
  0.4000000E+00  0.2000000E+00  0.0000000E+00  0.7500000E-02
      1        -41.499977   1.000000
      2        -41.455645   1.000000
      3        -41.342068   1.000000
      4        -41.282952   1.000000
      5        -41.148435   1.000000
      6        -41.079141   1.000000
      7          5.758856   1.000000
      8          5.784099   1.000000
      9          5.841856   1.000000
     10          7.674194   1.000000
     11          7.722721   1.000000
     12          7.832830   1.000000
     13          8.531459   1.000000
     14         10.628174   1.000000
     15         10.813017   1.000000
     16         11.107601   1.000000
     17         14.991943   0.000000
     18         15.519410   0.000000
     19         18.829366   0.000000
     20         20.427688   0.000000
     21         21.906519   0.000000
     22         22.946444   0.000000
     23         25.361501   0.000000
     24         26.611197   0.000000
 
  0.3000000E+00  0.3000000E+00  0.0000000E+00  0.7500000E-02
      1        -41.462853   1.000000
      2        -41.429235   1.000000
      3        -41.380728   1.000000
      4        -41.337876   1.000000
      5        -41.133735   1.000000
      6        -41.090849   1.000000
      7          5.852117   1.000000
      8          6.277831   1.000000
      9          6.535160   1.000000
     10          6.979577   1.000000
     11          7.535997   1.000000
     12          7.807827   1.000000
     13          8.623233   1.000000
     14         10.222900   1.000000
     15         10.644912   1.000000
     16         10.945646   1.000000
     17         15.008256   0.000000
     18         16.274034   0.000000
     19         17.697463   0.000000
     20         21.272296   0.000000
     21         22.839892   0.000000
     22         24.070466   0.000000
     23         24.893611   0.000000
     24         25.272733   0.000000
 
  0.0000000E+00  0.0000000E+00  0.1250000E+00  0.2500000E-02
      1        -41.325372   1.000000
      2        -41.153576   1.000000
      3        -41.153575   1.000000
      4        -41.115311   1.000000
      5        -41.115310   1.000000
      6        -41.009049   1.000000
      7          1.632801   1.000000
      8          4.140852   1.000000
      9          7.298390   1.000000
     10          7.817837   1.000000
     11          7.817838   1.000000
     12          8.171520   1.000000
     13          8.171521   1.000000
     14          9.582407   1.000000
     15          9.582407   1.000000
     16          9.951362   1.000000
     17         11.067256   1.000000
     18         11.067256   1.000000
     19         16.935508   0.000000
     20         25.929456   0.000000
     21         27.523179   0.000000
     22         28.271008   0.000000
     23         31.845353   0.000000
     24         31.845353   0.000000
 
  0.1000000E+00 -0.1387779E-16  0.1250000E+00  0.1500000E-01
      1        -41.314718   1.000000
      2        -41.190080   1.000000
      3        -41.164513   1.000000
      4        -41.154061   1.000000
      5        -41.123064   1.000000
      6        -41.010523   1.000000
      7          1.994153   1.000000
      8          4.477100   1.000000
      9          7.265750   1.000000
     10          7.761125   1.000000
     11          7.955111   1.000000
     12          8.087601   1.000000
     13          8.432415   1.000000
     14          8.842944   1.000000
     15          9.427466   1.000000
     16          9.461712   1.000000
     17         11.119958   1.000000
     18         12.327502   0.000000
     19         17.019989   0.000000
     20         26.439870   0.000000
     21         27.956610   0.000000
     22         28.670161   0.000000
     23         30.160817   0.000000
     24         30.824550   0.000000
 
  0.2000000E+00 -0.2775558E-16  0.1250000E+00  0.1500000E-01
      1        -41.304634   1.000000
      2        -41.266482   1.000000
      3        -41.251869   1.000000
      4        -41.191835   1.000000
      5        -41.143555   1.000000
      6        -41.017015   1.000000
      7          2.970173   1.000000
      8          5.224185   1.000000
      9          7.062081   1.000000
     10          7.259071   1.000000
     11          7.568457   1.000000
     12          8.363460   1.000000
     13          8.741111   1.000000
     14          9.092828   1.000000
     15          9.159382   1.000000
     16          9.270455   1.000000
     17         11.200507   0.998147
     18         13.870727   0.000000
     19         17.420790   0.000000
     20         25.490860   0.000000
     21         27.936671   0.000000
     22         28.628491   0.000000
     23         28.809547   0.000000
     24         29.952554   0.000000
 
  0.3000000E+00  0.0000000E+00  0.1250000E+00  0.1500000E-01
      1        -41.412392   1.000000
      2        -41.372735   1.000000
      3        -41.232424   1.000000
      4        -41.225199   1.000000
      5        -41.169522   1.000000
      6        -41.030704   1.000000
      7          4.117175   1.000000
      8          5.365339   1.000000
      9          6.430081   1.000000
     10          7.130537   1.000000
     11          7.687315   1.000000
     12          8.538113   1.000000
     13          8.592251   1.000000
     14          9.697022   1.000000
     15         10.065019   1.000000
     16         10.230075   1.000000
     17         11.246125   0.946516
     18         14.977426   0.000000
     19         18.402742   0.000000
     20         21.944832   0.000000
     21         26.315032   0.000000
     22         26.350122   0.000000
     23         27.939854   0.000000
     24         29.815735   0.000000
 
  0.4000000E+00 -0.2775558E-16  0.1250000E+00  0.1500000E-01
      1        -41.508596   1.000000
      2        -41.467309   1.000000
      3        -41.251823   1.000000
      4        -41.191138   1.000000
      5        -41.188529   1.000000
      6        -41.050872   1.000000
      7          4.657342   1.000000
      8          5.026494   1.000000
      9          5.946796   1.000000
     10          7.180536   1.000000
     11          8.274858   1.000000
     12          8.334263   1.000000
     13          9.030218   1.000000
     14         11.062447   1.000000
     15         11.155121   0.999986
     16         11.424265   0.000306
     17         11.443536   0.000036
     18         16.003028   0.000000
     19         18.066125   0.000000
     20         20.076793   0.000000
     21         23.530009   0.000000
     22         24.426746   0.000000
     23         25.582436   0.000000
     24         28.287407   0.000000
 
  0.5000000E+00 -0.2775558E-16  0.1250000E+00  0.7500000E-02
      1        -41.545148   1.000000
      2        -41.503213   1.000000
      3        -41.261951   1.000000
      4        -41.199417   1.000000
      5        -41.166000   1.000000
      6        -41.063847   1.000000
      7          4.733060   1.000000
      8          4.840758   1.000000
      9          5.792932   1.000000
     10          7.244057   1.000000
     11          8.238625   1.000000
     12          8.426913   1.000000
     13          9.484232   1.000000
     14         11.148528   0.999994
     15         11.622137   0.000000
     16         11.800534   0.000000
     17         13.351282   0.000000
     18         14.965484   0.000000
     19         18.485556   0.000000
     20         19.242625   0.000000
     21         22.116467   0.000000
     22         23.652281   0.000000
     23         24.756673   0.000000
     24         27.763601   0.000000
 
  0.1000000E+00  0.1000000E+00  0.1250000E+00  0.1500000E-01
      1        -41.298376   1.000000
      2        -41.245482   1.000000
      3        -41.228268   1.000000
      4        -41.179025   1.000000
      5        -41.142395   1.000000
      6        -41.014469   1.000000
      7          2.672202   1.000000
      8          5.068182   1.000000
      9          7.021315   1.000000
     10          7.476189   1.000000
     11          7.844163   1.000000
     12          8.072187   1.000000
     13          8.637144   1.000000
     14          8.860812   1.000000
     15          9.158712   1.000000
     16          9.446332   1.000000
     17         11.129840   1.000000
     18         13.513177   0.000000
     19         17.269333   0.000000
     20         26.737779   0.000000
     21         27.499871   0.000000
     22         28.357647   0.000000
     23         29.005426   0.000000
     24         30.485992   0.000000
 
  0.2000000E+00  0.1000000E+00  0.1250000E+00  0.3000000E-01
      1        -41.358337   1.000000
      2        -41.330713   1.000000
      3        -41.247490   1.000000
      4        -41.217053   1.000000
      5        -41.173004   1.000000
      6        -41.024908   1.000000
      7          3.815714   1.000000
      8          5.713547   1.000000
      9          6.683586   1.000000
     10          6.876292   1.000000
     11          7.458228   1.000000
     12          8.122016   1.000000
     13          8.841202   1.000000
     14          8.991486   1.000000
     15          9.887918   1.000000
     16         10.131941   1.000000
     17         11.132222   0.999999
     18         14.701620   0.000000
     19         18.059354   0.000000
     20         23.755273   0.000000
     21         25.604780   0.000000
     22         27.516075   0.000000
     23         28.920860   0.000000
     24         30.784593   0.000000
 
  0.3000000E+00  0.1000000E+00  0.1250000E+00  0.3000000E-01
      1        -41.460587   1.000000
      2        -41.425854   1.000000
      3        -41.257205   1.000000
      4        -41.206478   1.000000
      5        -41.199241   1.000000
      6        -41.042766   1.000000
      7          4.766683   1.000000
      8          5.470847   1.000000
      9          6.148272   1.000000
     10          7.031350   1.000000
     11          7.896656   1.000000
     12          8.280272   1.000000
     13          8.523318   1.000000
     14          9.819352   1.000000
     15         10.919198   1.000000
     16         10.978808   1.000000
     17         11.686422   0.000000
     18         15.799889   0.000000
     19         18.978140   0.000000
     20         20.504383   0.000000
     21         23.471411   0.000000
     22         25.657115   0.000000
     23         26.816269   0.000000
     24         28.696699   0.000000
 
  0.4000000E+00  0.1000000E+00  0.1250000E+00  0.3000000E-01
      1        -41.524711   1.000000
      2        -41.483802   1.000000
      3        -41.281389   1.000000
      4        -41.221259   1.000000
      5        -41.165815   1.000000
      6        -41.063060   1.000000
      7          4.963538   1.000000
      8          5.164878   1.000000
      9          5.937282   1.000000
     10          7.184745   1.000000
     11          7.977201   1.000000
     12          8.551533   1.000000
     13          8.955972   1.000000
     14         10.939346   1.000000
     15         11.056149   1.000000
     16         11.477505   0.000000
     17         13.293395   0.000000
     18         16.115168   0.000000
     19         17.937200   0.000000
     20         20.289984   0.000000
     21         21.654453   0.000000
     22         23.777857   0.000000
     23         25.309197   0.000000
     24         27.497184   0.000000
 
  0.2000000E+00  0.2000000E+00  0.1250000E+00  0.1500000E-01
      1        -41.416066   1.000000
      2        -41.414846   1.000000
      3        -41.263790   1.000000
      4        -41.227585   1.000000
      5        -41.205618   1.000000
      6        -41.040091   1.000000
      7          4.973851   1.000000
      8          6.121933   1.000000
      9          6.372886   1.000000
     10          6.454435   1.000000
     11          7.713611   1.000000
     12          7.717795   1.000000
     13          8.583245   1.000000
     14          9.210614   1.000000
     15         10.784840   1.000000
     16         10.968133   1.000000
     17         11.779948   0.000000
     18         15.799201   0.000000
     19         19.215033   0.000000
     20         21.640462   0.000000
     21         22.264771   0.000000
     22         26.738934   0.000000
     23         27.312217   0.000000
     24         29.296299   0.000000
 
  0.3000000E+00  0.2000000E+00  0.1250000E+00  0.3000000E-01
      1        -41.477279   1.000000
      2        -41.450028   1.000000
      3        -41.316768   1.000000
      4        -41.269677   1.000000
      5        -41.165425   1.000000
      6        -41.062077   1.000000
      7          5.560479   1.000000
      8          5.950506   1.000000
      9          6.121801   1.000000
     10          6.892665   1.000000
     11          7.726277   1.000000
     12          8.108051   1.000000
     13          8.401335   1.000000
     14          9.919767   1.000000
     15         10.657884   1.000000
     16         11.406579   0.001715
     17         13.439531   0.000000
     18         17.605187   0.000000
     19         17.844750   0.000000
     20         20.213400   0.000000
     21         21.515499   0.000000
     22         24.616369   0.000000
     23         26.127484   0.000000
     24         27.221798   0.000000
 
  0.4000000E+00  0.2000000E+00  0.1250000E+00  0.1500000E-01
      1        -41.500348   1.000000
      2        -41.459437   1.000000
      3        -41.341710   1.000000
      4        -41.286426   1.000000
      5        -41.141740   1.000000
      6        -41.078254   1.000000
      7          5.503074   1.000000
      8          5.831045   1.000000
      9          6.214674   1.000000
     10          7.114804   1.000000
     11          7.583749   1.000000
     12          8.300902   1.000000
     13          8.698955   1.000000
     14         10.599408   1.000000
     15         10.654050   1.000000
     16         11.184491   0.999604
     17         15.071684   0.000000
     18         15.553276   0.000000
     19         18.915461   0.000000
     20         20.108793   0.000000
     21         21.079933   0.000000
     22         24.053968   0.000000
     23         25.628327   0.000000
     24         25.862679   0.000000
 
  0.3000000E+00  0.3000000E+00  0.1250000E+00  0.1500000E-01
      1        -41.461554   1.000000
      2        -41.432722   1.000000
      3        -41.382673   1.000000
      4        -41.341174   1.000000
      5        -41.128225   1.000000
      6        -41.088624   1.000000
      7          5.887684   1.000000
      8          6.256581   1.000000
      9          6.568613   1.000000
     10          6.862855   1.000000
     11          7.665012   1.000000
     12          7.707458   1.000000
     13          8.632372   1.000000
     14         10.316301   1.000000
     15         10.429632   1.000000
     16         11.041265   1.000000
     17         15.105061   0.000000
     18         16.418888   0.000000
     19         17.953725   0.000000
     20         20.396630   0.000000
     21         23.040222   0.000000
     22         23.131080   0.000000
     23         25.002154   0.000000
     24         26.300015   0.000000
 
  0.0000000E+00  0.0000000E+00  0.2500000E+00  0.2500000E-02
      1        -41.288987   1.000000
      2        -41.149123   1.000000
      3        -41.149123   1.000000
      4        -41.119777   1.000000
      5        -41.119777   1.000000
      6        -41.046614   1.000000
      7          2.021666   1.000000
      8          4.046327   1.000000
      9          7.220742   1.000000
     10          7.786233   1.000000
     11          7.786234   1.000000
     12          8.070238   1.000000
     13          8.070238   1.000000
     14          8.798492   1.000000
     15          9.841411   1.000000
     16          9.841411   1.000000
     17         10.972098   1.000000
     18         10.972098   1.000000
     19         18.855611   0.000000
     20         25.416617   0.000000
     21         27.650092   0.000000
     22         27.841449   0.000000
     23         31.321923   0.000000
     24         31.321923   0.000000
 
  0.1000000E+00 -0.1387779E-16  0.2500000E+00  0.1500000E-01
      1        -41.282716   1.000000
      2        -41.182695   1.000000
      3        -41.160723   1.000000
      4        -41.159665   1.000000
      5        -41.127815   1.000000
      6        -41.043706   1.000000
      7          2.376309   1.000000
      8          4.397437   1.000000
      9          7.250336   1.000000
     10          7.605831   1.000000
     11          7.682859   1.000000
     12          8.041820   1.000000
     13          8.325023   1.000000
     14          8.440249   1.000000
     15          9.720153   1.000000
     16          9.723313   1.000000
     17         10.995317   1.000000
     18         11.608327   0.000000
     19         19.007222   0.000000
     20         25.928422   0.000000
     21         28.061376   0.000000
     22         28.224200   0.000000
     23         29.881269   0.000000
     24         30.766415   0.000000
 
  0.2000000E+00 -0.2775558E-16  0.2500000E+00  0.1500000E-01
      1        -41.307053   1.000000
      2        -41.263089   1.000000
      3        -41.226756   1.000000
      4        -41.186271   1.000000
      5        -41.149083   1.000000
      6        -41.043374   1.000000
      7          3.308702   1.000000
      8          5.200648   1.000000
      9          6.877001   1.000000
     10          7.172637   1.000000
     11          7.337987   1.000000
     12          8.163002   1.000000
     13          8.657466   1.000000
     14          9.020351   1.000000
     15          9.578875   1.000000
     16          9.604475   1.000000
     17         11.020286   1.000000
     18         12.636376   0.000000
     19         19.455702   0.000000
     20         25.770922   0.000000
     21         27.387174   0.000000
     22         28.147288   0.000000
     23         29.101969   0.000000
     24         30.112928   0.000000
 
  0.3000000E+00  0.0000000E+00  0.2500000E+00  0.1500000E-01
      1        -41.415464   1.000000
      2        -41.383136   1.000000
      3        -41.218597   1.000000
      4        -41.200701   1.000000
      5        -41.175919   1.000000
      6        -41.049353   1.000000
      7          4.278555   1.000000