PROCAR lm decomposed
# of k-points:   70         # of bands:   24         # of ions:    2

 k-point     1 :    0.00000000 0.00000000 0.00000000     weight = 0.00125000

band     1 # energy  -41.33893832 # occ.  2.00000000
 
ion      s     py     pz     px    dxy    dyz    dz2    dxz  x2-y2    tot
    1  0.000  0.000  0.491  0.000  0.000  0.000  0.000  0.000  0.000  0.491
    2  0.000  0.000  0.491  0.000  0.000  0.000  0.000  0.000  0.000  0.491
tot    0.000  0.000  0.983  0.000  0.000  0.000  0.000  0.000  0.000  0.983
 
band     2 # energy  -41.15593595 # occ.  2.00000000
 
ion      s     py     pz     px    dxy    dyz    dz2    dxz  x2-y2    tot
    1  0.000  0.124  0.000  0.373  0.000  0.000  0.000  0.000  0.000  0.498
    2  0.000  0.124  0.000  0.373  0.000  0.000  0.000  0.000  0.000  0.498
tot    0.000  0.249  0.000  0.747  0.000  0.000  0.000  0.000  0.000  0.996
 
band     3 # energy  -41.15593578 # occ.  2.00000000
 
ion      s     py     pz     px    dxy    dyz    dz2    dxz  x2-y2    tot
    1  0.000  0.373  0.000  0.124  0.000  0.000  0.000  0.000  0.000  0.498
    2  0.000  0.373  0.000  0.124  0.000  0.000  0.000  0.000  0.000  0.498
tot    0.000  0.747  0.000  0.249  0.000  0.000  0.000  0.000  0.000  0.996
 
band     4 # energy  -41.11399137 # occ.  2.00000000
 
ion      s     py     pz     px    dxy    dyz    dz2    dxz  x2-y2    tot
    1  0.000  0.125  0.000  0.374  0.000  0.000  0.000  0.000  0.000  0.498
    2  0.000  0.125  0.000  0.374  0.000  0.000  0.000  0.000  0.000  0.498
tot    0.000  0.249  0.000  0.748  0.000  0.000  0.000  0.000  0.000  0.997
 
band     5 # energy  -41.11399120 # occ.  2.00000000
 
ion      s     py     pz     px    dxy    dyz    dz2    dxz  x2-y2    tot
    1  0.000  0.374  0.000  0.125  0.000  0.000  0.000  0.000  0.000  0.498
    2  0.000  0.374  0.000  0.125  0.000  0.000  0.000  0.000  0.000  0.498
tot    0.000  0.748  0.000  0.249  0.000  0.000  0.000  0.000  0.000  0.997
 
band     6 # energy  -40.99608805 # occ.  2.00000000
 
ion      s     py     pz     px    dxy    dyz    dz2    dxz  x2-y2    tot
    1  0.000  0.000  0.498  0.000  0.000  0.000  0.000  0.000  0.000  0.498
    2  0.000  0.000  0.498  0.000  0.000  0.000  0.000  0.000  0.000  0.498
tot    0.000  0.000  0.995  0.000  0.000  0.000  0.000  0.000  0.000  0.995
 
band     7 # energy    1.49751597 # occ.  2.00000000
 
ion      s     py     pz     px    dxy    dyz    dz2    dxz  x2-y2    tot
    1  0.194  0.000  0.000  0.000  0.000  0.000  0.000  0.000  0.000  0.195
    2  0.194  0.000  0.000  0.000  0.000  0.000  0.000  0.000  0.000  0.195
tot    0.389  0.000  0.000  0.000  0.000  0.000  0.001  0.000  0.000  0.390
 
band     8 # energy    4.15937371 # occ.  2.00000000
 
ion      s     py     pz     px    dxy    dyz    dz2    dxz  x2-y2    tot
    1  0.082  0.000  0.000  0.000  0.000  0.000  0.232  0.000  0.000  0.314
    2  0.082  0.000  0.000  0.000  0.000  0.000  0.232  0.000  0.000  0.314
tot    0.163  0.000  0.000  0.000  0.000  0.000  0.465  0.000  0.000  0.628
 
band     9 # energy    7.33231323 # occ.  2.00000000
 
ion      s     py     pz     px    dxy    dyz    dz2    dxz  x2-y2    tot
    1  0.000  0.000  0.000  0.000  0.000  0.000  0.413  0.000  0.000  0.413
    2  0.000  0.000  0.000  0.000  0.000  0.000  0.413  0.000  0.000  0.413
tot    0.000  0.000  0.000  0.000  0.000  0.000  0.827  0.000  0.000  0.827
 
band    10 # energy    7.83722147 # occ.  2.00000000
 
ion      s     py     pz     px    dxy    dyz    dz2    dxz  x2-y2    tot
    1  0.000  0.000  0.000  0.000  0.106  0.000  0.000  0.000  0.317  0.422
    2  0.000  0.000  0.000  0.000  0.106  0.000  0.000  0.000  0.317  0.422
tot    0.000  0.000  0.000  0.000  0.211  0.000  0.000  0.000  0.633  0.845
 
band    11 # energy    7.83722206 # occ.  2.00000000
 
ion      s     py     pz     px    dxy    dyz    dz2    dxz  x2-y2    tot
    1  0.000  0.000  0.000  0.000  0.317  0.000  0.000  0.000  0.106  0.422
    2  0.000  0.000  0.000  0.000  0.317  0.000  0.000  0.000  0.106  0.422
tot    0.000  0.000  0.000  0.000  0.633  0.000  0.000  0.000  0.211  0.845
 
band    12 # energy    8.21084783 # occ.  2.00000000
 
ion      s     py     pz     px    dxy    dyz    dz2    dxz  x2-y2    tot
    1  0.000  0.000  0.000  0.000  0.108  0.000  0.000  0.000  0.324  0.432
    2  0.000  0.000  0.000  0.000  0.108  0.000  0.000  0.000  0.324  0.432
tot    0.000  0.000  0.000  0.000  0.216  0.000  0.000  0.000  0.648  0.864
 
band    13 # energy    8.21084847 # occ.  2.00000000
 
ion      s     py     pz     px    dxy    dyz    dz2    dxz  x2-y2    tot
    1  0.000  0.000  0.000  0.000  0.324  0.000  0.000  0.000  0.108  0.432
    2  0.000  0.000  0.000  0.000  0.324  0.000  0.000  0.000  0.108  0.432
tot    0.000  0.000  0.000  0.000  0.648  0.000  0.000  0.000  0.216  0.864
 
band    14 # energy    9.48215492 # occ.  2.00000000
 
ion      s     py     pz     px    dxy    dyz    dz2    dxz  x2-y2    tot
    1  0.000  0.000  0.000  0.000  0.000  0.111  0.000  0.333  0.000  0.444
    2  0.000  0.000  0.000  0.000  0.000  0.111  0.000  0.333  0.000  0.444
tot    0.000  0.000  0.000  0.000  0.000  0.222  0.000  0.666  0.000  0.888
 
band    15 # energy    9.48215497 # occ.  2.00000000
 
ion      s     py     pz     px    dxy    dyz    dz2    dxz  x2-y2    tot
    1  0.000  0.000  0.000  0.000  0.000  0.333  0.000  0.111  0.000  0.444
    2  0.000  0.000  0.000  0.000  0.000  0.333  0.000  0.111  0.000  0.444
tot    0.000  0.000  0.000  0.000  0.000  0.666  0.000  0.222  0.000  0.888
 
band    16 # energy   10.56826503 # occ.  2.00000000
 
ion      s     py     pz     px    dxy    dyz    dz2    dxz  x2-y2    tot
    1  0.000  0.000  0.086  0.000  0.000  0.000  0.000  0.000  0.000  0.086
    2  0.000  0.000  0.086  0.000  0.000  0.000  0.000  0.000  0.000  0.086
tot    0.000  0.000  0.172  0.000  0.000  0.000  0.000  0.000  0.000  0.172
 
band    17 # energy   11.09408104 # occ.  2.00000000
 
ion      s     py     pz     px    dxy    dyz    dz2    dxz  x2-y2    tot
    1  0.000  0.000  0.000  0.000  0.000  0.116  0.000  0.349  0.000  0.465
    2  0.000  0.000  0.000  0.000  0.000  0.116  0.000  0.349  0.000  0.465
tot    0.000  0.000  0.000  0.000  0.000  0.233  0.000  0.698  0.000  0.930
 
band    18 # energy   11.09408108 # occ.  2.00000000
 
ion      s     py     pz     px    dxy    dyz    dz2    dxz  x2-y2    tot
    1  0.000  0.000  0.000  0.000  0.000  0.349  0.000  0.116  0.000  0.465
    2  0.000  0.000  0.000  0.000  0.000  0.349  0.000  0.116  0.000  0.465
tot    0.000  0.000  0.000  0.000  0.000  0.698  0.000  0.233  0.000  0.930
 
band    19 # energy   16.06808607 # occ.  0.00000000
 
ion      s     py     pz     px    dxy    dyz    dz2    dxz  x2-y2    tot
    1  0.178  0.000  0.000  0.000  0.000  0.000  0.226  0.000  0.000  0.404
    2  0.178  0.000  0.000  0.000  0.000  0.000  0.226  0.000  0.000  0.404
tot    0.356  0.000  0.000  0.000  0.000  0.000  0.452  0.000  0.000  0.808
 
band    20 # energy   26.38100266 # occ.  0.00000000
 
ion      s     py     pz     px    dxy    dyz    dz2    dxz  x2-y2    tot
    1  0.003  0.000  0.000  0.000  0.000  0.000  0.002  0.000  0.000  0.005
    2  0.003  0.000  0.000  0.000  0.000  0.000  0.002  0.000  0.000  0.005
tot    0.006  0.000  0.000  0.000  0.000  0.000  0.004  0.000  0.000  0.011
 
band    21 # energy   27.01181019 # occ.  0.00000000
 
ion      s     py     pz     px    dxy    dyz    dz2    dxz  x2-y2    tot
    1  0.000  0.000  0.020  0.000  0.000  0.000  0.000  0.000  0.000  0.020
    2  0.000  0.000  0.020  0.000  0.000  0.000  0.000  0.000  0.000  0.020
tot    0.000  0.000  0.040  0.000  0.000  0.000  0.000  0.000  0.000  0.040
 
band    22 # energy   28.56004874 # occ.  0.00000000
 
ion      s     py     pz     px    dxy    dyz    dz2    dxz  x2-y2    tot
    1  0.000  0.000  0.000  0.000  0.000  0.000  0.017  0.000  0.000  0.017
    2  0.000  0.000  0.000  0.000  0.000  0.000  0.017  0.000  0.000  0.017
tot    0.001  0.000  0.000  0.000  0.000  0.000  0.034  0.000  0.000  0.034
 
band    23 # energy   32.42353893 # occ.  0.00000000
 
ion      s     py     pz     px    dxy    dyz    dz2    dxz  x2-y2    tot
    1  0.000  0.095  0.000  0.032  0.005  0.000  0.000  0.000  0.016  0.147
    2  0.000  0.095  0.000  0.032  0.005  0.000  0.000  0.000  0.016  0.147
tot    0.000  0.190  0.000  0.063  0.010  0.000  0.000  0.000  0.031  0.295
 
band    24 # energy   32.42353950 # occ.  0.00000000
 
ion      s     py     pz     px    dxy    dyz    dz2    dxz  x2-y2    tot
    1  0.000  0.032  0.000  0.095  0.016  0.000  0.000  0.000  0.005  0.147
    2  0.000  0.032  0.000  0.095  0.016  0.000  0.000  0.000  0.005  0.147
tot    0.000  0.063  0.000  0.190  0.031  0.000  0.000  0.000  0.010  0.295
 

 k-point     2 :    0.10000000-0.00000000 0.00000000     weight = 0.00750000

band     1 # energy  -41.32630209 # occ.  2.00000000
 
ion      s     py     pz     px    dxy    dyz    dz2    dxz  x2-y2    tot
    1  0.000  0.000  0.492  0.000  0.000  0.000  0.000  0.000  0.000  0.492
    2  0.000  0.000  0.492  0.000  0.000  0.000  0.000  0.000  0.000  0.492
tot    0.000  0.000  0.983  0.000  0.000  0.000  0.000  0.000  0.000  0.983
 
band     2 # energy  -41.19257216 # occ.  2.00000000
 
ion      s     py     pz     px    dxy    dyz    dz2    dxz  x2-y2    tot
    1  0.000  0.124  0.000  0.373  0.000  0.000  0.000  0.000  0.000  0.497
    2  0.000  0.124  0.000  0.373  0.000  0.000  0.000  0.000  0.000  0.497
tot    0.000  0.249  0.000  0.746  0.000  0.000  0.000  0.000  0.000  0.994
 
band     3 # energy  -41.16605304 # occ.  2.00000000
 
ion      s     py     pz     px    dxy    dyz    dz2    dxz  x2-y2    tot
    1  0.000  0.373  0.000  0.124  0.000  0.000  0.000  0.000  0.000  0.498
    2  0.000  0.373  0.000  0.124  0.000  0.000  0.000  0.000  0.000  0.498
tot    0.000  0.746  0.000  0.249  0.000  0.000  0.000  0.000  0.000  0.995
 
band     4 # energy  -41.15177340 # occ.  2.00000000
 
ion      s     py     pz     px    dxy    dyz    dz2    dxz  x2-y2    tot
    1  0.000  0.124  0.000  0.373  0.000  0.000  0.000  0.000  0.000  0.498
    2  0.000  0.124  0.000  0.373  0.000  0.000  0.000  0.000  0.000  0.498
tot    0.000  0.249  0.000  0.747  0.000  0.000  0.000  0.000  0.000  0.996
 
band     5 # energy  -41.12135667 # occ.  2.00000000
 
ion      s     py     pz     px    dxy    dyz    dz2    dxz  x2-y2    tot
    1  0.000  0.374  0.000  0.125  0.000  0.000  0.000  0.000  0.000  0.498
    2  0.000  0.374  0.000  0.125  0.000  0.000  0.000  0.000  0.000  0.498
tot    0.000  0.747  0.000  0.249  0.000  0.000  0.000  0.000  0.000  0.997
 
band     6 # energy  -40.99869852 # occ.  2.00000000
 
ion      s     py     pz     px    dxy    dyz    dz2    dxz  x2-y2    tot
    1  0.000  0.000  0.498  0.000  0.000  0.000  0.000  0.000  0.000  0.498
    2  0.000  0.000  0.498  0.000  0.000  0.000  0.000  0.000  0.000  0.498
tot    0.000  0.000  0.995  0.000  0.000  0.000  0.000  0.000  0.000  0.995
 
band     7 # energy    1.86154968 # occ.  2.00000000
 
ion      s     py     pz     px    dxy    dyz    dz2    dxz  x2-y2    tot
    1  0.190  0.001  0.000  0.002  0.000  0.000  0.000  0.000  0.000  0.193
    2  0.190  0.001  0.000  0.002  0.000  0.000  0.000  0.000  0.000  0.193
tot    0.381  0.001  0.000  0.004  0.001  0.000  0.000  0.000  0.000  0.387
 
band     8 # energy    4.48931077 # occ.  2.00000000
 
ion      s     py     pz     px    dxy    dyz    dz2    dxz  x2-y2    tot
    1  0.075  0.001  0.000  0.002  0.002  0.000  0.236  0.000  0.001  0.315
    2  0.075  0.001  0.000  0.002  0.002  0.000  0.236  0.000  0.001  0.315
tot    0.149  0.001  0.000  0.003  0.004  0.000  0.473  0.000  0.001  0.631
 
band     9 # energy    7.26257382 # occ.  2.00000000
 
ion      s     py     pz     px    dxy    dyz    dz2    dxz  x2-y2    tot
    1  0.000  0.000  0.000  0.000  0.116  0.000  0.253  0.000  0.039  0.409
    2  0.000  0.000  0.000  0.000  0.116  0.000  0.253  0.000  0.039  0.409
tot    0.000  0.000  0.000  0.001  0.233  0.000  0.507  0.000  0.078  0.818
 
band    10 # energy    7.84938897 # occ.  2.00000000
 
ion      s     py     pz     px    dxy    dyz    dz2    dxz  x2-y2    tot
    1  0.000  0.000  0.000  0.000  0.211  0.000  0.138  0.000  0.070  0.420
    2  0.000  0.000  0.000  0.000  0.211  0.000  0.138  0.000  0.070  0.420
tot    0.000  0.000  0.000  0.001  0.422  0.000  0.276  0.000  0.141  0.839
 
band    11 # energy    8.06063631 # occ.  2.00000000
 
ion      s     py     pz     px    dxy    dyz    dz2    dxz  x2-y2    tot
    1  0.002  0.000  0.000  0.000  0.298  0.000  0.025  0.000  0.099  0.425
    2  0.002  0.000  0.000  0.000  0.298  0.000  0.025  0.000  0.099  0.425
tot    0.003  0.000  0.000  0.001  0.597  0.000  0.050  0.000  0.199  0.850
 
band    12 # energy    8.11680225 # occ.  2.00000000
 
ion      s     py     pz     px    dxy    dyz    dz2    dxz  x2-y2    tot
    1  0.000  0.000  0.000  0.000  0.106  0.000  0.000  0.000  0.318  0.424
    2  0.000  0.000  0.000  0.000  0.106  0.000  0.000  0.000  0.318  0.424
tot    0.000  0.001  0.000  0.000  0.212  0.000  0.000  0.000  0.635  0.848
 
band    13 # energy    8.47638398 # occ.  2.00000000
 
ion      s     py     pz     px    dxy    dyz    dz2    dxz  x2-y2    tot
    1  0.000  0.000  0.000  0.000  0.108  0.000  0.000  0.000  0.325  0.434
    2  0.000  0.000  0.000  0.000  0.108  0.000  0.000  0.000  0.325  0.434
tot    0.000  0.001  0.000  0.000  0.217  0.000  0.000  0.000  0.650  0.868
 
band    14 # energy    8.89280881 # occ.  2.00000000
 
ion      s     py     pz     px    dxy    dyz    dz2    dxz  x2-y2    tot
    1  0.000  0.000  0.020  0.000  0.000  0.080  0.000  0.240  0.000  0.340
    2  0.000  0.000  0.020  0.000  0.000  0.080  0.000  0.240  0.000  0.340
tot    0.000  0.000  0.040  0.000  0.000  0.160  0.000  0.480  0.000  0.680
 
band    15 # energy    9.30921170 # occ.  2.00000000
 
ion      s     py     pz     px    dxy    dyz    dz2    dxz  x2-y2    tot
    1  0.000  0.000  0.000  0.000  0.000  0.330  0.000  0.110  0.000  0.440
    2  0.000  0.000  0.000  0.000  0.000  0.330  0.000  0.110  0.000  0.440
tot    0.000  0.000  0.000  0.000  0.000  0.660  0.000  0.220  0.000  0.879
 
band    16 # energy    9.46113979 # occ.  2.00000000
 
ion      s     py     pz     px    dxy    dyz    dz2    dxz  x2-y2    tot
    1  0.000  0.000  0.020  0.000  0.000  0.084  0.000  0.253  0.000  0.357
    2  0.000  0.000  0.020  0.000  0.000  0.084  0.000  0.253  0.000  0.357
tot    0.000  0.000  0.039  0.000  0.000  0.169  0.000  0.506  0.000  0.714
 
band    17 # energy   11.15876547 # occ.  1.99995552
 
ion      s     py     pz     px    dxy    dyz    dz2    dxz  x2-y2    tot
    1  0.000  0.000  0.000  0.000  0.000  0.351  0.000  0.117  0.000  0.468
    2  0.000  0.000  0.000  0.000  0.000  0.351  0.000  0.117  0.000  0.468
tot    0.000  0.000  0.000  0.000  0.000  0.702  0.000  0.234  0.000  0.936
 
band    18 # energy   12.86285060 # occ.  0.00000000
 
ion      s     py     pz     px    dxy    dyz    dz2    dxz  x2-y2    tot
    1  0.000  0.000  0.047  0.000  0.000  0.061  0.000  0.183  0.000  0.291
    2  0.000  0.000  0.047  0.000  0.000  0.061  0.000  0.183  0.000  0.291
tot    0.000  0.000  0.094  0.000  0.000  0.122  0.000  0.367  0.000  0.583
 
band    19 # energy   16.03072315 # occ.  0.00000000
 
ion      s     py     pz     px    dxy    dyz    dz2    dxz  x2-y2    tot
    1  0.179  0.000  0.000  0.001  0.002  0.000  0.218  0.000  0.001  0.399
    2  0.179  0.000  0.000  0.001  0.002  0.000  0.218  0.000  0.001  0.399
tot    0.358  0.000  0.000  0.001  0.003  0.000  0.435  0.000  0.001  0.799
 
band    20 # energy   26.82950858 # occ.  0.00000000
 
ion      s     py     pz     px    dxy    dyz    dz2    dxz  x2-y2    tot
    1  0.005  0.001  0.000  0.003  0.017  0.000  0.003  0.000  0.006  0.034
    2  0.005  0.001  0.000  0.003  0.017  0.000  0.003  0.000  0.006  0.034
tot    0.010  0.002  0.000  0.005  0.035  0.000  0.006  0.000  0.012  0.069
 
band    21 # energy   27.54208539 # occ.  0.00000000
 
ion      s     py     pz     px    dxy    dyz    dz2    dxz  x2-y2    tot
    1  0.000  0.000  0.018  0.000  0.000  0.002  0.000  0.005  0.000  0.025
    2  0.000  0.000  0.018  0.000  0.000  0.002  0.000  0.005  0.000  0.025
tot    0.000  0.000  0.035  0.000  0.000  0.004  0.000  0.011  0.000  0.050
 
band    22 # energy   28.90962565 # occ.  0.00000000
 
ion      s     py     pz     px    dxy    dyz    dz2    dxz  x2-y2    tot
    1  0.003  0.004  0.000  0.012  0.017  0.000  0.023  0.000  0.006  0.064
    2  0.003  0.004  0.000  0.012  0.017  0.000  0.023  0.000  0.006  0.064
tot    0.005  0.008  0.000  0.023  0.033  0.000  0.047  0.000  0.011  0.127
 
band    23 # energy   30.77828985 # occ.  0.00000000
 
ion      s     py     pz     px    dxy    dyz    dz2    dxz  x2-y2    tot
    1  0.007  0.023  0.000  0.070  0.011  0.000  0.002  0.000  0.004  0.116
    2  0.007  0.023  0.000  0.070  0.011  0.000  0.002  0.000  0.004  0.116
tot    0.013  0.047  0.000  0.141  0.022  0.000  0.003  0.000  0.007  0.233
 
band    24 # energy   30.91218120 # occ.  0.00000000
 
ion      s     py     pz     px    dxy    dyz    dz2    dxz  x2-y2    tot
    1  0.000  0.086  0.000  0.029  0.009  0.000  0.000  0.000  0.028  0.152
    2  0.000  0.086  0.000  0.029  0.009  0.000  0.000  0.000  0.028  0.152
tot    0.000  0.171  0.000  0.057  0.019  0.000  0.000  0.000  0.057  0.304
 

 k-point     3 :    0.20000000-0.00000000 0.00000000     weight = 0.00750000

band     1 # energy  -41.29248697 # occ.  2.00000000
 
ion      s     py     pz     px    dxy    dyz    dz2    dxz  x2-y2    tot
    1  0.000  0.000  0.492  0.000  0.000  0.000  0.000  0.000  0.000  0.492
    2  0.000  0.000  0.492  0.000  0.000  0.000  0.000  0.000  0.000  0.492
tot    0.000  0.000  0.985  0.000  0.000  0.000  0.000  0.000  0.000  0.985
 
band     2 # energy  -41.29003107 # occ.  2.00000000
 
ion      s     py     pz     px    dxy    dyz    dz2    dxz  x2-y2    tot
    1  0.000  0.124  0.000  0.372  0.000  0.000  0.000  0.000  0.000  0.496
    2  0.000  0.124  0.000  0.372  0.000  0.000  0.000  0.000  0.000  0.496
tot    0.000  0.248  0.000  0.743  0.000  0.000  0.000  0.000  0.000  0.991
 
band     3 # energy  -41.24996334 # occ.  2.00000000
 
ion      s     py     pz     px    dxy    dyz    dz2    dxz  x2-y2    tot
    1  0.000  0.124  0.000  0.372  0.000  0.000  0.000  0.000  0.000  0.496
    2  0.000  0.124  0.000  0.372  0.000  0.000  0.000  0.000  0.000  0.496
tot    0.000  0.248  0.000  0.744  0.000  0.000  0.000  0.000  0.000  0.992
 
band     4 # energy  -41.19401407 # occ.  2.00000000
 
ion      s     py     pz     px    dxy    dyz    dz2    dxz  x2-y2    tot
    1  0.000  0.373  0.000  0.124  0.000  0.000  0.000  0.000  0.000  0.497
    2  0.000  0.373  0.000  0.124  0.000  0.000  0.000  0.000  0.000  0.497
tot    0.000  0.746  0.000  0.249  0.000  0.000  0.000  0.000  0.000  0.994
 
band     5 # energy  -41.14155319 # occ.  2.00000000
 
ion      s     py     pz     px    dxy    dyz    dz2    dxz  x2-y2    tot
    1  0.000  0.374  0.000  0.125  0.000  0.000  0.000  0.000  0.000  0.498
    2  0.000  0.373  0.000  0.124  0.000  0.000  0.000  0.000  0.000  0.498
tot    0.000  0.747  0.000  0.249  0.000  0.000  0.000  0.000  0.000  0.996
 
band     6 # energy  -41.00770336 # occ.  2.00000000
 
ion      s     py     pz     px    dxy    dyz    dz2    dxz  x2-y2    tot
    1  0.000  0.000  0.497  0.000  0.000  0.000  0.000  0.000  0.000  0.497
    2  0.000  0.000  0.497  0.000  0.000  0.000  0.000  0.000  0.000  0.497
tot    0.000  0.000  0.995  0.000  0.000  0.000  0.000  0.000  0.000  0.995
 
band     7 # energy    2.85323929 # occ.  2.00000000
 
ion      s     py     pz     px    dxy    dyz    dz2    dxz  x2-y2    tot
    1  0.176  0.002  0.000  0.006  0.006  0.000  0.001  0.000  0.002  0.193
    2  0.176  0.002  0.000  0.006  0.006  0.000  0.001  0.000  0.002  0.193
tot    0.352  0.004  0.000  0.012  0.012  0.000  0.001  0.000  0.004  0.387
 
band     8 # energy    5.21339365 # occ.  2.00000000
 
ion      s     py     pz     px    dxy    dyz    dz2    dxz  x2-y2    tot
    1  0.050  0.001  0.000  0.004  0.039  0.000  0.221  0.000  0.013  0.329
    2  0.050  0.001  0.000  0.004  0.039  0.000  0.221  0.000  0.013  0.329
tot    0.101  0.003  0.000  0.008  0.079  0.000  0.442  0.000  0.026  0.659
 
band     9 # energy    7.03016367 # occ.  2.00000000
 
ion      s     py     pz     px    dxy    dyz    dz2    dxz  x2-y2    tot
    1  0.003  0.001  0.000  0.003  0.187  0.000  0.128  0.000  0.062  0.384
    2  0.003  0.001  0.000  0.003  0.187  0.000  0.128  0.000  0.062  0.384
tot    0.006  0.002  0.000  0.007  0.373  0.000  0.255  0.000  0.124  0.768
 
band    10 # energy    7.51545257 # occ.  2.00000000
 
ion      s     py     pz     px    dxy    dyz    dz2    dxz  x2-y2    tot
    1  0.000  0.000  0.018  0.000  0.000  0.075  0.000  0.226  0.000  0.319
    2  0.000  0.000  0.018  0.000  0.000  0.075  0.000  0.226  0.000  0.319
tot    0.000  0.000  0.037  0.000  0.000  0.151  0.000  0.452  0.000  0.639
 
band    11 # energy    7.56432405 # occ.  2.00000000
 
ion      s     py     pz     px    dxy    dyz    dz2    dxz  x2-y2    tot
    1  0.005  0.000  0.000  0.001  0.257  0.000  0.056  0.000  0.086  0.406
    2  0.005  0.000  0.000  0.001  0.257  0.000  0.056  0.000  0.086  0.406
tot    0.011  0.001  0.000  0.002  0.514  0.000  0.113  0.000  0.171  0.812
 
band    12 # energy    8.47986312 # occ.  2.00000000
 
ion      s     py     pz     px    dxy    dyz    dz2    dxz  x2-y2    tot
    1  0.004  0.001  0.000  0.002  0.110  0.000  0.269  0.000  0.037  0.421
    2  0.004  0.001  0.000  0.002  0.110  0.000  0.269  0.000  0.037  0.421
tot    0.007  0.001  0.000  0.003  0.219  0.000  0.538  0.000  0.073  0.842
 
band    13 # energy    8.90710025 # occ.  2.00000000
 
ion      s     py     pz     px    dxy    dyz    dz2    dxz  x2-y2    tot
    1  0.000  0.001  0.000  0.000  0.107  0.000  0.000  0.000  0.322  0.430
    2  0.000  0.001  0.000  0.000  0.107  0.000  0.000  0.000  0.322  0.430
tot    0.000  0.002  0.000  0.001  0.215  0.000  0.000  0.000  0.644  0.861
 
band    14 # energy    8.92540667 # occ.  2.00000000
 
ion      s     py     pz     px    dxy    dyz    dz2    dxz  x2-y2    tot
    1  0.000  0.000  0.000  0.000  0.000  0.323  0.000  0.108  0.000  0.431
    2  0.000  0.000  0.000  0.000  0.000  0.323  0.000  0.108  0.000  0.431
tot    0.000  0.000  0.000  0.000  0.000  0.646  0.000  0.215  0.000  0.862
 
band    15 # energy    8.94340607 # occ.  2.00000000
 
ion      s     py     pz     px    dxy    dyz    dz2    dxz  x2-y2    tot
    1  0.000  0.000  0.010  0.000  0.000  0.095  0.000  0.285  0.000  0.390
    2  0.000  0.000  0.010  0.000  0.000  0.095  0.000  0.285  0.000  0.390
tot    0.000  0.000  0.019  0.000  0.000  0.190  0.000  0.570  0.000  0.780
 
band    16 # energy    9.22232038 # occ.  2.00000000
 
ion      s     py     pz     px    dxy    dyz    dz2    dxz  x2-y2    tot
    1  0.000  0.001  0.000  0.000  0.110  0.000  0.000  0.000  0.329  0.440
    2  0.000  0.001  0.000  0.000  0.110  0.000  0.000  0.000  0.329  0.440
tot    0.000  0.002  0.000  0.001  0.219  0.000  0.000  0.000  0.658  0.879
 
band    17 # energy   11.26130251 # occ.  1.76306661
 
ion      s     py     pz     px    dxy    dyz    dz2    dxz  x2-y2    tot
    1  0.000  0.000  0.000  0.000  0.000  0.354  0.000  0.118  0.000  0.472
    2  0.000  0.000  0.000  0.000  0.000  0.354  0.000  0.118  0.000  0.472
tot    0.000  0.000  0.000  0.000  0.000  0.708  0.000  0.236  0.000  0.944
 
band    18 # energy   15.05303138 # occ.  0.00000000
 
ion      s     py     pz     px    dxy    dyz    dz2    dxz  x2-y2    tot
    1  0.000  0.000  0.061  0.000  0.000  0.050  0.000  0.151  0.000  0.263
    2  0.000  0.000  0.061  0.000  0.000  0.050  0.000  0.151  0.000  0.263
tot    0.000  0.000  0.122  0.000  0.000  0.101  0.000  0.303  0.000  0.526
 
band    19 # energy   15.95832536 # occ.  0.00000000
 
ion      s     py     pz     px    dxy    dyz    dz2    dxz  x2-y2    tot
    1  0.182  0.001  0.000  0.003  0.005  0.000  0.188  0.000  0.002  0.381
    2  0.182  0.001  0.000  0.003  0.005  0.000  0.188  0.000  0.002  0.381
tot    0.365  0.002  0.000  0.006  0.011  0.000  0.376  0.000  0.004  0.763
 
band    20 # energy   25.39469847 # occ.  0.00000000
 
ion      s     py     pz     px    dxy    dyz    dz2    dxz  x2-y2    tot
    1  0.026  0.016  0.000  0.049  0.053  0.000  0.026  0.000  0.018  0.188
    2  0.026  0.016  0.000  0.049  0.053  0.000  0.026  0.000  0.018  0.188
tot    0.053  0.033  0.000  0.099  0.106  0.000  0.052  0.000  0.035  0.377
 
band    21 # energy   28.14856856 # occ.  0.00000000
 
ion      s     py     pz     px    dxy    dyz    dz2    dxz  x2-y2    tot
    1  0.000  0.000  0.010  0.000  0.000  0.003  0.000  0.008  0.000  0.021
    2  0.000  0.000  0.010  0.000  0.000  0.003  0.000  0.008  0.000  0.021
tot    0.000  0.000  0.021  0.000  0.000  0.005  0.000  0.015  0.000  0.042
 
band    22 # energy   28.47167781 # occ.  0.00000000
 
ion      s     py     pz     px    dxy    dyz    dz2    dxz  x2-y2    tot
    1  0.000  0.081  0.000  0.027  0.011  0.000  0.000  0.000  0.033  0.152
    2  0.000  0.081  0.000  0.027  0.011  0.000  0.000  0.000  0.033  0.152
tot    0.000  0.162  0.000  0.054  0.022  0.000  0.000  0.000  0.066  0.304
 
band    23 # energy   29.32010074 # occ.  0.00000000
 
ion      s     py     pz     px    dxy    dyz    dz2    dxz  x2-y2    tot
    1  0.005  0.004  0.000  0.012  0.033  0.000  0.017  0.000  0.011  0.083
    2  0.005  0.004  0.000  0.012  0.033  0.000  0.017  0.000  0.011  0.083
tot    0.010  0.008  0.000  0.024  0.067  0.000  0.034  0.000  0.022  0.165
 
band    24 # energy   29.52595544 # occ.  0.00000000
 
ion      s     py     pz     px    dxy    dyz    dz2    dxz  x2-y2    tot
    1  0.000  0.000  0.004  0.000  0.000  0.016  0.000  0.047  0.000  0.066
    2  0.000  0.000  0.004  0.000  0.000  0.016  0.000  0.047  0.000  0.066
tot    0.000  0.000  0.007  0.000  0.000  0.031  0.000  0.094  0.000  0.133
 

 k-point     4 :    0.30000000 0.00000000 0.00000000     weight = 0.00750000

band     1 # energy  -41.40977898 # occ.  2.00000000
 
ion      s     py     pz     px    dxy    dyz    dz2    dxz  x2-y2    tot
    1  0.000  0.123  0.000  0.370  0.000  0.000  0.000  0.000  0.000  0.494
    2  0.000  0.123  0.000  0.370  0.000  0.000  0.000  0.000  0.000  0.494
tot    0.000  0.247  0.000  0.740  0.000  0.000  0.000  0.000  0.000  0.987
 
band     2 # energy  -41.36868023 # occ.  2.00000000
 
ion      s     py     pz     px    dxy    dyz    dz2    dxz  x2-y2    tot
    1  0.000  0.124  0.000  0.371  0.000  0.000  0.000  0.000  0.000  0.494
    2  0.000  0.124  0.000  0.371  0.000  0.000  0.000  0.000  0.000  0.494
tot    0.000  0.247  0.000  0.741  0.000  0.000  0.000  0.000  0.000  0.989
 
band     3 # energy  -41.24474943 # occ.  2.00000000
 
ion      s     py     pz     px    dxy    dyz    dz2    dxz  x2-y2    tot
    1  0.000  0.000  0.493  0.000  0.000  0.000  0.000  0.000  0.000  0.493
    2  0.000  0.000  0.493  0.000  0.000  0.000  0.000  0.000  0.000  0.493
tot    0.000  0.000  0.986  0.000  0.000  0.000  0.000  0.000  0.000  0.986
 
band     4 # energy  -41.22746402 # occ.  2.00000000
 
ion      s     py     pz     px    dxy    dyz    dz2    dxz  x2-y2    tot
    1  0.000  0.372  0.000  0.124  0.000  0.000  0.000  0.000  0.000  0.497
    2  0.000  0.373  0.000  0.124  0.000  0.000  0.000  0.000  0.000  0.497
tot    0.000  0.745  0.000  0.248  0.000  0.000  0.000  0.000  0.000  0.993
 
band     5 # energy  -41.16690087 # occ.  2.00000000
 
ion      s     py     pz     px    dxy    dyz    dz2    dxz  x2-y2    tot
    1  0.000  0.373  0.000  0.124  0.000  0.000  0.000  0.000  0.000  0.498
    2  0.000  0.373  0.000  0.124  0.000  0.000  0.000  0.000  0.000  0.498
tot    0.000  0.746  0.000  0.249  0.000  0.000  0.000  0.000  0.000  0.995
 
band     6 # energy  -41.02416525 # occ.  2.00000000
 
ion      s     py     pz     px    dxy    dyz    dz2    dxz  x2-y2    tot
    1  0.000  0.000  0.497  0.000  0.000  0.000  0.000  0.000  0.000  0.497
    2  0.000  0.000  0.497  0.000  0.000  0.000  0.000  0.000  0.000  0.497
tot    0.000  0.000  0.994  0.000  0.000  0.000  0.000  0.000  0.000  0.994
 
band     7 # energy    4.06409193 # occ.  2.00000000
 
ion      s     py     pz     px    dxy    dyz    dz2    dxz  x2-y2    tot
    1  0.139  0.003  0.000  0.009  0.049  0.000  0.006  0.000  0.016  0.221
    2  0.139  0.003  0.000  0.009  0.049  0.000  0.006  0.000  0.016  0.221
tot    0.278  0.006  0.000  0.017  0.097  0.000  0.012  0.000  0.032  0.442
 
band     8 # energy    5.33611886 # occ.  2.00000000
 
ion      s     py     pz     px    dxy    dyz    dz2    dxz  x2-y2    tot
    1  0.021  0.000  0.000  0.001  0.163  0.000  0.119  0.000  0.054  0.358
    2  0.021  0.000  0.000  0.001  0.163  0.000  0.119  0.000  0.054  0.358
tot    0.041  0.001  0.000  0.002  0.326  0.000  0.238  0.000  0.109  0.716
 
band     9 # energy    6.44889726 # occ.  2.00000000
 
ion      s     py     pz     px    dxy    dyz    dz2    dxz  x2-y2    tot
    1  0.000  0.000  0.011  0.000  0.000  0.079  0.000  0.238  0.000  0.329
    2  0.000  0.000  0.011  0.000  0.000  0.079  0.000  0.238  0.000  0.329
tot    0.000  0.000  0.022  0.000  0.000  0.159  0.000  0.477  0.000  0.657
 
band    10 # energy    7.29819805 # occ.  2.00000000
 
ion      s     py     pz     px    dxy    dyz    dz2    dxz  x2-y2    tot
    1  0.013  0.003  0.000  0.009  0.208  0.000  0.046  0.000  0.069  0.348
    2  0.013  0.003  0.000  0.009  0.208  0.000  0.046  0.000  0.069  0.348
tot    0.026  0.006  0.000  0.019  0.415  0.000  0.091  0.000  0.138  0.696
 
band    11 # energy    7.66139820 # occ.  2.00000000
 
ion      s     py     pz     px    dxy    dyz    dz2    dxz  x2-y2    tot