<?xml version="1.0" encoding="ISO-8859-1"?>
<modeling>
 <generator>
  <i name="program" type="string">vasp </i>
  <i name="version" type="string">6.3.2  </i>
  <i name="subversion" type="string">27Jun22 (build Aug 12 2022 00:53:59) complex                          parallel </i>
  <i name="platform" type="string">tv2STD </i>
  <i name="date" type="string">2024 11 30 </i>
  <i name="time" type="string">16:05:37 </i>
 </generator>
 <incar>
  <i type="string" name="SYSTEM">Pt-hcc</i>
  <i type="int" name="ISTART">     0</i>
  <i type="string" name="PREC">Accurate      normal | accurate</i>
  <i type="string" name="ALGO">Normal     Normal, Fast, Very_Fast</i>
  <i type="logical" name="ADDGRID"> F  </i>
  <i type="int" name="ICHARG">     2</i>
  <i type="int" name="INIWAV">     1</i>
  <i type="int" name="NELM">   100</i>
  <i type="int" name="IBRION">     2</i>
  <i name="EDIFF">      0.00000100</i>
  <i name="EDIFFG">     -0.02000000</i>
  <i type="int" name="NSW">   100</i>
  <i type="int" name="ISIF">     3</i>
  <i type="int" name="ISYM">     1</i>
  <i name="ENCUT">    450.00000000</i>
  <i type="logical" name="LREAL"> F  </i>
  <i type="int" name="ISMEAR">     0</i>
  <i name="SIGMA">      0.05000000</i>
  <i type="int" name="NWRITE">     2</i>
  <i type="logical" name="LWAVE"> T  </i>
  <i type="logical" name="LCHARG"> T  </i>
  <i type="int" name="LORBIT">    11</i>
 </incar>
 <primitive_cell>
  <structure name="primitive_cell" >
   <crystal>
    <varray name="basis" >
     <v>       2.76000000       0.00000000       0.00000000 </v>
     <v>      -1.38000000       2.39023011       0.00000000 </v>
     <v>       0.00000000       0.00000000       4.79000000 </v>
    </varray>
    <i name="volume">     31.59979821 </i>
    <varray name="rec_basis" >
     <v>       0.36231884       0.20918488       0.00000000 </v>
     <v>       0.00000000       0.41836976       0.00000000 </v>
     <v>       0.00000000       0.00000000       0.20876827 </v>
    </varray>
   </crystal>
   <varray name="positions" >
    <v>       0.00000000       0.00000000       0.00000000 </v>
    <v>       0.33333333       0.66666667       0.50000000 </v>
   </varray>
  </structure>
  <varray name="primitive_index" >
   <v type="int" >        1 </v>
   <v type="int" >        2 </v>
  </varray>
 </primitive_cell>
 <kpoints>
  <generation param="Gamma">
   <v type="int" name="divisions">      10       10        8 </v>
   <v name="usershift">      0.00000000       0.00000000       0.00000000 </v>
   <v name="genvec1">      0.10000000       0.00000000       0.00000000 </v>
   <v name="genvec2">      0.00000000       0.10000000       0.00000000 </v>
   <v name="genvec3">      0.00000000       0.00000000       0.12500000 </v>
   <v name="shift">      0.00000000       0.00000000       0.00000000 </v>
  </generation>
  <varray name="kpointlist" >
   <v>       0.00000000       0.00000000       0.00000000 </v>
   <v>       0.10000000      -0.00000000       0.00000000 </v>
   <v>       0.20000000      -0.00000000       0.00000000 </v>
   <v>       0.30000000       0.00000000       0.00000000 </v>
   <v>       0.40000000      -0.00000000       0.00000000 </v>
   <v>       0.50000000      -0.00000000       0.00000000 </v>
   <v>       0.10000000       0.10000000       0.00000000 </v>
   <v>       0.20000000       0.10000000       0.00000000 </v>
   <v>       0.30000000       0.10000000       0.00000000 </v>
   <v>       0.40000000       0.10000000       0.00000000 </v>
   <v>       0.20000000       0.20000000       0.00000000 </v>
   <v>       0.30000000       0.20000000       0.00000000 </v>
   <v>       0.40000000       0.20000000       0.00000000 </v>
   <v>       0.30000000       0.30000000       0.00000000 </v>
   <v>       0.00000000       0.00000000       0.12500000 </v>
   <v>       0.10000000      -0.00000000       0.12500000 </v>
   <v>       0.20000000      -0.00000000       0.12500000 </v>
   <v>       0.30000000       0.00000000       0.12500000 </v>
   <v>       0.40000000      -0.00000000       0.12500000 </v>
   <v>       0.50000000      -0.00000000       0.12500000 </v>
   <v>       0.10000000       0.10000000       0.12500000 </v>
   <v>       0.20000000       0.10000000       0.12500000 </v>
   <v>       0.30000000       0.10000000       0.12500000 </v>
   <v>       0.40000000       0.10000000       0.12500000 </v>
   <v>       0.20000000       0.20000000       0.12500000 </v>
   <v>       0.30000000       0.20000000       0.12500000 </v>
   <v>       0.40000000       0.20000000       0.12500000 </v>
   <v>       0.30000000       0.30000000       0.12500000 </v>
   <v>       0.00000000       0.00000000       0.25000000 </v>
   <v>       0.10000000      -0.00000000       0.25000000 </v>
   <v>       0.20000000      -0.00000000       0.25000000 </v>
   <v>       0.30000000       0.00000000       0.25000000 </v>
   <v>       0.40000000      -0.00000000       0.25000000 </v>
   <v>       0.50000000      -0.00000000       0.25000000 </v>
   <v>       0.10000000       0.10000000       0.25000000 </v>
   <v>       0.20000000       0.10000000       0.25000000 </v>
   <v>       0.30000000       0.10000000       0.25000000 </v>
   <v>       0.40000000       0.10000000       0.25000000 </v>
   <v>       0.20000000       0.20000000       0.25000000 </v>
   <v>       0.30000000       0.20000000       0.25000000 </v>
   <v>       0.40000000       0.20000000       0.25000000 </v>
   <v>       0.30000000       0.30000000       0.25000000 </v>
   <v>       0.00000000       0.00000000       0.37500000 </v>
   <v>       0.10000000      -0.00000000       0.37500000 </v>
   <v>       0.20000000      -0.00000000       0.37500000 </v>
   <v>       0.30000000       0.00000000       0.37500000 </v>
   <v>       0.40000000      -0.00000000       0.37500000 </v>
   <v>       0.50000000      -0.00000000       0.37500000 </v>
   <v>       0.10000000       0.10000000       0.37500000 </v>
   <v>       0.20000000       0.10000000       0.37500000 </v>
   <v>       0.30000000       0.10000000       0.37500000 </v>
   <v>       0.40000000       0.10000000       0.37500000 </v>
   <v>       0.20000000       0.20000000       0.37500000 </v>
   <v>       0.30000000       0.20000000       0.37500000 </v>
   <v>       0.40000000       0.20000000       0.37500000 </v>
   <v>       0.30000000       0.30000000       0.37500000 </v>
   <v>       0.00000000       0.00000000       0.50000000 </v>
   <v>       0.10000000      -0.00000000       0.50000000 </v>
   <v>       0.20000000      -0.00000000       0.50000000 </v>
   <v>       0.30000000       0.00000000       0.50000000 </v>
   <v>       0.40000000      -0.00000000       0.50000000 </v>
   <v>       0.50000000      -0.00000000       0.50000000 </v>
   <v>       0.10000000       0.10000000       0.50000000 </v>
   <v>       0.20000000       0.10000000       0.50000000 </v>
   <v>       0.30000000       0.10000000       0.50000000 </v>
   <v>       0.40000000       0.10000000       0.50000000 </v>
   <v>       0.20000000       0.20000000       0.50000000 </v>
   <v>       0.30000000       0.20000000       0.50000000 </v>
   <v>       0.40000000       0.20000000       0.50000000 </v>
   <v>       0.30000000       0.30000000       0.50000000 </v>
  </varray>
  <varray name="weights" >
   <v>       0.00125000 </v>
   <v>       0.00750000 </v>
   <v>       0.00750000 </v>
   <v>       0.00750000 </v>
   <v>       0.00750000 </v>
   <v>       0.00375000 </v>
   <v>       0.00750000 </v>
   <v>       0.01500000 </v>
   <v>       0.01500000 </v>
   <v>       0.01500000 </v>
   <v>       0.00750000 </v>
   <v>       0.01500000 </v>
   <v>       0.00750000 </v>
   <v>       0.00750000 </v>
   <v>       0.00250000 </v>
   <v>       0.01500000 </v>
   <v>       0.01500000 </v>
   <v>       0.01500000 </v>
   <v>       0.01500000 </v>
   <v>       0.00750000 </v>
   <v>       0.01500000 </v>
   <v>       0.03000000 </v>
   <v>       0.03000000 </v>
   <v>       0.03000000 </v>
   <v>       0.01500000 </v>
   <v>       0.03000000 </v>
   <v>       0.01500000 </v>
   <v>       0.01500000 </v>
   <v>       0.00250000 </v>
   <v>       0.01500000 </v>
   <v>       0.01500000 </v>
   <v>       0.01500000 </v>
   <v>       0.01500000 </v>
   <v>       0.00750000 </v>
   <v>       0.01500000 </v>
   <v>       0.03000000 </v>
   <v>       0.03000000 </v>
   <v>       0.03000000 </v>
   <v>       0.01500000 </v>
   <v>       0.03000000 </v>
   <v>       0.01500000 </v>
   <v>       0.01500000 </v>
   <v>       0.00250000 </v>
   <v>       0.01500000 </v>
   <v>       0.01500000 </v>
   <v>       0.01500000 </v>
   <v>       0.01500000 </v>
   <v>       0.00750000 </v>
   <v>       0.01500000 </v>
   <v>       0.03000000 </v>
   <v>       0.03000000 </v>
   <v>       0.03000000 </v>
   <v>       0.01500000 </v>
   <v>       0.03000000 </v>
   <v>       0.01500000 </v>
   <v>       0.01500000 </v>
   <v>       0.00125000 </v>
   <v>       0.00750000 </v>
   <v>       0.00750000 </v>
   <v>       0.00750000 </v>
   <v>       0.00750000 </v>
   <v>       0.00375000 </v>
   <v>       0.00750000 </v>
   <v>       0.01500000 </v>
   <v>       0.01500000 </v>
   <v>       0.01500000 </v>
   <v>       0.00750000 </v>
   <v>       0.01500000 </v>
   <v>       0.00750000 </v>
   <v>       0.00750000 </v>
  </varray>
 </kpoints>
 <parameters>
  <separator name="general" >
   <i type="string" name="SYSTEM">Pt-hcc</i>
   <i type="logical" name="LCOMPAT"> F  </i>
  </separator>
  <separator name="electronic" >
   <i type="string" name="PREC">accura</i>
   <i name="ENMAX">    450.00000000</i>
   <i name="ENAUG">    527.01400000</i>
   <i name="EDIFF">      0.00000100</i>
   <i type="int" name="IALGO">    38</i>
   <i type="int" name="IWAVPR">    11</i>
   <i type="int" name="NBANDS">    24</i>
   <i type="int" name="NBANDSLOW">    -1</i>
   <i type="int" name="NBANDSHIGH">    -1</i>
   <i name="NELECT">     32.00000000</i>
   <i type="int" name="TURBO">     0</i>
   <i type="int" name="IRESTART">     0</i>
   <i type="int" name="NREBOOT">     0</i>
   <i type="int" name="NMIN">     0</i>
   <i name="EREF">      0.00000000</i>
   <separator name="electronic smearing" >
    <i type="int" name="ISMEAR">     0</i>
    <i name="SIGMA">      0.05000000</i>
    <i name="KSPACING">      0.50000000</i>
    <i type="logical" name="KGAMMA"> T  </i>
    <i type="logical" name="KBLOWUP"> T  </i>
   </separator>
   <separator name="electronic projectors" >
    <i type="logical" name="LREAL"> F  </i>
    <v name="ROPT">      0.00000000</v>
    <i type="int" name="LMAXPAW">  -100</i>
    <i type="int" name="LMAXMIX">     2</i>
    <i type="logical" name="NLSPLINE"> F  </i>
   </separator>
   <separator name="electronic startup" >
    <i type="int" name="ISTART">     0</i>
    <i type="int" name="ICHARG">     2</i>
    <i type="int" name="INIWAV">     1</i>
   </separator>
   <separator name="electronic spin" >
    <i type="int" name="ISPIN">     1</i>
    <i type="logical" name="LNONCOLLINEAR"> F  </i>
    <v name="MAGMOM">      1.00000000      1.00000000</v>
    <i name="NUPDOWN">     -1.00000000</i>
    <i type="logical" name="LSORBIT"> F  </i>
    <v name="SAXIS">      0.00000000      0.00000000      1.00000000</v>
    <i type="logical" name="LSPIRAL"> F  </i>
    <v name="QSPIRAL">      0.00000000      0.00000000      0.00000000</v>
    <i type="logical" name="LZEROZ"> F  </i>
   </separator>
   <separator name="electronic exchange-correlation" >
    <i type="logical" name="LASPH"> F  </i>
    <i type="logical" name="LMETAGGA"> F  </i>
   </separator>
   <separator name="electronic convergence" >
    <i type="int" name="NELM">   100</i>
    <i type="int" name="NELMDL">    -5</i>
    <i type="int" name="NELMIN">     2</i>
    <i name="ENINI">    450.00000000</i>
    <separator name="electronic convergence detail" >
     <i type="logical" name="LDIAG"> T  </i>
     <i type="logical" name="LSUBROT"> F  </i>
     <i name="WEIMIN">      0.00100000</i>
     <i name="EBREAK">      0.00000001</i>
     <i name="DEPER">      0.30000000</i>
     <i type="int" name="NRMM">     4</i>
     <i name="TIME">      0.40000000</i>
    </separator>
   </separator>
   <separator name="electronic mixer" >
    <i name="AMIX">      0.40000000</i>
    <i name="BMIX">      1.00000000</i>
    <i name="AMIN">      0.10000000</i>
    <i name="AMIX_MAG">      1.60000000</i>
    <i name="BMIX_MAG">      1.00000000</i>
    <separator name="electronic mixer details" >
     <i type="int" name="IMIX">     4</i>
     <i type="logical" name="MIXFIRST"> F  </i>
     <i type="int" name="MAXMIX">   -45</i>
     <i name="WC">    100.00000000</i>
     <i type="int" name="INIMIX">     1</i>
     <i type="int" name="MIXPRE">     1</i>
     <i type="int" name="MREMOVE">     5</i>
    </separator>
   </separator>
   <separator name="electronic dipolcorrection" >
    <i type="logical" name="LDIPOL"> F  </i>
    <i type="logical" name="LMONO"> F  </i>
    <i type="int" name="IDIPOL">     0</i>
    <i name="EPSILON">      1.00000000</i>
    <v name="DIPOL">   -100.00000000   -100.00000000   -100.00000000</v>
    <i name="EFIELD">      0.00000000</i>
   </separator>
  </separator>
  <separator name="grids" >
   <i type="int" name="NGX">    20</i>
   <i type="int" name="NGY">    20</i>
   <i type="int" name="NGZ">    36</i>
   <i type="int" name="NGXF">    40</i>
   <i type="int" name="NGYF">    40</i>
   <i type="int" name="NGZF">    72</i>
   <i type="logical" name="ADDGRID"> F  </i>
  </separator>
  <separator name="ionic" >
   <i type="int" name="NSW">   100</i>
   <i type="int" name="IBRION">     2</i>
   <i type="int" name="MDALGO">     0</i>
   <i type="int" name="ISIF">     3</i>
   <i name="PSTRESS">      0.00000000</i>
   <i name="EDIFFG">     -0.02000000</i>
   <i type="int" name="NFREE">     1</i>
   <i name="POTIM">      0.50000000</i>
   <i name="SMASS">     -3.00000000</i>
   <i name="SCALEE">      1.00000000</i>
  </separator>
  <separator name="ionic md" >
   <i name="TEBEG">      0.00010000</i>
   <i name="TEEND">      0.00010000</i>
   <i type="int" name="NBLOCK">     1</i>
   <i type="int" name="KBLOCK">   100</i>
   <i type="int" name="NPACO">   256</i>
   <i name="APACO">     10.00000000</i>
  </separator>
  <separator name="symmetry" >
   <i type="int" name="ISYM">     1</i>
   <i name="SYMPREC">      0.00001000</i>
  </separator>
  <separator name="dos" >
   <i type="int" name="LORBIT">    11</i>
   <v name="RWIGS">     -1.00000000</v>
   <i type="int" name="NEDOS">   301</i>
   <i name="EMIN">     10.00000000</i>
   <i name="EMAX">    -10.00000000</i>
   <i name="EFERMI">      0.00000000</i>
  </separator>
  <separator name="writing" >
   <i type="int" name="NWRITE">     2</i>
   <i type="logical" name="LWAVE"> T  </i>
   <i type="logical" name="LDOWNSAMPLE"> F  </i>
   <i type="logical" name="LCHARG"> T  </i>
   <i type="logical" name="LPARD"> F  </i>
   <i type="logical" name="LVTOT"> F  </i>
   <i type="logical" name="LVHAR"> F  </i>
   <i type="logical" name="LELF"> F  </i>
   <i type="logical" name="LOPTICS"> F  </i>
   <v name="STM">      0.00000000      0.00000000      0.00000000      0.00000000      0.00000000      0.00000000      0.00000000</v>
  </separator>
  <separator name="performance" >
   <i type="int" name="NPAR">    24</i>
   <i type="int" name="NSIM">     4</i>
   <i type="int" name="NBLK">    -1</i>
   <i type="logical" name="LPLANE"> T  </i>
   <i type="logical" name="LSCALAPACK"> T  </i>
   <i type="logical" name="LSCAAWARE"> F  </i>
   <i type="logical" name="LSCALU"> F  </i>
   <i type="logical" name="LASYNC"> F  </i>
   <i type="logical" name="LORBITALREAL"> F  </i>
  </separator>
  <separator name="miscellaneous" >
   <i type="int" name="IDIOT">     3</i>
   <i type="int" name="PHON_NSTRUCT">    -1</i>
   <i type="logical" name="LMUSIC"> F  </i>
   <v name="POMASS">    195.08000000</v>
   <v name="DARWINR">      0.00000000</v>
   <v name="DARWINV">      1.00000000</v>
   <i type="logical" name="LCORR"> T  </i>
  </separator>
  <i type="logical" name="GGA_COMPAT"> T  </i>
  <i type="logical" name="LBERRY"> F  </i>
  <i type="int" name="ICORELEVEL">     0</i>
  <i type="logical" name="LDAU"> F  </i>
  <i type="int" name="I_CONSTRAINED_M">     0</i>
  <separator name="electronic exchange-correlation" >
   <i type="string" name="GGA">--</i>
   <i type="int" name="VOSKOWN">     0</i>
   <i type="logical" name="LHFCALC"> F  </i>
   <i type="string" name="PRECFOCK"></i>
   <i type="logical" name="LSYMGRAD"> F  </i>
   <i type="logical" name="LHFONE"> F  </i>
   <i type="logical" name="LRHFCALC"> F  </i>
   <i type="logical" name="LTHOMAS"> F  </i>
   <i type="logical" name="LMODELHF"> F  </i>
   <i type="logical" name="LFOCKACE"> F  </i>
   <i name="ENCUT4O">     -1.00000000</i>
   <i type="int" name="EXXOEP">     0</i>
   <i type="int" name="FOURORBIT">     0</i>
   <i name="AEXX">      0.00000000</i>
   <i name="HFALPHA">      0.00000000</i>
   <i name="MCALPHA">      0.00000000</i>
   <i name="ALDAX">      1.00000000</i>
   <i name="AGGAX">      1.00000000</i>
   <i name="ALDAC">      1.00000000</i>
   <i name="AGGAC">      1.00000000</i>
   <i type="int" name="NKREDX">     1</i>
   <i type="int" name="NKREDY">     1</i>
   <i type="int" name="NKREDZ">     1</i>
   <i type="logical" name="SHIFTRED"> F  </i>
   <i type="logical" name="ODDONLY"> F  </i>
   <i type="logical" name="EVENONLY"> F  </i>
   <i type="int" name="LMAXFOCK">     0</i>
   <i type="int" name="NMAXFOCKAE">     0</i>
   <i type="logical" name="LFOCKAEDFT"> F  </i>
   <i name="HFSCREEN">      0.00000000</i>
   <i name="HFSCREENC">      0.00000000</i>
   <i type="int" name="NBANDSGWLOW">     0</i>
  </separator>
  <separator name="vdW DFT" >
   <i type="logical" name="LUSE_VDW"> F  </i>
   <i name="Zab_VDW">     -0.84910000</i>
   <i name="PARAM1">      0.12340000</i>
   <i name="PARAM2">      1.00000000</i>
   <i name="PARAM3">      0.00000000</i>
  </separator>
  <separator name="model GW" >
   <i type="int" name="MODEL_GW">     0</i>
   <i name="MODEL_EPS0">      9.47993946</i>
   <i name="MODEL_ALPHA">      1.00000000</i>
  </separator>
  <separator name="linear response parameters" >
   <i type="logical" name="LEPSILON"> F  </i>
   <i type="logical" name="LRPA"> F  </i>
   <i type="logical" name="LNABLA"> F  </i>
   <i type="logical" name="LVEL"> F  </i>
   <i name="CSHIFT">      0.10000000</i>
   <i name="OMEGAMAX">     -1.00000000</i>
   <i name="DEG_THRESHOLD">      0.00200000</i>
   <i name="RTIME">     -0.10000000</i>
   <i name="WPLASMAI">      0.00000000</i>
   <v name="DFIELD">      0.00000000      0.00000000      0.00000000</v>
   <v name="WPLASMA">      0.00000000      0.00000000      0.00000000      0.00000000      0.00000000      0.00000000      0.00000000      0.00000000      0.00000000</v>
  </separator>
  <separator name="orbital magnetization" >
   <i type="logical" name="NUCIND"> F  </i>
   <v name="MAGPOS">      0.00000000      0.00000000      0.00000000</v>
   <i type="logical" name="LNICSALL"> T  </i>
   <i type="logical" name="ORBITALMAG"> F  </i>
   <i type="logical" name="LMAGBLOCH"> F  </i>
   <i type="logical" name="LCHIMAG"> F  </i>
   <i type="logical" name="LGAUGE"> T  </i>
   <i type="int" name="MAGATOM">     0</i>
   <v name="MAGDIPOL">      0.00000000      0.00000000      0.00000000</v>
   <v name="AVECCONST">      0.00000000      0.00000000      0.00000000</v>
  </separator>
  <separator name="response functions" >
   <i type="logical" name="LFINITE_TEMPERATURE"> F  </i>
   <i type="logical" name="LADDER"> F  </i>
   <i type="logical" name="LRPAFORCE"> F  </i>
   <i type="logical" name="LFXC"> F  </i>
   <i type="logical" name="LHARTREE"> T  </i>
   <i type="int" name="IBSE">     0</i>
   <v type="int" name="KPOINT">    -1     0     0     0</v>
   <i type="logical" name="LTCTC"> F  </i>
   <i type="logical" name="LTCTE"> F  </i>
   <i type="logical" name="LTETE"> F  </i>
   <i type="logical" name="LTRIPLET"> F  </i>
   <i type="logical" name="LFXCEPS"> F  </i>
   <i type="logical" name="LFXHEG"> F  </i>
   <i type="int" name="NATURALO">     2</i>
   <i type="logical" name="LHOLEGF"> F  </i>
   <i type="logical" name="L2ORDER"> F  </i>
   <i type="logical" name="LDMP1"> F  </i>
   <i type="logical" name="LMP2LT"> F  </i>
   <i type="logical" name="LSMP2LT"> F  </i>
   <i type="logical" name="LGWLF"> F  </i>
   <i name="ENCUTGW">     -2.00000000</i>
   <i name="ENCUTGWSOFT">     -2.00000000</i>
   <i name="ENCUTLF">     -1.00000000</i>
   <i type="logical" name="LESF_SPLINES"> F  </i>
   <i type="int" name="LMAXMP2">    -1</i>
   <i name="SCISSOR">      0.00000000</i>
   <i type="int" name="NOMEGA">     0</i>
   <i type="int" name="NOMEGAR">     0</i>
   <i type="int" name="NBANDSGW">    -1</i>
   <i type="int" name="NBANDSO">    -1</i>
   <i type="int" name="NBANDSV">    -1</i>
   <i type="int" name="NELMGW">     1</i>
   <i type="int" name="NELMHF">     1</i>
   <i type="int" name="DIM">     3</i>
   <i type="int" name="IESPILON">     4</i>
   <i type="int" name="ANTIRES">     0</i>
   <i name="OMEGAMAX">    -30.00000000</i>
   <i name="OMEGAMIN">    -30.00000000</i>
   <i name="OMEGATL">   -200.00000000</i>
   <i type="int" name="OMEGAGRID">     0</i>
   <i name="CSHIFT">     -0.10000000</i>
   <i type="logical" name="LSELFENERGY"> F  </i>
   <i type="logical" name="LSPECTRAL"> F  </i>
   <i type="logical" name="LSPECTRALGW"> F  </i>
   <i type="logical" name="LSINGLES"> F  </i>
   <i type="logical" name="LFERMIGW"> F  </i>
   <i type="logical" name="ODDONLYGW"> F  </i>
   <i type="logical" name="EVENONLYGW"> F  </i>
   <i type="int" name="NKREDLFX">     1</i>
   <i type="int" name="NKREDLFY">     1</i>
   <i type="int" name="NKREDLFZ">     1</i>
   <i type="int" name="MAXMEM">  2800</i>
   <i type="int" name="TELESCOPE">     0</i>
   <i type="int" name="NTAUPAR">    -1</i>
   <i type="int" name="NOMEGAPAR">    -1</i>
   <i name="DAMP_NEWTON">      0.80000001</i>
   <i name="LAMBDA">      1.00000000</i>
  </separator>
  <separator name="External order field" >
   <i name="OFIELD_KAPPA">      0.00000000</i>
   <v name="OFIELD_K">      0.00000000      0.00000000      0.00000000</v>
   <i name="OFIELD_Q6_NEAR">      0.00000000</i>
   <i name="OFIELD_Q6_FAR">      0.00000000</i>
   <i name="OFIELD_A">      0.00000000</i>
  </separator>
  <separator name="optional k-points parameters" >
   <i type="int" name="KPOINTS_OPT_MODE">     1</i>
   <i type="logical" name="LKPOINTS_OPT"> F  </i>
  </separator>
 </parameters>
 <atominfo>
  <atoms>       2 </atoms>
  <types>       1 </types>
  <array name="atoms" >
   <dimension dim="1">ion</dimension>
   <field type="string">element</field>
   <field type="int">atomtype</field>
   <set>
    <rc><c>Pt</c><c>   1</c></rc>
    <rc><c>Pt</c><c>   1</c></rc>
   </set>
  </array>
  <array name="atomtypes" >
   <dimension dim="1">type</dimension>
   <field type="int">atomspertype</field>
   <field type="string">element</field>
   <field>mass</field>
   <field>valence</field>
   <field type="string">pseudopotential</field>
   <set>
    <rc><c>   2</c><c>Pt</c><c>    195.08000000</c><c>     16.00000000</c><c>  PAW_PBE Pt_pv 12Dec2005               </c></rc>
   </set>
  </array>
 </atominfo>
 <structure name="initialpos" >
  <crystal>
   <varray name="basis" >
    <v>       2.76000000       0.00000000       0.00000000 </v>
    <v>      -1.38000000       2.39023011       0.00000000 </v>
    <v>       0.00000000       0.00000000       4.79000000 </v>
   </varray>
   <i name="volume">     31.59979821 </i>
   <varray name="rec_basis" >
    <v>       0.36231884       0.20918488       0.00000000 </v>
    <v>       0.00000000       0.41836976       0.00000000 </v>
    <v>       0.00000000       0.00000000       0.20876827 </v>
   </varray>
  </crystal>
  <varray name="positions" >
   <v>       0.00000000       0.00000000       0.00000000 </v>
   <v>       0.33333333       0.66666667       0.50000000 </v>
  </varray>
 </structure>
 <calculation>
  <scstep>
   <time name="dav">    0.32    0.32</time>
   <time name="total">    0.32    0.33</time>
   <energy>
    <i name="alphaZ">    303.71314961 </i>
    <i name="ewald">  -4240.69024974 </i>
    <i name="hartreedc">   -819.48907223 </i>
    <i name="XCdc">    127.32804754 </i>
    <i name="pawpsdc">   4131.50523274 </i>
    <i name="pawaedc">  -4061.67189606 </i>
    <i name="eentropy">     -0.00105780 </i>
    <i name="bandstr">   -155.60515051 </i>
    <i name="atom">   4856.42966544 </i>
    <i name="e_fr_energy">    141.51866900 </i>
    <i name="e_wo_entrp">    141.51972680 </i>
    <i name="e_0_energy">    141.51919790 </i>
   </energy>
  </scstep>
  <scstep>
   <time name="dav">    0.34    0.34</time>
   <time name="total">    0.34    0.35</time>
   <energy>
    <i name="e_fr_energy">    -11.34830122 </i>
    <i name="e_wo_entrp">    -11.34468571 </i>
    <i name="e_0_energy">    -11.34649346 </i>
   </energy>
  </scstep>
  <scstep>
   <time name="dav">    0.46    0.46</time>
   <time name="total">    0.46    0.46</time>
   <energy>
    <i name="e_fr_energy">    -12.74486448 </i>
    <i name="e_wo_entrp">    -12.74046551 </i>
    <i name="e_0_energy">    -12.74266499 </i>
   </energy>
  </scstep>
  <scstep>
   <time name="dav">    0.60    0.60</time>
   <time name="total">    0.60    0.60</time>
   <energy>
    <i name="e_fr_energy">    -12.74977636 </i>
    <i name="e_wo_entrp">    -12.74536400 </i>
    <i name="e_0_energy">    -12.74757018 </i>
   </energy>
  </scstep>
  <scstep>
   <time name="dav">    0.51    0.52</time>
   <time name="total">    0.54    0.54</time>
   <energy>
    <i name="e_fr_energy">    -12.74977746 </i>
    <i name="e_wo_entrp">    -12.74536510 </i>
    <i name="e_0_energy">    -12.74757128 </i>
   </energy>
  </scstep>
  <scstep>
   <time name="dav">    0.33    0.33</time>
   <time name="total">    0.36    0.36</time>
   <energy>
    <i name="e_fr_energy">    -12.07530859 </i>
    <i name="e_wo_entrp">    -12.07084278 </i>
    <i name="e_0_energy">    -12.07307568 </i>
   </energy>
  </scstep>
  <scstep>
   <time name="dav">    0.50    0.50</time>
   <time name="total">    0.53    0.53</time>
   <energy>
    <i name="e_fr_energy">    -12.04232777 </i>
    <i name="e_wo_entrp">    -12.03763531 </i>
    <i name="e_0_energy">    -12.03998154 </i>
   </energy>
  </scstep>
  <scstep>
   <time name="dav">    0.34    0.34</time>
   <time name="total">    0.37    0.37</time>
   <energy>
    <i name="e_fr_energy">    -12.04005516 </i>
    <i name="e_wo_entrp">    -12.03531089 </i>
    <i name="e_0_energy">    -12.03768302 </i>
   </energy>
  </scstep>
  <scstep>
   <time name="dav">    0.54    0.54</time>
   <time name="total">    0.57    0.57</time>
   <energy>
    <i name="e_fr_energy">    -12.03988301 </i>
    <i name="e_wo_entrp">    -12.03516444 </i>
    <i name="e_0_energy">    -12.03752372 </i>
   </energy>
  </scstep>
  <scstep>
   <time name="dav">    0.42    0.42</time>
   <time name="total">    0.45    0.45</time>
   <energy>
    <i name="e_fr_energy">    -12.03989728 </i>
    <i name="e_wo_entrp">    -12.03518266 </i>
    <i name="e_0_energy">    -12.03753997 </i>
   </energy>
  </scstep>
  <scstep>
   <time name="dav">    0.40    0.41</time>
   <time name="total">    0.41    0.41</time>
   <energy>
    <i name="alphaZ">    303.71314961 </i>
    <i name="ewald">  -4240.69024974 </i>
    <i name="hartreedc">   -780.79758060 </i>
    <i name="XCdc">    125.62675198 </i>
    <i name="pawpsdc">   4629.23015991 </i>
    <i name="pawaedc">  -4564.38366634 </i>
    <i name="eentropy">     -0.00471536 </i>
    <i name="bandstr">   -341.16341180 </i>
    <i name="atom">   4856.42966544 </i>
    <i name="e_fr_energy">    -12.03989690 </i>
    <i name="e_wo_entrp">    -12.03518153 </i>
    <i name="e_0_energy">    -12.03753922 </i>
   </energy>
  </scstep>
  <structure>
   <crystal>
    <varray name="basis" >
     <v>       2.76000000       0.00000000       0.00000000 </v>
     <v>      -1.38000000       2.39023011       0.00000000 </v>
     <v>       0.00000000       0.00000000       4.79000000 </v>
    </varray>
    <i name="volume">     31.59979821 </i>
    <varray name="rec_basis" >
     <v>       0.36231884       0.20918488       0.00000000 </v>
     <v>       0.00000000       0.41836976       0.00000000 </v>
     <v>       0.00000000       0.00000000       0.20876827 </v>
    </varray>
   </crystal>
   <varray name="positions" >
    <v>       0.00000000       0.00000000       0.00000000 </v>
    <v>       0.33333333       0.66666667       0.50000000 </v>
   </varray>
  </structure>
  <varray name="forces" >
   <v>       0.00000000       0.00000000       0.00000000 </v>
   <v>      -0.00000000      -0.00000000       0.00000000 </v>
  </varray>
  <varray name="stress" >
   <v>     -23.30148703       0.00000000      -0.00000000 </v>
   <v>       0.00000000     -23.30148703      -0.00000000 </v>
   <v>       0.00000000       0.00000000     -24.24764809 </v>
  </varray>
  <energy>
   <i name="e_fr_energy">    -12.03989690 </i>
   <i name="e_wo_entrp">    -12.03518153 </i>
   <i name="e_0_energy">    -12.03753922 </i>
  </energy>
  <time name="totalsc">    5.30    5.37</time>
 </calculation>
 <calculation>
  <scstep>
   <time name="dav">    0.31    0.31</time>
   <time name="total">    0.34    0.34</time>
   <energy>
    <i name="alphaZ">    314.18481971 </i>
    <i name="ewald">  -4288.91461999 </i>
    <i name="hartreedc">   -789.65595700 </i>
    <i name="XCdc">    127.21561415 </i>
    <i name="pawpsdc">   4629.12559219 </i>
    <i name="pawaedc">  -4564.27784348 </i>
    <i name="eentropy">     -0.00395227 </i>
    <i name="bandstr">   -296.89882900 </i>
    <i name="atom">   4856.42966544 </i>
    <i name="e_fr_energy">    -12.79551024 </i>
    <i name="e_wo_entrp">    -12.79155797 </i>
    <i name="e_0_energy">    -12.79353411 </i>
   </energy>
  </scstep>
  <scstep>
   <time name="dav">    0.31    0.31</time>
   <time name="total">    0.33    0.34</time>
   <energy>
    <i name="e_fr_energy">    -12.03008036 </i>
    <i name="e_wo_entrp">    -12.02575082 </i>
    <i name="e_0_energy">    -12.02791559 </i>
   </energy>
  </scstep>
  <scstep>
   <time name="dav">    0.36    0.36</time>
   <time name="total">    0.38    0.39</time>
   <energy>
    <i name="e_fr_energy">    -12.01927520 </i>
    <i name="e_wo_entrp">    -12.01486671 </i>
    <i name="e_0_energy">    -12.01707095 </i>
   </energy>
  </scstep>
  <scstep>
   <time name="dav">    0.35    0.35</time>
   <time name="total">    0.37    0.38</time>
   <energy>
    <i name="e_fr_energy">    -12.02573299 </i>
    <i name="e_wo_entrp">    -12.02130442 </i>
    <i name="e_0_energy">    -12.02351871 </i>
   </energy>
  </scstep>
  <scstep>
   <time name="dav">    0.58    0.58</time>
   <time name="total">    0.61    0.61</time>
   <energy>
    <i name="e_fr_energy">    -12.02610538 </i>
    <i name="e_wo_entrp">    -12.02167507 </i>
    <i name="e_0_energy">    -12.02389023 </i>
   </energy>
  </scstep>
  <scstep>
   <time name="dav">    0.35    0.35</time>
   <time name="total">    0.37    0.38</time>
   <energy>
    <i name="e_fr_energy">    -12.02611132 </i>
    <i name="e_wo_entrp">    -12.02168060 </i>
    <i name="e_0_energy">    -12.02389596 </i>
   </energy>
  </scstep>
  <scstep>
   <time name="dav">    0.21    0.21</time>
   <time name="total">    0.22    0.22</time>
   <energy>
    <i name="alphaZ">    314.18481971 </i>
    <i name="ewald">  -4288.91461999 </i>
    <i name="hartreedc">   -758.71987849 </i>
    <i name="XCdc">    125.97687869 </i>
    <i name="pawpsdc">   4725.12341393 </i>
    <i name="pawaedc">  -4660.56327296 </i>
    <i name="eentropy">     -0.00443094 </i>
    <i name="bandstr">   -325.53868702 </i>
    <i name="atom">   4856.42966544 </i>
    <i name="e_fr_energy">    -12.02611162 </i>
    <i name="e_wo_entrp">    -12.02168068 </i>
    <i name="e_0_energy">    -12.02389615 </i>
   </energy>
  </scstep>
  <structure>
   <crystal>
    <varray name="basis" >
     <v>       2.72940379       0.00000000      -0.00000000 </v>
     <v>      -1.36470189       2.36373302       0.00000000 </v>
     <v>       0.00000000       0.00000000       4.73474392 </v>
    </varray>
    <i name="volume">     30.54658799 </i>
    <varray name="rec_basis" >
     <v>       0.36638038       0.21152981      -0.00000000 </v>
     <v>      -0.00000000       0.42305962      -0.00000000 </v>
     <v>       0.00000000       0.00000000       0.21120466 </v>
    </varray>
   </crystal>
   <varray name="positions" >
    <v>       0.00000000       0.00000000       0.00000000 </v>
    <v>       0.33333333       0.66666667       0.50000000 </v>
   </varray>
  </structure>
  <varray name="forces" >
   <v>      -0.00000000      -0.00000000      -0.00000000 </v>
   <v>       0.00000000       0.00000000       0.00000000 </v>
  </varray>
  <varray name="stress" >
   <v>      73.32715857      -0.00000000       0.00000000 </v>
   <v>      -0.00000000      73.32715857      -0.00000000 </v>
   <v>       0.00000000       0.00000000      60.38992333 </v>
  </varray>
  <energy>
   <i name="e_fr_energy">    -12.02611162 </i>
   <i name="e_wo_entrp">    -12.02168068 </i>
   <i name="e_0_energy">    -12.02389615 </i>
  </energy>
  <time name="totalsc">    2.91    2.93</time>
 </calculation>
 <calculation>
  <scstep>
   <time name="dav">    0.31    0.31</time>
   <time name="total">    0.34    0.34</time>
   <energy>
    <i name="alphaZ">    306.51217484 </i>
    <i name="ewald">  -4253.68751630 </i>
    <i name="hartreedc">   -752.50344382 </i>
    <i name="XCdc">    124.82923184 </i>
    <i name="pawpsdc">   4725.17242064 </i>
    <i name="pawaedc">  -4660.61268055 </i>
    <i name="eentropy">     -0.00598691 </i>
    <i name="bandstr">   -358.58987417 </i>
    <i name="atom">   4856.42966544 </i>
    <i name="e_fr_energy">    -12.45600899 </i>
    <i name="e_wo_entrp">    -12.45002208 </i>
    <i name="e_0_energy">    -12.45301553 </i>
   </energy>
  </scstep>
  <scstep>
   <time name="dav">    0.31    0.31</time>
   <time name="total">    0.34    0.34</time>
   <energy>
    <i name="e_fr_energy">    -12.04176890 </i>
    <i name="e_wo_entrp">    -12.03700452 </i>
    <i name="e_0_energy">    -12.03938671 </i>
   </energy>
  </scstep>
  <scstep>
   <time name="dav">    0.35    0.35</time>
   <time name="total">    0.38    0.38</time>
   <energy>
    <i name="e_fr_energy">    -12.03858301 </i>
    <i name="e_wo_entrp">    -12.03393943 </i>
    <i name="e_0_energy">    -12.03626122 </i>
   </energy>
  </scstep>
  <scstep>
   <time name="dav">    0.33    0.33</time>
   <time name="total">    0.36    0.36</time>
   <energy>
    <i name="e_fr_energy">    -12.04205189 </i>
    <i name="e_wo_entrp">    -12.03741389 </i>
    <i name="e_0_energy">    -12.03973289 </i>
   </energy>
  </scstep>
  <scstep>
   <time name="dav">    0.57    0.57</time>
   <time name="total">    0.60    0.60</time>
   <energy>
    <i name="e_fr_energy">    -12.04206121 </i>
    <i name="e_wo_entrp">    -12.03742593 </i>
    <i name="e_0_energy">    -12.03974357 </i>
   </energy>
  </scstep>
  <scstep>
   <time name="dav">    0.34    0.34</time>
   <time name="total">    0.37    0.37</time>
   <energy>
    <i name="e_fr_energy">    -12.04206226 </i>
    <i name="e_wo_entrp">    -12.03742853 </i>
    <i name="e_0_energy">    -12.03974540 </i>
   </energy>
  </scstep>
  <scstep>
   <time name="dav">    0.19    0.20</time>
   <time name="total">    0.20    0.20</time>
   <energy>
    <i name="alphaZ">    306.51217484 </i>
    <i name="ewald">  -4253.68751630 </i>
    <i name="hartreedc">   -774.79483029 </i>
    <i name="XCdc">    125.71948619 </i>
    <i name="pawpsdc">   4653.95599692 </i>
    <i name="pawaedc">  -4589.18662407 </i>
    <i name="eentropy">     -0.00463399 </i>
    <i name="bandstr">   -336.98578091 </i>
    <i name="atom">   4856.42966544 </i>
    <i name="e_fr_energy">    -12.04206217 </i>
    <i name="e_wo_entrp">    -12.03742818 </i>
    <i name="e_0_energy">    -12.03974518 </i>
   </energy>
  </scstep>
  <structure>
   <crystal>
    <varray name="basis" >
     <v>       2.75168553       0.00000000      -0.00000000 </v>
     <v>      -1.37584276       2.38302957       0.00000000 </v>
     <v>       0.00000000       0.00000000       4.77498425 </v>
    </varray>
    <i name="volume">     31.31123338 </i>
    <varray name="rec_basis" >
     <v>       0.36341362       0.20981695      -0.00000000 </v>
     <v>      -0.00000000       0.41963390      -0.00000000 </v>
     <v>       0.00000000       0.00000000       0.20942477 </v>
    </varray>
   </crystal>
   <varray name="positions" >
    <v>       0.00000000       0.00000000      -0.00000000 </v>
    <v>       0.33333333       0.66666667       0.50000000 </v>
   </varray>
  </structure>
  <varray name="forces" >
   <v>       0.00000000      -0.00000000      -0.00000000 </v>
   <v>      -0.00000000       0.00000000       0.00000000 </v>
  </varray>
  <varray name="stress" >
   <v>       1.15405168       0.00000000       0.00000000 </v>
   <v>      -0.00000000       1.15405168       0.00000000 </v>
   <v>       0.00000000      -0.00000000      -2.87821799 </v>
  </varray>
  <energy>
   <i name="e_fr_energy">    -12.04206217 </i>
   <i name="e_wo_entrp">    -12.03742818 </i>
   <i name="e_0_energy">    -12.03974518 </i>
  </energy>
  <time name="totalsc">    2.86    2.88</time>
 </calculation>
 <calculation>
  <scstep>
   <time name="dav">    0.31    0.32</time>
   <time name="total">    0.34    0.34</time>
   <energy>
    <i name="alphaZ">    306.53745916 </i>
    <i name="ewald">  -4253.80456279 </i>
    <i name="hartreedc">   -774.81562448 </i>
    <i name="XCdc">    125.72331302 </i>
    <i name="pawpsdc">   4653.95118105 </i>
    <i name="pawaedc">  -4589.18207339 </i>
    <i name="eentropy">     -0.00463120 </i>
    <i name="bandstr">   -336.87679364 </i>
    <i name="atom">   4856.42966544 </i>
    <i name="e_fr_energy">    -12.04206682 </i>
    <i name="e_wo_entrp">    -12.03743562 </i>
    <i name="e_0_energy">    -12.03975122 </i>
   </energy>
  </scstep>
  <scstep>
   <time name="dav">    0.31    0.31</time>
   <time name="total">    0.34    0.34</time>
   <energy>
    <i name="e_fr_energy">    -12.04206192 </i>
    <i name="e_wo_entrp">    -12.03742897 </i>
    <i name="e_0_energy">    -12.03974544 </i>
   </energy>
  </scstep>
  <scstep>
   <time name="dav">    0.16    0.17</time>
   <time name="total">    0.17    0.17</time>
   <energy>
    <i name="alphaZ">    306.53745916 </i>
    <i name="ewald">  -4253.80456279 </i>
    <i name="hartreedc">   -774.73525160 </i>
    <i name="XCdc">    125.72006327 </i>
    <i name="pawpsdc">   4654.32436523 </i>
    <i name="pawaedc">  -4589.55972233 </i>
    <i name="eentropy">     -0.00463325 </i>
    <i name="bandstr">   -336.94944512 </i>
    <i name="atom">   4856.42966544 </i>
    <i name="e_fr_energy">    -12.04206199 </i>
    <i name="e_wo_entrp">    -12.03742874 </i>
    <i name="e_0_energy">    -12.03974536 </i>
   </energy>
  </scstep>
  <structure>
   <crystal>
    <varray name="basis" >
     <v>       2.75161088       0.00000000      -0.00000000 </v>
     <v>      -1.37580544       2.38296493       0.00000000 </v>
     <v>       0.00000000       0.00000000       4.77484944 </v>
    </varray>
    <i name="volume">     31.30865072 </i>
    <varray name="rec_basis" >
     <v>       0.36342348       0.20982264      -0.00000000 </v>
     <v>      -0.00000000       0.41964529      -0.00000000 </v>
     <v>       0.00000000       0.00000000       0.20943069 </v>
    </varray>
   </crystal>
   <varray name="positions" >
    <v>       0.00000000       0.00000000      -0.00000000 </v>
    <v>       0.33333333       0.66666667       0.50000000 </v>
   </varray>
  </structure>
  <varray name="forces" >
   <v>       0.00000000       0.00000000       0.00000000 </v>
   <v>      -0.00000000      -0.00000000      -0.00000000 </v>
  </varray>
  <varray name="stress" >
   <v>       1.16672421       0.00000000      -0.00000000 </v>
   <v>      -0.00000000       1.16672421      -0.00000000 </v>
   <v>      -0.00000000       0.00000000      -2.84833775 </v>
  </varray>
  <energy>
   <i name="e_fr_energy">    -12.04206199 </i>
   <i name="e_wo_entrp">    -12.03742874 </i>
   <i name="e_0_energy">    -12.03974536 </i>
  </energy>
  <time name="totalsc">    1.13    1.14</time>
 </calculation>
 <calculation>
  <scstep>
   <time name="dav">    0.31    0.31</time>
   <time name="total">    0.33    0.34</time>
   <energy>
    <i name="alphaZ">    306.81897858 </i>
    <i name="ewald">  -4255.10734192 </i>
    <i name="hartreedc">   -774.97713342 </i>
    <i name="XCdc">    125.76306983 </i>
    <i name="pawpsdc">   4654.17660004 </i>
    <i name="pawaedc">  -4589.40822542 </i>
    <i name="eentropy">     -0.00460349 </i>
    <i name="bandstr">   -335.73361763 </i>
    <i name="atom">   4856.42966544 </i>
    <i name="e_fr_energy">    -12.04260798 </i>
    <i name="e_wo_entrp">    -12.03800449 </i>
    <i name="e_0_energy">    -12.04030624 </i>
   </energy>
  </scstep>
  <scstep>
   <time name="dav">    0.31    0.31</time>
   <time name="total">    0.34    0.34</time>
   <energy>
    <i name="e_fr_energy">    -12.04203785 </i>
    <i name="e_wo_entrp">    -12.03741634 </i>
    <i name="e_0_energy">    -12.03972710 </i>
   </energy>
  </scstep>
  <scstep>
   <time name="dav">    0.36    0.36</time>
   <time name="total">    0.39    0.39</time>
   <energy>
    <i name="e_fr_energy">    -12.04203221 </i>
    <i name="e_wo_entrp">    -12.03740740 </i>
    <i name="e_0_energy">    -12.03971981 </i>
   </energy>
  </scstep>
  <scstep>
   <time name="dav">    0.33    0.33</time>
   <time name="total">    0.36    0.36</time>
   <energy>
    <i name="e_fr_energy">    -12.04204045 </i>
    <i name="e_wo_entrp">    -12.03741516 </i>
    <i name="e_0_energy">    -12.03972780 </i>
   </energy>
  </scstep>
  <scstep>
   <time name="dav">    0.20    0.20</time>
   <time name="total">    0.21    0.21</time>
   <energy>
    <i name="alphaZ">    306.81897858 </i>
    <i name="ewald">  -4255.10734192 </i>
    <i name="hartreedc">   -774.14014825 </i>
    <i name="XCdc">    125.72964977 </i>
    <i name="pawpsdc">   4656.75062991 </i>
    <i name="pawaedc">  -4591.99149683 </i>
    <i name="eentropy">     -0.00462535 </i>
    <i name="bandstr">   -336.52735195 </i>
    <i name="atom">   4856.42966544 </i>
    <i name="e_fr_energy">    -12.04204060 </i>
    <i name="e_wo_entrp">    -12.03741525 </i>
    <i name="e_0_energy">    -12.03972792 </i>
   </energy>
  </scstep>
  <structure>
   <crystal>
    <varray name="basis" >
     <v>       2.75078033       0.00000000      -0.00000000 </v>
     <v>      -1.37539017       2.38224565       0.00000000 </v>
     <v>       0.00000000       0.00000000       4.77334948 </v>
    </varray>
    <i name="volume">     31.27992370 </i>
    <varray name="rec_basis" >
     <v>       0.36353321       0.20988600      -0.00000000 </v>
     <v>      -0.00000000       0.41977199      -0.00000000 </v>
     <v>       0.00000000       0.00000000       0.20949650 </v>
    </varray>
   </crystal>
   <varray name="positions" >
    <v>       0.00000000       0.00000000      -0.00000000 </v>
    <v>       0.33333333       0.66666667       0.50000000 </v>
   </varray>
  </structure>
  <varray name="forces" >
   <v>      -0.00000000      -0.00000000       0.00000000 </v>
   <v>       0.00000000       0.00000000      -0.00000000 </v>
  </varray>
  <varray name="stress" >
   <v>       3.81527433       0.00000000       0.00000000 </v>
   <v>      -0.00000000       3.81527433       0.00000000 </v>
   <v>       0.00000000       0.00000000      -0.52735893 </v>
  </varray>
  <energy>
   <i name="e_fr_energy">    -12.04204060 </i>
   <i name="e_wo_entrp">    -12.03741525 </i>
   <i name="e_0_energy">    -12.03972792 </i>
  </energy>
  <time name="totalsc">    1.90    1.91</time>
 </calculation>
 <calculation>
  <scstep>
   <time name="dav">    0.31    0.31</time>
   <time name="total">    0.33    0.34</time>
   <energy>
    <i name="alphaZ">    306.56048218 </i>
    <i name="ewald">  -4253.91113568 </i>
    <i name="hartreedc">   -773.92423038 </i>
    <i name="XCdc">    125.69043894 </i>
    <i name="pawpsdc">   4656.70649208 </i>
    <i name="pawaedc">  -4591.94547163 </i>
    <i name="eentropy">     -0.00465578 </i>
    <i name="bandstr">   -337.64412756 </i>
    <i name="atom">   4856.42966544 </i>
    <i name="e_fr_energy">    -12.04254239 </i>
    <i name="e_wo_entrp">    -12.03788661 </i>
    <i name="e_0_energy">    -12.04021450 </i>
   </energy>
  </scstep>
  <scstep>
   <time name="dav">    0.31    0.31</time>
   <time name="total">    0.33    0.34</time>
   <energy>
    <i name="e_fr_energy">    -12.04206821 </i>
    <i name="e_wo_entrp">    -12.03743190 </i>
    <i name="e_0_energy">    -12.03975005 </i>
   </energy>
  </scstep>
  <scstep>
   <time name="dav">    0.35    0.36</time>
   <time name="total">    0.38    0.38</time>
   <energy>
    <i name="e_fr_energy">    -12.04206125 </i>
    <i name="e_wo_entrp">    -12.03742808 </i>
    <i name="e_0_energy">    -12.03974467 </i>
   </energy>
  </scstep>
  <scstep>
   <time name="dav">    0.33    0.33</time>
   <time name="total">    0.36    0.36</time>
   <energy>
    <i name="e_fr_energy">    -12.04206229 </i>
    <i name="e_wo_entrp">    -12.03742955 </i>
    <i name="e_0_energy">    -12.03974592 </i>
   </energy>
  </scstep>
  <scstep>
   <time name="dav">    0.17    0.18</time>
   <time name="total">    0.18    0.18</time>
   <energy>
    <i name="alphaZ">    306.56048218 </i>
    <i name="ewald">  -4253.91113568 </i>
    <i name="hartreedc">   -774.69268404 </i>
    <i name="XCdc">    125.72111888 </i>
    <i name="pawpsdc">   4654.33379389 </i>
    <i name="pawaedc">  -4589.56410043 </i>
    <i name="eentropy">     -0.00463268 </i>
    <i name="bandstr">   -336.91456980 </i>
    <i name="atom">   4856.42966544 </i>
    <i name="e_fr_energy">    -12.04206223 </i>
    <i name="e_wo_entrp">    -12.03742955 </i>
    <i name="e_0_energy">    -12.03974589 </i>
   </energy>
  </scstep>
  <structure>
   <crystal>
    <varray name="basis" >
     <v>       2.75154292       0.00000000      -0.00000000 </v>
     <v>      -1.37577146       2.38290607       0.00000000 </v>
     <v>       0.00000000       0.00000000       4.77472671 </v>
    </varray>
    <i name="volume">     31.30629940 </i>
    <varray name="rec_basis" >
     <v>       0.36343246       0.20982783      -0.00000000 </v>
     <v>      -0.00000000       0.41965565      -0.00000000 </v>
     <v>       0.00000000       0.00000000       0.20943607 </v>
    </varray>
   </crystal>
   <varray name="positions" >
    <v>       0.00000000       0.00000000      -0.00000000 </v>
    <v>       0.33333333       0.66666667       0.50000000 </v>
   </varray>
  </structure>
  <varray name="forces" >
   <v>      -0.00000000       0.00000000       0.00000000 </v>
   <v>       0.00000000      -0.00000000      -0.00000000 </v>
  </varray>
  <varray name="stress" >
   <v>       1.68560188       0.00000000       0.00000000 </v>
   <v>      -0.00000000       1.68560188      -0.00000000 </v>
   <v>       0.00000000      -0.00000000      -2.35618759 </v>
  </varray>
  <energy>
   <i name="e_fr_energy">    -12.04206223 </i>
   <i name="e_wo_entrp">    -12.03742955 </i>
   <i name="e_0_energy">    -12.03974589 </i>
  </energy>
  <time name="totalsc">    1.87    1.89</time>
 </calculation>
 <calculation>
  <scstep>
   <time name="dav">    0.32    0.32</time>
   <time name="total">    0.35    0.35</time>
   <energy>
    <i name="alphaZ">    306.54682583 </i>
    <i name="ewald">  -4253.84792147 </i>
    <i name="hartreedc">   -774.68018802 </i>
    <i name="XCdc">    125.71901189 </i>
    <i name="pawpsdc">   4654.37267998 </i>
    <i name="pawaedc">  -4589.60467493 </i>
    <i name="eentropy">     -0.00463418 </i>
    <i name="bandstr">   -336.97282824 </i>
    <i name="atom">   4856.42966544 </i>
    <i name="e_fr_energy">    -12.04206370 </i>
    <i name="e_wo_entrp">    -12.03742951 </i>
    <i name="e_0_energy">    -12.03974661 </i>
   </energy>
  </scstep>
  <scstep>
   <time name="dav">    0.32    0.33</time>
   <time name="total">    0.35    0.35</time>
   <energy>
    <i name="e_fr_energy">    -12.04206255 </i>
    <i name="e_wo_entrp">    -12.03742933 </i>
    <i name="e_0_energy">    -12.03974594 </i>
   </energy>
  </scstep>
  <scstep>
   <time name="dav">    0.16    0.16</time>
   <time name="total">    0.16    0.16</time>
   <energy>
    <i name="alphaZ">    306.54682583 </i>
    <i name="ewald">  -4253.84792147 </i>
    <i name="hartreedc">   -774.72378262 </i>
    <i name="XCdc">    125.72077434 </i>
    <i name="pawpsdc">   4654.16501710 </i>
    <i name="pawaedc">  -4589.39442635 </i>
    <i name="eentropy">     -0.00463306 </i>
    <i name="bandstr">   -336.93358168 </i>
    <i name="atom">   4856.42966544 </i>
    <i name="e_fr_energy">    -12.04206247 </i>
    <i name="e_wo_entrp">    -12.03742941 </i>
    <i name="e_0_energy">    -12.03974594 </i>
   </energy>
  </scstep>
  <structure>
   <crystal>
    <varray name="basis" >
     <v>       2.75158323       0.00000000      -0.00000000 </v>
     <v>      -1.37579162       2.38294098       0.00000000 </v>
     <v>       0.00000000       0.00000000       4.77479951 </v>
    </varray>
    <i name="volume">     31.30769407 </i>
    <varray name="rec_basis" >
     <v>       0.36342713       0.20982475      -0.00000000 </v>
     <v>      -0.00000000       0.41964950      -0.00000000 </v>
     <v>       0.00000000       0.00000000       0.20943288 </v>
    </varray>
   </crystal>
   <varray name="positions" >
    <v>       0.00000000       0.00000000      -0.00000000 </v>
    <v>       0.33333333       0.66666667       0.50000000 </v>
   </varray>
  </structure>
  <varray name="forces" >
   <v>      -0.00000000       0.00000000      -0.00000000 </v>
   <v>       0.00000000      -0.00000000       0.00000000 </v>
  </varray>
  <varray name="stress" >
   <v>       1.60274719       0.00000000       0.00000000 </v>
   <v>      -0.00000000       1.60274719       0.00000000 </v>
   <v>       0.00000000      -0.00000000      -2.43327425 </v>
  </varray>
  <energy>
   <i name="e_fr_energy">    -12.04206247 </i>
   <i name="e_wo_entrp">    -12.03742941 </i>
   <i name="e_0_energy">    -12.03974594 </i>
  </energy>
  <time name="totalsc">    1.14    1.15</time>
 </calculation>
 <calculation>
  <scstep>
   <time name="dav">    0.31    0.32</time>
   <time name="total">    0.34    0.34</time>
   <energy>
    <i name="alphaZ">    306.54198854 </i>
    <i name="ewald">  -4253.82552960 </i>
    <i name="hartreedc">   -774.71698657 </i>
    <i name="XCdc">    125.71990911 </i>
    <i name="pawpsdc">   4654.24143561 </i>
    <i name="pawaedc">  -4589.47276983 </i>
    <i name="eentropy">     -0.00463358 </i>
    <i name="bandstr">   -336.95514166 </i>
    <i name="atom">   4856.42966544 </i>
    <i name="e_fr_energy">    -12.04206253 </i>
    <i name="e_wo_entrp">    -12.03742895 </i>
    <i name="e_0_energy">    -12.03974574 </i>
   </energy>
  </scstep>
  <scstep>
   <time name="dav">    0.15    0.16</time>
   <time name="total">    0.16    0.16</time>
   <energy>
    <i name="alphaZ">    306.54198854 </i>
    <i name="ewald">  -4253.82552960 </i>
    <i name="hartreedc">   -774.73067999 </i>
    <i name="XCdc">    125.72046625 </i>
    <i name="pawpsdc">   4654.16698849 </i>
    <i name="pawaedc">  -4589.39729700 </i>
    <i name="eentropy">     -0.00463324 </i>
    <i name="bandstr">   -336.94303132 </i>
    <i name="atom">   4856.42966544 </i>
    <i name="e_fr_energy">    -12.04206243 </i>
    <i name="e_wo_entrp">    -12.03742919 </i>
    <i name="e_0_energy">    -12.03974581 </i>
   </energy>
  </scstep>
  <structure>
   <crystal>
    <varray name="basis" >
     <v>       2.75159751       0.00000000      -0.00000000 </v>
     <v>      -1.37579876       2.38295335       0.00000000 </v>
     <v>       0.00000000       0.00000000       4.77482530 </v>
    </varray>
    <i name="volume">     31.30818811 </i>
    <varray name="rec_basis" >
     <v>       0.36342524       0.20982366      -0.00000000 </v>
     <v>      -0.00000000       0.41964733      -0.00000000 </v>
     <v>       0.00000000       0.00000000       0.20943175 </v>
    </varray>
   </crystal>
   <varray name="positions" >
    <v>       0.00000000       0.00000000      -0.00000000 </v>
    <v>       0.33333333       0.66666667       0.50000000 </v>
   </varray>
  </structure>
  <varray name="forces" >
   <v>       0.00000000      -0.00000000      -0.00000000 </v>
   <v>      -0.00000000       0.00000000       0.00000000 </v>
  </varray>
  <varray name="stress" >
   <v>       1.64029449       0.00000000      -0.00000000 </v>
   <v>       0.00000000       1.64029449      -0.00000000 </v>
   <v>       0.00000000       0.00000000      -2.38518074 </v>
  </varray>
  <energy>
   <i name="e_fr_energy">    -12.04206243 </i>
   <i name="e_wo_entrp">    -12.03742919 </i>
   <i name="e_0_energy">    -12.03974581 </i>
  </energy>
  <time name="totalsc">    0.78    0.79</time>
 </calculation>
 <calculation>
  <scstep>
   <time name="dav">    0.15    0.15</time>
   <time name="total">    0.18    0.18</time>
   <energy>
    <i name="alphaZ">    306.53945761 </i>
    <i name="ewald">  -4253.81381378 </i>
    <i name="hartreedc">   -774.73018769 </i>
    <i name="XCdc">    125.72014448 </i>
    <i name="pawpsdc">   4654.17345631 </i>
    <i name="pawaedc">  -4589.40401225 </i>
    <i name="eentropy">     -0.00463346 </i>
    <i name="bandstr">   -336.95213912 </i>
    <i name="atom">   4856.42966544 </i>
    <i name="e_fr_energy">    -12.04206246 </i>
    <i name="e_wo_entrp">    -12.03742900 </i>
    <i name="e_0_energy">    -12.03974573 </i>
   </energy>
  </scstep>
  <scstep>
   <time name="dav">    0.15    0.15</time>
   <time name="total">    0.16    0.16</time>
   <energy>
    <i name="alphaZ">    306.53945761 </i>
    <i name="ewald">  -4253.81381378 </i>
    <i name="hartreedc">   -774.73697778 </i>
    <i name="XCdc">    125.72041783 </i>
    <i name="pawpsdc">   4654.14405006 </i>
    <i name="pawaedc">  -4589.37434058 </i>
    <i name="eentropy">     -0.00463328 </i>
    <i name="bandstr">   -336.94588795 </i>
    <i name="atom">   4856.42966544 </i>
    <i name="e_fr_energy">    -12.04206243 </i>
    <i name="e_wo_entrp">    -12.03742914 </i>
    <i name="e_0_energy">    -12.03974579 </i>
   </energy>
  </scstep>
  <structure>
   <crystal>
    <varray name="basis" >
     <v>       2.75160499       0.00000000      -0.00000000 </v>
     <v>      -1.37580249       2.38295982       0.00000000 </v>
     <v>       0.00000000       0.00000000       4.77483879 </v>
    </varray>
    <i name="volume">     31.30844660 </i>
    <varray name="rec_basis" >
     <v>       0.36342426       0.20982309      -0.00000000 </v>
     <v>      -0.00000000       0.41964619      -0.00000000 </v>
     <v>       0.00000000       0.00000000       0.20943115 </v>
    </varray>
   </crystal>
   <varray name="positions" >
    <v>       0.00000000       0.00000000      -0.00000000 </v>
    <v>       0.33333333       0.66666667       0.50000000 </v>
   </varray>
  </structure>
  <varray name="forces" >
   <v>      -0.00000000      -0.00000000       0.00000000 </v>
   <v>       0.00000000       0.00000000       0.00000000 </v>
  </varray>
  <varray name="stress" >
   <v>       1.54895021       0.00000000       0.00000000 </v>
   <v>       0.00000000       1.54895021       0.00000000 </v>
   <v>       0.00000000       0.00000000      -2.47639725 </v>
  </varray>
  <energy>
   <i name="e_fr_energy">    -12.04206243 </i>
   <i name="e_wo_entrp">    -12.03742914 </i>
   <i name="e_0_energy">    -12.03974579 </i>
  </energy>
  <time name="totalsc">    0.62    0.63</time>
 </calculation>
 <calculation>
  <scstep>
   <time name="dav">    0.15    0.15</time>
   <time name="total">    0.18    0.18</time>
   <energy>
    <i name="alphaZ">    306.53855349 </i>
    <i name="ewald">  -4253.80962854 </i>
    <i name="hartreedc">   -774.73686526 </i>
    <i name="XCdc">    125.72030343 </i>
    <i name="pawpsdc">   4654.15274629 </i>
    <i name="pawaedc">  -4589.38331471 </i>
    <i name="eentropy">     -0.00463335 </i>
    <i name="bandstr">   -336.94888921 </i>
    <i name="atom">   4856.42966544 </i>
    <i name="e_fr_energy">    -12.04206241 </i>
    <i name="e_wo_entrp">    -12.03742906 </i>
    <i name="e_0_energy">    -12.03974573 </i>
   </energy>
  </scstep>
  <scstep>
   <time name="dav">    0.15    0.15</time>
   <time name="total">    0.16    0.16</time>
   <energy>
    <i name="alphaZ">    306.53855349 </i>
    <i name="ewald">  -4253.80962854 </i>
    <i name="hartreedc">   -774.73908708 </i>
    <i name="XCdc">    125.72039127 </i>
    <i name="pawpsdc">   4654.14886487 </i>
    <i name="pawaedc">  -4589.37950598 </i>
    <i name="eentropy">     -0.00463328 </i>
    <i name="bandstr">   -336.94668258 </i>
    <i name="atom">   4856.42966544 </i>
    <i name="e_fr_energy">    -12.04206240 </i>
    <i name="e_wo_entrp">    -12.03742911 </i>
    <i name="e_0_energy">    -12.03974575 </i>
   </energy>
  </scstep>
  <structure>
   <crystal>
    <varray name="basis" >
     <v>       2.75160765       0.00000000      -0.00000000 </v>
     <v>      -1.37580383       2.38296213       0.00000000 </v>
     <v>       0.00000000       0.00000000       4.77484361 </v>
    </varray>
    <i name="volume">     31.30853894 </i>
    <varray name="rec_basis" >
     <v>       0.36342391       0.20982289      -0.00000000 </v>
     <v>      -0.00000000       0.41964578      -0.00000000 </v>
     <v>       0.00000000       0.00000000       0.20943094 </v>
    </varray>
   </crystal>
   <varray name="positions" >
    <v>       0.00000000       0.00000000      -0.00000000 </v>
    <v>       0.33333333       0.66666667       0.50000000 </v>
   </varray>
  </structure>
  <varray name="forces" >
   <v>       0.00000000      -0.00000000       0.00000000 </v>
   <v>      -0.00000000       0.00000000       0.00000000 </v>
  </varray>
  <varray name="stress" >
   <v>       1.46575495      -0.00000000       0.00000000 </v>
   <v>       0.00000000       1.46575495      -0.00000000 </v>
   <v>       0.00000000       0.00000000      -2.55842040 </v>
  </varray>
  <energy>
   <i name="e_fr_energy">    -12.04206240 </i>
   <i name="e_wo_entrp">    -12.03742911 </i>
   <i name="e_0_energy">    -12.03974575 </i>
  </energy>
  <time name="totalsc">    0.62    0.63</time>
 </calculation>
 <calculation>
  <scstep>
   <time name="dav">    0.15    0.15</time>
   <time name="total">    0.18    0.18</time>
   <energy>
    <i name="alphaZ">    306.53787593 </i>
    <i name="ewald">  -4253.80649208 </i>
    <i name="hartreedc">   -774.73857784 </i>
    <i name="XCdc">    125.72028895 </i>
    <i name="pawpsdc">   4654.15512541 </i>
    <i name="pawaedc">  -4589.38594353 </i>
    <i name="eentropy">     -0.00463335 </i>
    <i name="bandstr">   -336.94937132 </i>
    <i name="atom">   4856.42966544 </i>
    <i name="e_fr_energy">    -12.04206239 </i>
    <i name="e_wo_entrp">    -12.03742904 </i>
    <i name="e_0_energy">    -12.03974571 </i>
   </energy>
  </scstep>
  <scstep>
   <time name="dav">    0.15    0.15</time>
   <time name="total">    0.16    0.16</time>
   <energy>
    <i name="alphaZ">    306.53787593 </i>
    <i name="ewald">  -4253.80649208 </i>
    <i name="hartreedc">   -774.74029393 </i>
    <i name="XCdc">    125.72035721 </i>
    <i name="pawpsdc">   4654.15076517 </i>
    <i name="pawaedc">  -4589.38160528 </i>
    <i name="eentropy">     -0.00463330 </i>
    <i name="bandstr">   -336.94770156 </i>
    <i name="atom">   4856.42966544 </i>
    <i name="e_fr_energy">    -12.04206238 </i>
    <i name="e_wo_entrp">    -12.03742908 </i>
    <i name="e_0_energy">    -12.03974573 </i>
   </energy>
  </scstep>
  <structure>
   <crystal>
    <varray name="basis" >
     <v>       2.75160965       0.00000000      -0.00000000 </v>
     <v>      -1.37580483       2.38296386       0.00000000 </v>
     <v>       0.00000000       0.00000000       4.77484722 </v>
    </varray>
    <i name="volume">     31.30860815 </i>
    <varray name="rec_basis" >
     <v>       0.36342364       0.20982274      -0.00000000 </v>
     <v>      -0.00000000       0.41964547      -0.00000000 </v>
     <v>       0.00000000       0.00000000       0.20943078 </v>
    </varray>
   </crystal>
   <varray name="positions" >
    <v>       0.00000000       0.00000000      -0.00000000 </v>
    <v>       0.33333333       0.66666667       0.50000000 </v>
   </varray>
  </structure>
  <varray name="forces" >
   <v>       0.00000000      -0.00000000       0.00000000 </v>
   <v>      -0.00000000       0.00000000      -0.00000000 </v>
  </varray>
  <varray name="stress" >
   <v>       1.44313615      -0.00000000      -0.00000000 </v>
   <v>      -0.00000000       1.44313615       0.00000000 </v>
   <v>       0.00000000       0.00000000      -2.57976362 </v>
  </varray>
  <energy>
   <i name="e_fr_energy">    -12.04206238 </i>
   <i name="e_wo_entrp">    -12.03742908 </i>
   <i name="e_0_energy">    -12.03974573 </i>
  </energy>
  <time name="totalsc">    0.70    0.75</time>
 </calculation>
 <calculation>
  <scstep>
   <time name="dav">    0.15    0.15</time>
   <time name="total">    0.18    0.18</time>
   <energy>
    <i name="alphaZ">    306.53766754 </i>
    <i name="ewald">  -4253.80552743 </i>
    <i name="hartreedc">   -774.74019040 </i>
    <i name="XCdc">    125.72032724 </i>
    <i name="pawpsdc">   4654.15500555 </i>
    <i name="pawaedc">  -4589.38596475 </i>
    <i name="eentropy">     -0.00463331 </i>
    <i name="bandstr">   -336.94841226 </i>
    <i name="atom">   4856.42966544 </i>
    <i name="e_fr_energy">    -12.04206237 </i>
    <i name="e_wo_entrp">    -12.03742906 </i>
    <i name="e_0_energy">    -12.03974571 </i>
   </energy>
  </scstep>
  <scstep>
   <time name="dav">    0.16    0.16</time>
   <time name="total">    0.16    0.16</time>
   <energy>
    <i name="alphaZ">    306.53766754 </i>
    <i name="ewald">  -4253.80552743 </i>
    <i name="hartreedc">   -774.74065331 </i>
    <i name="XCdc">    125.72034506 </i>
    <i name="pawpsdc">   4654.15616532 </i>
    <i name="pawaedc">  -4589.38719369 </i>
    <i name="eentropy">     -0.00463330 </i>
    <i name="bandstr">   -336.94789801 </i>
    <i name="atom">   4856.42966544 </i>
    <i name="e_fr_energy">    -12.04206237 </i>
    <i name="e_wo_entrp">    -12.03742907 </i>
    <i name="e_0_energy">    -12.03974572 </i>
   </energy>
  </scstep>
  <structure>
   <crystal>
    <varray name="basis" >
     <v>       2.75161027       0.00000000      -0.00000000 </v>
     <v>      -1.37580513       2.38296439       0.00000000 </v>
     <v>       0.00000000       0.00000000       4.77484833 </v>
    </varray>
    <i name="volume">     31.30862943 </i>
    <varray name="rec_basis" >
     <v>       0.36342356       0.20982269      -0.00000000 </v>
     <v>      -0.00000000       0.41964538      -0.00000000 </v>
     <v>       0.00000000       0.00000000       0.20943074 </v>
    </varray>
   </crystal>
   <varray name="positions" >
    <v>       0.00000000       0.00000000      -0.00000000 </v>
    <v>       0.33333333       0.66666667       0.50000000 </v>
   </varray>
  </structure>
  <varray name="forces" >
   <v>       0.00000000      -0.00000000       0.00000000 </v>
   <v>      -0.00000000       0.00000000       0.00000000 </v>
  </varray>
  <varray name="stress" >
   <v>       1.41700780       0.00000000      -0.00000000 </v>
   <v>      -0.00000000       1.41700780      -0.00000000 </v>
   <v>       0.00000000       0.00000000      -2.60527107 </v>
  </varray>
  <energy>
   <i name="e_fr_energy">    -12.04206237 </i>
   <i name="e_wo_entrp">    -12.03742907 </i>
   <i name="e_0_energy">    -12.03974572 </i>
  </energy>
  <time name="totalsc">    0.62    0.63</time>
 </calculation>
 <calculation>
  <scstep>
   <time name="dav">    0.15    0.15</time>
   <time name="total">    0.18    0.18</time>
   <energy>
    <i name="alphaZ">    306.53756335 </i>
    <i name="ewald">  -4253.80504511 </i>
    <i name="hartreedc">   -774.74053936 </i>
    <i name="XCdc">    125.72032760 </i>
    <i name="pawpsdc">   4654.15857543 </i>
    <i name="pawaedc">  -4589.38966595 </i>
    <i name="eentropy">     -0.00463331 </i>
    <i name="bandstr">   -336.94831046 </i>
    <i name="atom">   4856.42966544 </i>
    <i name="e_fr_energy">    -12.04206236 </i>
    <i name="e_wo_entrp">    -12.03742906 </i>
    <i name="e_0_energy">    -12.03974571 </i>
   </energy>
  </scstep>
  <scstep>
   <time name="dav">    0.15    0.15</time>
   <time name="total">    0.16    0.16</time>
   <energy>
    <i name="alphaZ">    306.53756335 </i>
    <i name="ewald">  -4253.80504511 </i>
    <i name="hartreedc">   -774.74075706 </i>
    <i name="XCdc">    125.72033591 </i>
    <i name="pawpsdc">   4654.15949006 </i>
    <i name="pawaedc">  -4589.39062359 </i>
    <i name="eentropy">     -0.00463330 </i>
    <i name="bandstr">   -336.94805807 </i>
    <i name="atom">   4856.42966544 </i>
    <i name="e_fr_energy">    -12.04206236 </i>
    <i name="e_wo_entrp">    -12.03742906 </i>
    <i name="e_0_energy">    -12.03974571 </i>
   </energy>
  </scstep>
  <structure>
   <crystal>
    <varray name="basis" >
     <v>       2.75161058       0.00000000      -0.00000000 </v>
     <v>      -1.37580529       2.38296466       0.00000000 </v>
     <v>       0.00000000       0.00000000       4.77484889 </v>
    </varray>
    <i name="volume">     31.30864007 </i>
    <varray name="rec_basis" >
     <v>       0.36342352       0.20982267      -0.00000000 </v>
     <v>      -0.00000000       0.41964533      -0.00000000 </v>
     <v>       0.00000000       0.00000000       0.20943071 </v>
    </varray>
   </crystal>
   <varray name="positions" >
    <v>       0.00000000       0.00000000      -0.00000000 </v>
    <v>       0.33333333       0.66666667       0.50000000 </v>
   </varray>
  </structure>
  <varray name="forces" >
   <v>       0.00000000      -0.00000000      -0.00000000 </v>
   <v>      -0.00000000       0.00000000       0.00000000 </v>
  </varray>
  <varray name="stress" >
   <v>       1.40831802       0.00000000      -0.00000000 </v>
   <v>       0.00000000       1.40831802      -0.00000000 </v>
   <v>       0.00000000       0.00000000      -2.61363310 </v>
  </varray>
  <energy>
   <i name="e_fr_energy">    -12.04206236 </i>
   <i name="e_wo_entrp">    -12.03742906 </i>
   <i name="e_0_energy">    -12.03974571 </i>
  </energy>
  <time name="totalsc">    0.62    0.63</time>
 </calculation>
 <calculation>
  <scstep>
   <time name="dav">    0.15    0.15</time>
   <time name="total">    0.18    0.18</time>
   <energy>
    <i name="alphaZ">    306.53751125 </i>
    <i name="ewald">  -4253.80480395 </i>
    <i name="hartreedc">   -774.74069470 </i>
    <i name="XCdc">    125.72032695 </i>
    <i name="pawpsdc">   4654.16081474 </i>
    <i name="pawaedc">  -4589.39198206 </i>
    <i name="eentropy">     -0.00463330 </i>
    <i name="bandstr">   -336.94826674 </i>
    <i name="atom">   4856.42966544 </i>
    <i name="e_fr_energy">    -12.04206236 </i>
    <i name="e_wo_entrp">    -12.03742905 </i>
    <i name="e_0_energy">    -12.03974570 </i>
   </energy>
  </scstep>
  <scstep>
   <time name="dav">    0.15    0.15</time>
   <time name="total">    0.16    0.16</time>
   <energy>
    <i name="alphaZ">    306.53751125 </i>
    <i name="ewald">  -4253.80480395 </i>
    <i name="hartreedc">   -774.74079827 </i>
    <i name="XCdc">    125.72033087 </i>
    <i name="pawpsdc">   4654.16144875 </i>
    <i name="pawaedc">  -4589.39264167 </i>
    <i name="eentropy">     -0.00463330 </i>
    <i name="bandstr">   -336.94814148 </i>
    <i name="atom">   4856.42966544 </i>
    <i name="e_fr_energy">    -12.04206235 </i>
    <i name="e_wo_entrp">    -12.03742906 </i>
    <i name="e_0_energy">    -12.03974571 </i>
   </energy>
  </scstep>
  <structure>
   <crystal>
    <varray name="basis" >
     <v>       2.75161073       0.00000000      -0.00000000 </v>
     <v>      -1.37580537       2.38296479       0.00000000 </v>
     <v>       0.00000000       0.00000000       4.77484917 </v>
    </varray>
    <i name="volume">     31.30864539 </i>
    <varray name="rec_basis" >
     <v>       0.36342350       0.20982266      -0.00000000 </v>
     <v>      -0.00000000       0.41964531      -0.00000000 </v>
     <v>       0.00000000       0.00000000       0.20943070 </v>
    </varray>
   </crystal>
   <varray name="positions" >
    <v>       0.00000000       0.00000000      -0.00000000 </v>
    <v>       0.33333333       0.66666667       0.50000000 </v>
   </varray>
  </structure>
  <varray name="forces" >
   <v>       0.00000000      -0.00000000       0.00000000 </v>
   <v>      -0.00000000       0.00000000      -0.00000000 </v>
  </varray>
  <varray name="stress" >
   <v>       1.40379025      -0.00000000      -0.00000000 </v>
   <v>       0.00000000       1.40379025      -0.00000000 </v>
   <v>       0.00000000       0.00000000      -2.61799000 </v>
  </varray>
  <energy>
   <i name="e_fr_energy">    -12.04206235 </i>
   <i name="e_wo_entrp">    -12.03742906 </i>
   <i name="e_0_energy">    -12.03974571 </i>
  </energy>
  <time name="totalsc">    0.62    0.63</time>
 </calculation>
 <calculation>
  <scstep>
   <time name="dav">    0.32    0.32</time>
   <time name="total">    0.35    0.35</time>
   <energy>
    <i name="alphaZ">    306.58043162 </i>
    <i name="ewald">  -4254.12912055 </i>
    <i name="hartreedc">   -774.72087030 </i>
    <i name="XCdc">    125.72674241 </i>
    <i name="pawpsdc">   4654.16217477 </i>
    <i name="pawaedc">  -4589.39338640 </i>
    <i name="eentropy">     -0.00455590 </i>
    <i name="bandstr">   -336.69409564 </i>
    <i name="atom">   4856.42966544 </i>
    <i name="e_fr_energy">    -12.04301455 </i>
    <i name="e_wo_entrp">    -12.03845865 </i>
    <i name="e_0_energy">    -12.04073660 </i>
   </energy>
  </scstep>
  <scstep>
   <time name="dav">    0.35    0.35</time>
   <time name="total">    0.38    0.38</time>
   <energy>
    <i name="e_fr_energy">    -12.04221403 </i>
    <i name="e_wo_entrp">    -12.03759275 </i>
    <i name="e_0_energy">    -12.03990339 </i>
   </energy>
  </scstep>
  <scstep>
   <time name="dav">    0.47    0.47</time>
   <time name="total">    0.50    0.50</time>
   <energy>
    <i name="e_fr_energy">    -12.04210988 </i>
    <i name="e_wo_entrp">    -12.03745299 </i>
    <i name="e_0_energy">    -12.03978144 </i>
   </energy>
  </scstep>
  <scstep>
   <time name="dav">    0.37    0.37</time>
   <time name="total">    0.37    0.37</time>
   <energy>
    <i name="alphaZ">    306.58043162 </i>
    <i name="ewald">  -4254.12912055 </i>
    <i name="hartreedc">   -774.54792980 </i>
    <i name="XCdc">    125.72067050 </i>
    <i name="pawpsdc">   4654.16759143 </i>
    <i name="pawaedc">  -4589.39783389 </i>
    <i name="eentropy">     -0.00465689 </i>
    <i name="bandstr">   -336.86092846 </i>
    <i name="atom">   4856.42966544 </i>
    <i name="e_fr_energy">    -12.04211059 </i>
    <i name="e_wo_entrp">    -12.03745370 </i>
    <i name="e_0_energy">    -12.03978214 </i>
   </energy>
  </scstep>
  <structure>
   <crystal>
    <varray name="basis" >
     <v>       2.75297212      -0.00000000      -0.00000000 </v>
     <v>      -1.37648606       2.38414379      -0.00000000 </v>
     <v>       0.00000000       0.00000000       4.76946004 </v>
    </varray>
    <i name="volume">     31.30426228 </i>
    <varray name="rec_basis" >
     <v>       0.36324378       0.20971889      -0.00000000 </v>
     <v>       0.00000000       0.41943779      -0.00000000 </v>
     <v>       0.00000000       0.00000000       0.20966734 </v>
    </varray>
   </crystal>
   <varray name="positions" >
    <v>       0.00000000       0.00000000       0.00000000 </v>
    <v>       0.33333333       0.66666667       0.50000000 </v>
   </varray>
  </structure>
  <varray name="forces" >
   <v>      -0.00000000      -0.00000000       0.00000000 </v>
   <v>       0.00000000       0.00000000       0.00000000 </v>
  </varray>
  <varray name="stress" >
   <v>       0.15128411      -0.00000000      -0.00000000 </v>
   <v>       0.00000000       0.15128411       0.00000000 </v>
   <v>       0.00000000       0.00000000      -1.12170510 </v>
  </varray>
  <energy>
   <i name="e_fr_energy">    -12.04211059 </i>
   <i name="e_wo_entrp">    -12.03745370 </i>
   <i name="e_0_energy">    -12.03978214 </i>
  </energy>
  <time name="totalsc">    1.89    1.99</time>
  <eigenvalues>
   <array>
    <dimension dim="1">band</dimension>
    <dimension dim="2">kpoint</dimension>
    <dimension dim="3">spin</dimension>
    <field>eigene</field>
    <field>occ</field>
    <set>
     <set comment="spin 1">
      <set comment="kpoint 1">
       <r>  -41.3389    1.0000 </r>
       <r>  -41.1559    1.0000 </r>
       <r>  -41.1559    1.0000 </r>
       <r>  -41.1140    1.0000 </r>
       <r>  -41.1140    1.0000 </r>
       <r>  -40.9961    1.0000 </r>
       <r>    1.4975    1.0000 </r>
       <r>    4.1594    1.0000 </r>
       <r>    7.3323    1.0000 </r>
       <r>    7.8372    1.0000 </r>
       <r>    7.8372    1.0000 </r>
       <r>    8.2108    1.0000 </r>
       <r>    8.2108    1.0000 </r>
       <r>    9.4822    1.0000 </r>
       <r>    9.4822    1.0000 </r>
       <r>   10.5683    1.0000 </r>
       <r>   11.0941    1.0000 </r>
       <r>   11.0941    1.0000 </r>
       <r>   16.0681    0.0000 </r>
       <r>   26.3810    0.0000 </r>
       <r>   27.0118    0.0000 </r>
       <r>   28.5600    0.0000 </r>
       <r>   32.4235    0.0000 </r>
       <r>   32.4235    0.0000 </r>
      </set>
      <set comment="kpoint 2">
       <r>  -41.3263    1.0000 </r>
       <r>  -41.1926    1.0000 </r>
       <r>  -41.1661    1.0000 </r>
       <r>  -41.1518    1.0000 </r>
       <r>  -41.1214    1.0000 </r>
       <r>  -40.9987    1.0000 </r>
       <r>    1.8615    1.0000 </r>
       <r>    4.4893    1.0000 </r>
       <r>    7.2626    1.0000 </r>
       <r>    7.8494    1.0000 </r>
       <r>    8.0606    1.0000 </r>
       <r>    8.1168    1.0000 </r>
       <r>    8.4764    1.0000 </r>
       <r>    8.8928    1.0000 </r>
       <r>    9.3092    1.0000 </r>
       <r>    9.4611    1.0000 </r>
       <r>   11.1588    1.0000 </r>
       <r>   12.8629    0.0000 </r>
       <r>   16.0307    0.0000 </r>
       <r>   26.8295    0.0000 </r>
       <r>   27.5421    0.0000 </r>
       <r>   28.9096    0.0000 </r>
       <r>   30.7783    0.0000 </r>
       <r>   30.9122    0.0000 </r>
      </set>
      <set comment="kpoint 3">
       <r>  -41.2925    1.0000 </r>
       <r>  -41.2900    1.0000 </r>
       <r>  -41.2500    1.0000 </r>
       <r>  -41.1940    1.0000 </r>
       <r>  -41.1416    1.0000 </r>
       <r>  -41.0077    1.0000 </r>
       <r>    2.8532    1.0000 </r>
       <r>    5.2134    1.0000 </r>
       <r>    7.0302    1.0000 </r>
       <r>    7.5155    1.0000 </r>
       <r>    7.5643    1.0000 </r>
       <r>    8.4799    1.0000 </r>
       <r>    8.9071    1.0000 </r>
       <r>    8.9254    1.0000 </r>
       <r>    8.9434    1.0000 </r>
       <r>    9.2223    1.0000 </r>
       <r>   11.2613    0.8815 </r>
       <r>   15.0530    0.0000 </r>
       <r>   15.9583    0.0000 </r>
       <r>   25.3947    0.0000 </r>
       <r>   28.1486    0.0000 </r>
       <r>   28.4717    0.0000 </r>
       <r>   29.3201    0.0000 </r>
       <r>   29.5260    0.0000 </r>
      </set>
      <set comment="kpoint 4">
       <r>  -41.4098    1.0000 </r>
       <r>  -41.3687    1.0000 </r>
       <r>  -41.2447    1.0000 </r>
       <r>  -41.2275    1.0000 </r>
       <r>  -41.1669    1.0000 </r>
       <r>  -41.0242    1.0000 </r>
       <r>    4.0641    1.0000 </r>
       <r>    5.3361    1.0000 </r>
       <r>    6.4489    1.0000 </r>
       <r>    7.2982    1.0000 </r>
       <r>    7.6614    1.0000 </r>
       <r>    8.4295    1.0000 </r>
       <r>    8.5299    1.0000 </r>
       <r>    9.6425    1.0000 </r>
       <r>   10.0432    1.0000 </r>
       <r>   10.2796    1.0000 </r>
       <r>   11.3174    0.3430 </r>
       <r>   16.0731    0.0000 </r>
       <r>   17.2806    0.0000 </r>
       <r>   21.6698    0.0000 </r>
       <r>   26.0725    0.0000 </r>
       <r>   26.5911    0.0000 </r>
       <r>   28.2819    0.0000 </r>
       <r>   29.3418    0.0000 </r>
      </set>
      <set comment="kpoint 5">
       <r>  -41.5074    1.0000 </r>
       <r>  -41.4632    1.0000 </r>
       <r>  -41.2543    1.0000 </r>
       <r>  -41.1973    1.0000 </r>
       <r>  -41.1886    1.0000 </r>
       <r>  -41.0473    1.0000 </r>
       <r>    4.7241    1.0000 </r>
       <r>    5.0188    1.0000 </r>
       <r>    5.7876    1.0000 </r>
       <r>    7.8233    1.0000 </r>
       <r>    8.0531    1.0000 </r>
       <r>    8.2483    1.0000 </r>
       <r>    8.4756    1.0000 </r>
       <r>   11.1394    1.0000 </r>
       <r>   11.3207    0.3092 </r>
       <r>   11.3302    0.2221 </r>
       <r>   11.5320    0.0000 </r>
       <r>   16.8674    0.0000 </r>
       <r>   18.0221    0.0000 </r>
       <r>   19.2544    0.0000 </r>
       <r>   23.8066    0.0000 </r>
       <r>   24.1462    0.0000 </r>
       <r>   25.2544    0.0000 </r>
       <r>   28.0653    0.0000 </r>
      </set>
      <set comment="kpoint 6">
       <r>  -41.5441    1.0000 </r>
       <r>  -41.4993    1.0000 </r>
       <r>  -41.2647    1.0000 </r>
       <r>  -41.1968    1.0000 </r>
       <r>  -41.1738    1.0000 </r>
       <r>  -41.0619    1.0000 </r>
       <r>    4.8103    1.0000 </r>
       <r>    4.8938    1.0000 </r>
       <r>    5.5637    1.0000 </r>
       <r>    7.9169    1.0000 </r>
       <r>    8.1475    1.0000 </r>
       <r>    8.3534    1.0000 </r>
       <r>    8.6770    1.0000 </r>
       <r>   11.3295    0.2278 </r>
       <r>   11.6014    0.0000 </r>
       <r>   11.8069    0.0000 </r>
       <r>   13.5921    0.0000 </r>
       <r>   15.0795    0.0000 </r>
       <r>   18.6230    0.0000 </r>
       <r>   20.2042    0.0000 </r>
       <r>   20.8996    0.0000 </r>
       <r>   23.3575    0.0000 </r>
       <r>   24.6232    0.0000 </r>
       <r>   27.4818    0.0000 </r>
      </set>
      <set comment="kpoint 7">
       <r>  -41.3033    1.0000 </r>
       <r>  -41.2535    1.0000 </r>
       <r>  -41.2268    1.0000 </r>
       <r>  -41.1795    1.0000 </r>
       <r>  -41.1406    1.0000 </r>
       <r>  -41.0046    1.0000 </r>
       <r>    2.5479    1.0000 </r>
       <r>    5.0650    1.0000 </r>
       <r>    6.9895    1.0000 </r>
       <r>    7.7623    1.0000 </r>
       <r>    7.9228    1.0000 </r>
       <r>    8.0742    1.0000 </r>
       <r>    8.7067    1.0000 </r>
       <r>    8.7211    1.0000 </r>
       <r>    9.0706    1.0000 </r>
       <r>    9.3733    1.0000 </r>
       <r>   11.1816    0.9997 </r>
       <r>   14.4755    0.0000 </r>
       <r>   15.9778    0.0000 </r>
       <r>   26.7883    0.0000 </r>
       <r>   27.4341    0.0000 </r>
       <r>   28.4482    0.0000 </r>
       <r>   29.4590    0.0000 </r>
       <r>   30.2226    0.0000 </r>
      </set>
      <set comment="kpoint 8">
       <r>  -41.3542    1.0000 </r>
       <r>  -41.3276    1.0000 </r>
       <r>  -41.2621    1.0000 </r>
       <r>  -41.2183    1.0000 </r>
       <r>  -41.1711    1.0000 </r>
       <r>  -41.0176    1.0000 </r>
       <r>    3.7244    1.0000 </r>
       <r>    5.6782    1.0000 </r>
       <r>    6.8090    1.0000 </r>
       <r>    6.8635    1.0000 </r>
       <r>    7.4900    1.0000 </r>
       <r>    8.2217    1.0000 </r>
[...]
       </set>
       <set comment="band 12">
        <r>  0.0187  0.0130  0.0000  0.0049  0.1086  0.0000  0.4208  0.0000  0.0851 </r>
        <r>  0.0000  0.0000  0.0000  0.0000  0.0000  0.0467  0.0000  0.0422  0.0000 </r>
       </set>
       <set comment="band 13">
        <r>  0.0000  0.0000  0.0002  0.0000  0.0000  0.2089  0.0000  0.5126  0.0000 </r>
        <r>  0.0040  0.0011  0.0000  0.0004  0.0664  0.0000  0.0012  0.0000  0.0487 </r>
       </set>
       <set comment="band 14">
        <r>  0.0040  0.0011  0.0000  0.0004  0.0664  0.0000  0.0012  0.0000  0.0487 </r>
        <r>  0.0000  0.0000  0.0002  0.0000  0.0000  0.2089  0.0000  0.5126  0.0000 </r>
       </set>
       <set comment="band 15">
        <r>  0.0000  0.0000  0.0023  0.0000  0.0000  0.1950  0.0000  0.1435  0.0000 </r>
        <r>  0.0057  0.0001  0.0000  0.0000  0.1706  0.0000  0.3519  0.0000  0.0610 </r>
       </set>
       <set comment="band 16">
        <r>  0.0057  0.0001  0.0000  0.0000  0.1706  0.0000  0.3519  0.0000  0.0610 </r>
        <r>  0.0000  0.0000  0.0023  0.0000  0.0000  0.1950  0.0000  0.1435  0.0000 </r>
       </set>
       <set comment="band 17">
        <r>  0.0000  0.0000  0.0116  0.0000  0.0000  0.1279  0.0000  0.0462  0.0000 </r>
        <r>  0.0882  0.0229  0.0000  0.0078  0.3134  0.0000  0.0069  0.0000  0.1122 </r>
       </set>
       <set comment="band 18">
        <r>  0.0882  0.0229  0.0000  0.0078  0.3134  0.0000  0.0069  0.0000  0.1122 </r>
        <r>  0.0000  0.0000  0.0116  0.0000  0.0000  0.1279  0.0000  0.0462  0.0000 </r>
       </set>
       <set comment="band 19">
        <r>  0.0000  0.0000  0.0346  0.0000  0.0000  0.0206  0.0000  0.0469  0.0000 </r>
        <r>  0.2659  0.0532  0.0000  0.0187  0.0101  0.0000  0.0090  0.0000  0.0043 </r>
       </set>
       <set comment="band 20">
        <r>  0.2659  0.0532  0.0000  0.0187  0.0101  0.0000  0.0090  0.0000  0.0043 </r>
        <r>  0.0000  0.0000  0.0346  0.0000  0.0000  0.0206  0.0000  0.0469  0.0000 </r>
       </set>
       <set comment="band 21">
        <r>  0.0000  0.0000  0.0818  0.0000  0.0000  0.0087  0.0000  0.0176  0.0000 </r>
        <r>  0.0007  0.0450  0.0000  0.0673  0.0333  0.0000  0.0478  0.0000  0.0996 </r>
       </set>
       <set comment="band 22">
        <r>  0.0007  0.0450  0.0000  0.0673  0.0333  0.0000  0.0478  0.0000  0.0996 </r>
        <r>  0.0000  0.0000  0.0818  0.0000  0.0000  0.0087  0.0000  0.0176  0.0000 </r>
       </set>
       <set comment="band 23">
        <r>  0.0000  0.0000  0.0363  0.0000  0.0000  0.0712  0.0000  0.0282  0.0000 </r>
        <r>  0.0002  0.0458  0.0000  0.0361  0.0171  0.0000  0.0557  0.0000  0.0509 </r>
       </set>
       <set comment="band 24">
        <r>  0.0002  0.0458  0.0000  0.0361  0.0171  0.0000  0.0557  0.0000  0.0509 </r>
        <r>  0.0000  0.0000  0.0363  0.0000  0.0000  0.0712  0.0000  0.0282  0.0000 </r>
       </set>
      </set>
      <set comment="kpoint 68">
       <set comment="band 1">
        <r>  0.0000  0.0000  0.0441  0.0000  0.0000  0.0000  0.0000  0.0000  0.0000 </r>
        <r>  0.0000  0.4868  0.0000  0.4540  0.0000  0.0000  0.0000  0.0000  0.0000 </r>
       </set>
       <set comment="band 2">
        <r>  0.0000  0.4868  0.0000  0.4540  0.0000  0.0000  0.0000  0.0000  0.0000 </r>
        <r>  0.0000  0.0000  0.0441  0.0000  0.0000  0.0000  0.0000  0.0000  0.0000 </r>
       </set>
       <set comment="band 3">
        <r>  0.0000  0.0000  0.0297  0.0000  0.0000  0.0000  0.0000  0.0000  0.0000 </r>
        <r>  0.0000  0.4637  0.0000  0.4974  0.0000  0.0000  0.0000  0.0000  0.0000 </r>
       </set>
       <set comment="band 4">
        <r>  0.0000  0.4637  0.0000  0.4974  0.0000  0.0000  0.0000  0.0000  0.0000 </r>
        <r>  0.0000  0.0000  0.0297  0.0000  0.0000  0.0000  0.0000  0.0000  0.0000 </r>
       </set>
       <set comment="band 5">
        <r>  0.0000  0.0000  0.9173  0.0000  0.0000  0.0000  0.0000  0.0000  0.0000 </r>
        <r>  0.0000  0.0380  0.0000  0.0372  0.0000  0.0000  0.0000  0.0000  0.0000 </r>
       </set>
       <set comment="band 6">
        <r>  0.0000  0.0380  0.0000  0.0372  0.0000  0.0000  0.0000  0.0000  0.0000 </r>
        <r>  0.0000  0.0000  0.9173  0.0000  0.0000  0.0000  0.0000  0.0000  0.0000 </r>
       </set>
       <set comment="band 7">
        <r>  0.0000  0.0000  0.0025  0.0000  0.0000  0.1951  0.0000  0.1796  0.0000 </r>
        <r>  0.0653  0.0058  0.0000  0.0019  0.0944  0.0000  0.0574  0.0000  0.0379 </r>
       </set>
       <set comment="band 8">
        <r>  0.0653  0.0058  0.0000  0.0019  0.0944  0.0000  0.0574  0.0000  0.0379 </r>
        <r>  0.0000  0.0000  0.0025  0.0000  0.0000  0.1951  0.0000  0.1796  0.0000 </r>
       </set>
       <set comment="band 9">
        <r>  0.0000  0.0000  0.0028  0.0000  0.0000  0.0702  0.0000  0.0315  0.0000 </r>
        <r>  0.0080  0.0072  0.0000  0.0048  0.2688  0.0000  0.1274  0.0000  0.2132 </r>
       </set>
       <set comment="band 10">
        <r>  0.0080  0.0072  0.0000  0.0048  0.2688  0.0000  0.1274  0.0000  0.2132 </r>
        <r>  0.0000  0.0000  0.0028  0.0000  0.0000  0.0702  0.0000  0.0315  0.0000 </r>
       </set>
       <set comment="band 11">
        <r>  0.0000  0.0000  0.0042  0.0000  0.0000  0.0969  0.0000  0.1573  0.0000 </r>
        <r>  0.0162  0.0111  0.0000  0.0201  0.0585  0.0000  0.1436  0.0000  0.1708 </r>
       </set>
       <set comment="band 12">
        <r>  0.0162  0.0111  0.0000  0.0201  0.0585  0.0000  0.1436  0.0000  0.1708 </r>
        <r>  0.0000  0.0000  0.0042  0.0000  0.0000  0.0969  0.0000  0.1573  0.0000 </r>
       </set>
       <set comment="band 13">
        <r>  0.0000  0.0000  0.0004  0.0000  0.0000  0.2156  0.0000  0.2652  0.0000 </r>
        <r>  0.0141  0.0017  0.0000  0.0043  0.0749  0.0000  0.0372  0.0000  0.2137 </r>
       </set>
       <set comment="band 14">
        <r>  0.0141  0.0017  0.0000  0.0043  0.0749  0.0000  0.0372  0.0000  0.2137 </r>
        <r>  0.0000  0.0000  0.0004  0.0000  0.0000  0.2156  0.0000  0.2652  0.0000 </r>
       </set>
       <set comment="band 15">
        <r>  0.0000  0.0000  0.0021  0.0000  0.0000  0.1773  0.0000  0.1290  0.0000 </r>
        <r>  0.0037  0.0016  0.0000  0.0005  0.0908  0.0000  0.4825  0.0000  0.0379 </r>
       </set>
       <set comment="band 16">
        <r>  0.0037  0.0016  0.0000  0.0005  0.0908  0.0000  0.4825  0.0000  0.0379 </r>
        <r>  0.0000  0.0000  0.0021  0.0000  0.0000  0.1773  0.0000  0.1290  0.0000 </r>
       </set>
       <set comment="band 17">
        <r>  0.0000  0.0000  0.0189  0.0000  0.0000  0.0629  0.0000  0.0215  0.0000 </r>
        <r>  0.1009  0.0322  0.0000  0.0227  0.2701  0.0000  0.0061  0.0000  0.1253 </r>
       </set>
       <set comment="band 18">
        <r>  0.1009  0.0322  0.0000  0.0227  0.2701  0.0000  0.0061  0.0000  0.1253 </r>
        <r>  0.0000  0.0000  0.0189  0.0000  0.0000  0.0629  0.0000  0.0215  0.0000 </r>
       </set>
       <set comment="band 19">
        <r>  0.0000  0.0000  0.0143  0.0000  0.0000  0.0139  0.0000  0.0854  0.0000 </r>
        <r>  0.3021  0.0251  0.0000  0.0413  0.0172  0.0000  0.0247  0.0000  0.0305 </r>
       </set>
       <set comment="band 20">
        <r>  0.3021  0.0251  0.0000  0.0413  0.0172  0.0000  0.0247  0.0000  0.0305 </r>
        <r>  0.0000  0.0000  0.0143  0.0000  0.0000  0.0139  0.0000  0.0854  0.0000 </r>
       </set>
       <set comment="band 21">
        <r>  0.0000  0.0000  0.0444  0.0000  0.0000  0.0442  0.0000  0.0150  0.0000 </r>
        <r>  0.0240  0.0769  0.0000  0.0535  0.0511  0.0000  0.0067  0.0000  0.1069 </r>
       </set>
       <set comment="band 22">
        <r>  0.0240  0.0769  0.0000  0.0535  0.0511  0.0000  0.0067  0.0000  0.1069 </r>
        <r>  0.0000  0.0000  0.0444  0.0000  0.0000  0.0442  0.0000  0.0150  0.0000 </r>
       </set>
       <set comment="band 23">
        <r>  0.0000  0.0000  0.0874  0.0000  0.0000  0.0434  0.0000  0.0253  0.0000 </r>
        <r>  0.0059  0.0339  0.0000  0.0267  0.0115  0.0000  0.0235  0.0000  0.0171 </r>
       </set>
       <set comment="band 24">
        <r>  0.0059  0.0339  0.0000  0.0267  0.0115  0.0000  0.0235  0.0000  0.0171 </r>
        <r>  0.0000  0.0000  0.0874  0.0000  0.0000  0.0434  0.0000  0.0253  0.0000 </r>
       </set>
      </set>
      <set comment="kpoint 69">
       <set comment="band 1">
        <r>  0.0000  0.0000  0.0410  0.0000  0.0000  0.0000  0.0000  0.0000  0.0000 </r>
        <r>  0.0000  0.2371  0.0000  0.7063  0.0000  0.0000  0.0000  0.0000  0.0000 </r>
       </set>
       <set comment="band 2">
        <r>  0.0000  0.2371  0.0000  0.7063  0.0000  0.0000  0.0000  0.0000  0.0000 </r>
        <r>  0.0000  0.0000  0.0410  0.0000  0.0000  0.0000  0.0000  0.0000  0.0000 </r>
       </set>
       <set comment="band 3">
        <r>  0.0000  0.0000  0.0285  0.0000  0.0000  0.0000  0.0000  0.0000  0.0000 </r>
        <r>  0.0000  0.7175  0.0000  0.2442  0.0001  0.0000  0.0000  0.0000  0.0000 </r>
       </set>
       <set comment="band 4">
        <r>  0.0000  0.7175  0.0000  0.2442  0.0001  0.0000  0.0000  0.0000  0.0000 </r>
        <r>  0.0000  0.0000  0.0285  0.0000  0.0000  0.0000  0.0000  0.0000  0.0000 </r>
       </set>
       <set comment="band 5">
        <r>  0.0000  0.0000  0.9217  0.0000  0.0000  0.0000  0.0000  0.0000  0.0000 </r>
        <r>  0.0000  0.0347  0.0000  0.0362  0.0000  0.0000  0.0000  0.0000  0.0000 </r>
       </set>
       <set comment="band 6">
        <r>  0.0000  0.0347  0.0000  0.0362  0.0000  0.0000  0.0000  0.0000  0.0000 </r>
        <r>  0.0000  0.0000  0.9217  0.0000  0.0000  0.0000  0.0000  0.0000  0.0000 </r>
       </set>
       <set comment="band 7">
        <r>  0.0000  0.0000  0.0009  0.0000  0.0000  0.0923  0.0000  0.2676  0.0000 </r>
        <r>  0.0570  0.0050  0.0000  0.0026  0.1341  0.0000  0.0496  0.0000  0.0460 </r>
       </set>
       <set comment="band 8">
        <r>  0.0570  0.0050  0.0000  0.0026  0.1341  0.0000  0.0496  0.0000  0.0460 </r>
        <r>  0.0000  0.0000  0.0009  0.0000  0.0000  0.0923  0.0000  0.2676  0.0000 </r>
       </set>
       <set comment="band 9">
        <r>  0.0000  0.0000  0.0008  0.0000  0.0000  0.0702  0.0000  0.0803  0.0000 </r>
        <r>  0.0001  0.0078  0.0000  0.0029  0.2995  0.0000  0.1833  0.0000  0.1011 </r>
       </set>
       <set comment="band 10">
        <r>  0.0001  0.0078  0.0000  0.0029  0.2995  0.0000  0.1833  0.0000  0.1011 </r>
        <r>  0.0000  0.0000  0.0008  0.0000  0.0000  0.0702  0.0000  0.0803  0.0000 </r>
       </set>
       <set comment="band 11">
        <r>  0.0000  0.0000  0.0048  0.0000  0.0000  0.3342  0.0000  0.1538  0.0000 </r>
        <r>  0.0105  0.0058  0.0000  0.0173  0.0588  0.0000  0.0187  0.0000  0.0929 </r>
       </set>
       <set comment="band 12">
        <r>  0.0105  0.0058  0.0000  0.0173  0.0588  0.0000  0.0187  0.0000  0.0929 </r>
        <r>  0.0000  0.0000  0.0048  0.0000  0.0000  0.3342  0.0000  0.1538  0.0000 </r>
       </set>
       <set comment="band 13">
        <r>  0.0000  0.0000  0.0023  0.0000  0.0000  0.1517  0.0000  0.0757  0.0000 </r>
        <r>  0.0003  0.0060  0.0000  0.0175  0.1410  0.0000  0.0072  0.0000  0.3908 </r>
       </set>
       <set comment="band 14">
        <r>  0.0003  0.0060  0.0000  0.0175  0.1410  0.0000  0.0072  0.0000  0.3908 </r>
        <r>  0.0000  0.0000  0.0023  0.0000  0.0000  0.1517  0.0000  0.0757  0.0000 </r>
       </set>
       <set comment="band 15">
        <r>  0.0000  0.0000  0.0007  0.0000  0.0000  0.1203  0.0000  0.1556  0.0000 </r>
        <r>  0.0000  0.0006  0.0000  0.0002  0.0320  0.0000  0.5967  0.0000  0.0254 </r>
       </set>
       <set comment="band 16">
        <r>  0.0000  0.0006  0.0000  0.0002  0.0320  0.0000  0.5967  0.0000  0.0254 </r>
        <r>  0.0000  0.0000  0.0007  0.0000  0.0000  0.1203  0.0000  0.1556  0.0000 </r>
       </set>
       <set comment="band 17">
        <r>  0.0000  0.0000  0.0351  0.0000  0.0000  0.0234  0.0000  0.0117  0.0000 </r>
        <r>  0.0320  0.0252  0.0000  0.0720  0.0943  0.0000  0.0148  0.0000  0.2091 </r>
       </set>
       <set comment="band 18">
        <r>  0.0320  0.0252  0.0000  0.0720  0.0943  0.0000  0.0148  0.0000  0.2091 </r>
        <r>  0.0000  0.0000  0.0351  0.0000  0.0000  0.0234  0.0000  0.0117  0.0000 </r>
       </set>
       <set comment="band 19">
        <r>  0.0000  0.0000  0.0001  0.0000  0.0000  0.0458  0.0000  0.1030  0.0000 </r>
        <r>  0.3978  0.0055  0.0000  0.0150  0.0697  0.0000  0.0201  0.0000  0.0407 </r>
       </set>
       <set comment="band 20">
        <r>  0.3978  0.0055  0.0000  0.0150  0.0697  0.0000  0.0201  0.0000  0.0407 </r>
        <r>  0.0000  0.0000  0.0001  0.0000  0.0000  0.0458  0.0000  0.1030  0.0000 </r>
       </set>
       <set comment="band 21">
        <r>  0.0000  0.0000  0.0319  0.0000  0.0000  0.0515  0.0000  0.0209  0.0000 </r>
        <r>  0.0379  0.1007  0.0000  0.0386  0.0978  0.0000  0.0014  0.0000  0.0355 </r>
       </set>
       <set comment="band 22">
        <r>  0.0379  0.1007  0.0000  0.0386  0.0978  0.0000  0.0014  0.0000  0.0355 </r>
        <r>  0.0000  0.0000  0.0319  0.0000  0.0000  0.0515  0.0000  0.0209  0.0000 </r>
       </set>
       <set comment="band 23">
        <r>  0.0000  0.0000  0.0973  0.0000  0.0000  0.0241  0.0000  0.0276  0.0000 </r>
        <r>  0.0064  0.0178  0.0000  0.0418  0.0163  0.0000  0.0065  0.0000  0.0159 </r>
       </set>
       <set comment="band 24">
        <r>  0.0064  0.0178  0.0000  0.0418  0.0163  0.0000  0.0065  0.0000  0.0159 </r>
        <r>  0.0000  0.0000  0.0973  0.0000  0.0000  0.0241  0.0000  0.0276  0.0000 </r>
       </set>
      </set>
      <set comment="kpoint 70">
       <set comment="band 1">
        <r>  0.0000  0.0000  0.0476  0.0000  0.0000  0.0000  0.0000  0.0000  0.0000 </r>
        <r>  0.0000  0.6937  0.0000  0.2444  0.0000  0.0000  0.0000  0.0000  0.0000 </r>
       </set>
       <set comment="band 2">
        <r>  0.0000  0.6937  0.0000  0.2444  0.0000  0.0000  0.0000  0.0000  0.0000 </r>
        <r>  0.0000  0.0000  0.0476  0.0000  0.0000  0.0000  0.0000  0.0000  0.0000 </r>
       </set>
       <set comment="band 3">
        <r>  0.0000  0.0000  0.0241  0.0000  0.0000  0.0000  0.0000  0.0000  0.0000 </r>
        <r>  0.0000  0.2568  0.0000  0.7075  0.0000  0.0000  0.0000  0.0000  0.0001 </r>
       </set>
       <set comment="band 4">
        <r>  0.0000  0.2568  0.0000  0.7075  0.0000  0.0000  0.0000  0.0000  0.0001 </r>
        <r>  0.0000  0.0000  0.0241  0.0000  0.0000  0.0000  0.0000  0.0000  0.0000 </r>
       </set>
       <set comment="band 5">
        <r>  0.0000  0.0000  0.9197  0.0000  0.0000  0.0000  0.0000  0.0000  0.0000 </r>
        <r>  0.0000  0.0367  0.0000  0.0364  0.0000  0.0000  0.0000  0.0000  0.0000 </r>
       </set>
       <set comment="band 6">
        <r>  0.0000  0.0367  0.0000  0.0364  0.0000  0.0000  0.0000  0.0000  0.0000 </r>
        <r>  0.0000  0.0000  0.9197  0.0000  0.0000  0.0000  0.0000  0.0000  0.0000 </r>
       </set>
       <set comment="band 7">
        <r>  0.0000  0.0000  0.0003  0.0000  0.0000  0.3169  0.0000  0.1372  0.0000 </r>
        <r>  0.0462  0.0022  0.0000  0.0022  0.0159  0.0000  0.1470  0.0000  0.0213 </r>
       </set>
       <set comment="band 8">
        <r>  0.0462  0.0022  0.0000  0.0022  0.0159  0.0000  0.1470  0.0000  0.0213 </r>
        <r>  0.0000  0.0000  0.0003  0.0000  0.0000  0.3169  0.0000  0.1372  0.0000 </r>
       </set>
       <set comment="band 9">
        <r>  0.0000  0.0000  0.0008  0.0000  0.0000  0.0734  0.0000  0.1959  0.0000 </r>
        <r>  0.0047  0.0072  0.0000  0.0152  0.0912  0.0000  0.0479  0.0000  0.2471 </r>
       </set>
       <set comment="band 10">
        <r>  0.0047  0.0072  0.0000  0.0152  0.0912  0.0000  0.0479  0.0000  0.2471 </r>
        <r>  0.0000  0.0000  0.0008  0.0000  0.0000  0.0734  0.0000  0.1959  0.0000 </r>
       </set>
       <set comment="band 11">
        <r>  0.0000  0.0000  0.0061  0.0000  0.0000  0.0404  0.0000  0.0756  0.0000 </r>
        <r>  0.0021  0.0214  0.0000  0.0111  0.2621  0.0000  0.0296  0.0000  0.2346 </r>
       </set>
       <set comment="band 12">
        <r>  0.0021  0.0214  0.0000  0.0111  0.2621  0.0000  0.0296  0.0000  0.2346 </r>
        <r>  0.0000  0.0000  0.0061  0.0000  0.0000  0.0404  0.0000  0.0756  0.0000 </r>
       </set>
       <set comment="band 13">
        <r>  0.0000  0.0000  0.0002  0.0000  0.0000  0.1559  0.0000  0.2186  0.0000 </r>
        <r>  0.0053  0.0052  0.0000  0.0020  0.2628  0.0000  0.0133  0.0000  0.1655 </r>
       </set>
       <set comment="band 14">
        <r>  0.0053  0.0052  0.0000  0.0020  0.2628  0.0000  0.0133  0.0000  0.1655 </r>
        <r>  0.0000  0.0000  0.0002  0.0000  0.0000  0.1559  0.0000  0.2186  0.0000 </r>
       </set>
       <set comment="band 15">
        <r>  0.0000  0.0000  0.0004  0.0000  0.0000  0.1467  0.0000  0.1216  0.0000 </r>
        <r>  0.0007  0.0006  0.0000  0.0002  0.0220  0.0000  0.6307  0.0000  0.0085 </r>
       </set>
       <set comment="band 16">
        <r>  0.0007  0.0006  0.0000  0.0002  0.0220  0.0000  0.6307  0.0000  0.0085 </r>
        <r>  0.0000  0.0000  0.0004  0.0000  0.0000  0.1467  0.0000  0.1216  0.0000 </r>
       </set>
       <set comment="band 17">
        <r>  0.0000  0.0000  0.0312  0.0000  0.0000  0.0519  0.0000  0.0194  0.0000 </r>
        <r>  0.1519  0.0449  0.0000  0.0179  0.1895  0.0000  0.0078  0.0000  0.0767 </r>
       </set>
       <set comment="band 18">
        <r>  0.1519  0.0449  0.0000  0.0179  0.1895  0.0000  0.0078  0.0000  0.0767 </r>
        <r>  0.0000  0.0000  0.0312  0.0000  0.0000  0.0519  0.0000  0.0194  0.0000 </r>
       </set>
       <set comment="band 19">
        <r>  0.0000  0.0000  0.0178  0.0000  0.0000  0.0467  0.0000  0.0683  0.0000 </r>
        <r>  0.3304  0.0343  0.0000  0.0152  0.0248  0.0000  0.0143  0.0000  0.0182 </r>
       </set>
       <set comment="band 20">
        <r>  0.3304  0.0343  0.0000  0.0152  0.0248  0.0000  0.0143  0.0000  0.0182 </r>
        <r>  0.0000  0.0000  0.0178  0.0000  0.0000  0.0467  0.0000  0.0683  0.0000 </r>
       </set>
       <set comment="band 21">
        <r>  0.0000  0.0000  0.0179  0.0000  0.0000  0.0426  0.0000  0.0475  0.0000 </r>
        <r>  0.0007  0.0470  0.0000  0.0916  0.0711  0.0000  0.0014  0.0000  0.1642 </r>
       </set>
       <set comment="band 22">
        <r>  0.0007  0.0470  0.0000  0.0916  0.0711  0.0000  0.0014  0.0000  0.1642 </r>
        <r>  0.0000  0.0000  0.0179  0.0000  0.0000  0.0426  0.0000  0.0475  0.0000 </r>
       </set>
       <set comment="band 23">
        <r>  0.0000  0.0000  0.1236  0.0000  0.0000  0.0231  0.0000  0.0173  0.0000 </r>
        <r>  0.0021  0.0485  0.0000  0.0239  0.0229  0.0000  0.0038  0.0000  0.0186 </r>
       </set>
       <set comment="band 24">
        <r>  0.0021  0.0485  0.0000  0.0239  0.0229  0.0000  0.0038  0.0000  0.0186 </r>
        <r>  0.0000  0.0000  0.1236  0.0000  0.0000  0.0231  0.0000  0.0173  0.0000 </r>
       </set>
      </set>
     </set>
    </set>
   </array>
  </projected>
 </calculation>
 <structure name="finalpos" >
  <crystal>
   <varray name="basis" >
    <v>       2.75297212      -0.00000000      -0.00000000 </v>
    <v>      -1.37648606       2.38414379      -0.00000000 </v>
    <v>       0.00000000       0.00000000       4.76946004 </v>
   </varray>
   <i name="volume">     31.30426228 </i>
   <varray name="rec_basis" >
    <v>       0.36324378       0.20971889      -0.00000000 </v>
    <v>       0.00000000       0.41943779      -0.00000000 </v>
    <v>       0.00000000       0.00000000       0.20966734 </v>
   </varray>
  </crystal>
  <varray name="positions" >
   <v>       0.00000000       0.00000000       0.00000000 </v>
   <v>       0.33333333       0.66666667       0.50000000 </v>
  </varray>
 </structure>
</modeling>
