Pt-hcc                                  
           1
     2.760000    0.000000    0.000000
    -1.380000    2.390230    0.000000
     0.000000    0.000000    4.790000
   Pt
     2
Direct configuration=     1
   0.00000000  0.00000000  0.00000000
   0.33333333  0.66666667  0.50000000
Pt-hcc                                  
           1
     2.729404    0.000000   -0.000000
    -1.364702    2.363733    0.000000
     0.000000    0.000000    4.734744
   Pt
     2
Direct configuration=     2
   0.00000000  0.00000000  0.00000000
   0.33333333  0.66666667  0.50000000
Pt-hcc                                  
           1
     2.751686    0.000000   -0.000000
    -1.375843    2.383030    0.000000
     0.000000    0.000000    4.774984
   Pt
     2
Direct configuration=     3
   0.00000000  0.00000000 -0.00000000
   0.33333333  0.66666667  0.50000000
Pt-hcc                                  
           1
     2.751611    0.000000   -0.000000
    -1.375805    2.382965    0.000000
     0.000000    0.000000    4.774849
   Pt
     2
Direct configuration=     4
   0.00000000  0.00000000 -0.00000000
   0.33333333  0.66666667  0.50000000
Pt-hcc                                  
           1
     2.750780    0.000000   -0.000000
    -1.375390    2.382246    0.000000
     0.000000    0.000000    4.773349
   Pt
     2
Direct configuration=     5
   0.00000000  0.00000000 -0.00000000
   0.33333333  0.66666667  0.50000000
Pt-hcc                                  
           1
     2.751543    0.000000   -0.000000
    -1.375771    2.382906    0.000000
     0.000000    0.000000    4.774727
   Pt
     2
Direct configuration=     6
   0.00000000  0.00000000 -0.00000000
   0.33333333  0.66666667  0.50000000
Pt-hcc                                  
           1
     2.751583    0.000000   -0.000000
    -1.375792    2.382941    0.000000
     0.000000    0.000000    4.774800
   Pt
     2
Direct configuration=     7
   0.00000000  0.00000000 -0.00000000
   0.33333333  0.66666667  0.50000000
Pt-hcc                                  
           1
     2.751598    0.000000   -0.000000
    -1.375799    2.382953    0.000000
     0.000000    0.000000    4.774825
   Pt
     2
Direct configuration=     8
   0.00000000  0.00000000 -0.00000000
   0.33333333  0.66666667  0.50000000
Pt-hcc                                  
           1
     2.751605    0.000000   -0.000000
    -1.375802    2.382960    0.000000
     0.000000    0.000000    4.774839
   Pt
     2
Direct configuration=     9
   0.00000000  0.00000000 -0.00000000
   0.33333333  0.66666667  0.50000000
Pt-hcc                                  
           1
     2.751608    0.000000   -0.000000
    -1.375804    2.382962    0.000000
     0.000000    0.000000    4.774844
   Pt
     2
Direct configuration=    10
   0.00000000  0.00000000 -0.00000000
   0.33333333  0.66666667  0.50000000
Pt-hcc                                  
           1
     2.751610    0.000000   -0.000000
    -1.375805    2.382964    0.000000
     0.000000    0.000000    4.774847
   Pt
     2
Direct configuration=    11
   0.00000000  0.00000000 -0.00000000
   0.33333333  0.66666667  0.50000000
Pt-hcc                                  
           1
     2.751610    0.000000   -0.000000
    -1.375805    2.382964    0.000000
     0.000000    0.000000    4.774848
   Pt
     2
Direct configuration=    12
   0.00000000  0.00000000 -0.00000000
   0.33333333  0.66666667  0.50000000
Pt-hcc                                  
           1
     2.751611    0.000000   -0.000000
    -1.375805    2.382965    0.000000
     0.000000    0.000000    4.774849
   Pt
     2
Direct configuration=    13
   0.00000000  0.00000000 -0.00000000
   0.33333333  0.66666667  0.50000000
Pt-hcc                                  
           1
     2.751611    0.000000   -0.000000
    -1.375805    2.382965    0.000000
     0.000000    0.000000    4.774849
   Pt
     2
Direct configuration=    14
   0.00000000  0.00000000 -0.00000000
   0.33333333  0.66666667  0.50000000
Pt-hcc                                  
           1
     2.752972   -0.000000   -0.000000
    -1.376486    2.384144   -0.000000
     0.000000    0.000000    4.769460
   Pt
     2
Direct configuration=    15
   0.00000000  0.00000000  0.00000000
   0.33333333  0.66666667  0.50000000
