Co-fcc                                  
   1.00000000000000     
     0.000000    1.684097    1.684097
     1.684097    0.000000    1.684097
     1.684097    1.684097    0.000000
   Co
     1
Direct
  0.000000  0.000000  0.000000
 
   32   32   32
  90.296      88.455      83.166      75.075      65.088      54.189      43.288      33.127      24.250      17.003    
  11.542      7.8221      5.6133      4.5245      4.0737      3.8464      3.7686      3.8464      4.0737      4.5245    
  5.6133      7.8221      11.542      17.003      24.250      33.127      43.288      54.189      65.088      75.075    
  83.166      88.455      88.455      84.891      78.209      69.191      58.788      47.948      37.492      28.059    
  20.089      13.830      9.3387      6.4746      4.9206      4.2321      3.9280      3.7754      3.7754      3.9280    
  4.2321      4.9206      6.4746      9.3387      13.830      20.088      28.059      37.492      47.948      58.788    
  69.191      78.209      84.891      88.455      83.166      78.209      70.616      61.231      50.974      40.703    
  31.126      22.768      15.965      10.866      7.4237      5.4057      4.4259      4.0137      3.7944      3.7197    
  3.7944      4.0137      4.4259      5.4057      7.4237      10.866      15.965      22.768      31.126      40.703    
  50.974      61.231      70.616      78.209      83.166      84.891      75.075      69.191      61.231      52.023    
  42.406      33.118      24.747      17.705      12.224      8.3470      5.9291      4.6556      4.0983      3.8224    
  3.6812      3.6812      3.8224      4.0983      4.6556      5.9291      8.3470      12.224      17.705      24.747    
  33.118      42.406      52.023      61.231      69.191      75.075      78.209      78.209      65.088      58.788    
  50.974      42.406      33.809      25.798      18.842      13.242      9.1209      6.4183      4.8970      4.1858    
  3.8545      3.6588      3.5929      3.6588      3.8545      4.1858      4.8970      6.4183      9.1209      13.242    
  18.842      25.798      33.809      42.406      50.974      58.788      65.088      69.191      70.616      69.191    
  54.189      47.948      40.703      33.118      25.798      19.237      13.787      9.6356      6.7974      5.1115    
  4.2718      3.8858      3.6492      3.5296      3.5296      3.6492      3.8858      4.2718      5.1115      6.7974    
  9.6356      13.787      19.237      25.798      33.118      40.703      47.948      54.189      58.788      61.231    
  61.231      58.788      43.288      37.492      31.126      24.747      18.842      13.787      9.8161      7.0044    
  5.2598      4.3426      3.9116      3.6478      3.4884      3.4354      3.4884      3.6478      3.9116      4.3426    
  5.2598      7.0044      9.8161      13.787      18.842      24.747      31.126      37.492      43.288      47.948    
  50.974      52.023      50.974      47.948      33.127      28.059      22.768      17.705      13.242      9.6356    
  7.0044      5.3128      4.3827      3.9287      3.6500      3.4644      3.3727      3.3727      3.4644      3.6500    
  3.9287      4.3827      5.3128      7.0044      9.6356      13.242      17.705      22.768      28.059      33.127    
  37.492      40.703      42.406      42.406      40.703      37.492      24.250      20.089      15.965      12.224    
  9.1209      6.7974      5.2598      4.3827      3.9348      3.6521      3.4524      3.3356      3.2975      3.3357    
  3.4524      3.6521      3.9348      4.3827      5.2598      6.7974      9.1209      12.224      15.965      20.089    
  24.250      28.059      31.126      33.118      33.809      33.118      31.126      28.059      17.003      13.830    
  10.866      8.3470      6.4183      5.1115      4.3426      3.9287      3.6521      3.4489      3.3188      3.2560    
  3.2560      3.3188      3.4489      3.6521      3.9287      4.3426      5.1115      6.4183      8.3470      10.866    
  13.830      17.003      20.089      22.768      24.747      25.798      25.798      24.747      22.768      20.088    
  11.542      9.3387      7.4237      5.9291      4.8970      4.2718      3.9116      3.6500      3.4524      3.3188    
  3.2428      3.2184      3.2428      3.3188      3.4524      3.6500      3.9116      4.2718      4.8970      5.9291    
  7.4237      9.3387      11.542      13.830      15.965      17.705      18.842      19.237      18.842      17.705    
  15.965      13.830      7.8221      6.4746      5.4057      4.6556      4.1858      3.8858      3.6478      3.4644    
  3.3356      3.2560      3.2184      3.2184      3.2560      3.3357      3.4644      3.6478      3.8858      4.1858    
  4.6556      5.4057      6.4746      7.8221      9.3387      10.866      12.224      13.242      13.787      13.787    
  13.242      12.224      10.866      9.3387      5.6133      4.9206      4.4259      4.0983      3.8545      3.6492    
  3.4884      3.3727      3.2975      3.2560      3.2428      3.2560      3.2975      3.3727      3.4884      3.6492    
  3.8545      4.0983      4.4259      4.9206      5.6133      6.4746      7.4237      8.3470      9.1209      9.6356    
  9.8161      9.6356      9.1209      8.3470      7.4237      6.4746      4.5245      4.2321      4.0137      3.8224    
  3.6588      3.5296      3.4354      3.3727      3.3357      3.3188      3.3188      3.3357      3.3727      3.4354    
  3.5296      3.6588      3.8224      4.0137      4.2321      4.5245      4.9206      5.4057      5.9291      6.4183    
  6.7974      7.0044      7.0044      6.7974      6.4183      5.9291      5.4057      4.9206      4.0737      3.9280    
  3.7944      3.6812      3.5929      3.5296      3.4884      3.4644      3.4524      3.4489      3.4524      3.4644    
  3.4884      3.5296      3.5929      3.6812      3.7944      3.9280      4.0737      4.2321      4.4259      4.6556    
  4.8970      5.1115      5.2598      5.3128      5.2598      5.1115      4.8970      4.6556      4.4259      4.2321    
  3.8464      3.7754      3.7197      3.6812      3.6588      3.6492      3.6478      3.6500      3.6521      3.6521    
  3.6500      3.6478      3.6492      3.6588      3.6812      3.7197      3.7754      3.8464      3.9280      4.0137    
  4.0983      4.1858      4.2718      4.3426      4.3827      4.3827      4.3426      4.2718      4.1858      4.0983    
  4.0137      3.9280      3.7686      3.7754      3.7944      3.8224      3.8545      3.8858      3.9116      3.9287    
  3.9348      3.9287      3.9116      3.8858      3.8545      3.8224      3.7944      3.7754      3.7686      3.7754    
  3.7944      3.8224      3.8545      3.8858      3.9116      3.9287      3.9348      3.9287      3.9116      3.8858    
  3.8545      3.8224      3.7944      3.7754      3.8464      3.9280      4.0137      4.0983      4.1858      4.2718    
  4.3426      4.3827      4.3827      4.3426      4.2718      4.1858      4.0983      4.0137      3.9280      3.8464    
  3.7754      3.7197      3.6812      3.6588      3.6492      3.6478      3.6500      3.6521      3.6521      3.6500    
  3.6478      3.6492      3.6588      3.6812      3.7197      3.7754      4.0737      4.2321      4.4259      4.6556    
  4.8970      5.1115      5.2598      5.3128      5.2598      5.1115      4.8970      4.6556      4.4259      4.2321    
  4.0737      3.9280      3.7944      3.6812      3.5929      3.5296      3.4884      3.4644      3.4524      3.4489    
  3.4524      3.4644      3.4884      3.5296      3.5929      3.6812      3.7944      3.9280      4.5245      4.9206    
  5.4057      5.9291      6.4183      6.7974      7.0044      7.0044      6.7974      6.4183      5.9291      5.4057    
  4.9206      4.5245      4.2321      4.0137      3.8224      3.6588      3.5296      3.4354      3.3727      3.3357    
  3.3188      3.3188      3.3357      3.3727      3.4354      3.5296      3.6588      3.8224      4.0137      4.2321    
  5.6133      6.4746      7.4237      8.3470      9.1209      9.6356      9.8161      9.6356      9.1209      8.3470    
  7.4237      6.4746      5.6133      4.9206      4.4259      4.0983      3.8545      3.6492      3.4884      3.3727    
  3.2975      3.2560      3.2428      3.2560      3.2975      3.3727      3.4884      3.6492      3.8545      4.0983    
  4.4259      4.9206      7.8221      9.3387      10.866      12.224      13.242      13.787      13.787      13.242    
  12.224      10.866      9.3387      7.8221      6.4746      5.4057      4.6556      4.1858      3.8858      3.6478    
  3.4644      3.3357      3.2560      3.2184      3.2184      3.2560      3.3356      3.4644      3.6478      3.8858    
  4.1858      4.6556      5.4057      6.4746      11.542      13.830      15.965      17.705      18.842      19.237    
  18.842      17.705      15.965      13.830      11.542      9.3387      7.4237      5.9291      4.8970      4.2718    
  3.9116      3.6500      3.4524      3.3188      3.2428      3.2184      3.2428      3.3188      3.4524      3.6500    
  3.9116      4.2718      4.8970      5.9291      7.4237      9.3387      17.003      20.088      22.768      24.747    
  25.798      25.798      24.747      22.768      20.089      17.003      13.830      10.866      8.3470      6.4183    
  5.1115      4.3426      3.9287      3.6521      3.4489      3.3188      3.2560      3.2560      3.3188      3.4489    
  3.6521      3.9287      4.3426      5.1115      6.4183      8.3470      10.866      13.830      24.250      28.059    
  31.126      33.118      33.809      33.118      31.126      28.059      24.250      20.089      15.965      12.224    
  9.1209      6.7974      5.2598      4.3827      3.9348      3.6521      3.4524      3.3357      3.2975      3.3356    
  3.4524      3.6521      3.9348      4.3827      5.2598      6.7974      9.1209      12.224      15.965      20.089    
  33.127      37.492      40.703      42.406      42.406      40.703      37.492      33.127      28.059      22.768    
  17.705      13.242      9.6356      7.0044      5.3128      4.3827      3.9287      3.6500      3.4644      3.3727    
  3.3727      3.4644      3.6500      3.9287      4.3827      5.3128      7.0044      9.6356      13.242      17.705    
  22.768      28.059      43.288      47.948      50.974      52.023      50.974      47.948      43.288      37.492    
  31.126      24.747      18.842      13.787      9.8161      7.0044      5.2598      4.3426      3.9116      3.6478    
  3.4884      3.4354      3.4884      3.6478      3.9116      4.3426      5.2598      7.0044      9.8161      13.787    
  18.842      24.747      31.126      37.492      54.189      58.788      61.231      61.231      58.788      54.189    
  47.948      40.703      33.118      25.798      19.237      13.787      9.6356      6.7974      5.1115      4.2718    
  3.8858      3.6492      3.5296      3.5296      3.6492      3.8858      4.2718      5.1115      6.7974      9.6356    
  13.787      19.237      25.798      33.118      40.703      47.948      65.088      69.191      70.616      69.191    
  65.088      58.788      50.974      42.406      33.809      25.798      18.842      13.242      9.1209      6.4183    
  4.8970      4.1858      3.8545      3.6588      3.5929      3.6588      3.8545      4.1858      4.8970      6.4183    
  9.1209      13.242      18.842      25.798      33.809      42.406      50.974      58.788      75.075      78.209    
  78.209      75.075      69.191      61.231      52.023      42.406      33.118      24.747      17.705      12.224    
  8.3470      5.9291      4.6556      4.0983      3.8224      3.6812      3.6812      3.8224      4.0983      4.6556    
  5.9291      8.3470      12.224      17.705      24.747      33.118      42.406      52.023      61.231      69.191    
  83.166      84.891      83.166      78.209      70.616      61.231      50.974      40.703      31.126      22.768    
  15.965      10.866      7.4237      5.4057      4.4259      4.0137      3.7944      3.7197      3.7944      4.0137    
  4.4259      5.4057      7.4237      10.866      15.965      22.768      31.126      40.703      50.974      61.231    
  70.616      78.209      88.455      88.455      84.891      78.209      69.191      58.788      47.948      37.492    
  28.059      20.088      13.830      9.3387      6.4746      4.9206      4.2321      3.9280      3.7754      3.7754    
  3.9280      4.2321      4.9206      6.4746      9.3387      13.830      20.089      28.059      37.492      47.948    
  58.788      69.191      78.209      84.891      88.455      84.891      78.209      69.191      58.788      47.948    
  37.492      28.059      20.089      13.830      9.3387      6.4746      4.9206      4.2321      3.9280      3.7754    
  3.7754      3.9280      4.2321      4.9206      6.4746      9.3387      13.830      20.088      28.059      37.492    
  47.948      58.788      69.191      78.209      84.891      88.455      84.891      79.832      72.085      62.511    
  52.050      41.576      31.806      23.274      16.322      11.099      7.5624      5.4801      4.4640      4.0392    
  3.8170      3.7412      3.8170      4.0392      4.4640      5.4801      7.5624      11.099      16.322      23.274    
  31.806      41.576      52.050      62.511      72.085      79.832      84.891      86.652      78.209      72.085    
  63.804      54.229      44.229      34.569      25.851      18.502      12.762      8.6807      6.1153      4.7506    
  4.1520      3.8672      3.7220      3.7220      3.8672      4.1520      4.7506      6.1152      8.6807      12.762    
  18.502      25.851      34.569      44.229      54.229      63.804      72.085      78.209      81.471      81.471    
  69.191      62.511      54.229      45.150      36.035      27.529      20.122      14.130      9.6900      6.7478    
  5.0684      4.2747      3.9205      3.7165      3.6475      3.7165      3.9205      4.2747      5.0684      6.7478    
  9.6900      14.130      20.122      27.529      36.035      45.150      54.229      62.511      69.191      73.542    
  75.054      73.542      58.788      52.050      44.229      36.035      28.112      20.984      15.029      10.454    
  7.2869      5.3732      4.4033      3.9711      3.7216      3.5946      3.5946      3.7216      3.9711      4.4033    
  5.3732      7.2869      10.454      15.029      20.984      28.112      36.035      44.229      52.050      58.788    
  63.753      66.391      66.391      63.753      47.948      41.576      34.569      27.529      20.984      15.343    
  10.866      7.6494      5.6138      4.5199      4.0147      3.7326      3.5611      3.5039      3.5611      3.7326    
  4.0147      4.5199      5.6138      7.6494      10.866      15.343      20.984      27.529      34.569      41.576    
  47.948      53.068      56.393      57.546      56.393      53.068      37.492      31.806      25.851      20.122    
  15.029      10.866      7.7772      5.7466      4.6018      4.0486      3.7448      3.5426      3.4421      3.4421    
  3.5426      3.7448      4.0486      4.6018      5.7466      7.7772      10.866      15.029      20.122      25.851    
  31.806      37.492      42.379      45.971      47.875      47.875      45.971      42.379      28.059      23.274    
  18.502      14.130      10.454      7.6494      5.7466      4.6313      4.0675      3.7540      3.5340      3.4040    
  3.3613      3.4040      3.5340      3.7540      4.0675      4.6313      5.7466      7.6494      10.454      14.130    
  18.502      23.274      28.059      32.418      35.920      38.191      38.978      38.191      35.920      32.418    
  20.089      16.322      12.762      9.6900      7.2869      5.6138      4.6018      4.0675      3.7574      3.5309    
  3.3840      3.3127      3.3127      3.3840      3.5309      3.7574      4.0675      4.6018      5.6138      7.2869    
  9.6900      12.762      16.322      20.089      23.721      26.859      29.169      30.395      30.395      29.169    
  26.859      23.721      13.830      11.099      8.6807      6.7478      5.3732      4.5199      4.0486      3.7540    
  3.5309      3.3779      3.2903      3.2620      3.2903      3.3779      3.5309      3.7540      4.0486      4.5199    
  5.3732      6.7478      8.6807      11.099      13.830      16.631      19.219      21.313      22.678      23.151    
  22.678      21.313      19.219      16.631      9.3387      7.5624      6.1153      5.0684      4.4033      4.0147    
  3.7448      3.5340      3.3840      3.2903      3.2458      3.2458      3.2903      3.3840      3.5340      3.7448    
  4.0147      4.4033      5.0684      6.1153      7.5624      9.3387      11.297      13.238      14.946      16.216    
  16.894      16.894      16.216      14.946      13.238      11.297      6.4746      5.4801      4.7506      4.2747    
  3.9711      3.7326      3.5426      3.4040      3.3127      3.2620      3.2458      3.2620      3.3127      3.4040    
  3.5426      3.7326      3.9711      4.2747      4.7506      5.4801      6.4746      7.6754      8.9676      10.202    
  11.224      11.899      12.134      11.899      11.224      10.202      8.9676      7.6754      4.9206      4.4640    
  4.1520      3.9205      3.7216      3.5611      3.4421      3.3613      3.3127      3.2903      3.2903      3.3127    
  3.3613      3.4421      3.5611      3.7216      3.9205      4.1520      4.4640      4.9206      5.5340      6.2641    
  7.0309      7.7330      8.2695      8.5600      8.5600      8.2695      7.7330      7.0309      6.2641      5.5340    
  4.2321      4.0392      3.8672      3.7165      3.5946      3.5039      3.4421      3.4040      3.3840      3.3779    
  3.3840      3.4040      3.4421      3.5039      3.5946      3.7165      3.8672      4.0392      4.2321      4.4838    
  4.8119      5.1964      5.5897      5.9315      6.1640      6.2464      6.1640      5.9315      5.5897      5.1964    
  4.8119      4.4838      3.9280      3.8170      3.7220      3.6475      3.5946      3.5611      3.5426      3.5340    
  3.5309      3.5309      3.5340      3.5426      3.5611      3.5946      3.6475      3.7220      3.8170      3.9280    
  4.0472      4.1722      4.3181      4.4830      4.6459      4.7778      4.8516      4.8516      4.7778      4.6459    
  4.4830      4.3181      4.1722      4.0472      3.7754      3.7412      3.7220      3.7165      3.7216      3.7326    
  3.7448      3.7540      3.7574      3.7540      3.7448      3.7326      3.7216      3.7165      3.7220      3.7412    
  3.7754      3.8228      3.8793      3.9394      3.9973      4.0521      4.1014      4.1366      4.1495      4.1366    
  4.1014      4.0521      3.9973      3.9394      3.8793      3.8228      3.7754      3.8170      3.8672      3.9205    
  3.9711      4.0147      4.0486      4.0675      4.0675      4.0486      4.0147      3.9711      3.9205      3.8672    
  3.8170      3.7754      3.7461      3.7309      3.7287      3.7367      3.7507      3.7660      3.7786      3.7857    
  3.7857      3.7786      3.7660      3.7507      3.7367      3.7287      3.7309      3.7461      3.9280      4.0392    
  4.1520      4.2747      4.4033      4.5199      4.6018      4.6313      4.6018      4.5199      4.4033      4.2747    
  4.1520      4.0392      3.9280      3.8228      3.7309      3.6572      3.6035      3.5683      3.5480      3.5381    
  3.5342      3.5333      3.5342      3.5381      3.5480      3.5683      3.6035      3.6572      3.7309      3.8228    
  4.2321      4.4640      4.7506      5.0684      5.3732      5.6138      5.7466      5.7466      5.6138      5.3732    
  5.0684      4.7506      4.4640      4.2321      4.0472      3.8793      3.7287      3.6035      3.5071      3.4388    
  3.3945      3.3691      3.3577      3.3577      3.3691      3.3945      3.4388      3.5071      3.6035      3.7287    
  3.8793      4.0472      4.9206      5.4801      6.1152      6.7478      7.2869      7.6494      7.7772      7.6494    
  7.2869      6.7478      6.1153      5.4801      4.9206      4.4838      4.1722      3.9394      3.7367      3.5683    
  3.4388      3.3471      3.2882      3.2561      3.2460      3.2561      3.2882      3.3471      3.4388      3.5683    
  3.7367      3.9394      4.1722      4.4838      6.4746      7.5624      8.6807      9.6900      10.454      10.866    
  10.866      10.454      9.6900      8.6807      7.5624      6.4746      5.5340      4.8119      4.3181      3.9973    
  3.7507      3.5480      3.3945      3.2882      3.2231      3.1926      3.1926      3.2231      3.2882      3.3945    
  3.5480      3.7507      3.9973      4.3181      4.8119      5.5340      9.3387      11.099      12.762      14.130    
  15.029      15.343      15.029      14.130      12.762      11.099      9.3387      7.6754      6.2641      5.1964    
  4.4830      4.0521      3.7660      3.5381      3.3691      3.2561      3.1926      3.1722      3.1926      3.2561    
  3.3691      3.5381      3.7660      4.0521      4.4830      5.1964      6.2641      7.6754      13.830      16.322    
  18.502      20.122      20.984      20.984      20.122      18.502      16.322      13.830      11.297      8.9676    
  7.0309      5.5897      4.6459      4.1014      3.7786      3.5342      3.3577      3.2460      3.1926      3.1926    
  3.2460      3.3577      3.5342      3.7786      4.1014      4.6459      5.5897      7.0309      8.9676      11.297    
  20.088      23.274      25.851      27.529      28.112      27.529      25.851      23.274      20.089      16.631    
  13.238      10.202      7.7330      5.9315      4.7778      4.1366      3.7857      3.5333      3.3577      3.2561    
  3.2231      3.2561      3.3577      3.5333      3.7857      4.1366      4.7778      5.9315      7.7330      10.202    
  13.238      16.631      28.059      31.806      34.569      36.035      36.035      34.569      31.806      28.059    
  23.721      19.219      14.946      11.224      8.2695      6.1640      4.8516      4.1495      3.7857      3.5342    
  3.3691      3.2882      3.2882      3.3691      3.5342      3.7857      4.1495      4.8516      6.1640      8.2695    
  11.224      14.946      19.219      23.721      37.492      41.576      44.229      45.150      44.229      41.576    
  37.492      32.418      26.859      21.313      16.216      11.899      8.5600      6.2464      4.8516      4.1366    
  3.7786      3.5381      3.3945      3.3471      3.3945      3.5381      3.7786      4.1366      4.8516      6.2464    
  8.5600      11.899      16.216      21.313      26.859      32.418      47.948      52.050      54.229      54.229    
  52.050      47.948      42.379      35.920      29.169      22.678      16.894      12.134      8.5600      6.1640    
  4.7778      4.1014      3.7660      3.5480      3.4388      3.4388      3.5480      3.7660      4.1014      4.7778    
  6.1640      8.5600      12.134      16.894      22.678      29.169      35.920      42.379      58.788      62.511    
  63.804      62.511      58.788      53.068      45.971      38.191      30.395      23.151      16.894      11.899    
  8.2695      5.9315      4.6459      4.0521      3.7507      3.5683      3.5071      3.5683      3.7507      4.0521    
  4.6459      5.9315      8.2695      11.899      16.894      23.151      30.395      38.191      45.971      53.068    
  69.191      72.085      72.085      69.191      63.753      56.393      47.875      38.978      30.395      22.678    
  16.216      11.224      7.7330      5.5897      4.4830      3.9973      3.7367      3.6035      3.6035      3.7367    
  3.9973      4.4830      5.5897      7.7330      11.224      16.216      22.678      30.395      38.978      47.875    
  56.393      63.753      78.209      79.832      78.209      73.542      66.391      57.546      47.875      38.191    
  29.169      21.313      14.946      10.202      7.0309      5.1964      4.3181      3.9394      3.7287      3.6572    
  3.7287      3.9394      4.3181      5.1964      7.0309      10.202      14.946      21.313      29.169      38.191    
  47.875      57.546      66.391      73.542      84.891      84.891      81.471      75.054      66.391      56.393    
  45.971      35.920      26.859      19.219      13.238      8.9676      6.2641      4.8119      4.1722      3.8793    
  3.7309      3.7309      3.8793      4.1722      4.8119      6.2641      8.9676      13.238      19.219      26.859    
  35.920      45.971      56.393      66.391      75.054      81.471      88.455      86.652      81.471      73.542    
  63.753      53.068      42.379      32.418      23.721      16.631      11.297      7.6754      5.5340      4.4838    
  4.0472      3.8228      3.7461      3.8228      4.0472      4.4838      5.5340      7.6754      11.297      16.631    
  23.721      32.418      42.379      53.068      63.753      73.542      81.471      86.652      83.166      78.209    
  70.616      61.231      50.974      40.703      31.126      22.768      15.965      10.866      7.4237      5.4057    
  4.4259      4.0137      3.7944      3.7197      3.7944      4.0137      4.4259      5.4057      7.4237      10.866    
  15.965      22.768      31.126      40.703      50.974      61.231      70.616      78.209      83.166      84.891    
  78.209      72.085      63.804      54.229      44.229      34.569      25.851      18.502      12.762      8.6807    
  6.1153      4.7506      4.1520      3.8672      3.7220      3.7220      3.8672      4.1520      4.7506      6.1152    
  8.6807      12.762      18.502      25.851      34.569      44.229      54.229      63.804      72.085      78.209    
  81.471      81.471      70.616      63.804      55.360      46.103      36.808      28.131      20.568      14.441    
  9.8901      6.8644      5.1294      4.3060      3.9431      3.7363      3.6663      3.7363      3.9431      4.3060    
  5.1294      6.8644      9.8901      14.441      20.568      28.131      36.808      46.103      55.360      63.804    
  70.616      75.054      76.596      75.054      61.231      54.229      46.103      37.586      29.344      21.918    
  15.696      10.897      7.5540      5.5172      4.4754      4.0155      3.7593      3.6286      3.6286      3.7593    
  4.0155      4.4754      5.5172      7.5540      10.897      15.696      21.918      29.344      37.586      46.103    
  54.229      61.231      66.391      69.133      69.133      66.391      50.974      44.229      36.808      29.344    
  22.387      16.367      11.563      8.0831      5.8549      4.6408      4.0812      3.7863      3.6072      3.5473    
  3.6072      3.7863      4.0812      4.6408      5.8549      8.0831      11.563      16.367      22.387      29.344    
  36.808      44.229      50.974      56.393      59.912      61.132      59.912      56.393      40.703      34.569    
  28.131      21.918      16.367      11.797      8.3704      6.0852      4.7740      4.1376      3.8121      3.5982    
  3.4913      3.4913      3.5982      3.8121      4.1376      4.7740      6.0852      8.3704      11.797      16.367    
  21.918      28.131      34.569      40.703      45.971      49.841      51.892      51.892      49.841      45.971    
  31.126      25.851      20.568      15.696      11.563      8.3704      6.1669      4.8484      4.1769      3.8322    
  3.5967      3.4565      3.4103      3.4565      3.5967      3.8322      4.1769      4.8484      6.1669      8.3704    
  11.563      15.696      20.568      25.851      31.126      35.920      39.765      42.256      43.119      42.256    
  39.765      35.920      22.768      18.502      14.441      10.897      8.0831      6.0852      4.8484      4.1910    
  3.8431      3.5979      3.4375      3.3591      3.3591      3.4375      3.5979      3.8431      4.1910      4.8484    
  6.0852      8.0831      10.897      14.441      18.502      22.768      26.859      30.381      32.968      34.338    
  34.338      32.968      30.381      26.859      15.965      12.762      9.8901      7.5540      5.8549      4.7740    
  4.1769      3.8431      3.5987      3.4294      3.3317      3.2999      3.3317      3.4294      3.5987      3.8431    
  4.1769      4.7740      5.8549      7.5540      9.8901      12.762      15.965      19.219      22.205      24.612    
  26.175      26.717      26.175      24.612      22.205      19.219      10.866      8.6807      6.8644      5.5172    
  4.6408      4.1376      3.8322      3.5979      3.4294      3.3231      3.2724      3.2724      3.3231      3.4294    
  3.5979      3.8322      4.1376      4.6408      5.5172      6.8644      8.6807      10.866      13.238      15.564    
  17.594      19.097      19.896      19.896      19.097      17.594      15.564      13.238      7.4237      6.1153    
  5.1294      4.4754      4.0812      3.8121      3.5967      3.4375      3.3317      3.2724      3.2534      3.2724    
  3.3317      3.4375      3.5967      3.8121      4.0812      4.4754      5.1294      6.1153      7.4237      8.9676    
  10.600      12.139      13.401      14.229      14.518      14.229      13.401      12.139      10.600      8.9676    
  5.4057      4.7506      4.3060      4.0155      3.7863      3.5982      3.4565      3.3591      3.2999      3.2724    
  3.2724      3.2999      3.3591      3.4565      3.5982      3.7863      4.0155      4.3060      4.7506      5.4057    
  6.2641      7.2597      8.2835      9.2067      9.9048      10.280      10.280      9.9048      9.2067      8.2835    
  7.2597      6.2641      4.4259      4.1520      3.9431      3.7593      3.6072      3.4913      3.4103      3.3591    
  3.3317      3.3231      3.3317      3.3591      3.4103      3.4914      3.6072      3.7593      3.9431      4.1520    