   1   1   1   0
  0.9552811E+01  0.2381673E-09  0.2381673E-09  0.2381673E-09  0.5000000E-15
  1.000000000000000E-004
  CAR 
 Co-fcc                                  
     55.29827373      0.15826156  301     12.22388942      1.00000000
      0.158  0.0000E+00  0.0000E+00  0.0000E+00  0.0000E+00
      0.342  0.0000E+00  0.0000E+00  0.0000E+00  0.0000E+00
      0.526  0.0000E+00  0.0000E+00  0.0000E+00  0.0000E+00
      0.710  0.0000E+00  0.0000E+00  0.0000E+00  0.0000E+00
      0.893  0.0000E+00  0.0000E+00  0.0000E+00  0.0000E+00
      1.077  0.0000E+00  0.0000E+00  0.0000E+00  0.0000E+00
      1.261  0.0000E+00  0.0000E+00  0.0000E+00  0.0000E+00
      1.445  0.0000E+00  0.0000E+00  0.0000E+00  0.0000E+00
      1.629  0.0000E+00  0.0000E+00  0.0000E+00  0.0000E+00
      1.812  0.0000E+00  0.0000E+00  0.0000E+00  0.0000E+00
      1.996  0.0000E+00  0.0000E+00  0.0000E+00  0.0000E+00
      2.180  0.0000E+00  0.0000E+00  0.0000E+00  0.0000E+00
      2.364  0.0000E+00  0.0000E+00  0.0000E+00  0.0000E+00
      2.548  0.9977E-07  0.2435E-09  0.1834E-07  0.4475E-10
      2.731  0.2062E-03  0.1449E-03  0.3792E-04  0.2663E-04
      2.915  0.6238E-05  0.6763E-04  0.3906E-04  0.3906E-04
      3.099  0.2254E-03  0.1909E-04  0.8049E-04  0.4257E-04
      3.283  0.4122E-03  0.6182E-03  0.1562E-03  0.1562E-03
      3.467  0.9792E-05  0.3318E-06  0.1580E-03  0.1563E-03
      3.650  0.6270E-03  0.5835E-03  0.2733E-03  0.2635E-03
      3.834  0.1036E-05  0.5407E-04  0.2735E-03  0.2734E-03
      4.018  0.8150E-03  0.3703E-03  0.4233E-03  0.3415E-03
      4.202  0.3487E-04  0.4798E-03  0.4297E-03  0.4297E-03
      4.386  0.1033E-02  0.1155E-03  0.6195E-03  0.4509E-03
      4.569  0.2422E-03  0.1160E-02  0.6641E-03  0.6640E-03
      4.753  0.5870E-03  0.4005E-04  0.7720E-03  0.6714E-03
      4.937  0.5063E-04  0.5975E-03  0.7813E-03  0.7812E-03
      5.121  0.1115E-02  0.2577E-04  0.9863E-03  0.7860E-03
      5.305  0.2869E-03  0.1248E-02  0.1039E-02  0.1015E-02
      5.488  0.1769E-02  0.2325E-03  0.1364E-02  0.1058E-02
      5.672  0.3598E-03  0.1681E-02  0.1430E-02  0.1367E-02
      5.856  0.5063E-03  0.2581E-03  0.1523E-02  0.1415E-02
      6.040  0.9873E-03  0.4458E-03  0.1705E-02  0.1496E-02
      6.224  0.2462E-02  0.6822E-03  0.2157E-02  0.1622E-02
      6.407  0.2550E-02  0.1556E-02  0.2626E-02  0.1908E-02
      6.591  0.4093E-02  0.1097E-02  0.3378E-02  0.2109E-02
      6.775  0.5891E-02  0.1685E-02  0.4461E-02  0.2419E-02
      6.959  0.5177E-02  0.4748E-03  0.5413E-02  0.2506E-02
      7.143  0.5847E-02  0.1954E-02  0.6487E-02  0.2865E-02
      7.326  0.8479E-02  0.2344E-02  0.8046E-02  0.3296E-02
      7.510  0.8098E-02  0.4614E-02  0.9534E-02  0.4144E-02
      7.694  0.8070E-02  0.2864E-02  0.1102E-01  0.4671E-02
      7.878  0.7251E-02  0.4154E-02  0.1235E-01  0.5434E-02
      8.062  0.7363E-02  0.5190E-02  0.1370E-01  0.6388E-02
      8.245  0.8273E-02  0.4948E-02  0.1522E-01  0.7297E-02
      8.429  0.4903E-02  0.4910E-02  0.1612E-01  0.8200E-02
      8.613  0.7782E-02  0.7397E-02  0.1756E-01  0.9560E-02
      8.797  0.7409E-02  0.5649E-02  0.1892E-01  0.1060E-01
      8.981  0.9737E-02  0.8791E-02  0.2071E-01  0.1221E-01
      9.164  0.9721E-02  0.3830E-02  0.2249E-01  0.1292E-01
      9.348  0.1133E-01  0.7160E-02  0.2458E-01  0.1423E-01
      9.532  0.1347E-01  0.6872E-02  0.2705E-01  0.1550E-01
      9.716  0.1235E-01  0.3945E-02  0.2932E-01  0.1622E-01
      9.900  0.1079E-01  0.7445E-02  0.3131E-01  0.1759E-01
     10.083  0.7954E-02  0.6821E-02  0.3277E-01  0.1884E-01
     10.267  0.7656E-02  0.9991E-02  0.3418E-01  0.2068E-01
     10.451  0.1018E-01  0.6835E-02  0.3605E-01  0.2194E-01
     10.635  0.1243E-01  0.9109E-02  0.3833E-01  0.2361E-01
     10.819  0.7716E-02  0.8044E-02  0.3975E-01  0.2509E-01
     11.002  0.1116E-01  0.1017E-01  0.4180E-01  0.2696E-01
     11.186  0.7197E-02  0.1234E-01  0.4312E-01  0.2923E-01
     11.370  0.9973E-02  0.8704E-02  0.4496E-01  0.3083E-01
     11.554  0.1002E-01  0.6937E-02  0.4680E-01  0.3210E-01
     11.738  0.1478E-01  0.6731E-02  0.4952E-01  0.3334E-01
     11.921  0.1112E-01  0.6584E-02  0.5156E-01  0.3455E-01
     12.105  0.6473E-02  0.6698E-02  0.5275E-01  0.3578E-01
     12.289  0.5577E-03  0.1019E-01  0.5285E-01  0.3765E-01
     12.473  0.2275E-04  0.8991E-02  0.5286E-01  0.3930E-01
     12.657  0.6856E-03  0.7799E-02  0.5298E-01  0.4074E-01
     12.840  0.3652E-02  0.1098E-01  0.5365E-01  0.4276E-01
     13.024  0.1729E-02  0.3339E-02  0.5397E-01  0.4337E-01
     13.208  0.2868E-03  0.1163E-01  0.5402E-01  0.4551E-01
     13.392  0.1240E-02  0.9177E-02  0.5425E-01  0.4719E-01
     13.576  0.7601E-03  0.1794E-01  0.5439E-01  0.5049E-01
     13.759  0.1914E-02  0.1038E-01  0.5474E-01  0.5240E-01
     13.943  0.1186E-02  0.2461E-02  0.5496E-01  0.5285E-01
     14.127  0.5175E-03  0.1033E-02  0.5506E-01  0.5304E-01
     14.311  0.1728E-02  0.2834E-02  0.5537E-01  0.5356E-01
     14.495  0.9426E-03  0.3161E-02  0.5555E-01  0.5414E-01
     14.678  0.6083E-03  0.1474E-02  0.5566E-01  0.5441E-01
     14.862  0.1477E-02  0.4242E-03  0.5593E-01  0.5449E-01
     15.046  0.1697E-02  0.1086E-02  0.5624E-01  0.5469E-01
     15.230  0.1195E-02  0.1539E-02  0.5646E-01  0.5497E-01
     15.414  0.2587E-02  0.1543E-02  0.5694E-01  0.5526E-01
     15.597  0.7242E-03  0.2315E-02  0.5707E-01  0.5568E-01
     15.781  0.9542E-10  0.1783E-02  0.5707E-01  0.5601E-01
     15.965  0.8417E-05  0.1174E-02  0.5707E-01  0.5623E-01
     16.149  0.1263E-02  0.7606E-03  0.5730E-01  0.5637E-01
     16.333  0.2735E-03  0.9586E-03  0.5735E-01  0.5654E-01
     16.516  0.3497E-02  0.2415E-02  0.5800E-01  0.5699E-01
     16.700  0.5923E-04  0.4517E-03  0.5801E-01  0.5707E-01
     16.884  0.1777E-02  0.3148E-04  0.5833E-01  0.5708E-01
     17.068  0.1354E-03  0.2514E-02  0.5836E-01  0.5754E-01
     17.252  0.1322E-03  0.5995E-03  0.5838E-01  0.5765E-01
     17.435  0.1346E-02  0.1948E-02  0.5863E-01  0.5801E-01
     17.619  0.1709E-02  0.5495E-04  0.5895E-01  0.5802E-01
     17.803  0.9018E-07  0.1740E-02  0.5895E-01  0.5834E-01
     17.987  0.7092E-03  0.7278E-03  0.5908E-01  0.5847E-01
     18.171  0.5660E-03  0.6112E-04  0.5918E-01  0.5848E-01
     18.354  0.4322E-06  0.2176E-02  0.5918E-01  0.5888E-01
     18.538  0.6277E-03  0.3556E-03  0.5930E-01  0.5895E-01
     18.722  0.1278E-02  0.1263E-02  0.5953E-01  0.5918E-01
     18.906  0.3791E-03  0.4282E-05  0.5960E-01  0.5918E-01
     19.090  0.9028E-03  0.1037E-06  0.5977E-01  0.5918E-01
     19.273  0.2104E-08  0.8052E-03  0.5977E-01  0.5933E-01
     19.457  0.2700E-16  0.1107E-02  0.5977E-01  0.5953E-01
     19.641  0.1323E-04  0.3544E-03  0.5977E-01  0.5960E-01
     19.825  0.2290E-02  0.9208E-03  0.6019E-01  0.5977E-01
     20.009  0.1523E-02  0.2572E-08  0.6047E-01  0.5977E-01
     20.192  0.1526E-02  0.6388E-09  0.6075E-01  0.5977E-01
     20.376  0.1218E-02  0.7915E-03  0.6097E-01  0.5991E-01
     20.560  0.1276E-02  0.4836E-03  0.6121E-01  0.6000E-01
     20.744  0.2549E-02  0.5496E-03  0.6168E-01  0.6010E-01
     20.928  0.9947E-04  0.2501E-02  0.6169E-01  0.6056E-01
     21.111  0.2457E-02  0.2143E-02  0.6215E-01  0.6095E-01
     21.295  0.1283E-02  0.1815E-02  0.6238E-01  0.6129E-01
     21.479  0.5589E-05  0.9142E-03  0.6238E-01  0.6146E-01
     21.663  0.1659E-02  0.2126E-02  0.6269E-01  0.6185E-01
     21.847  0.1965E-02  0.1503E-02  0.6305E-01  0.6212E-01
     22.030  0.8332E-03  0.1397E-02  0.6320E-01  0.6238E-01
     22.214  0.6343E-03  0.3447E-03  0.6332E-01  0.6244E-01
     22.398  0.1813E-02  0.2453E-02  0.6365E-01  0.6289E-01
     22.582  0.7460E-03  0.1044E-02  0.6379E-01  0.6309E-01
     22.766  0.4861E-04  0.5636E-03  0.6380E-01  0.6319E-01
     22.949  0.1864E-02  0.1863E-02  0.6414E-01  0.6353E-01
     23.133  0.6323E-03  0.9907E-03  0.6426E-01  0.6371E-01
     23.317  0.1558E-02  0.4093E-03  0.6454E-01  0.6379E-01
     23.501  0.9974E-03  0.1750E-02  0.6473E-01  0.6411E-01
     23.685  0.2287E-02  0.4050E-03  0.6515E-01  0.6419E-01
     23.868  0.9663E-03  0.1144E-02  0.6532E-01  0.6440E-01
     24.052  0.5856E-03  0.1799E-02  0.6543E-01  0.6473E-01
     24.236  0.2527E-02  0.1089E-03  0.6590E-01  0.6475E-01
     24.420  0.2818E-02  0.1462E-02  0.6641E-01  0.6501E-01
     24.604  0.1661E-02  0.2271E-02  0.6672E-01  0.6543E-01
     24.787  0.1279E-02  0.2318E-02  0.6695E-01  0.6586E-01
     24.971  0.1249E-02  0.6932E-03  0.6718E-01  0.6599E-01
     25.155  0.1463E-02  0.2984E-02  0.6745E-01  0.6653E-01
     25.339  0.1104E-02  0.2298E-02  0.6766E-01  0.6696E-01
     25.523  0.2106E-03  0.7299E-03  0.6770E-01  0.6709E-01
     25.706  0.2149E-02  0.2228E-02  0.6809E-01  0.6750E-01
     25.890  0.4584E-02  0.8481E-03  0.6893E-01  0.6766E-01
     26.074  0.2817E-03  0.2052E-03  0.6898E-01  0.6769E-01
     26.258  0.1696E-02  0.3510E-02  0.6930E-01  0.6834E-01
     26.442  0.1758E-02  0.2871E-02  0.6962E-01  0.6887E-01
     26.625  0.2954E-02  0.6493E-03  0.7016E-01  0.6899E-01
     26.809  0.2501E-02  0.2035E-02  0.7062E-01  0.6936E-01
     26.993  0.3326E-03  0.1620E-02  0.7068E-01  0.6966E-01
     27.177  0.2388E-02  0.3694E-02  0.7112E-01  0.7034E-01
     27.361  0.1123E-02  0.1567E-02  0.7133E-01  0.7062E-01
     27.544  0.3620E-03  0.1169E-02  0.7139E-01  0.7084E-01
     27.728  0.2787E-02  0.2655E-02  0.7191E-01  0.7133E-01
     27.912  0.2439E-02  0.3025E-03  0.7236E-01  0.7138E-01
     28.096  0.3006E-02  0.1528E-02  0.7291E-01  0.7166E-01
     28.280  0.1679E-02  0.2186E-02  0.7322E-01  0.7207E-01
     28.463  0.2256E-02  0.3393E-02  0.7363E-01  0.7269E-01
     28.647  0.1986E-02  0.3662E-02  0.7400E-01  0.7336E-01
     28.831  0.1170E-02  0.1066E-02  0.7421E-01  0.7356E-01
     29.015  0.2234E-02  0.1794E-02  0.7462E-01  0.7389E-01
     29.199  0.1268E-02  0.1667E-02  0.7485E-01  0.7420E-01
     29.382  0.1363E-02  0.2503E-02  0.7510E-01  0.7466E-01
     29.566  0.4308E-02  0.5162E-03  0.7590E-01  0.7475E-01
     29.750  0.1913E-02  0.1988E-02  0.7625E-01  0.7512E-01
     29.934  0.9583E-03  0.3661E-02  0.7642E-01  0.7579E-01
     30.118  0.2712E-02  0.2066E-02  0.7692E-01  0.7617E-01
     30.301  0.2070E-02  0.1140E-02  0.7730E-01  0.7638E-01
     30.485  0.7932E-03  0.3435E-02  0.7745E-01  0.7701E-01
     30.669  0.3021E-02  0.1537E-02  0.7800E-01  0.7729E-01
     30.853  0.3155E-02  0.5986E-03  0.7858E-01  0.7740E-01
     31.037  0.1952E-02  0.3494E-02  0.7894E-01  0.7804E-01
     31.220  0.1165E-02  0.3608E-02  0.7916E-01  0.7871E-01
     31.404  0.1391E-02  0.1298E-02  0.7941E-01  0.7895E-01
     31.588  0.1289E-02  0.1260E-02  0.7965E-01  0.7918E-01
     31.772  0.3157E-03  0.2350E-02  0.7971E-01  0.7961E-01
     31.956  0.3091E-02  0.2526E-03  0.8028E-01  0.7966E-01
     32.139  0.2165E-02  0.2028E-03  0.8067E-01  0.7969E-01
     32.323  0.1010E-02  0.3659E-02  0.8086E-01  0.8037E-01
     32.507  0.2272E-02  0.2686E-02  0.8128E-01  0.8086E-01
     32.691  0.1973E-02  0.5982E-03  0.8164E-01  0.8097E-01
     32.875  0.2331E-02  0.2418E-02  0.8207E-01  0.8141E-01
     33.058  0.1713E-02  0.1889E-02  0.8238E-01  0.8176E-01
     33.242  0.5892E-03  0.3141E-02  0.8249E-01  0.8234E-01
     33.426  0.1338E-02  0.7084E-03  0.8274E-01  0.8247E-01
     33.610  0.1554E-02  0.1454E-02  0.8302E-01  0.8274E-01
     33.794  0.2574E-02  0.1141E-02  0.8350E-01  0.8295E-01
     33.977  0.1592E-02  0.2279E-02  0.8379E-01  0.8336E-01
     34.161  0.1115E-02  0.9459E-03  0.8399E-01  0.8354E-01
     34.345  0.1440E-02  0.2310E-02  0.8426E-01  0.8396E-01
     34.529  0.1944E-02  0.2193E-02  0.8462E-01  0.8437E-01
     34.713  0.2473E-02  0.6914E-03  0.8507E-01  0.8449E-01
     34.896  0.1248E-02  0.2676E-02  0.8530E-01  0.8498E-01
     35.080  0.1751E-02  0.9695E-03  0.8562E-01  0.8516E-01
     35.264  0.2739E-02  0.2953E-02  0.8612E-01  0.8571E-01
     35.448  0.2139E-02  0.2942E-02  0.8652E-01  0.8625E-01
     35.632  0.6044E-03  0.8753E-03  0.8663E-01  0.8641E-01
     35.815  0.1530E-02  0.6671E-03  0.8691E-01  0.8653E-01
     35.999  0.1722E-02  0.1030E-02  0.8723E-01  0.8672E-01
     36.183  0.1619E-02  0.1668E-02  0.8752E-01  0.8703E-01
     36.367  0.3746E-02  0.2140E-02  0.8821E-01  0.8742E-01
     36.551  0.3489E-02  0.3659E-02  0.8885E-01  0.8809E-01
     36.734  0.5211E-03  0.2830E-02  0.8895E-01  0.8861E-01
     36.918  0.2756E-02  0.1910E-02  0.8946E-01  0.8896E-01
     37.102  0.2877E-02  0.2637E-02  0.8998E-01  0.8945E-01
     37.286  0.1701E-02  0.2464E-02  0.9030E-01  0.8990E-01
     37.470  0.2090E-02  0.1075E-02  0.9068E-01  0.9010E-01
     37.653  0.1860E-02  0.2522E-02  0.9102E-01  0.9056E-01
     37.837  0.2496E-02  0.2260E-02  0.9148E-01  0.9098E-01
     38.021  0.2805E-02  0.1714E-02  0.9200E-01  0.9129E-01
     38.205  0.1724E-02  0.4652E-02  0.9231E-01  0.9215E-01
     38.389  0.4003E-02  0.6447E-03  0.9305E-01  0.9227E-01
     38.572  0.2069E-02  0.3578E-02  0.9343E-01  0.9292E-01
     38.756  0.5798E-03  0.2704E-02  0.9354E-01  0.9342E-01
     38.940  0.2132E-02  0.1200E-03  0.9393E-01  0.9344E-01
     39.124  0.1692E-02  0.2462E-02  0.9424E-01  0.9389E-01
     39.308  0.3197E-02  0.1647E-02  0.9483E-01  0.9420E-01
     39.491  0.2139E-02  0.3512E-02  0.9522E-01  0.9484E-01
     39.675  0.3458E-02  0.1322E-02  0.9586E-01  0.9509E-01
     39.859  0.1382E-02  0.1927E-02  0.9611E-01  0.9544E-01
     40.043  0.2046E-02  0.2577E-02  0.9649E-01  0.9591E-01
     40.227  0.2356E-02  0.2518E-02  0.9692E-01  0.9638E-01
     40.410  0.4067E-02  0.2770E-02  0.9767E-01  0.9689E-01
     40.594  0.1959E-02  0.2871E-02  0.9803E-01  0.9741E-01
     40.778  0.2658E-02  0.3057E-02  0.9852E-01  0.9798E-01
     40.962  0.3227E-06  0.2079E-02  0.9852E-01  0.9836E-01
     41.146  0.6328E-03  0.8650E-03  0.9863E-01  0.9852E-01
     41.329  0.1318E-02  0.1337E-02  0.9887E-01  0.9876E-01
     41.513  0.7930E-03  0.5723E-03  0.9902E-01  0.9887E-01
     41.697  0.4034E-02  0.5179E-03  0.9976E-01  0.9896E-01
     41.881  0.1234E-02  0.2458E-02  0.9999E-01  0.9941E-01
     42.065  0.6381E-04  0.8212E-03  0.1000E+00  0.9957E-01
     42.248  0.9085E-05  0.1165E-02  0.1000E+00  0.9978E-01
     42.432  0.1636E-02  0.1202E-02  0.1003E+00  0.1000E+00
     42.616  0.4143E-02  0.7409E-03  0.1011E+00  0.1001E+00
     42.800  0.1630E-02  0.3813E-02  0.1014E+00  0.1008E+00
     42.984  0.2382E-03  0.2258E-02  0.1014E+00  0.1013E+00
     43.167  0.4194E-03  0.6842E-03  0.1015E+00  0.1014E+00
     43.351  0.2169E-02  0.5806E-03  0.1019E+00  0.1015E+00
     43.535  0.1127E-02  0.2390E-03  0.1021E+00  0.1015E+00
     43.719  0.2987E-02  0.1037E-02  0.1026E+00  0.1017E+00
     43.903  0.1153E-02  0.3007E-02  0.1029E+00  0.1023E+00
     44.086  0.2053E-02  0.1628E-02  0.1032E+00  0.1026E+00
     44.270  0.2884E-02  0.3009E-02  0.1038E+00  0.1031E+00
     44.454  0.4853E-02  0.1116E-02  0.1047E+00  0.1033E+00
     44.638  0.5926E-02  0.7711E-02  0.1057E+00  0.1047E+00
     44.822  0.3144E-02  0.3830E-02  0.1063E+00  0.1055E+00
     45.005  0.2702E-02  0.1398E-02  0.1068E+00  0.1057E+00
     45.189  0.1228E-03  0.2759E-02  0.1068E+00  0.1062E+00
     45.373  0.2250E-02  0.2106E-02  0.1073E+00  0.1066E+00
     45.557  0.1730E-02  0.1534E-02  0.1076E+00  0.1069E+00
     45.741  0.1821E-02  0.3432E-02  0.1079E+00  0.1075E+00
     45.924  0.2408E-02  0.9002E-03  0.1083E+00  0.1077E+00
     46.108  0.4455E-02  0.3021E-02  0.1092E+00  0.1082E+00
     46.292  0.3032E-02  0.3730E-02  0.1097E+00  0.1089E+00
     46.476  0.2393E-03  0.3170E-02  0.1098E+00  0.1095E+00
     46.660  0.1855E-03  0.7905E-03  0.1098E+00  0.1096E+00
     46.843  0.3180E-02  0.2020E-03  0.1104E+00  0.1097E+00
     47.027  0.2815E-02  0.2725E-02  0.1109E+00  0.1102E+00
     47.211  0.3929E-02  0.2953E-02  0.1116E+00  0.1107E+00
     47.395  0.9665E-03  0.7179E-03  0.1118E+00  0.1109E+00
     47.579  0.3121E-02  0.2790E-02  0.1124E+00  0.1114E+00
     47.762  0.1797E-02  0.4540E-02  0.1127E+00  0.1122E+00
     47.946  0.1633E-02  0.2081E-02  0.1130E+00  0.1126E+00
     48.130  0.4269E-02  0.1438E-03  0.1138E+00  0.1126E+00
     48.314  0.3664E-02  0.1864E-02  0.1145E+00  0.1130E+00
     48.498  0.2224E-02  0.6983E-03  0.1149E+00  0.1131E+00
     48.681  0.6562E-02  0.1866E-02  0.1161E+00  0.1134E+00
     48.865  0.6704E-02  0.1692E-02  0.1173E+00  0.1137E+00
     49.049  0.1990E-02  0.2866E-02  0.1177E+00  0.1143E+00
     49.233  0.4477E-02  0.1212E-02  0.1185E+00  0.1145E+00
     49.417  0.6034E-02  0.5099E-04  0.1196E+00  0.1145E+00
     49.600  0.8551E-03  0.6076E-03  0.1198E+00  0.1146E+00
     49.784  0.2501E-03  0.1502E-02  0.1198E+00  0.1149E+00
     49.968  0.3874E-03  0.2828E-02  0.1199E+00  0.1154E+00
     50.152  0.2684E-09  0.2649E-02  0.1199E+00  0.1159E+00
     50.336  0.0000E+00  0.1782E-02  0.1199E+00  0.1162E+00
     50.519  0.0000E+00  0.1470E-03  0.1199E+00  0.1163E+00
     50.703  0.0000E+00  0.6353E-03  0.1199E+00  0.1164E+00
     50.887  0.3554E-09  0.3091E-02  0.1199E+00  0.1169E+00
     51.071  0.4008E-03  0.1008E-02  0.1200E+00  0.1171E+00
     51.255  0.2367E-03  0.2915E-02  0.1200E+00  0.1177E+00
     51.438  0.1038E-10  0.7724E-06  0.1200E+00  0.1177E+00
     51.622  0.0000E+00  0.1579E-02  0.1200E+00  0.1179E+00
     51.806  0.0000E+00  0.1035E-02  0.1200E+00  0.1181E+00
     51.990  0.0000E+00  0.2487E-02  0.1200E+00  0.1186E+00
     52.174  0.0000E+00  0.1175E-02  0.1200E+00  0.1188E+00
     52.357  0.0000E+00  0.1002E-03  0.1200E+00  0.1188E+00
     52.541  0.0000E+00  0.5999E-04  0.1200E+00  0.1188E+00
     52.725  0.0000E+00  0.3218E-02  0.1200E+00  0.1194E+00
     52.909  0.0000E+00  0.3098E-02  0.1200E+00  0.1200E+00
     53.093  0.0000E+00  0.3339E-06  0.1200E+00  0.1200E+00
     53.276  0.0000E+00  0.0000E+00  0.1200E+00  0.1200E+00
     53.460  0.0000E+00  0.0000E+00  0.1200E+00  0.1200E+00
     53.644  0.0000E+00  0.0000E+00  0.1200E+00  0.1200E+00
     53.828  0.0000E+00  0.0000E+00  0.1200E+00  0.1200E+00
     54.012  0.0000E+00  0.0000E+00  0.1200E+00  0.1200E+00
     54.195  0.0000E+00  0.0000E+00  0.1200E+00  0.1200E+00
     54.379  0.0000E+00  0.0000E+00  0.1200E+00  0.1200E+00
     54.563  0.0000E+00  0.0000E+00  0.1200E+00  0.1200E+00
     54.747  0.0000E+00  0.0000E+00  0.1200E+00  0.1200E+00
     54.931  0.0000E+00  0.0000E+00  0.1200E+00  0.1200E+00
     55.114  0.0000E+00  0.0000E+00  0.1200E+00  0.1200E+00
     55.298  0.0000E+00  0.0000E+00  0.1200E+00  0.1200E+00
     55.29827373      0.15826156  301     12.22388942      1.00000000
      0.158  0.0000E+00  0.0000E+00  0.0000E+00  0.0000E+00  0.0000E+00  0.0000E+00  0.0000E+00  0.0000E+00  0.0000E+00  0.0000E+00  0.0000E+00  0.0000E+00  0.0000E+00  0.0000E+00  0.0000E+00  0.0000E+00  0.0000E+00  0.0000E+00
      0.342  0.0000E+00  0.0000E+00  0.0000E+00  0.0000E+00  0.0000E+00  0.0000E+00  0.0000E+00  0.0000E+00  0.0000E+00  0.0000E+00  0.0000E+00  0.0000E+00  0.0000E+00  0.0000E+00  0.0000E+00  0.0000E+00  0.0000E+00  0.0000E+00
      0.526  0.0000E+00  0.0000E+00  0.0000E+00  0.0000E+00  0.0000E+00  0.0000E+00  0.0000E+00  0.0000E+00  0.0000E+00  0.0000E+00  0.0000E+00  0.0000E+00  0.0000E+00  0.0000E+00  0.0000E+00  0.0000E+00  0.0000E+00  0.0000E+00
      0.710  0.0000E+00  0.0000E+00  0.0000E+00  0.0000E+00  0.0000E+00  0.0000E+00  0.0000E+00  0.0000E+00  0.0000E+00  0.0000E+00  0.0000E+00  0.0000E+00  0.0000E+00  0.0000E+00  0.0000E+00  0.0000E+00  0.0000E+00  0.0000E+00
      0.893  0.0000E+00  0.0000E+00  0.0000E+00  0.0000E+00  0.0000E+00  0.0000E+00  0.0000E+00  0.0000E+00  0.0000E+00  0.0000E+00  0.0000E+00  0.0000E+00  0.0000E+00  0.0000E+00  0.0000E+00  0.0000E+00  0.0000E+00  0.0000E+00
      1.077  0.0000E+00  0.0000E+00  0.0000E+00  0.0000E+00  0.0000E+00  0.0000E+00  0.0000E+00  0.0000E+00  0.0000E+00  0.0000E+00  0.0000E+00  0.0000E+00  0.0000E+00  0.0000E+00  0.0000E+00  0.0000E+00  0.0000E+00  0.0000E+00
      1.261  0.0000E+00  0.0000E+00  0.0000E+00  0.0000E+00  0.0000E+00  0.0000E+00  0.0000E+00  0.0000E+00  0.0000E+00  0.0000E+00  0.0000E+00  0.0000E+00  0.0000E+00  0.0000E+00  0.0000E+00  0.0000E+00  0.0000E+00  0.0000E+00
      1.445  0.0000E+00  0.0000E+00  0.0000E+00  0.0000E+00  0.0000E+00  0.0000E+00  0.0000E+00  0.0000E+00  0.0000E+00  0.0000E+00  0.0000E+00  0.0000E+00  0.0000E+00  0.0000E+00  0.0000E+00  0.0000E+00  0.0000E+00  0.0000E+00
      1.629  0.0000E+00  0.0000E+00  0.0000E+00  0.0000E+00  0.0000E+00  0.0000E+00  0.0000E+00  0.0000E+00  0.0000E+00  0.0000E+00  0.0000E+00  0.0000E+00  0.0000E+00  0.0000E+00  0.0000E+00  0.0000E+00  0.0000E+00  0.0000E+00
      1.812  0.0000E+00  0.0000E+00  0.0000E+00  0.0000E+00  0.0000E+00  0.0000E+00  0.0000E+00  0.0000E+00  0.0000E+00  0.0000E+00  0.0000E+00  0.0000E+00  0.0000E+00  0.0000E+00  0.0000E+00  0.0000E+00  0.0000E+00  0.0000E+00
      1.996  0.0000E+00  0.0000E+00  0.0000E+00  0.0000E+00  0.0000E+00  0.0000E+00  0.0000E+00  0.0000E+00  0.0000E+00  0.0000E+00  0.0000E+00  0.0000E+00  0.0000E+00  0.0000E+00  0.0000E+00  0.0000E+00  0.0000E+00  0.0000E+00
      2.180  0.0000E+00  0.0000E+00  0.0000E+00  0.0000E+00  0.0000E+00  0.0000E+00  0.0000E+00  0.0000E+00  0.0000E+00  0.0000E+00  0.0000E+00  0.0000E+00  0.0000E+00  0.0000E+00  0.0000E+00  0.0000E+00  0.0000E+00  0.0000E+00
      2.364  0.0000E+00  0.0000E+00  0.0000E+00  0.0000E+00  0.0000E+00  0.0000E+00  0.0000E+00  0.0000E+00  0.0000E+00  0.0000E+00  0.0000E+00  0.0000E+00  0.0000E+00  0.0000E+00  0.0000E+00  0.0000E+00  0.0000E+00  0.0000E+00
      2.548  0.8261E-05  0.2024E-07  0.4427E-07  0.1087E-09  0.4427E-07  0.1087E-09  0.4427E-07  0.1087E-09  0.6813E-09  0.1298E-11  0.6813E-09  0.1298E-11  0.5304E-23  0.1249E-24  0.6813E-09  0.1298E-11  0.5304E-23  0.1249E-24
      2.731  0.1707E-01  0.1205E-01  0.9149E-04  0.6469E-04  0.9149E-04  0.6469E-04  0.9149E-04  0.6469E-04  0.1408E-05  0.7724E-06  0.1408E-05  0.7724E-06  0.1096E-19  0.7434E-19  0.1408E-05  0.7724E-06  0.1096E-19  0.7434E-19
      2.915  0.5165E-03  0.5622E-02  0.2768E-05  0.3019E-04  0.2768E-05  0.3019E-04  0.2768E-05  0.3019E-04  0.4260E-07  0.3605E-06  0.4260E-07  0.3605E-06  0.4715E-12  0.2144E-16  0.4260E-07  0.3605E-06  0.4715E-12  0.2144E-16
      3.099  0.1786E-01  0.1519E-02  0.3559E-03  0.3037E-04  0.3559E-03  0.3037E-04  0.3559E-03  0.3037E-04  0.1009E-04  0.6552E-06  0.1009E-04  0.6552E-06  0.1343E-04  0.8916E-06  0.1009E-04  0.6552E-06  0.1343E-04  0.8916E-06
      3.283  0.3267E-01  0.4919E-01  0.6510E-03  0.9838E-03  0.6510E-03  0.9838E-03  0.6510E-03  0.9838E-03  0.1846E-04  0.2122E-04  0.1846E-04  0.2122E-04  0.2457E-04  0.2888E-04  0.1846E-04  0.2122E-04  0.2457E-04  0.2888E-04
      3.467  0.7415E-03  0.2626E-04  0.2550E-04  0.5717E-06  0.2550E-04  0.5717E-06  0.2550E-04  0.5717E-06  0.2428E-05  0.1770E-07  0.2428E-05  0.1770E-07  0.5368E-06  0.1536E-07  0.2428E-05  0.1770E-07  0.5368E-06  0.1536E-07
      3.650  0.4748E-01  0.4439E-01  0.1633E-02  0.1539E-02  0.1633E-02  0.1539E-02  0.1633E-02  0.1539E-02  0.1555E-03  0.1085E-03  0.1555E-03  0.1085E-03  0.3437E-04  0.2527E-04  0.1555E-03  0.1085E-03  0.3437E-04  0.2527E-04
      3.834  0.7738E-04  0.4114E-02  0.2952E-05  0.1427E-03  0.2952E-05  0.1427E-03  0.2952E-05  0.1427E-03  0.3107E-06  0.1005E-04  0.3107E-06  0.1005E-04  0.1312E-06  0.2342E-05  0.3107E-06  0.1005E-04  0.1312E-06  0.2342E-05
      4.018  0.5861E-01  0.2683E-01  0.2918E-02  0.1347E-02  0.2918E-02  0.1347E-02  0.2918E-02  0.1347E-02  0.2323E-03  0.8175E-04  0.2323E-03  0.8175E-04  0.3991E-03  0.1285E-03  0.2323E-03  0.8175E-04  0.3991E-03  0.1285E-03
      4.202  0.2506E-02  0.3474E-01  0.1256E-03  0.1749E-02  0.1256E-03  0.1749E-02  0.1256E-03  0.1749E-02  0.7502E-05  0.9196E-04  0.7502E-05  0.9196E-04  0.1962E-04  0.1816E-03  0.7502E-05  0.9196E-04  0.1962E-04  0.1816E-03
      4.386  0.7061E-01  0.7967E-02  0.4584E-02  0.5244E-03  0.4584E-02  0.5244E-03  0.4584E-02  0.5244E-03  0.7106E-03  0.5760E-04  0.7106E-03  0.5760E-04  0.4972E-03  0.4130E-04  0.7106E-03  0.5760E-04  0.4972E-03  0.4130E-04
      4.569  0.1656E-01  0.8001E-01  0.1075E-02  0.5266E-02  0.1075E-02  0.5266E-02  0.1075E-02  0.5266E-02  0.1667E-03  0.5784E-03  0.1667E-03  0.5784E-03  0.1166E-03  0.4148E-03  0.1667E-03  0.5784E-03  0.1166E-03  0.4148E-03
      4.753  0.3782E-01  0.2626E-02  0.2841E-02  0.2045E-03  0.2841E-02  0.2045E-03  0.2841E-02  0.2045E-03  0.1120E-02  0.5179E-04  0.1120E-02  0.5179E-04  0.1646E-03  0.8328E-05  0.1120E-02  0.5179E-04  0.1646E-03  0.8328E-05
      4.937  0.3261E-02  0.3918E-01  0.2452E-03  0.3051E-02  0.2452E-03  0.3051E-02  0.2452E-03  0.3051E-02  0.9640E-04  0.7736E-03  0.9640E-04  0.7736E-03  0.1459E-04  0.1241E-03  0.9640E-04  0.7736E-03  0.1459E-04  0.1241E-03
      5.121  0.6700E-01  0.1579E-02  0.6514E-02  0.1575E-03  0.6514E-02  0.1575E-03  0.6514E-02  0.1575E-03  0.1144E-02  0.1212E-04  0.1144E-02  0.1212E-04  0.2463E-02  0.5047E-04  0.1144E-02  0.1212E-04  0.2463E-02  0.5047E-04
      5.305  0.1681E-01  0.7683E-01  0.1610E-02  0.7612E-02  0.1610E-02  0.7612E-02  0.1610E-02  0.7612E-02  0.8443E-03  0.9701E-03  0.8443E-03  0.9701E-03  0.2123E-03  0.1772E-02  0.8443E-03  0.9701E-03  0.2123E-03  0.1772E-02
      5.488  0.9907E-01  0.1358E-01  0.1077E-01  0.1428E-02  0.1077E-01  0.1428E-02  0.1077E-01  0.1428E-02  0.4082E-02  0.6149E-03  0.4082E-02  0.6149E-03  0.3931E-02  0.1196E-03  0.4082E-02  0.6149E-03  0.3931E-02  0.1196E-03
      5.672  0.1865E-01  0.9758E-01  0.2202E-02  0.1103E-01  0.2202E-02  0.1103E-01  0.2202E-02  0.1103E-01  0.1381E-02  0.2540E-02  0.1381E-02  0.2540E-02  0.8274E-03  0.2613E-02  0.1381E-02  0.2540E-02  0.8274E-03  0.2613E-02
      5.856  0.2504E-01  0.1407E-01  0.2717E-02  0.1768E-02  0.2717E-02  0.1768E-02  0.2717E-02  0.1768E-02  0.3209E-02  0.6487E-03  0.3209E-02  0.6487E-03  0.6781E-03  0.4121E-03  0.3209E-02  0.6487E-03  0.6781E-03  0.4121E-03
      6.040  0.4638E-01  0.2408E-01  0.6789E-02  0.2973E-02  0.6789E-02  0.2973E-02  0.6789E-02  0.2973E-02  0.3648E-02  0.1383E-02  0.3648E-02  0.1383E-02  0.3835E-02  0.6063E-03  0.3648E-02  0.1383E-02  0.3835E-02  0.6063E-03
      6.224  0.1040E+00  0.3499E-01  0.1375E-01  0.5001E-02  0.1375E-01  0.5001E-02  0.1375E-01  0.5001E-02  0.1746E-01  0.2417E-02  0.1746E-01  0.2417E-02  0.9347E-02  0.7761E-03  0.1746E-01  0.2417E-02  0.9347E-02  0.7761E-03
      6.407  0.6578E-01  0.7547E-01  0.8965E-02  0.1148E-01  0.8965E-02  0.1148E-01  0.8965E-02  0.1148E-01  0.1581E-01  0.4650E-02  0.1581E-01  0.4650E-02  0.4401E-01  0.5073E-02  0.1581E-01  0.4650E-02  0.4401E-01  0.5073E-02
      6.591  0.8141E-01  0.5128E-01  0.1017E-01  0.7514E-02  0.1017E-01  0.7514E-02  0.1017E-01  0.7514E-02  0.3636E-01  0.5042E-02  0.3636E-01  0.5042E-02  0.7530E-01  0.3140E-02  0.3636E-01  0.5042E-02  0.7530E-01  0.3140E-02
      6.775  0.1010E+00  0.6939E-01  0.1440E-01  0.1168E-01  0.1440E-01  0.1168E-01  0.1440E-01  0.1168E-01  0.6071E-01  0.7437E-02  0.6071E-01  0.7437E-02  0.1059E+00  0.9906E-02  0.6071E-01  0.7437E-02  0.1059E+00  0.9906E-02
      6.959  0.1015E+00  0.1890E-01  0.1951E-01  0.3270E-02  0.1951E-01  0.3270E-02  0.1951E-01  0.3270E-02  0.4305E-01  0.2531E-02  0.4305E-01  0.2531E-02  0.8940E-01  0.2585E-02  0.4305E-01  0.2531E-02  0.8940E-01  0.2585E-02
      7.143  0.5921E-01  0.7271E-01  0.1059E-01  0.1250E-01  0.1059E-01  0.1250E-01  0.1059E-01  0.1250E-01  0.9438E-01  0.1814E-01  0.9438E-01  0.1814E-01  0.8551E-01  0.4392E-02  0.9438E-01  0.1814E-01  0.8551E-01  0.4392E-02
      7.326  0.5625E-01  0.7389E-01  0.1637E-01  0.1443E-01  0.1637E-01  0.1443E-01  0.1637E-01  0.1443E-01  0.1209E+00  0.1565E-01  0.1209E+00  0.1565E-01  0.1603E+00  0.2145E-01  0.1209E+00  0.1565E-01  0.1603E+00  0.2145E-01
      7.510  0.5869E-01  0.1064E+00  0.1892E-01  0.1712E-01  0.1892E-01  0.1712E-01  0.1892E-01  0.1712E-01  0.1611E+00  0.4043E-01  0.1611E+00  0.4043E-01  0.8122E-01  0.6806E-01  0.1611E+00  0.4043E-01  0.8122E-01  0.6806E-01
      7.694  0.1413E-01  0.5159E-01  0.1558E-01  0.7751E-02  0.1558E-01  0.7751E-02  0.1558E-01  0.7751E-02  0.1461E+00  0.2783E-01  0.1461E+00  0.2783E-01  0.1304E+00  0.5081E-01  0.1461E+00  0.2783E-01  0.1304E+00  0.5081E-01
      7.878  0.2509E-01  0.6945E-01  0.2066E-01  0.1306E-01  0.2066E-01  0.1306E-01  0.2066E-01  0.1306E-01  0.1544E+00  0.3784E-01  0.1544E+00  0.3784E-01  0.6732E-01  0.7715E-01  0.1544E+00  0.3784E-01  0.6732E-01  0.7715E-01
      8.062  0.8753E-02  0.9008E-01  0.2064E-01  0.2353E-01  0.2064E-01  0.2353E-01  0.2064E-01  0.2353E-01  0.1447E+00  0.5427E-01  0.1447E+00  0.5427E-01  0.9499E-01  0.7335E-01  0.1447E+00  0.5427E-01  0.9499E-01  0.7335E-01
      8.245  0.5809E-02  0.5432E-01  0.2294E-01  0.1614E-01  0.2294E-01  0.1614E-01  0.2294E-01  0.1614E-01  0.1676E+00  0.4469E-01  0.1676E+00  0.4469E-01  0.1029E+00  0.1065E+00  0.1676E+00  0.4469E-01  0.1029E+00  0.1065E+00
      8.429  0.7338E-03  0.3242E-01  0.9253E-02  0.1057E-01  0.9253E-02  0.1057E-01  0.9253E-02  0.1057E-01  0.7865E-01  0.7249E-01  0.7865E-01  0.7249E-01  0.9915E-01  0.8680E-01  0.7865E-01  0.7249E-01  0.9915E-01  0.8680E-01
      8.613  0.8204E-02  0.4645E-01  0.2135E-01  0.2235E-01  0.2135E-01  0.2235E-01  0.2135E-01  0.2235E-01  0.1527E+00  0.1418E+00  0.1527E+00  0.1418E+00  0.1032E+00  0.7652E-01  0.1527E+00  0.1418E+00  0.1032E+00  0.7652E-01
      8.797  0.7505E-02  0.1405E-01  0.1381E-01  0.1561E-01  0.1381E-01  0.1561E-01  0.1381E-01  0.1561E-01  0.1599E+00  0.8826E-01  0.1599E+00  0.8826E-01  0.9000E-01  0.9966E-01  0.1599E+00  0.8826E-01  0.9000E-01  0.9966E-01
      8.981  0.9338E-02  0.1975E-01  0.2959E-01  0.2876E-01  0.2959E-01  0.2876E-01  0.2959E-01  0.2876E-01  0.2144E+00  0.2013E+00  0.2144E+00  0.2013E+00  0.9391E-01  0.6052E-01  0.2144E+00  0.2013E+00  0.9391E-01  0.6052E-01
      9.164  0.1922E-01  0.3030E-02  0.2211E-01  0.1451E-01  0.2211E-01  0.1451E-01  0.2211E-01  0.1451E-01  0.1993E+00  0.7105E-01  0.1993E+00  0.7105E-01  0.1246E+00  0.4925E-01  0.1993E+00  0.7105E-01  0.1246E+00  0.4925E-01
      9.348  0.1583E-01  0.5534E-02  0.2754E-01  0.1978E-01  0.2754E-01  0.1978E-01  0.2754E-01  0.1978E-01  0.2165E+00  0.1537E+00  0.2165E+00  0.1537E+00  0.1709E+00  0.7501E-01  0.2165E+00  0.1537E+00  0.1709E+00  0.7501E-01