    1    1  100    2
  0.9552811E+01  0.2381673E-09  0.2381673E-09  0.2381673E-09  0.5000000E-15
  1.000000000000000E-004
  CAR 
 Co-fcc                                  
      9     60     12
 
  0.6250000E-01  0.6250000E-01  0.6250000E-01  0.3906250E-02
      1          2.664626        2.714748   1.000000   1.000000
      2          9.285964       10.811264   1.000000   1.000000
      3          9.385832       10.928504   1.000000   1.000000
      4          9.385832       10.928504   1.000000   1.000000
      5         10.664008       12.524053   1.000000   0.000000
      6         10.664008       12.524053   1.000000   0.000000
      7         36.141351       35.953950   0.000000   0.000000
      8         39.860812       39.991287   0.000000   0.000000
      9         41.522715       41.713287   0.000000   0.000000
     10         41.522715       41.713287   0.000000   0.000000
     11         45.968717       46.280880   0.000000   0.000000
     12         45.969035       46.287538   0.000000   0.000000
 
  0.1875000E+00  0.6250000E-01  0.6250000E-01  0.1171875E-01
      1          3.543056        3.601905   1.000000   1.000000
      2          9.021607       10.482391   1.000000   1.000000
      3          9.578795       11.138614   1.000000   1.000000
      4          9.583380       11.147431   1.000000   1.000000
      5         10.469021       12.293816   1.000000   0.023975
      6         10.769345       12.617529   1.000000   0.000000
      7         33.772507       33.988733   0.000000   0.000000
      8         36.469655       36.548878   0.000000   0.000000
      9         40.214502       40.343431   0.000000   0.000000
     10         42.611777       42.808002   0.000000   0.000000
     11         44.432894       44.498121   0.000000   0.000000
     12         46.030332       46.321154   0.000000   0.000000
 
  0.3125000E+00  0.6250000E-01  0.6250000E-01  0.1171875E-01
      1          5.334835        5.507395   1.000000   1.000000
      2          8.888323       10.124849   1.000000   1.000000
      3          9.514954       11.109965   1.000000   1.000000
      4          9.607289       11.231921   1.000000   1.000000
      5         10.716692       12.488672   1.000000   0.000000
      6         11.248919       13.048687   1.000000   0.000000
      7         27.542020       28.038408   0.000000   0.000000
      8         35.249973       35.301473   0.000000   0.000000
      9         39.188751       39.365853   0.000000   0.000000
     10         42.471985       42.796000   0.000000   0.000000
     11         43.677563       43.999512   0.000000   0.000000
     12         44.428736       44.545496   0.000000   0.000000
 
  0.4375000E+00  0.6250000E-01  0.6250000E-01  0.1171875E-01
      1          6.422309        7.129538   1.000000   1.000000
      2          9.235011       10.705410   1.000000   1.000000
      3          9.358322       10.898455   1.000000   1.000000
      4         10.125054       10.981579   1.000000   1.000000
      5         11.392019       13.200893   1.000000   0.000000
      6         12.145229       13.773895   0.986955   0.000000
      7         21.947654       22.723521   0.000000   0.000000
      8         34.518191       34.458886   0.000000   0.000000
      9         38.045480       38.296444   0.000000   0.000000
     10         40.274327       40.625216   0.000000   0.000000
     11         42.731187       43.059211   0.000000   0.000000
     12         44.309126       44.562379   0.000000   0.000000
 
 -0.4375000E+00  0.6250000E-01  0.6250000E-01  0.1171875E-01
      1          6.519388        7.417358   1.000000   1.000000
      2          9.117910       10.675785   1.000000   1.000000
      3          9.293557       10.908581   1.000000   1.000000
      4         10.806456       11.519866   1.000000   1.000000
      5         11.739764       13.587421   1.000000   0.000000
      6         12.888138       14.081084   0.000000   0.000000
      7         19.741232       20.735237   0.000000   0.000000
      8         34.439702       34.299546   0.000000   0.000000
      9         38.239975       38.588217   0.000000   0.000000
     10         38.401623       38.719611   0.000000   0.000000
     11         43.570926       43.850439   0.000000   0.000000
     12         43.614782       43.921640   0.000000   0.000000
 
 -0.3125000E+00  0.6250000E-01  0.6250000E-01  0.1171875E-01
      1          6.231770        6.744417   1.000000   1.000000
      2          9.278137       10.347108   1.000000   1.000000
      3          9.466569       10.912833   1.000000   1.000000
      4          9.527296       11.085673   1.000000   1.000000
      5         11.488629       13.200640   1.000000   0.000000
      6         11.532070       13.326332   1.000000   0.000000
      7         23.637261       24.305204   0.000000   0.000000
      8         35.210471       35.077250   0.000000   0.000000
      9         37.672532       38.050519   0.000000   0.000000
     10         40.352406       40.716369   0.000000   0.000000
     11         43.298115       43.546747   0.000000   0.000000
     12         45.367634       45.611338   0.000000   0.000000
 
 -0.1875000E+00  0.6250000E-01  0.6250000E-01  0.1171875E-01
      1          4.703399        4.807444   1.000000   1.000000
      2          8.827519       10.174017   1.000000   1.000000
      3          9.592237       11.194591   1.000000   1.000000
      4          9.663836       11.261546   1.000000   1.000000
      5         10.632659       12.388646   1.000000   0.000002
      6         10.956824       12.793099   1.000000   0.000000
      7         29.634157       30.052478   0.000000   0.000000
      8         36.448686       36.354714   0.000000   0.000000
      9         38.227834       38.603863   0.000000   0.000000
     10         42.708894       42.824514   0.000000   0.000000
     11         43.288770       43.628489   0.000000   0.000000
     12         47.556029       47.699671   0.000000   0.000000
 
 -0.6250000E-01  0.6250000E-01  0.6250000E-01  0.1171875E-01
      1          3.112354        3.165592   1.000000   1.000000
      2          9.108497       10.602423   1.000000   1.000000
      3          9.518760       11.069805   1.000000   1.000000
      4          9.524180       11.076186   1.000000   1.000000
      5         10.494855       12.325300   1.000000   0.002063
      6         10.744715       12.610494   1.000000   0.000000
      7         35.382667       35.389312   0.000000   0.000000
      8         38.064354       38.123185   0.000000   0.000000
      9         39.590276       39.896393   0.000000   0.000000
     10         41.243688       41.371056   0.000000   0.000000
     11         45.833386       46.069110   0.000000   0.000000
     12         47.518319       47.678427   0.000000   0.000000
 
  0.1875000E+00  0.1875000E+00  0.6250000E-01  0.1171875E-01
      1          3.958791        4.025718   1.000000   1.000000
      2          8.767723       10.208535   1.000000   1.000000
      3          9.757479       11.336820   1.000000   1.000000
      4          9.793738       11.366014   1.000000   1.000000
      5         10.263115       12.016180   1.000000   1.000000
      6         10.895227       12.771203   1.000000   0.000000
      7         34.113555       34.337203   0.000000   0.000000
      8         36.467206       36.494270   0.000000   0.000000
      9         37.219080       37.578518   0.000000   0.000000
     10         39.181757       39.318538   0.000000   0.000000
     11         46.216736       47.001636   0.000000   0.000000
     12         48.067751       48.373852   0.000000   0.000000
 
  0.3125000E+00  0.1875000E+00  0.6250000E-01  0.2343750E-01
      1          5.409503        5.553460   1.000000   1.000000
      2          8.400160        9.755079   1.000000   1.000000
      3          9.498343       11.094752   1.000000   1.000000
      4         10.111716       11.735107   1.000000   1.000000
      5         10.582120       12.248774   1.000000   0.240763
      6         11.347868       13.166392   1.000000   0.000000
      7         30.210560       30.612942   0.000000   0.000000
      8         32.891957       33.172696   0.000000   0.000000
      9         36.808731       37.009174   0.000000   0.000000
     10         38.985202       39.171044   0.000000   0.000000
     11         44.937283       45.594188   0.000000   0.000000
     12         47.721806       47.884638   0.000000   0.000000
 
  0.4375000E+00  0.1875000E+00  0.6250000E-01  0.2343750E-01
      1          6.790479        7.363215   1.000000   1.000000
      2          8.551976        9.688018   1.000000   1.000000
      3          9.127542       10.592875   1.000000   1.000000
      4          9.924377       11.574541   1.000000   1.000000
      5         11.442554       13.210481   1.000000   0.000000
      6         12.716971       14.202307   0.000000   0.000000
      7         24.142802       24.753843   0.000000   0.000000
      8         32.151380       32.402966   0.000000   0.000000
      9         34.508367       34.828203   0.000000   0.000000
     10         38.763520       39.013329   0.000000   0.000000
     11         45.797616       45.983209   0.000000   0.000000
     12         48.225902       48.918525   0.000000   0.000000
 
 -0.4375000E+00  0.1875000E+00  0.6250000E-01  0.2343750E-01
      1          7.062585        8.026187   1.000000   1.000000
      2          8.588259        9.888189   1.000000   1.000000
      3          9.639510       10.776467   1.000000   1.000000
      4          9.735604       11.377743   1.000000   1.000000
      5         11.692130       13.521646   1.000000   0.000000
      6         14.988538       15.936382   0.000000   0.000000
      7         19.896829       20.809594   0.000000   0.000000
      8         31.470847       31.715272   0.000000   0.000000
      9         33.878504       34.254230   0.000000   0.000000
     10         38.406881       38.573179   0.000000   0.000000
     11         44.952067       45.230891   0.000000   0.000000
     12         48.629219       48.881361   0.000000   0.000000
 
 -0.3125000E+00  0.1875000E+00  0.6250000E-01  0.2343750E-01
      1          7.023780        7.777484   1.000000   1.000000
      2          8.768250        9.980083   1.000000   1.000000
      3          9.202428       10.470904   1.000000   1.000000
      4          9.788290       11.440545   1.000000   1.000000
      5         11.295478       13.063154   1.000000   0.000000
      6         13.663669       15.009165   0.000000   0.000000
      7         22.405359       23.116763   0.000000   0.000000
      8         30.749157       31.067916   0.000000   0.000000
      9         35.364075       35.631384   0.000000   0.000000
     10         39.608837       39.792374   0.000000   0.000000
     11         44.253485       44.509291   0.000000   0.000000
     12         48.052874       48.257028   0.000000   0.000000
 
 -0.1875000E+00  0.1875000E+00  0.6250000E-01  0.2343750E-01
      1          6.029535        6.230805   1.000000   1.000000
      2          8.493842        9.801988   1.000000   1.000000
      3          9.280378       10.841956   1.000000   1.000000
      4         10.035402       11.702453   1.000000   1.000000
      5         10.495134       12.190709   1.000000   0.826001
      6         11.942402       13.672604   1.000000   0.000000
      7         28.127997       28.605202   0.000000   0.000000
      8         30.954364       31.293832   0.000000   0.000000
      9         37.910928       38.084676   0.000000   0.000000
     10         41.590938       41.720323   0.000000   0.000000
     11         43.637501       43.815783   0.000000   0.000000
     12         47.121061       47.503124   0.000000   0.000000
 
 -0.6250000E-01  0.1875000E+00  0.6250000E-01  0.2343750E-01
      1          4.354615        4.432944   1.000000   1.000000
      2          8.765308       10.176709   1.000000   1.000000
      3          9.634274       11.218386   1.000000   1.000000
      4          9.797586       11.384355   1.000000   1.000000
      5         10.357398       12.120971   1.000000   0.998199
      6         10.997371       12.837642   1.000000   0.000000
      7         31.954804       32.289830   0.000000   0.000000
      8         34.648138       34.834189   0.000000   0.000000
      9         39.262134       39.399383   0.000000   0.000000
     10         41.146125       41.245370   0.000000   0.000000
     11         45.286641       45.512118   0.000000   0.000000
     12         46.847014       47.140132   0.000000   0.000000
 
  0.3125000E+00  0.3125000E+00  0.6250000E-01  0.1171875E-01
      1          6.064398        6.398054   1.000000   1.000000
      2          7.890969        9.209092   1.000000   1.000000
      3          9.902772       11.294858   1.000000   1.000000
      4         10.630131       12.289114   1.000000   0.032530
      5         11.032697       12.601902   1.000000   0.000000
      6         11.322227       13.217610   1.000000   0.000000
      7         30.788228       31.139253   0.000000   0.000000
      8         32.520031       32.813044   0.000000   0.000000
      9         32.687867       33.029953   0.000000   0.000000
     10         35.589618       35.877148   0.000000   0.000000
     11         41.382553       41.994797   0.000000   0.000000
     12         49.194647       52.620448   0.000000   0.000000
 
  0.4375000E+00  0.3125000E+00  0.6250000E-01  0.2343750E-01
      1          6.764120        7.515274   1.000000   1.000000
      2          7.645444        8.903054   1.000000   1.000000
      3          9.821675       11.070575   1.000000   1.000000
      4         10.934927       12.659373   1.000000   0.000000
      5         11.502631       13.282554   1.000000   0.000000
      6         12.997493       14.333923   0.000000   0.000000
      7         27.183356       27.618918   0.000000   0.000000
      8         29.197416       29.612709   0.000000   0.000000
      9         30.478468       30.860772   0.000000   0.000000
     10         36.956063       37.238698   0.000000   0.000000
     11         42.335124       42.831815   0.000000   0.000000
     12         49.116655       51.848037   0.000000   0.000000
 
 -0.4375000E+00  0.3125000E+00  0.6250000E-01  0.2343750E-01
      1          7.271493        8.382001   1.000000   1.000000
      2          7.816049        8.971443   1.000000   1.000000
      3          9.446580       10.666334   1.000000   1.000000
      4         10.593992       12.342845   1.000000   0.000383
      5         11.767514       13.581952   1.000000   0.000000
      6         16.456958       17.345968   0.000000   0.000000
      7         21.811367       22.429032   0.000000   0.000000
      8         27.017217       27.545715   0.000000   0.000000
      9         30.600661       30.961706   0.000000   0.000000
     10         37.465066       37.717403   0.000000   0.000000
     11         47.090161       47.587539   0.000000   0.000000
     12         48.785890       50.242280   0.000000   0.000000
 
 -0.3125000E+00  0.3125000E+00  0.6250000E-01  0.2343750E-01
      1          7.859452        8.886610   1.000000   1.000000
      2          8.021061        9.236998   1.000000   1.000000
      3          8.893290       10.110682   1.000000   1.000000
      4         10.353418       12.109260   1.000000   0.999407
      5         11.374920       13.116720   1.000000   0.000000
      6         16.826808       17.757297   0.000000   0.000000
      7         21.647360       22.314635   0.000000   0.000000
      8         25.656373       26.208961   0.000000   0.000000
      9         32.447009       32.811518   0.000000   0.000000
     10         38.342251       38.539523   0.000000   0.000000
     11         47.467453       47.598413   0.000000   0.000000
     12         48.742222       52.123661   0.000000   0.000000
 
 -0.1875000E+00  0.3125000E+00  0.6250000E-01  0.2343750E-01
      1          7.396720        7.961687   1.000000   1.000000
      2          8.516655        9.716377   1.000000   1.000000
      3          8.700819       10.159097   1.000000   1.000000
      4         10.136468       11.849265   1.000000   1.000000
      5         10.916590       12.617915   1.000000   0.000000
      6         13.810800       15.215701   0.000000   0.000000
      7         24.687676       25.280732   0.000000   0.000000
      8         27.840295       28.280013   0.000000   0.000000
      9         35.119245       35.403069   0.000000   0.000000
     10         40.224177       40.416635   0.000000   0.000000
     11         44.544187       44.654445   0.000000   0.000000
     12         48.622718       49.814815   0.000000   0.000000
 
 -0.6250000E-01  0.3125000E+00  0.6250000E-01  0.2343750E-01
      1          6.102958        6.422294   1.000000   1.000000
      2          8.837949        9.974411   1.000000   1.000000
      3          9.303403       10.890161   1.000000   1.000000
      4          9.688098       11.321741   1.000000   1.000000
      5         10.994131       12.724525   1.000000   0.000000
      6         11.779708       13.515444   1.000000   0.000000
      7         25.714789       26.279154   0.000000   0.000000
      8         33.698993       33.870698   0.000000   0.000000
      9         37.500605       37.681394   0.000000   0.000000
     10         40.652914       40.957475   0.000000   0.000000
     11         44.308311       44.535703   0.000000   0.000000
     12         45.996698       46.204721   0.000000   0.000000
 
  0.4375000E+00  0.4375000E+00  0.6250000E-01  0.1171875E-01
      1          6.443578        7.434315   1.000000   1.000000
      2          7.201469        8.435029   1.000000   1.000000
      3         11.324743       12.654317   1.000000   0.000000
      4         11.417157       13.268204   1.000000   0.000000
      5         11.796937       13.636835   1.000000   0.000000
      6         13.615762       14.424676   0.000000   0.000000
      7         25.875404       26.523173   0.000000   0.000000
      8         28.327427       28.634789   0.000000   0.000000
      9         29.528798       29.776422   0.000000   0.000000
     10         34.773061       35.186153   0.000000   0.000000
     11         39.715118       40.221993   0.000000   0.000000
     12         49.296334       52.791910   0.000000   0.000000
 
 -0.4375000E+00  0.4375000E+00  0.6250000E-01  0.2343750E-01
      1          6.591701        7.698015   1.000000   1.000000
      2          7.236003        8.446890   1.000000   1.000000
      3         10.812827       12.132155   1.000000   0.995265
      4         11.355061       13.244051   1.000000   0.000000
      5         11.962333       13.757976   1.000000   0.000000
      6         16.375997       16.960156   0.000000   0.000000
      7         23.647462       24.450124   0.000000   0.000000
      8         25.787512       26.171638   0.000000   0.000000
      9         28.359574       28.649034   0.000000   0.000000
     10         36.325380       36.667828   0.000000   0.000000
     11         41.616907       42.100397   0.000000   0.000000
     12         49.287372       52.749297   0.000000   0.000000
 
 -0.3125000E+00  0.4375000E+00  0.6250000E-01  0.2343750E-01
      1          7.193207        8.382677   1.000000   1.000000
      2          7.707614        8.854475   1.000000   1.000000
      3          9.648597       10.871913   1.000000   1.000000
      4         10.816649       12.629471   1.000000   0.000000
      5         11.748593       13.526307   1.000000   0.000000
      6         18.631667       19.308817   0.000000   0.000000
      7         21.032405       21.643554   0.000000   0.000000
      8         24.508768       25.182976   0.000000   0.000000
      9         30.066605       30.419920   0.000000   0.000000
     10         37.306105       37.575485   0.000000   0.000000
     11         47.048962       47.735244   0.000000   0.000000
     12         49.431047       51.139863   0.000000   0.000000
 
 -0.1875000E+00  0.4375000E+00  0.6250000E-01  0.2343750E-01
      1          7.490064        8.518695   1.000000   1.000000
      2          8.220508        9.437801   1.000000   1.000000
      3          9.252509       10.450587   1.000000   1.000000
      4         10.055675       11.755722   1.000000   1.000000
      5         11.567165       13.363359   1.000000   0.000000
      6         16.377811       17.254962   0.000000   0.000000
      7         20.114614       20.953645   0.000000   0.000000
      8         28.479328       28.905095   0.000000   0.000000
      9         32.851029       33.208095   0.000000   0.000000
     10         38.326197       38.501186   0.000000   0.000000
     11         46.259486       46.486663   0.000000   0.000000
     12         48.810486       51.085126   0.000000   0.000000
 
 -0.6250000E-01  0.4375000E+00  0.6250000E-01  0.2343750E-01
      1          6.697004        7.555306   1.000000   1.000000
      2          8.974536       10.402804   1.000000   1.000000
      3          9.463697       10.954195   1.000000   1.000000
      4         10.029585       11.103750   1.000000   1.000000
      5         11.622804       13.443288   1.000000   0.000000
      6         13.325784       14.565094   0.000000   0.000000
      7         20.665446       21.533216   0.000000   0.000000
      8         33.371492       33.438388   0.000000   0.000000
      9         36.209069       36.534042   0.000000   0.000000
     10         38.843678       39.085760   0.000000   0.000000
     11         43.873167       44.178733   0.000000   0.000000
     12         46.053366       46.271930   0.000000   0.000000
 
 -0.4375000E+00 -0.4375000E+00  0.6250000E-01  0.1171875E-01
      1          6.343996        7.426156   1.000000   1.000000
      2          7.046163        8.261872   1.000000   1.000000
      3         11.568139       13.201941   1.000000   0.000000
      4         11.679605       13.501045   1.000000   0.000000
      5         11.977871       13.779192   1.000000   0.000000
      6         15.199299       15.578338   0.000000   0.000000
      7         23.622320       24.472198   0.000000   0.000000
      8         27.648356       27.914528   0.000000   0.000000
      9         28.814958       29.027740   0.000000   0.000000
     10         34.653029       35.093821   0.000000   0.000000
     11         39.515451       40.018529   0.000000   0.000000
     12         49.264700       52.769664   0.000000   0.000000
 
 -0.3125000E+00 -0.4375000E+00  0.6250000E-01  0.2343750E-01
      1          6.704835        7.723155   1.000000   1.000000
      2          7.377328        8.604186   1.000000   1.000000
      3         10.411492       11.660509   1.000000   1.000000
      4         11.254259       13.067162   1.000000   0.000000
      5         11.781725       13.585941   1.000000   0.000000
      6         14.704800       15.623305   0.000000   0.000000
      7         25.720632       26.252428   0.000000   0.000000
      8         26.670281       27.160544   0.000000   0.000000
      9         29.009168       29.327161   0.000000   0.000000
     10         36.522509       36.843421   0.000000   0.000000
     11         41.822729       42.304154   0.000000   0.000000
     12         49.267351       52.625584   0.000000   0.000000
 
 -0.1875000E+00 -0.4375000E+00  0.6250000E-01  0.2343750E-01
      1          7.195793        8.077697   1.000000   1.000000
      2          8.121942        9.294580   1.000000   1.000000
      3          9.207981       10.498360   1.000000   1.000000
      4         10.256782       11.944974   1.000000   1.000000
      5         11.697410       13.520926   1.000000   0.000000
      6         14.333522       15.489122   0.000000   0.000000
      7         22.831647       23.459334   0.000000   0.000000
      8         30.064176       30.424384   0.000000   0.000000
      9         31.825639       32.213192   0.000000   0.000000
     10         37.875482       38.109614   0.000000   0.000000
     11         46.833392       47.038769   0.000000   0.000000
     12         48.194149       49.677401   0.000000   0.000000
 
 -0.3125000E+00 -0.3125000E+00  0.6250000E-01  0.1171875E-01
      1          6.479389        7.205774   1.000000   1.000000
      2          7.494818        8.763246   1.000000   1.000000
      3         10.616803       11.760925   1.000000   1.000000
      4         11.082980       12.821295   1.000000   0.000000
      5         11.557061       13.365079   1.000000   0.000000
      6         12.007444       13.442764   1.000000   0.000000
      7         28.781134       29.201832   0.000000   0.000000
      8         29.753911       30.144524   0.000000   0.000000
      9         30.865196       31.162977   0.000000   0.000000
     10         35.045915       35.404974   0.000000   0.000000
     11         40.248883       40.783910   0.000000   0.000000
     12         49.264558       52.742685   0.000000   0.000000
 
 -0.1875000E+00 -0.3125000E+00  0.6250000E-01  0.2343750E-01
      1          6.370744        6.725910   1.000000   1.000000
      2          8.005126        9.306080   1.000000   1.000000
      3          9.428738       10.887871   1.000000   1.000000
      4         10.507364       12.172313   1.000000   0.927691
      5         11.082994       12.758790   1.000000   0.000000
      6         11.898932       13.590914   1.000000   0.000000
      7         28.605255       29.039048   0.000000   0.000000
      8         31.174484       31.507379   0.000000   0.000000
      9         33.477468       33.804056   0.000000   0.000000
     10         37.717442       37.954515   0.000000   0.000000
     11         43.328464       43.878730   0.000000   0.000000
     12         48.904227       50.072377   0.000000   0.000000
 
 -0.1875000E+00 -0.1875000E+00  0.6250000E-01  0.1171875E-01
      1          5.062972        5.187158   1.000000   1.000000
      2          8.337466        9.715752   1.000000   1.000000
      3          9.774633       11.388510   1.000000   1.000000
      4         10.175652       11.782107   1.000000   1.000000
      5         10.435279       12.048438   1.000000   1.000000
      6         11.095746       12.983516   1.000000   0.000000
      7         32.511284       32.839679   0.000000   0.000000
      8         34.854863       35.089942   0.000000   0.000000
      9         34.984158       35.221202   0.000000   0.000000
     10         36.900676       37.115096   0.000000   0.000000
     11         43.419523       44.153709   0.000000   0.000000
     12         49.192890       50.624635   0.000000   0.000000
 
  0.1875000E+00  0.1875000E+00  0.1875000E+00  0.3906250E-02
      1          3.947852        4.018086   1.000000   1.000000
      2          8.987316       10.398999   1.000000   1.000000
      3          9.589210       11.167220   1.000000   1.000000
      4          9.589210       11.167220   1.000000   1.000000
      5         10.659529       12.485686   1.000000   0.000000
      6         10.659529       12.485686   1.000000   0.000000
      7         31.652327       31.988009   0.000000   0.000000
      8         37.371848       37.201615   0.000000   0.000000
      9         40.649628       40.978023   0.000000   0.000000
     10         40.649628       40.978023   0.000000   0.000000
     11         46.059232       46.044262   0.000000   0.000000
     12         46.620077       46.795627   0.000000   0.000000
 
  0.3125000E+00  0.1875000E+00  0.1875000E+00  0.1171875E-01
      1          5.091041        5.203244   1.000000   1.000000
      2          8.686939       10.048683   1.000000   1.000000
      3          9.522678       11.093554   1.000000   1.000000
      4          9.874248       11.498037   1.000000   1.000000
      5         10.300647       12.058832   1.000000   0.999998
      6         11.376029       13.169460   1.000000   0.000000
      7         29.934928       30.349239   0.000000   0.000000
      8         32.697921       32.969439   0.000000   0.000000
      9         40.534618       40.571941   0.000000   0.000000
     10         42.577866       42.597596   0.000000   0.000000
     11         42.998008       43.214780   0.000000   0.000000
     12         45.576535       45.966044   0.000000   0.000000
 
  0.4375000E+00  0.1875000E+00  0.1875000E+00  0.1171875E-01
      1          6.762053        7.096788   1.000000   1.000000
      2          8.557474        9.804821   1.000000   1.000000
      3          9.064092       10.569124   1.000000   1.000000
      4          9.953796       11.668649   1.000000   1.000000
      5         10.590199       12.277412   1.000000   0.065033
      6         12.727328       14.345249   0.000000   0.000000
      7         26.289475       26.834704   0.000000   0.000000
      8         29.252660       29.646740   0.000000   0.000000
      9         38.517036       38.572013   0.000000   0.000000
     10         39.609218       39.979658   0.000000   0.000000
     11         44.601645       44.599756   0.000000   0.000000
     12         46.998091       47.279398   0.000000   0.000000
 
 -0.4375000E+00  0.1875000E+00  0.1875000E+00  0.1171875E-01
      1          7.245515        8.154320   1.000000   1.000000
      2          8.577996        9.864907   1.000000   1.000000
      3          9.365406       10.503222   1.000000   1.000000
      4          9.809593       11.488659   1.000000   1.000000
      5         11.372022       13.154441   1.000000   0.000000
      6         14.883930       15.991855   0.000000   0.000000
      7         21.021931       21.819072   0.000000   0.000000
      8         29.474781       29.850529   0.000000   0.000000
      9         36.298664       36.675548   0.000000   0.000000
     10         36.844932       36.951897   0.000000   0.000000