   2   2   1   0
  0.1063253E+02  0.2478352E-09  0.2478352E-09  0.3997699E-09  0.5000000E-15
  1.000000000000000E-004
  CAR 
 Co-hcc                                  
     51.55265989     -0.86632324  301     10.51091953      1.00000000
     -0.866  0.0000E+00  0.0000E+00  0.0000E+00  0.0000E+00
     -0.692  0.0000E+00  0.0000E+00  0.0000E+00  0.0000E+00
     -0.517  0.0000E+00  0.0000E+00  0.0000E+00  0.0000E+00
     -0.342  0.0000E+00  0.0000E+00  0.0000E+00  0.0000E+00
     -0.167  0.0000E+00  0.0000E+00  0.0000E+00  0.0000E+00
      0.007  0.0000E+00  0.0000E+00  0.0000E+00  0.0000E+00
      0.182  0.0000E+00  0.0000E+00  0.0000E+00  0.0000E+00
      0.357  0.0000E+00  0.0000E+00  0.0000E+00  0.0000E+00
      0.532  0.0000E+00  0.0000E+00  0.0000E+00  0.0000E+00
      0.706  0.0000E+00  0.0000E+00  0.0000E+00  0.0000E+00
      0.881  0.0000E+00  0.0000E+00  0.0000E+00  0.0000E+00
      1.056  0.0000E+00  0.0000E+00  0.0000E+00  0.0000E+00
      1.230  0.1379E-19  0.1655E-19  0.2409E-20  0.2891E-20
      1.405  0.3902E-07  0.4126E-07  0.6819E-08  0.7209E-08
      1.580  0.4806E-04  0.4813E-04  0.8405E-05  0.8416E-05
      1.755  0.2193E-03  0.2180E-03  0.4671E-04  0.4650E-04
      1.929  0.5293E-03  0.5221E-03  0.1392E-03  0.1377E-03
      2.104  0.2571E-03  0.2638E-03  0.1841E-03  0.1838E-03
      2.279  0.3401E-03  0.3323E-03  0.2436E-03  0.2419E-03
      2.454  0.1272E-02  0.1242E-02  0.4657E-03  0.4589E-03
      2.628  0.5895E-03  0.5591E-03  0.5687E-03  0.5566E-03
      2.803  0.3560E-03  0.3840E-03  0.6309E-03  0.6237E-03
      2.978  0.6179E-03  0.6523E-03  0.7389E-03  0.7377E-03
      3.152  0.1448E-02  0.1189E-02  0.9919E-03  0.9453E-03
      3.327  0.1405E-02  0.1409E-02  0.1237E-02  0.1192E-02
      3.502  0.2357E-03  0.3970E-03  0.1279E-02  0.1261E-02
      3.677  0.1714E-02  0.1013E-02  0.1578E-02  0.1438E-02
      3.851  0.1545E-02  0.2263E-02  0.1848E-02  0.1833E-02
      4.026  0.7283E-03  0.1181E-03  0.1975E-02  0.1854E-02
      4.201  0.7597E-03  0.1218E-02  0.2108E-02  0.2067E-02
      4.376  0.2869E-02  0.1304E-02  0.2609E-02  0.2295E-02
      4.550  0.1870E-02  0.2830E-02  0.2936E-02  0.2789E-02
      4.725  0.2735E-02  0.1499E-02  0.3414E-02  0.3051E-02
      4.900  0.1405E-02  0.1794E-02  0.3659E-02  0.3364E-02
      5.074  0.2999E-02  0.1077E-02  0.4183E-02  0.3553E-02
      5.249  0.2881E-02  0.1884E-02  0.4687E-02  0.3882E-02
      5.424  0.1043E-01  0.2197E-02  0.6510E-02  0.4266E-02
      5.599  0.9723E-02  0.2746E-02  0.8209E-02  0.4746E-02
      5.773  0.1108E-01  0.3220E-02  0.1014E-01  0.5308E-02
      5.948  0.1483E-01  0.3377E-02  0.1274E-01  0.5898E-02
      6.123  0.1812E-01  0.4319E-02  0.1590E-01  0.6653E-02
      6.298  0.1687E-01  0.4505E-02  0.1885E-01  0.7440E-02
      6.472  0.1451E-01  0.6579E-02  0.2138E-01  0.8590E-02
      6.647  0.1713E-01  0.1012E-01  0.2438E-01  0.1036E-01
      6.822  0.1574E-01  0.8141E-02  0.2713E-01  0.1178E-01
      6.997  0.2029E-01  0.8484E-02  0.3067E-01  0.1326E-01
      7.171  0.2191E-01  0.9847E-02  0.3450E-01  0.1498E-01
      7.346  0.1729E-01  0.1567E-01  0.3752E-01  0.1772E-01
      7.521  0.9738E-02  0.1314E-01  0.3922E-01  0.2002E-01
      7.695  0.2516E-01  0.1192E-01  0.4362E-01  0.2210E-01
      7.870  0.2938E-01  0.1254E-01  0.4876E-01  0.2429E-01
      8.045  0.2516E-01  0.1359E-01  0.5315E-01  0.2667E-01
      8.220  0.3020E-01  0.1817E-01  0.5843E-01  0.2984E-01
      8.394  0.3210E-01  0.1999E-01  0.6404E-01  0.3333E-01
      8.569  0.2449E-01  0.1798E-01  0.6832E-01  0.3648E-01
      8.744  0.1894E-01  0.8292E-02  0.7163E-01  0.3792E-01
      8.919  0.1885E-01  0.8010E-02  0.7492E-01  0.3932E-01
      9.093  0.1959E-01  0.1660E-01  0.7834E-01  0.4222E-01
      9.268  0.1349E-01  0.2244E-01  0.8070E-01  0.4615E-01
      9.443  0.2096E-01  0.2251E-01  0.8436E-01  0.5008E-01
      9.617  0.2435E-01  0.2463E-01  0.8862E-01  0.5438E-01
      9.792  0.3462E-01  0.2741E-01  0.9467E-01  0.5917E-01
      9.967  0.4682E-01  0.2927E-01  0.1028E+00  0.6429E-01
     10.142  0.9253E-02  0.2141E-01  0.1045E+00  0.6803E-01
     10.316  0.1522E-02  0.1545E-01  0.1047E+00  0.7073E-01
     10.491  0.6992E-02  0.1729E-01  0.1060E+00  0.7375E-01
     10.666  0.4708E-02  0.1099E-01  0.1068E+00  0.7567E-01
     10.841  0.2449E-02  0.1837E-01  0.1072E+00  0.7888E-01
     11.015  0.1084E-02  0.1008E-01  0.1074E+00  0.8064E-01
     11.190  0.1128E-02  0.1432E-01  0.1076E+00  0.8314E-01
     11.365  0.1267E-02  0.2349E-01  0.1078E+00  0.8725E-01
     11.540  0.3329E-02  0.2351E-01  0.1084E+00  0.9136E-01
     11.714  0.6486E-02  0.3478E-01  0.1095E+00  0.9743E-01
     11.889  0.4053E-02  0.3808E-01  0.1102E+00  0.1041E+00
     12.064  0.2264E-02  0.1013E-01  0.1106E+00  0.1059E+00
     12.238  0.1672E-02  0.5419E-02  0.1109E+00  0.1068E+00
     12.413  0.1498E-02  0.3745E-02  0.1112E+00  0.1075E+00
     12.588  0.2370E-02  0.3326E-02  0.1116E+00  0.1080E+00
     12.763  0.2202E-02  0.3841E-02  0.1120E+00  0.1087E+00
     12.937  0.2102E-02  0.3109E-02  0.1124E+00  0.1093E+00
     13.112  0.2991E-02  0.4561E-02  0.1129E+00  0.1100E+00
     13.287  0.1116E-02  0.4714E-02  0.1131E+00  0.1109E+00
     13.462  0.4405E-02  0.1703E-02  0.1138E+00  0.1112E+00
     13.636  0.1040E-02  0.4053E-02  0.1140E+00  0.1119E+00
     13.811  0.1253E-02  0.1681E-02  0.1142E+00  0.1122E+00
     13.986  0.2698E-02  0.1280E-02  0.1147E+00  0.1124E+00
     14.160  0.3562E-02  0.4707E-02  0.1153E+00  0.1132E+00
     14.335  0.3141E-02  0.9446E-03  0.1159E+00  0.1134E+00
     14.510  0.1567E-02  0.3272E-02  0.1162E+00  0.1140E+00
     14.685  0.2270E-02  0.1516E-02  0.1166E+00  0.1142E+00
     14.859  0.2642E-02  0.3604E-02  0.1170E+00  0.1148E+00
     15.034  0.4505E-03  0.3957E-02  0.1171E+00  0.1155E+00
     15.209  0.1493E-02  0.2390E-02  0.1174E+00  0.1160E+00
     15.384  0.1335E-02  0.7796E-03  0.1176E+00  0.1161E+00
     15.558  0.1181E-02  0.2675E-02  0.1178E+00  0.1166E+00
     15.733  0.8507E-03  0.2887E-02  0.1179E+00  0.1171E+00
     15.908  0.1945E-02  0.1580E-02  0.1183E+00  0.1173E+00
     16.082  0.4819E-02  0.1192E-02  0.1191E+00  0.1176E+00
     16.257  0.1876E-02  0.1499E-02  0.1195E+00  0.1178E+00
     16.432  0.1110E-02  0.5284E-03  0.1196E+00  0.1179E+00
     16.607  0.1488E-03  0.2203E-02  0.1197E+00  0.1183E+00
     16.781  0.1300E-05  0.4751E-02  0.1197E+00  0.1191E+00
     16.956  0.2051E-03  0.2042E-02  0.1197E+00  0.1195E+00
     17.131  0.9916E-03  0.8371E-03  0.1199E+00  0.1196E+00
     17.306  0.1310E-02  0.2644E-03  0.1201E+00  0.1197E+00
     17.480  0.4369E-03  0.3973E-09  0.1202E+00  0.1197E+00
     17.655  0.8385E-03  0.1983E-03  0.1203E+00  0.1197E+00
     17.830  0.4833E-03  0.1404E-02  0.1204E+00  0.1200E+00
     18.005  0.1460E-02  0.8660E-04  0.1207E+00  0.1200E+00
     18.179  0.2351E-02  0.4445E-03  0.1211E+00  0.1200E+00
     18.354  0.7278E-02  0.1345E-02  0.1224E+00  0.1203E+00
     18.529  0.5277E-02  0.1040E-02  0.1233E+00  0.1205E+00
     18.703  0.2360E-02  0.9525E-03  0.1237E+00  0.1206E+00
     18.878  0.3682E-02  0.2179E-02  0.1243E+00  0.1210E+00
     19.053  0.3171E-02  0.5440E-02  0.1249E+00  0.1220E+00
     19.228  0.3789E-02  0.5140E-02  0.1255E+00  0.1229E+00
     19.402  0.2658E-02  0.4085E-02  0.1260E+00  0.1236E+00
     19.577  0.3824E-02  0.4494E-02  0.1267E+00  0.1244E+00
     19.752  0.1638E-02  0.3660E-02  0.1270E+00  0.1250E+00
     19.927  0.4111E-02  0.4242E-02  0.1277E+00  0.1257E+00
     20.101  0.1832E-02  0.2835E-02  0.1280E+00  0.1262E+00
     20.276  0.3078E-02  0.2932E-02  0.1285E+00  0.1267E+00
     20.451  0.3303E-02  0.2524E-02  0.1291E+00  0.1272E+00
     20.625  0.3211E-02  0.3986E-02  0.1297E+00  0.1279E+00
     20.800  0.4507E-02  0.2993E-02  0.1305E+00  0.1284E+00
     20.975  0.3322E-02  0.2951E-02  0.1310E+00  0.1289E+00
     21.150  0.5485E-02  0.2202E-02  0.1320E+00  0.1293E+00
     21.324  0.2906E-02  0.5473E-02  0.1325E+00  0.1303E+00
     21.499  0.2441E-02  0.4764E-02  0.1329E+00  0.1311E+00
     21.674  0.6535E-02  0.5863E-02  0.1341E+00  0.1321E+00
     21.849  0.3018E-02  0.2472E-02  0.1346E+00  0.1325E+00
     22.023  0.3106E-02  0.2354E-02  0.1352E+00  0.1330E+00
     22.198  0.1627E-02  0.6859E-02  0.1354E+00  0.1342E+00
     22.373  0.3155E-02  0.2892E-02  0.1360E+00  0.1347E+00
     22.547  0.5034E-02  0.3638E-02  0.1369E+00  0.1353E+00
     22.722  0.3444E-02  0.2119E-02  0.1375E+00  0.1357E+00
     22.897  0.2935E-02  0.3440E-02  0.1380E+00  0.1363E+00
     23.072  0.1791E-02  0.4531E-02  0.1383E+00  0.1371E+00
     23.246  0.1795E-02  0.2818E-02  0.1386E+00  0.1376E+00
     23.421  0.4123E-02  0.3255E-02  0.1393E+00  0.1381E+00
     23.596  0.1908E-02  0.1204E-02  0.1397E+00  0.1383E+00
     23.771  0.1417E-02  0.3151E-02  0.1399E+00  0.1389E+00
     23.945  0.3889E-02  0.3256E-02  0.1406E+00  0.1395E+00
     24.120  0.5590E-02  0.1563E-02  0.1416E+00  0.1397E+00
     24.295  0.2065E-02  0.2087E-02  0.1419E+00  0.1401E+00
     24.470  0.1329E-02  0.6990E-02  0.1422E+00  0.1413E+00
     24.644  0.1869E-02  0.1999E-02  0.1425E+00  0.1417E+00
     24.819  0.6811E-02  0.2373E-02  0.1437E+00  0.1421E+00
     24.994  0.4092E-02  0.1562E-02  0.1444E+00  0.1423E+00
     25.168  0.1070E-02  0.5929E-02  0.1446E+00  0.1434E+00
     25.343  0.3367E-02  0.4410E-02  0.1452E+00  0.1442E+00
     25.518  0.3905E-02  0.2070E-02  0.1458E+00  0.1445E+00
     25.693  0.2604E-02  0.2669E-02  0.1463E+00  0.1450E+00
     25.867  0.6928E-02  0.3545E-02  0.1475E+00  0.1456E+00
     26.042  0.3250E-02  0.3780E-02  0.1481E+00  0.1463E+00
     26.217  0.4435E-02  0.6732E-02  0.1489E+00  0.1474E+00
     26.392  0.6079E-02  0.3206E-02  0.1499E+00  0.1480E+00
     26.566  0.4841E-02  0.4902E-02  0.1508E+00  0.1489E+00
     26.741  0.2590E-02  0.5750E-02  0.1512E+00  0.1499E+00
     26.916  0.1642E-02  0.4907E-02  0.1515E+00  0.1507E+00
     27.090  0.6100E-02  0.2222E-02  0.1526E+00  0.1511E+00
     27.265  0.3880E-02  0.2999E-02  0.1532E+00  0.1516E+00
     27.440  0.1459E-02  0.7166E-02  0.1535E+00  0.1529E+00
     27.615  0.6989E-02  0.2922E-02  0.1547E+00  0.1534E+00
     27.789  0.5345E-02  0.1505E-02  0.1557E+00  0.1537E+00
     27.964  0.3544E-02  0.8089E-02  0.1563E+00  0.1551E+00
     28.139  0.2959E-02  0.3501E-02  0.1568E+00  0.1557E+00
     28.314  0.6384E-02  0.4159E-02  0.1579E+00  0.1564E+00
     28.488  0.3163E-02  0.4855E-02  0.1585E+00  0.1573E+00
     28.663  0.3606E-02  0.4963E-02  0.1591E+00  0.1581E+00
     28.838  0.3409E-02  0.3700E-02  0.1597E+00  0.1588E+00
     29.012  0.3054E-02  0.3214E-02  0.1602E+00  0.1593E+00
     29.187  0.3897E-02  0.3499E-02  0.1609E+00  0.1599E+00
     29.362  0.4153E-02  0.3606E-02  0.1616E+00  0.1606E+00
     29.537  0.5152E-02  0.4481E-02  0.1625E+00  0.1614E+00
     29.711  0.4253E-02  0.4771E-02  0.1633E+00  0.1622E+00
     29.886  0.4020E-02  0.4868E-02  0.1640E+00  0.1630E+00
     30.061  0.4741E-02  0.4563E-02  0.1648E+00  0.1638E+00
     30.236  0.5627E-02  0.3291E-02  0.1658E+00  0.1644E+00
     30.410  0.2545E-02  0.4548E-02  0.1662E+00  0.1652E+00
     30.585  0.3907E-02  0.5247E-02  0.1669E+00  0.1661E+00
     30.760  0.3953E-02  0.4437E-02  0.1676E+00  0.1669E+00
     30.935  0.4467E-02  0.3672E-02  0.1684E+00  0.1675E+00
     31.109  0.5304E-02  0.4291E-02  0.1693E+00  0.1683E+00
     31.284  0.3097E-02  0.5519E-02  0.1699E+00  0.1693E+00
     31.459  0.2561E-02  0.2375E-02  0.1703E+00  0.1697E+00
     31.633  0.4411E-02  0.3024E-02  0.1711E+00  0.1702E+00
     31.808  0.3510E-02  0.4480E-02  0.1717E+00  0.1710E+00
     31.983  0.2508E-02  0.3541E-02  0.1721E+00  0.1716E+00
     32.158  0.4591E-02  0.4202E-02  0.1729E+00  0.1723E+00
     32.332  0.5246E-02  0.3585E-02  0.1738E+00  0.1730E+00
     32.507  0.6957E-02  0.5065E-02  0.1751E+00  0.1738E+00
     32.682  0.3278E-02  0.5584E-02  0.1756E+00  0.1748E+00
     32.857  0.1852E-02  0.4480E-02  0.1760E+00  0.1756E+00
     33.031  0.5092E-02  0.3346E-02  0.1768E+00  0.1762E+00
     33.206  0.4833E-02  0.3630E-02  0.1777E+00  0.1768E+00
     33.381  0.5675E-02  0.5652E-02  0.1787E+00  0.1778E+00
     33.555  0.4827E-02  0.3661E-02  0.1795E+00  0.1785E+00
     33.730  0.4246E-02  0.4842E-02  0.1803E+00  0.1793E+00
     33.905  0.2262E-02  0.5043E-02  0.1807E+00  0.1802E+00
     34.080  0.1219E-02  0.2093E-02  0.1809E+00  0.1805E+00
     34.254  0.2681E-02  0.2254E-02  0.1813E+00  0.1809E+00
     34.429  0.6011E-02  0.2879E-02  0.1824E+00  0.1814E+00
     34.604  0.3590E-02  0.4802E-02  0.1830E+00  0.1823E+00
     34.779  0.4170E-02  0.3937E-02  0.1837E+00  0.1830E+00
     34.953  0.7687E-02  0.3170E-02  0.1851E+00  0.1835E+00
     35.128  0.9902E-02  0.6734E-02  0.1868E+00  0.1847E+00
     35.303  0.3972E-02  0.9013E-02  0.1875E+00  0.1863E+00
     35.478  0.3311E-02  0.6427E-02  0.1881E+00  0.1874E+00
     35.652  0.4758E-02  0.4526E-02  0.1889E+00  0.1882E+00
     35.827  0.5262E-02  0.2867E-02  0.1898E+00  0.1887E+00
     36.002  0.4165E-02  0.6158E-02  0.1906E+00  0.1898E+00
     36.176  0.3237E-02  0.5131E-02  0.1911E+00  0.1907E+00
     36.351  0.3549E-02  0.3490E-02  0.1918E+00  0.1913E+00
     36.526  0.1032E-02  0.3231E-02  0.1919E+00  0.1918E+00
     36.701  0.4220E-02  0.9201E-03  0.1927E+00  0.1920E+00
     36.875  0.4187E-02  0.4258E-02  0.1934E+00  0.1927E+00
     37.050  0.1735E-02  0.2385E-02  0.1937E+00  0.1932E+00
     37.225  0.4859E-02  0.3403E-02  0.1946E+00  0.1938E+00
     37.400  0.4220E-02  0.4364E-02  0.1953E+00  0.1945E+00
     37.574  0.5770E-02  0.4894E-02  0.1963E+00  0.1954E+00
     37.749  0.5430E-02  0.4204E-02  0.1973E+00  0.1961E+00
     37.924  0.3514E-02  0.3215E-02  0.1979E+00  0.1967E+00
     38.098  0.1291E-02  0.5581E-02  0.1981E+00  0.1976E+00
     38.273  0.7103E-02  0.3710E-02  0.1993E+00  0.1983E+00
     38.448  0.3987E-02  0.4662E-02  0.2000E+00  0.1991E+00
     38.623  0.5540E-02  0.5043E-02  0.2010E+00  0.2000E+00
     38.797  0.4104E-02  0.2699E-02  0.2017E+00  0.2005E+00
     38.972  0.1650E-02  0.6660E-02  0.2020E+00  0.2016E+00
     39.147  0.3617E-02  0.2030E-02  0.2026E+00  0.2020E+00
     39.322  0.8513E-02  0.3560E-02  0.2041E+00  0.2026E+00
     39.496  0.4628E-02  0.7420E-02  0.2049E+00  0.2039E+00
     39.671  0.3792E-02  0.3387E-02  0.2056E+00  0.2045E+00
     39.846  0.3723E-02  0.5581E-02  0.2062E+00  0.2055E+00
     40.020  0.3878E-02  0.4164E-02  0.2069E+00  0.2062E+00
     40.195  0.3994E-02  0.6060E-02  0.2076E+00  0.2072E+00
     40.370  0.1351E-02  0.2305E-02  0.2079E+00  0.2076E+00
     40.545  0.5362E-02  0.9666E-03  0.2088E+00  0.2078E+00
     40.719  0.6093E-02  0.5357E-02  0.2099E+00  0.2088E+00
     40.894  0.6188E-02  0.4384E-02  0.2109E+00  0.2095E+00
     41.069  0.5281E-02  0.7464E-02  0.2119E+00  0.2108E+00
     41.244  0.6503E-02  0.6676E-02  0.2130E+00  0.2120E+00
     41.418  0.5439E-02  0.4658E-02  0.2139E+00  0.2128E+00
     41.593  0.2714E-02  0.5218E-02  0.2144E+00  0.2137E+00
     41.768  0.3732E-02  0.5068E-02  0.2151E+00  0.2146E+00
     41.943  0.5776E-02  0.4078E-02  0.2161E+00  0.2153E+00
     42.117  0.4567E-02  0.2989E-02  0.2169E+00  0.2158E+00
     42.292  0.4074E-02  0.5313E-02  0.2176E+00  0.2168E+00
     42.467  0.1909E-02  0.5107E-02  0.2179E+00  0.2177E+00
     42.641  0.9581E-03  0.2308E-02  0.2181E+00  0.2181E+00
     42.816  0.4521E-02  0.1529E-02  0.2189E+00  0.2183E+00
     42.991  0.5020E-02  0.2389E-02  0.2198E+00  0.2187E+00
     43.166  0.5704E-02  0.4845E-02  0.2208E+00  0.2196E+00
     43.340  0.7830E-02  0.5533E-02  0.2221E+00  0.2206E+00
     43.515  0.6254E-02  0.4272E-02  0.2232E+00  0.2213E+00
     43.690  0.7931E-02  0.8518E-02  0.2246E+00  0.2228E+00
     43.865  0.1474E-02  0.8881E-02  0.2249E+00  0.2243E+00
     44.039  0.7233E-02  0.2282E-02  0.2261E+00  0.2247E+00
     44.214  0.2880E-02  0.3678E-02  0.2266E+00  0.2254E+00
     44.389  0.5194E-02  0.5876E-02  0.2275E+00  0.2264E+00
     44.563  0.4020E-02  0.5213E-02  0.2282E+00  0.2273E+00
     44.738  0.6169E-02  0.4958E-02  0.2293E+00  0.2282E+00
     44.913  0.7193E-02  0.4779E-02  0.2306E+00  0.2290E+00
     45.088  0.2367E-02  0.6489E-02  0.2310E+00  0.2302E+00
     45.262  0.1983E-02  0.4094E-02  0.2313E+00  0.2309E+00
     45.437  0.3496E-02  0.1727E-02  0.2319E+00  0.2312E+00
     45.612  0.5477E-02  0.1342E-02  0.2329E+00  0.2314E+00
     45.787  0.4671E-02  0.4344E-02  0.2337E+00  0.2322E+00
     45.961  0.4085E-02  0.4445E-02  0.2344E+00  0.2329E+00
     46.136  0.2727E-02  0.4924E-02  0.2349E+00  0.2338E+00
     46.311  0.3164E-02  0.3520E-02  0.2355E+00  0.2344E+00
     46.485  0.2544E-02  0.2262E-02  0.2359E+00  0.2348E+00
     46.660  0.4518E-02  0.8057E-03  0.2367E+00  0.2350E+00
     46.835  0.7274E-02  0.1729E-02  0.2380E+00  0.2353E+00
     47.010  0.6166E-02  0.5575E-02  0.2390E+00  0.2362E+00
     47.184  0.2605E-02  0.3232E-02  0.2395E+00  0.2368E+00
     47.359  0.1747E-02  0.4267E-02  0.2398E+00  0.2375E+00
     47.534  0.3962E-03  0.3459E-02  0.2399E+00  0.2381E+00
     47.709  0.5500E-03  0.1097E-02  0.2400E+00  0.2383E+00
     47.883  0.1657E-03  0.1316E-02  0.2400E+00  0.2386E+00
     48.058  0.7078E-08  0.2755E-02  0.2400E+00  0.2391E+00
     48.233  0.0000E+00  0.1539E-02  0.2400E+00  0.2393E+00
     48.408  0.0000E+00  0.1950E-02  0.2400E+00  0.2397E+00
     48.582  0.0000E+00  0.5267E-03  0.2400E+00  0.2398E+00
     48.757  0.0000E+00  0.4770E-03  0.2400E+00  0.2398E+00
     48.932  0.0000E+00  0.3379E-03  0.2400E+00  0.2399E+00
     49.106  0.0000E+00  0.2156E-04  0.2400E+00  0.2399E+00
     49.281  0.0000E+00  0.5741E-03  0.2400E+00  0.2400E+00
     49.456  0.0000E+00  0.4951E-06  0.2400E+00  0.2400E+00
     49.631  0.0000E+00  0.0000E+00  0.2400E+00  0.2400E+00
     49.805  0.0000E+00  0.0000E+00  0.2400E+00  0.2400E+00
     49.980  0.0000E+00  0.0000E+00  0.2400E+00  0.2400E+00
     50.155  0.0000E+00  0.0000E+00  0.2400E+00  0.2400E+00
     50.330  0.0000E+00  0.0000E+00  0.2400E+00  0.2400E+00
     50.504  0.0000E+00  0.0000E+00  0.2400E+00  0.2400E+00
     50.679  0.0000E+00  0.0000E+00  0.2400E+00  0.2400E+00
     50.854  0.0000E+00  0.0000E+00  0.2400E+00  0.2400E+00
     51.028  0.0000E+00  0.0000E+00  0.2400E+00  0.2400E+00
     51.203  0.0000E+00  0.0000E+00  0.2400E+00  0.2400E+00
     51.378  0.0000E+00  0.0000E+00  0.2400E+00  0.2400E+00
     51.553  0.0000E+00  0.0000E+00  0.2400E+00  0.2400E+00
     51.55265989     -0.86632324  301     10.51091953      1.00000000
     -0.866  0.0000E+00  0.0000E+00  0.0000E+00  0.0000E+00  0.0000E+00  0.0000E+00  0.0000E+00  0.0000E+00  0.0000E+00  0.0000E+00  0.0000E+00  0.0000E+00  0.0000E+00  0.0000E+00  0.0000E+00  0.0000E+00  0.0000E+00  0.0000E+00
     -0.692  0.0000E+00  0.0000E+00  0.0000E+00  0.0000E+00  0.0000E+00  0.0000E+00  0.0000E+00  0.0000E+00  0.0000E+00  0.0000E+00  0.0000E+00  0.0000E+00  0.0000E+00  0.0000E+00  0.0000E+00  0.0000E+00  0.0000E+00  0.0000E+00
     -0.517  0.0000E+00  0.0000E+00  0.0000E+00  0.0000E+00  0.0000E+00  0.0000E+00  0.0000E+00  0.0000E+00  0.0000E+00  0.0000E+00  0.0000E+00  0.0000E+00  0.0000E+00  0.0000E+00  0.0000E+00  0.0000E+00  0.0000E+00  0.0000E+00
     -0.342  0.0000E+00  0.0000E+00  0.0000E+00  0.0000E+00  0.0000E+00  0.0000E+00  0.0000E+00  0.0000E+00  0.0000E+00  0.0000E+00  0.0000E+00  0.0000E+00  0.0000E+00  0.0000E+00  0.0000E+00  0.0000E+00  0.0000E+00  0.0000E+00
     -0.167  0.0000E+00  0.0000E+00  0.0000E+00  0.0000E+00  0.0000E+00  0.0000E+00  0.0000E+00  0.0000E+00  0.0000E+00  0.0000E+00  0.0000E+00  0.0000E+00  0.0000E+00  0.0000E+00  0.0000E+00  0.0000E+00  0.0000E+00  0.0000E+00
      0.007  0.0000E+00  0.0000E+00  0.0000E+00  0.0000E+00  0.0000E+00  0.0000E+00  0.0000E+00  0.0000E+00  0.0000E+00  0.0000E+00  0.0000E+00  0.0000E+00  0.0000E+00  0.0000E+00  0.0000E+00  0.0000E+00  0.0000E+00  0.0000E+00
      0.182  0.0000E+00  0.0000E+00  0.0000E+00  0.0000E+00  0.0000E+00  0.0000E+00  0.0000E+00  0.0000E+00  0.0000E+00  0.0000E+00  0.0000E+00  0.0000E+00  0.0000E+00  0.0000E+00  0.0000E+00  0.0000E+00  0.0000E+00  0.0000E+00
      0.357  0.0000E+00  0.0000E+00  0.0000E+00  0.0000E+00  0.0000E+00  0.0000E+00  0.0000E+00  0.0000E+00  0.0000E+00  0.0000E+00  0.0000E+00  0.0000E+00  0.0000E+00  0.0000E+00  0.0000E+00  0.0000E+00  0.0000E+00  0.0000E+00
      0.532  0.0000E+00  0.0000E+00  0.0000E+00  0.0000E+00  0.0000E+00  0.0000E+00  0.0000E+00  0.0000E+00  0.0000E+00  0.0000E+00  0.0000E+00  0.0000E+00  0.0000E+00  0.0000E+00  0.0000E+00  0.0000E+00  0.0000E+00  0.0000E+00
      0.706  0.0000E+00  0.0000E+00  0.0000E+00  0.0000E+00  0.0000E+00  0.0000E+00  0.0000E+00  0.0000E+00  0.0000E+00  0.0000E+00  0.0000E+00  0.0000E+00  0.0000E+00  0.0000E+00  0.0000E+00  0.0000E+00  0.0000E+00  0.0000E+00
      0.881  0.0000E+00  0.0000E+00  0.0000E+00  0.0000E+00  0.0000E+00  0.0000E+00  0.0000E+00  0.0000E+00  0.0000E+00  0.0000E+00  0.0000E+00  0.0000E+00  0.0000E+00  0.0000E+00  0.0000E+00  0.0000E+00  0.0000E+00  0.0000E+00
      1.056  0.0000E+00  0.0000E+00  0.0000E+00  0.0000E+00  0.0000E+00  0.0000E+00  0.0000E+00  0.0000E+00  0.0000E+00  0.0000E+00  0.0000E+00  0.0000E+00  0.0000E+00  0.0000E+00  0.0000E+00  0.0000E+00  0.0000E+00  0.0000E+00
      1.230  0.5113E-18  0.6139E-18  0.1690E-34  0.2363E-33  0.5078E-32  0.6453E-33  0.1690E-34  0.2363E-33  0.2974E-32  0.1685E-31  0.1611E-34  0.6284E-35  0.3015E-23  0.4806E-23  0.1611E-34  0.6284E-35  0.2974E-32  0.1685E-31
      1.405  0.1447E-05  0.1531E-05  0.4783E-22  0.5893E-21  0.3723E-18  0.3616E-18  0.4783E-22  0.5893E-21  0.8416E-20  0.4201E-19  0.4559E-22  0.1567E-22  0.8532E-11  0.1198E-10  0.4559E-22  0.1567E-22  0.8416E-20  0.4201E-19
      1.580  0.1782E-02  0.1785E-02  0.1331E-10  0.1264E-10  0.1585E-06  0.1594E-06  0.1331E-10  0.1264E-10  0.2391E-12  0.1676E-12  0.5588E-19  0.1867E-19  0.1223E-07  0.1505E-07  0.5588E-19  0.1867E-19  0.2391E-12  0.1676E-12
      1.755  0.7974E-02  0.7929E-02  0.5107E-04  0.5082E-04  0.5461E-04  0.5493E-04  0.5107E-04  0.5082E-04  0.9174E-06  0.6737E-06  0.1229E-10  0.7746E-11  0.1531E-05  0.1144E-05  0.1229E-10  0.7746E-11  0.9174E-06  0.6737E-06
      1.929  0.1898E-01  0.1873E-01  0.2237E-03  0.2220E-03  0.1938E-03  0.1903E-03  0.2237E-03  0.2220E-03  0.4102E-05  0.2984E-05  0.6231E-05  0.4580E-05  0.1385E-05  0.1136E-05  0.6231E-05  0.4580E-05  0.4102E-05  0.2984E-05
      2.104  0.9162E-02  0.9403E-02  0.1042E-03  0.1084E-03  0.1586E-03  0.1606E-03  0.1042E-03  0.1084E-03  0.1932E-05  0.1469E-05  0.4396E-05  0.3424E-05  0.1553E-05  0.8940E-06  0.4396E-05  0.3424E-05  0.1932E-05  0.1469E-05
      2.279  0.1177E-01  0.1151E-01  0.3090E-03  0.3001E-03  0.1922E-03  0.1972E-03  0.3090E-03  0.3001E-03  0.1686E-04  0.1193E-04  0.7581E-07  0.3164E-07  0.2737E-04  0.1954E-04  0.7581E-07  0.3164E-07  0.1686E-04  0.1193E-04
      2.454  0.4318E-01  0.4222E-01  0.1112E-02  0.1084E-02  0.1529E-02  0.1524E-02  0.1112E-02  0.1084E-02  0.5860E-04  0.4012E-04  0.7685E-04  0.5546E-04  0.7667E-04  0.5221E-04  0.7685E-04  0.5546E-04  0.5860E-04  0.4012E-04
      2.628  0.1965E-01  0.1870E-01  0.9059E-03  0.8571E-03  0.2188E-03  0.2059E-03  0.9059E-03  0.8571E-03  0.8060E-04  0.5196E-04  0.3145E-04  0.1892E-04  0.4141E-04  0.2951E-04  0.3145E-04  0.1892E-04  0.8060E-04  0.5196E-04
      2.803  0.1169E-01  0.1268E-01  0.5271E-03  0.5973E-03  0.3159E-03  0.2688E-03  0.5271E-03  0.5973E-03  0.4634E-04  0.3713E-04  0.4478E-04  0.2874E-04  0.1686E-04  0.1383E-04  0.4478E-04  0.2874E-04  0.4634E-04  0.3713E-04
      2.978  0.1986E-01  0.2103E-01  0.6134E-03  0.6621E-03  0.1495E-02  0.1591E-02  0.6134E-03  0.6621E-03  0.4096E-04  0.3024E-04  0.1318E-03  0.9950E-04  0.1032E-03  0.6801E-04  0.1318E-03  0.9950E-04  0.4096E-04  0.3024E-04
      3.152  0.4506E-01  0.3720E-01  0.1984E-02  0.1577E-02  0.3442E-02  0.3040E-02  0.1984E-02  0.1577E-02  0.2503E-03  0.1249E-03  0.3010E-03  0.1976E-03  0.5203E-03  0.2567E-03  0.3010E-03  0.1976E-03  0.2503E-03  0.1249E-03
      3.327  0.4285E-01  0.4340E-01  0.3463E-02  0.3315E-02  0.8494E-03  0.1245E-02  0.3463E-02  0.3315E-02  0.5850E-03  0.3676E-03  0.2166E-03  0.1268E-03  0.3942E-03  0.3146E-03  0.2166E-03  0.1268E-03  0.5850E-03  0.3676E-03
      3.502  0.7015E-02  0.1211E-01  0.4907E-03  0.1032E-02  0.4313E-03  0.2410E-03  0.4907E-03  0.1032E-02  0.8719E-04  0.1179E-03  0.7508E-04  0.5293E-04  0.8407E-04  0.6592E-04  0.7508E-04  0.5293E-04  0.8719E-04  0.1179E-03
      3.677  0.4918E-01  0.2974E-01  0.3820E-02  0.1981E-02  0.3481E-02  0.2742E-02  0.3820E-02  0.1981E-02  0.9324E-03  0.2742E-03  0.8797E-03  0.2949E-03  0.5679E-03  0.3023E-03  0.8797E-03  0.2949E-03  0.9324E-03  0.2742E-03
      3.851  0.4359E-01  0.6496E-01  0.3088E-02  0.5371E-02  0.4181E-02  0.5029E-02  0.3088E-02  0.5371E-02  0.7071E-03  0.7911E-03  0.1044E-02  0.9981E-03  0.7397E-03  0.4014E-03  0.1044E-02  0.9981E-03  0.7071E-03  0.7911E-03
      4.026  0.1923E-01  0.3311E-02  0.9371E-03  0.4487E-04  0.3260E-02  0.7505E-03  0.9371E-03  0.4487E-04  0.3408E-03  0.4714E-05  0.4678E-03  0.1794E-04  0.1723E-02  0.2422E-03  0.4678E-03  0.1794E-04  0.3408E-03  0.4714E-05
      4.201  0.1995E-01  0.3302E-01  0.2043E-02  0.2213E-02  0.1555E-02  0.4952E-02  0.2043E-02  0.2213E-02  0.7301E-03  0.4720E-03  0.4460E-03  0.5584E-03  0.9525E-03  0.1385E-02  0.4460E-03  0.5584E-03  0.7301E-03  0.4720E-03
      4.376  0.7174E-01  0.3409E-01  0.8526E-02  0.4466E-02  0.5896E-02  0.2219E-02  0.8526E-02  0.4466E-02  0.3471E-02  0.9322E-03  0.2835E-02  0.7223E-03  0.2196E-02  0.5384E-03  0.2835E-02  0.7223E-03  0.3471E-02  0.9322E-03
      4.550  0.4475E-01  0.7246E-01  0.4993E-02  0.8745E-02  0.5003E-02  0.6990E-02  0.4993E-02  0.8745E-02  0.2585E-02  0.2329E-02  0.2107E-02  0.1570E-02  0.2733E-02  0.2104E-02  0.2107E-02  0.1570E-02  0.2585E-02  0.2329E-02
      4.725  0.6031E-01  0.3670E-01  0.7388E-02  0.4065E-02  0.6450E-02  0.5508E-02  0.7388E-02  0.4065E-02  0.5220E-02  0.1040E-02  0.5258E-02  0.1582E-02  0.3847E-02  0.1125E-02  0.5258E-02  0.1582E-02  0.5220E-02  0.1040E-02
      4.900  0.2783E-01  0.4215E-01  0.2840E-02  0.6027E-02  0.3664E-02  0.4002E-02  0.2840E-02  0.6027E-02  0.3726E-02  0.2236E-02  0.1351E-02  0.2257E-02  0.8733E-02  0.1142E-02  0.1351E-02  0.2257E-02  0.3726E-02  0.2236E-02
      5.074  0.5571E-01  0.2439E-01  0.6608E-02  0.3797E-02  0.1039E-01  0.1764E-02  0.6608E-02  0.3797E-02  0.6334E-02  0.2250E-02  0.1201E-01  0.4826E-03  0.2519E-02  0.2281E-02  0.1201E-01  0.4826E-03  0.6334E-02  0.2250E-02
      5.249  0.4633E-01  0.4070E-01  0.5312E-02  0.3665E-02  0.8714E-02  0.1091E-01  0.5312E-02  0.3665E-02  0.8674E-02  0.1224E-02  0.1045E-01  0.3217E-02  0.1302E-01  0.4363E-02  0.1045E-01  0.3217E-02  0.8674E-02  0.1224E-02
      5.424  0.1241E+00  0.4467E-01  0.1868E-01  0.6824E-02  0.7864E-02  0.6798E-02  0.1868E-01  0.6824E-02  0.5796E-01  0.3681E-02  0.5008E-01  0.5696E-02  0.5630E-01  0.9094E-03  0.5008E-01  0.5696E-02  0.5796E-01  0.3681E-02
      5.599  0.8297E-01  0.5516E-01  0.9713E-02  0.9944E-02  0.1110E-01  0.8581E-02  0.9713E-02  0.9944E-02  0.5630E-01  0.4674E-02  0.7633E-01  0.3168E-02  0.4113E-01  0.6808E-02  0.7633E-01  0.3168E-02  0.5630E-01  0.4674E-02
      5.773  0.7637E-01  0.5859E-01  0.1004E-01  0.1124E-01  0.1357E-01  0.6567E-02  0.1004E-01  0.1124E-01  0.7014E-01  0.1046E-01  0.7433E-01  0.4803E-02  0.8571E-01  0.8843E-02  0.7433E-01  0.4803E-02  0.7014E-01  0.1046E-01
      5.948  0.7148E-01  0.5578E-01  0.1234E-01  0.1062E-01  0.1536E-01  0.7122E-02  0.1234E-01  0.1062E-01  0.1364E+00  0.9645E-02  0.9295E-01  0.9223E-02  0.8576E-01  0.1278E-01  0.9295E-01  0.9223E-02  0.1364E+00  0.9645E-02
      6.123  0.6546E-01  0.6383E-01  0.1788E-01  0.9933E-02  0.1792E-01  0.1485E-01  0.1788E-01  0.9933E-02  0.1262E+00  0.1576E-01  0.1480E+00  0.1703E-01  0.1405E+00  0.9667E-02  0.1480E+00  0.1703E-01  0.1262E+00  0.1576E-01
      6.298  0.3632E-01  0.5843E-01  0.1368E-01  0.8602E-02  0.1639E-01  0.1272E-01  0.1368E-01  0.8602E-02  0.1153E+00  0.1524E-01  0.1535E+00  0.2252E-01  0.1416E+00  0.2055E-01  0.1535E+00  0.2252E-01  0.1153E+00  0.1524E-01
      6.472  0.2572E-01  0.6054E-01  0.1627E-01  0.5478E-02  0.1909E-01  0.9100E-02  0.1627E-01  0.5478E-02  0.8947E-01  0.3579E-01  0.1490E+00  0.4199E-01  0.1009E+00  0.4595E-01  0.1490E+00  0.4199E-01  0.8947E-01  0.3579E-01
      6.647  0.2297E-01  0.1015E+00  0.2221E-01  0.2388E-01  0.1494E-01  0.1428E-01  0.2221E-01  0.2388E-01  0.1284E+00  0.5947E-01  0.1242E+00  0.5437E-01  0.1947E+00  0.3346E-01  0.1242E+00  0.5437E-01  0.1284E+00  0.5947E-01
      6.822  0.1031E-01  0.6366E-01  0.1523E-01  0.1284E-01  0.1386E-01  0.1397E-01  0.1523E-01  0.1284E-01  0.1343E+00  0.4036E-01  0.1061E+00  0.5434E-01  0.1905E+00  0.5355E-01  0.1061E+00  0.5434E-01  0.1343E+00  0.4036E-01
      6.997  0.1098E-01  0.5121E-01  0.2542E-01  0.1116E-01  0.1625E-01  0.1539E-01  0.2542E-01  0.1116E-01  0.2176E+00  0.5785E-01  0.1145E+00  0.5824E-01  0.1925E+00  0.4262E-01  0.1145E+00  0.5824E-01  0.2176E+00  0.5785E-01
      7.171  0.1241E-01  0.3920E-01  0.2547E-01  0.1103E-01  0.1866E-01  0.1600E-01  0.2547E-01  0.1103E-01  0.2263E+00  0.8471E-01  0.1341E+00  0.6021E-01  0.2109E+00  0.6105E-01  0.1341E+00  0.6021E-01  0.2263E+00  0.8471E-01
      7.346  0.1119E-01  0.4924E-01  0.2231E-01  0.2022E-01  0.1774E-01  0.2228E-01  0.2231E-01  0.2022E-01  0.1933E+00  0.1025E+00  0.9505E-01  0.1303E+00  0.1488E+00  0.1097E+00  0.9505E-01  0.1303E+00  0.1933E+00  0.1025E+00
      7.521  0.4102E-02  0.1789E-01  0.7730E-02  0.1250E-01  0.9953E-02  0.1988E-01  0.7730E-02  0.1250E-01  0.1113E+00  0.6405E-01  0.4756E-01  0.1614E+00  0.1091E+00  0.6813E-01  0.4756E-01  0.1614E+00  0.1113E+00  0.6405E-01
      7.695  0.7880E-02  0.1428E-01  0.1813E-01  0.2064E-01  0.2120E-01  0.1493E-01  0.1813E-01  0.2064E-01  0.1514E+00  0.8254E-01  0.2567E+00  0.9891E-01  0.3061E+00  0.9572E-01  0.2567E+00  0.9891E-01  0.1514E+00  0.8254E-01
      7.870  0.1276E-01  0.8278E-02  0.2104E-01  0.2000E-01  0.2402E-01  0.1726E-01  0.2104E-01  0.2000E-01  0.1934E+00  0.1086E+00  0.3112E+00  0.7599E-01  0.3025E+00  0.1286E+00  0.3112E+00  0.7599E-01  0.1934E+00  0.1086E+00