Co-hcc                                  
           1
     1.239176   -2.146316    0.000000
     1.239176    2.146316    0.000000
     0.000000    0.000000    3.997699
   Co
     2
Direct configuration=     1
   0.33333333  0.66666667  0.25000000
   0.66666667  0.33333333  0.75000000
