   2   2   0   0
  0.1579990E+02  0.2760000E-09  0.2760000E-09  0.4790000E-09  0.5000000E-15
  1.000000000000000E-004
  CAR 
 Pt-hcp                                  
     35.86390447    -45.36509459  301     11.12907021      1.00000000
    -45.365  0.0000E+00  0.0000E+00
    -45.094  0.0000E+00  0.0000E+00
    -44.824  0.0000E+00  0.0000E+00
    -44.553  0.0000E+00  0.0000E+00
    -44.282  0.0000E+00  0.0000E+00
    -44.011  0.0000E+00  0.0000E+00
    -43.741  0.0000E+00  0.0000E+00
    -43.470  0.0000E+00  0.0000E+00
    -43.199  0.0000E+00  0.0000E+00
    -42.928  0.0000E+00  0.0000E+00
    -42.657  0.0000E+00  0.0000E+00
    -42.387  0.0000E+00  0.0000E+00
    -42.116  0.0000E+00  0.0000E+00
    -41.845  0.1296E-06  0.3508E-07
    -41.574  0.6874E+01  0.1861E+01
    -41.304  0.2339E+02  0.8194E+01
    -41.033  0.1406E+02  0.1200E+02
    -40.762  0.3612E-03  0.1200E+02
    -40.491  0.0000E+00  0.1200E+02
    -40.221  0.0000E+00  0.1200E+02
    -39.950  0.0000E+00  0.1200E+02
    -39.679  0.0000E+00  0.1200E+02
    -39.408  0.0000E+00  0.1200E+02
    -39.138  0.0000E+00  0.1200E+02
    -38.867  0.0000E+00  0.1200E+02
    -38.596  0.0000E+00  0.1200E+02
    -38.325  0.0000E+00  0.1200E+02
    -38.054  0.0000E+00  0.1200E+02
    -37.784  0.0000E+00  0.1200E+02
    -37.513  0.0000E+00  0.1200E+02
    -37.242  0.0000E+00  0.1200E+02
    -36.971  0.0000E+00  0.1200E+02
    -36.701  0.0000E+00  0.1200E+02
    -36.430  0.0000E+00  0.1200E+02
    -36.159  0.0000E+00  0.1200E+02
    -35.888  0.0000E+00  0.1200E+02
    -35.618  0.0000E+00  0.1200E+02
    -35.347  0.0000E+00  0.1200E+02
    -35.076  0.0000E+00  0.1200E+02
    -34.805  0.0000E+00  0.1200E+02
    -34.535  0.0000E+00  0.1200E+02
    -34.264  0.0000E+00  0.1200E+02
    -33.993  0.0000E+00  0.1200E+02
    -33.722  0.0000E+00  0.1200E+02
    -33.452  0.0000E+00  0.1200E+02
    -33.181  0.0000E+00  0.1200E+02
    -32.910  0.0000E+00  0.1200E+02
    -32.639  0.0000E+00  0.1200E+02
    -32.368  0.0000E+00  0.1200E+02
    -32.098  0.0000E+00  0.1200E+02
    -31.827  0.0000E+00  0.1200E+02
    -31.556  0.0000E+00  0.1200E+02
    -31.285  0.0000E+00  0.1200E+02
    -31.015  0.0000E+00  0.1200E+02
    -30.744  0.0000E+00  0.1200E+02
    -30.473  0.0000E+00  0.1200E+02
    -30.202  0.0000E+00  0.1200E+02
    -29.932  0.0000E+00  0.1200E+02
    -29.661  0.0000E+00  0.1200E+02
    -29.390  0.0000E+00  0.1200E+02
    -29.119  0.0000E+00  0.1200E+02
    -28.849  0.0000E+00  0.1200E+02
    -28.578  0.0000E+00  0.1200E+02
    -28.307  0.0000E+00  0.1200E+02
    -28.036  0.0000E+00  0.1200E+02
    -27.765  0.0000E+00  0.1200E+02
    -27.495  0.0000E+00  0.1200E+02
    -27.224  0.0000E+00  0.1200E+02
    -26.953  0.0000E+00  0.1200E+02
    -26.682  0.0000E+00  0.1200E+02
    -26.412  0.0000E+00  0.1200E+02
    -26.141  0.0000E+00  0.1200E+02
    -25.870  0.0000E+00  0.1200E+02
    -25.599  0.0000E+00  0.1200E+02
    -25.329  0.0000E+00  0.1200E+02
    -25.058  0.0000E+00  0.1200E+02
    -24.787  0.0000E+00  0.1200E+02
    -24.516  0.0000E+00  0.1200E+02
    -24.246  0.0000E+00  0.1200E+02
    -23.975  0.0000E+00  0.1200E+02
    -23.704  0.0000E+00  0.1200E+02
    -23.433  0.0000E+00  0.1200E+02
    -23.163  0.0000E+00  0.1200E+02
    -22.892  0.0000E+00  0.1200E+02
    -22.621  0.0000E+00  0.1200E+02
    -22.350  0.0000E+00  0.1200E+02
    -22.079  0.0000E+00  0.1200E+02
    -21.809  0.0000E+00  0.1200E+02
    -21.538  0.0000E+00  0.1200E+02
    -21.267  0.0000E+00  0.1200E+02
    -20.996  0.0000E+00  0.1200E+02
    -20.726  0.0000E+00  0.1200E+02
    -20.455  0.0000E+00  0.1200E+02
    -20.184  0.0000E+00  0.1200E+02
    -19.913  0.0000E+00  0.1200E+02
    -19.643  0.0000E+00  0.1200E+02
    -19.372  0.0000E+00  0.1200E+02
    -19.101  0.0000E+00  0.1200E+02
    -18.830  0.0000E+00  0.1200E+02
    -18.560  0.0000E+00  0.1200E+02
    -18.289  0.0000E+00  0.1200E+02
    -18.018  0.0000E+00  0.1200E+02
    -17.747  0.0000E+00  0.1200E+02
    -17.476  0.0000E+00  0.1200E+02
    -17.206  0.0000E+00  0.1200E+02
    -16.935  0.0000E+00  0.1200E+02
    -16.664  0.0000E+00  0.1200E+02
    -16.393  0.0000E+00  0.1200E+02
    -16.123  0.0000E+00  0.1200E+02
    -15.852  0.0000E+00  0.1200E+02
    -15.581  0.0000E+00  0.1200E+02
    -15.310  0.0000E+00  0.1200E+02
    -15.040  0.0000E+00  0.1200E+02
    -14.769  0.0000E+00  0.1200E+02
    -14.498  0.0000E+00  0.1200E+02
    -14.227  0.0000E+00  0.1200E+02
    -13.957  0.0000E+00  0.1200E+02
    -13.686  0.0000E+00  0.1200E+02
    -13.415  0.0000E+00  0.1200E+02
    -13.144  0.0000E+00  0.1200E+02
    -12.873  0.0000E+00  0.1200E+02
    -12.603  0.0000E+00  0.1200E+02
    -12.332  0.0000E+00  0.1200E+02
    -12.061  0.0000E+00  0.1200E+02
    -11.790  0.0000E+00  0.1200E+02
    -11.520  0.0000E+00  0.1200E+02
    -11.249  0.0000E+00  0.1200E+02
    -10.978  0.0000E+00  0.1200E+02
    -10.707  0.0000E+00  0.1200E+02
    -10.437  0.0000E+00  0.1200E+02
    -10.166  0.0000E+00  0.1200E+02
     -9.895  0.0000E+00  0.1200E+02
     -9.624  0.0000E+00  0.1200E+02
     -9.354  0.0000E+00  0.1200E+02
     -9.083  0.0000E+00  0.1200E+02
     -8.812  0.0000E+00  0.1200E+02
     -8.541  0.0000E+00  0.1200E+02
     -8.271  0.0000E+00  0.1200E+02
     -8.000  0.0000E+00  0.1200E+02
     -7.729  0.0000E+00  0.1200E+02
     -7.458  0.0000E+00  0.1200E+02
     -7.187  0.0000E+00  0.1200E+02
     -6.917  0.0000E+00  0.1200E+02
     -6.646  0.0000E+00  0.1200E+02
     -6.375  0.0000E+00  0.1200E+02
     -6.104  0.0000E+00  0.1200E+02
     -5.834  0.0000E+00  0.1200E+02
     -5.563  0.0000E+00  0.1200E+02
     -5.292  0.0000E+00  0.1200E+02
     -5.021  0.0000E+00  0.1200E+02
     -4.751  0.0000E+00  0.1200E+02
     -4.480  0.0000E+00  0.1200E+02
     -4.209  0.0000E+00  0.1200E+02
     -3.938  0.0000E+00  0.1200E+02
     -3.668  0.0000E+00  0.1200E+02
     -3.397  0.0000E+00  0.1200E+02
     -3.126  0.0000E+00  0.1200E+02
     -2.855  0.0000E+00  0.1200E+02
     -2.584  0.0000E+00  0.1200E+02
     -2.314  0.0000E+00  0.1200E+02
     -2.043  0.0000E+00  0.1200E+02
     -1.772  0.0000E+00  0.1200E+02
     -1.501  0.0000E+00  0.1200E+02
     -1.231  0.0000E+00  0.1200E+02
     -0.960  0.0000E+00  0.1200E+02
     -0.689  0.0000E+00  0.1200E+02
     -0.418  0.0000E+00  0.1200E+02
     -0.148  0.0000E+00  0.1200E+02
      0.123  0.0000E+00  0.1200E+02
      0.394  0.0000E+00  0.1200E+02
      0.665  0.0000E+00  0.1200E+02
      0.935  0.0000E+00  0.1200E+02
      1.206  0.8276E-11  0.1200E+02
      1.477  0.9073E-02  0.1200E+02
      1.748  0.2850E-01  0.1201E+02
      2.018  0.1745E+00  0.1206E+02
      2.289  0.5632E-01  0.1207E+02
      2.560  0.1534E+00  0.1211E+02
      2.831  0.1715E+00  0.1216E+02
      3.102  0.3035E+00  0.1224E+02
      3.372  0.1281E+00  0.1228E+02
      3.643  0.2974E+00  0.1236E+02
      3.914  0.3959E+00  0.1247E+02
      4.185  0.6938E+00  0.1265E+02
      4.455  0.7644E+00  0.1286E+02
      4.726  0.1611E+01  0.1330E+02
      4.997  0.2527E+01  0.1398E+02
      5.268  0.1862E+01  0.1448E+02
      5.538  0.2481E+01  0.1516E+02
      5.809  0.1880E+01  0.1567E+02
      6.080  0.3329E+01  0.1657E+02
      6.351  0.3262E+01  0.1745E+02
      6.621  0.2621E+01  0.1816E+02
      6.892  0.3311E+01  0.1906E+02
      7.163  0.2619E+01  0.1977E+02
      7.434  0.2711E+01  0.2050E+02
      7.705  0.3636E+01  0.2148E+02
      7.975  0.3695E+01  0.2248E+02
      8.246  0.3119E+01  0.2333E+02
      8.517  0.4204E+01  0.2447E+02
      8.788  0.3117E+01  0.2531E+02
      9.058  0.3026E+01  0.2613E+02
      9.329  0.1908E+01  0.2665E+02
      9.600  0.2557E+01  0.2734E+02
      9.871  0.2533E+01  0.2803E+02
     10.141  0.2752E+01  0.2877E+02
     10.412  0.2429E+01  0.2943E+02
     10.683  0.2585E+01  0.3013E+02
     10.954  0.3858E+01  0.3117E+02
     11.224  0.4386E+01  0.3236E+02
     11.495  0.2479E+01  0.3303E+02
     11.766  0.1350E+01  0.3340E+02
     12.037  0.7004E+00  0.3359E+02
     12.307  0.3272E+00  0.3367E+02
     12.578  0.1658E+00  0.3372E+02
     12.849  0.2098E+00  0.3378E+02
     13.120  0.1044E+01  0.3406E+02
     13.391  0.1081E+01  0.3435E+02
     13.661  0.5687E+00  0.3451E+02
     13.932  0.1187E+00  0.3454E+02
     14.203  0.3869E+00  0.3464E+02
     14.474  0.7012E+00  0.3483E+02
     14.744  0.1939E+00  0.3489E+02
     15.015  0.7375E+00  0.3509E+02
     15.286  0.4558E+00  0.3521E+02
     15.557  0.5025E+00  0.3534E+02
     15.827  0.9436E+00  0.3560E+02
     16.098  0.4483E+00  0.3572E+02
     16.369  0.4864E+00  0.3585E+02
     16.640  0.2859E+00  0.3593E+02
     16.910  0.2291E+00  0.3599E+02
     17.181  0.2333E+00  0.3606E+02
     17.452  0.5260E+00  0.3620E+02
     17.723  0.1104E+01  0.3650E+02
     17.994  0.8949E+00  0.3674E+02
     18.264  0.8845E+00  0.3698E+02
     18.535  0.6948E+00  0.3717E+02
     18.806  0.8691E+00  0.3740E+02
     19.077  0.7408E+00  0.3760E+02
     19.347  0.4347E+00  0.3772E+02
     19.618  0.5378E+00  0.3787E+02
     19.889  0.6900E+00  0.3805E+02
     20.160  0.1034E+01  0.3833E+02
     20.430  0.9488E+00  0.3859E+02
     20.701  0.5831E+00  0.3875E+02
     20.972  0.2916E+00  0.3883E+02
     21.243  0.6790E+00  0.3901E+02
     21.513  0.1029E+01  0.3929E+02
     21.784  0.6853E+00  0.3947E+02
     22.055  0.5515E+00  0.3962E+02
     22.326  0.3171E+00  0.3971E+02
     22.597  0.1046E+01  0.3999E+02
     22.867  0.3326E+00  0.4008E+02
     23.138  0.3818E+00  0.4019E+02
     23.409  0.1176E+01  0.4051E+02
     23.680  0.1174E+01  0.4082E+02
     23.950  0.9749E+00  0.4109E+02
     24.221  0.6529E+00  0.4126E+02
     24.492  0.7815E+00  0.4148E+02
     24.763  0.3957E+00  0.4158E+02
     25.033  0.9091E+00  0.4183E+02
     25.304  0.2075E+01  0.4239E+02
     25.575  0.1877E+01  0.4290E+02
     25.846  0.1391E+01  0.4328E+02
     26.116  0.1543E+01  0.4369E+02
     26.387  0.1095E+01  0.4399E+02
     26.658  0.1138E+01  0.4430E+02
     26.929  0.1174E+01  0.4462E+02
     27.199  0.1943E+01  0.4514E+02
     27.470  0.1977E+01  0.4568E+02
     27.741  0.1001E+01  0.4595E+02
     28.012  0.1318E+01  0.4631E+02
     28.283  0.1233E+01  0.4664E+02
     28.553  0.7871E+00  0.4685E+02
     28.824  0.8730E+00  0.4709E+02
     29.095  0.5882E+00  0.4725E+02
     29.366  0.6836E+00  0.4743E+02
     29.636  0.1879E+00  0.4748E+02
     29.907  0.6096E+00  0.4765E+02
     30.178  0.3624E+00  0.4775E+02
     30.449  0.1266E+00  0.4778E+02
     30.719  0.5936E+00  0.4794E+02
     30.990  0.6732E-01  0.4796E+02
     31.261  0.7281E-01  0.4798E+02
     31.532  0.1705E-01  0.4798E+02
     31.802  0.3835E-01  0.4799E+02
     32.073  0.4945E-04  0.4800E+02
     32.344  0.1842E-01  0.4800E+02
     32.615  0.0000E+00  0.4800E+02
     32.886  0.0000E+00  0.4800E+02
     33.156  0.0000E+00  0.4800E+02
     33.427  0.0000E+00  0.4800E+02
     33.698  0.0000E+00  0.4800E+02
     33.969  0.0000E+00  0.4800E+02
     34.239  0.0000E+00  0.4800E+02
     34.510  0.0000E+00  0.4800E+02
     34.781  0.0000E+00  0.4800E+02
     35.052  0.0000E+00  0.4800E+02
     35.322  0.0000E+00  0.4800E+02
     35.593  0.0000E+00  0.4800E+02
     35.864  0.0000E+00  0.4800E+02
