    2    2    1    1
  0.1579990E+02  0.2760000E-09  0.2760000E-09  0.4790000E-09  0.5000000E-15
  1.000000000000000E-004
  CAR 
 Pt-hcp                                  
     32     70     24
 
  0.0000000E+00  0.0000000E+00  0.0000000E+00  0.1250000E-02
      1        -41.459255   1.000000
      2        -41.294116   1.000000
      3        -41.294115   1.000000
      4        -41.254044   1.000000
      5        -41.254043   1.000000
      6        -41.134155   1.000000
      7          1.418880   1.000000
      8          4.069110   1.000000
      9          7.206812   1.000000
     10          7.714033   1.000000
     11          7.714033   1.000000
     12          8.079160   1.000000
     13          8.079160   1.000000
     14          9.349237   1.000000
     15          9.349238   1.000000
     16         10.425344   1.000000
     17         10.927557   1.000000
     18         10.927558   1.000000
     19         15.806850   0.000000
     20         26.227336   0.000000
     21         26.807766   0.000000
     22         28.377185   0.000000
     23         32.171677   0.000000
     24         32.171677   0.000000
 
  0.1000000E+00 -0.1387779E-16  0.0000000E+00  0.7500000E-02
      1        -41.449115   1.000000
      2        -41.331374   1.000000
      3        -41.305713   1.000000
      4        -41.292103   1.000000
      5        -41.262351   1.000000
      6        -41.137149   1.000000
      7          1.780324   1.000000
      8          4.396306   1.000000
      9          7.143189   1.000000
     10          7.720430   1.000000
     11          7.929736   1.000000
     12          7.989425   1.000000
     13          8.340872   1.000000
     14          8.764212   1.000000
     15          9.178915   1.000000
     16          9.323524   1.000000
     17         10.988573   0.999965
     18         12.684164   0.000000
     19         15.770551   0.000000
     20         26.660438   0.000000
     21         27.336308   0.000000
     22         28.705719   0.000000
     23         30.545720   0.000000
     24         30.665527   0.000000
 
  0.2000000E+00 -0.2775558E-16  0.0000000E+00  0.7500000E-02
      1        -41.425433   1.000000
      2        -41.417048   1.000000
      3        -41.388658   1.000000
      4        -41.332705   1.000000
      5        -41.282316   1.000000
      6        -41.146228   1.000000
      7          2.765700   1.000000
      8          5.117230   1.000000
      9          6.919211   1.000000
     10          7.402841   1.000000
     11          7.438229   1.000000
     12          8.339190   1.000000
     13          8.771040   1.000000
     14          8.801227   1.000000
     15          8.810050   1.000000
     16          9.077512   1.000000
     17         11.087080   0.882515
     18         14.853666   0.000000
     19         15.702641   0.000000
     20         25.161215   0.000000
     21         27.957672   0.000000
     22         28.238674   0.000000
     23         29.112919   0.000000
     24         29.312530   0.000000
 
  0.3000000E+00  0.0000000E+00  0.0000000E+00  0.7500000E-02
      1        -41.543402   1.000000
      2        -41.503642   1.000000
      3        -41.372529   1.000000
      4        -41.365646   1.000000
      5        -41.308157   1.000000
      6        -41.162688   1.000000
      7          3.971364   1.000000
      8          5.242722   1.000000
      9          6.349088   1.000000
     10          7.180634   1.000000
     11          7.539125   1.000000
     12          8.298805   1.000000
     13          8.411665   1.000000
     14          9.488204   1.000000
     15          9.892720   1.000000
     16         10.121626   1.000000
     17         11.139516   0.383821
     18         15.824902   0.000000
     19         17.062466   0.000000
     20         21.437969   0.000000
     21         25.857011   0.000000
     22         26.401975   0.000000
     23         27.994134   0.000000
     24         29.104121   0.000000
 
  0.4000000E+00 -0.2775558E-16  0.0000000E+00  0.7500000E-02
      1        -41.635734   1.000000
      2        -41.594796   1.000000
      3        -41.391736   1.000000
      4        -41.328312   1.000000
      5        -41.327008   1.000000
      6        -41.184003   1.000000
      7          4.632341   1.000000
      8          4.929247   1.000000
      9          5.697313   1.000000
     10          7.698078   1.000000
     11          7.925743   1.000000
     12          8.134274   1.000000
     13          8.351957   1.000000
     14         10.974335   0.999994
     15         11.149786   0.278962
     16         11.150487   0.272338
     17         11.358910   0.000000
     18         16.633072   0.000000
     19         17.799589   0.000000
     20         19.025721   0.000000
     21         23.532259   0.000000
     22         23.949221   0.000000
     23         25.049789   0.000000
     24         27.828675   0.000000
 
  0.5000000E+00 -0.2775558E-16  0.0000000E+00  0.3750000E-02
      1        -41.670799   1.000000
      2        -41.628502   1.000000
      3        -41.400128   1.000000
      4        -41.336039   1.000000
      5        -41.303798   1.000000
      6        -41.197339   1.000000
      7          4.724371   1.000000
      8          4.801084   1.000000
      9          5.477092   1.000000
     10          7.790754   1.000000
     11          8.035044   1.000000
     12          8.220132   1.000000
     13          8.556058   1.000000
     14         11.149943   0.277472
     15         11.429877   0.000000
     16         11.630390   0.000000
     17         13.404670   0.000000
     18         14.877379   0.000000
     19         18.393321   0.000000
     20         19.974176   0.000000
     21         20.626004   0.000000
     22         23.170247   0.000000
     23         24.404025   0.000000
     24         27.254534   0.000000
 
  0.1000000E+00  0.1000000E+00  0.0000000E+00  0.7500000E-02
      1        -41.427618   1.000000
      2        -41.390306   1.000000
      3        -41.366069   1.000000
      4        -41.318677   1.000000
      5        -41.281597   1.000000
      6        -41.143096   1.000000
      7          2.462067   1.000000
      8          4.968575   1.000000
      9          6.877766   1.000000
     10          7.634244   1.000000
     11          7.804338   1.000000
     12          7.938210   1.000000
     13          8.573434   1.000000
     14          8.596730   1.000000
     15          8.927518   1.000000
     16          9.238531   1.000000
     17         11.009237   0.999650
     18         14.281146   0.000000
     19         15.720427   0.000000
     20         26.579509   0.000000
     21         27.188185   0.000000
     22         28.241897   0.000000
     23         29.264757   0.000000
     24         30.011566   0.000000
 
  0.2000000E+00  0.1000000E+00  0.0000000E+00  0.1500000E-01
      1        -41.488852   1.000000
      2        -41.463775   1.000000
      3        -41.389054   1.000000
      4        -41.356466   1.000000
      5        -41.311311   1.000000
      6        -41.155786   1.000000
      7          3.632067   1.000000
      8          5.580911   1.000000
      9          6.702087   1.000000
     10          6.758609   1.000000
     11          7.362860   1.000000
     12          8.102191   1.000000
     13          8.548778   1.000000
     14          8.872189   1.000000
     15          9.629096   1.000000
     16         10.029106   1.000000
     17         11.008510   0.999675
     18         15.767587   0.000000
     19         16.363963   0.000000
     20         23.339278   0.000000
     21         25.245858   0.000000
     22         27.396244   0.000000
     23         29.294386   0.000000
     24         29.942296   0.000000
 
  0.3000000E+00  0.1000000E+00  0.0000000E+00  0.1500000E-01
      1        -41.589616   1.000000
      2        -41.554792   1.000000
      3        -41.395320   1.000000
      4        -41.342978   1.000000
      5        -41.339597   1.000000
      6        -41.175800   1.000000
      7          4.689774   1.000000
      8          5.342902   1.000000
      9          5.987672   1.000000
     10          7.197069   1.000000
     11          7.805097   1.000000
     12          7.814597   1.000000
     13          8.383661   1.000000
     14          9.647033   1.000000
     15         10.709940   1.000000
     16         10.994288   0.999931
     17         11.452458   0.000000
     18         16.363629   0.000000
     19         18.492497   0.000000
     20         19.513566   0.000000
     21         23.137519   0.000000
     22         25.939232   0.000000
     23         26.242211   0.000000
     24         28.245408   0.000000
 
  0.4000000E+00  0.1000000E+00  0.0000000E+00  0.1500000E-01
      1        -41.651412   1.000000
      2        -41.610704   1.000000
      3        -41.419549   1.000000
      4        -41.356799   1.000000
      5        -41.304690   1.000000
      6        -41.197291   1.000000
      7          4.997345   1.000000
      8          5.087114   1.000000
      9          5.586891   1.000000
     10          7.747626   1.000000
     11          7.985006   1.000000
     12          7.985524   1.000000
     13          8.314861   1.000000
     14         10.881033   1.000000
     15         10.976694   0.999992
     16         11.262019   0.000085
     17         13.154869   0.000000
     18         16.106247   0.000000
     19         18.049008   0.000000
     20         20.158902   0.000000
     21         20.926912   0.000000
     22         23.276765   0.000000
     23         24.872052   0.000000
     24         27.176196   0.000000
 
  0.2000000E+00  0.2000000E+00  0.0000000E+00  0.7500000E-02
      1        -41.546630   1.000000
      2        -41.545180   1.000000
      3        -41.400336   1.000000
      4        -41.362375   1.000000
      5        -41.348407   1.000000
      6        -41.173782   1.000000
      7          4.842949   1.000000
      8          6.187211   1.000000
      9          6.190264   1.000000
     10          6.251657   1.000000
     11          7.577005   1.000000
     12          7.615479   1.000000
     13          8.574426   1.000000
     14          8.908627   1.000000
     15         10.694169   1.000000
     16         10.826956   1.000000
     17         11.533372   0.000000
     18         16.338798   0.000000
     19         18.369459   0.000000
     20         20.967432   0.000000
     21         21.880884   0.000000
     22         26.689356   0.000000
     23         27.888596   0.000000
     24         28.385291   0.000000
 
  0.3000000E+00  0.2000000E+00  0.0000000E+00  0.1500000E-01
      1        -41.606417   1.000000
      2        -41.578092   1.000000
      3        -41.451965   1.000000
      4        -41.404703   1.000000
      5        -41.305557   1.000000
      6        -41.197379   1.000000
      7          5.627211   1.000000
      8          5.807564   1.000000
      9          5.840977   1.000000
     10          6.986978   1.000000
     11          7.470631   1.000000
     12          8.088701   1.000000
     13          8.127695   1.000000
     14          9.700072   1.000000
     15         10.688003   1.000000
     16         11.129647   0.493490
     17         13.206673   0.000000
     18         17.358822   0.000000
     19         18.288593   0.000000
     20         19.925470   0.000000
     21         20.451409   0.000000
     22         24.851642   0.000000
     23         25.903435   0.000000
     24         26.895328   0.000000
 
  0.4000000E+00  0.2000000E+00  0.0000000E+00  0.7500000E-02
      1        -41.628821   1.000000
      2        -41.587744   1.000000
      3        -41.476568   1.000000
      4        -41.420346   1.000000
      5        -41.281105   1.000000
      6        -41.214135   1.000000
      7          5.672712   1.000000
      8          5.689468   1.000000
      9          5.743269   1.000000
     10          7.560849   1.000000
     11          7.610423   1.000000
     12          7.710798   1.000000
     13          8.394744   1.000000
     14         10.461377   1.000000
     15         10.637582   1.000000
     16         10.934760   1.000000
     17         14.801221   0.000000
     18         15.313659   0.000000
     19         18.622652   0.000000
     20         20.188699   0.000000
     21         21.660165   0.000000
     22         22.683663   0.000000
     23         25.103260   0.000000
     24         26.393781   0.000000
 
  0.3000000E+00  0.3000000E+00  0.0000000E+00  0.7500000E-02
      1        -41.593029   1.000000
      2        -41.561574   1.000000
      3        -41.514502   1.000000
      4        -41.474482   1.000000
      5        -41.266811   1.000000
      6        -41.225436   1.000000
      7          5.766957   1.000000
      8          6.178954   1.000000
      9          6.434374   1.000000
     10          6.870423   1.000000
     11          7.422220   1.000000
     12          7.688818   1.000000
     13          8.482801   1.000000
     14         10.059621   1.000000
     15         10.471296   1.000000
     16         10.774047   1.000000
     17         14.810411   0.000000
     18         16.074550   0.000000
     19         17.502477   0.000000
     20         21.019913   0.000000
     21         22.584427   0.000000
     22         23.804058   0.000000
     23         24.622393   0.000000
     24         25.007800   0.000000
 
  0.0000000E+00  0.0000000E+00  0.1250000E+00  0.2500000E-02
      1        -41.448946   1.000000
      2        -41.293567   1.000000
      3        -41.293565   1.000000
      4        -41.256618   1.000000
      5        -41.256616   1.000000
      6        -41.147193   1.000000
      7          1.552418   1.000000
      8          4.048373   1.000000
      9          7.173611   1.000000
     10          7.694692   1.000000
     11          7.694692   1.000000
     12          8.040268   1.000000
     13          8.040269   1.000000
     14          9.445965   1.000000
     15          9.445966   1.000000
     16          9.808810   1.000000
     17         10.899095   1.000000
     18         10.899096   1.000000
     19         16.672300   0.000000
     20         25.766354   0.000000
     21         27.315760   0.000000
     22         28.093358   0.000000
     23         31.620832   0.000000
     24         31.620833   0.000000
 
  0.1000000E+00 -0.1387779E-16  0.1250000E+00  0.1500000E-01
      1        -41.438652   1.000000
      2        -41.329201   1.000000
      3        -41.303794   1.000000
      4        -41.294575   1.000000
      5        -41.263855   1.000000
      6        -41.148685   1.000000
      7          1.911280   1.000000
      8          4.382471   1.000000
      9          7.145959   1.000000
     10          7.635582   1.000000
     11          7.828116   1.000000
     12          7.961687   1.000000
     13          8.298162   1.000000
     14          8.709842   1.000000
     15          9.293699   1.000000
     16          9.323996   1.000000
     17         10.950247   1.000000
     18         12.146375   0.000000
     19         16.759935   0.000000
     20         26.267090   0.000000
     21         27.741740   0.000000
     22         28.477514   0.000000
     23         29.942749   0.000000
     24         30.587299   0.000000
 
  0.2000000E+00 -0.2775558E-16  0.1250000E+00  0.1500000E-01
      1        -41.435395   1.000000
      2        -41.398198   1.000000
      3        -41.389290   1.000000
      4        -41.330969   1.000000
      5        -41.284201   1.000000
      6        -41.155308   1.000000
      7          2.881440   1.000000
      8          5.126297   1.000000
      9          6.950754   1.000000
     10          7.145419   1.000000
     11          7.446553   1.000000
     12          8.227578   1.000000
     13          8.613738   1.000000
     14          8.954600   1.000000
     15          9.019291   1.000000
     16          9.130289   1.000000
     17         11.026700   0.998107
     18         13.665291   0.000000
     19         17.171657   0.000000
     20         25.258186   0.000000
     21         27.740670   0.000000
     22         28.395097   0.000000
     23         28.599759   0.000000
     24         29.731147   0.000000
 
  0.3000000E+00  0.0000000E+00  0.1250000E+00  0.1500000E-01
      1        -41.544568   1.000000
      2        -41.506905   1.000000
      3        -41.363403   1.000000
      4        -41.360942   1.000000
      5        -41.309901   1.000000
      6        -41.168509   1.000000
      7          4.024887   1.000000
      8          5.270771   1.000000
      9          6.329992   1.000000
     10          7.016068   1.000000
     11          7.567199   1.000000
     12          8.404906   1.000000
     13          8.473067   1.000000
     14          9.542227   1.000000
     15          9.914300   1.000000
     16         10.073981   1.000000
     17         11.069540   0.953886
     18         14.751962   0.000000
     19         18.167564   0.000000
     20         21.708257   0.000000
     21         26.096231   0.000000
     22         26.131073   0.000000
     23         27.695690   0.000000
     24         29.563666   0.000000
 
  0.4000000E+00 -0.2775558E-16  0.1250000E+00  0.1500000E-01
      1        -41.636920   1.000000
      2        -41.598598   1.000000
      3        -41.389343   1.000000
      4        -41.330604   1.000000
      5        -41.319130   1.000000
      6        -41.187345   1.000000
      7          4.568309   1.000000
      8          4.936705   1.000000
      9          5.851070   1.000000
     10          7.068113   1.000000
     11          8.144745   1.000000
     12          8.218740   1.000000
     13          8.897314   1.000000
     14         10.892025   1.000000
     15         10.989682   0.999960
     16         11.248347   0.000371
     17         11.271402   0.000028
     18         15.782176   0.000000
     19         17.840024   0.000000
     20         19.841547   0.000000
     21         23.257924   0.000000
     22         24.225173   0.000000
     23         25.372234   0.000000
     24         28.050186   0.000000
 
  0.5000000E+00 -0.2775558E-16  0.1250000E+00  0.7500000E-02
      1        -41.671958   1.000000
      2        -41.632870   1.000000
      3        -41.398841   1.000000
      4        -41.338629   1.000000
      5        -41.298162   1.000000
      6        -41.199626   1.000000
      7          4.646252   1.000000
      8          4.753186   1.000000
      9          5.697755   1.000000
     10          7.131966   1.000000
     11          8.124475   1.000000
     12          8.294662   1.000000
     13          9.347147   1.000000
     14         10.972929   0.999995
     15         11.449623   0.000000
     16         11.623497   0.000000
     17         13.168057   0.000000
     18         14.765723   0.000000
     19         18.253960   0.000000
     20         18.999058   0.000000
     21         21.855461   0.000000
     22         23.459452   0.000000
     23         24.536379   0.000000
     24         27.534232   0.000000
 
  0.1000000E+00  0.1000000E+00  0.1250000E+00  0.1500000E-01
      1        -41.424692   1.000000
      2        -41.381800   1.000000
      3        -41.367740   1.000000
      4        -41.318576   1.000000
      5        -41.283665   1.000000
      6        -41.152848   1.000000
      7          2.584999   1.000000
      8          4.970193   1.000000
      9          6.908900   1.000000
     10          7.358480   1.000000
     11          7.715831   1.000000
     12          7.944090   1.000000
     13          8.506033   1.000000
     14          8.727414   1.000000
     15          9.017415   1.000000
     16          9.308686   1.000000
     17         10.957655   0.999999
     18         13.313983   0.000000
     19         17.016300   0.000000
     20         26.533728   0.000000
     21         27.256070   0.000000
     22         28.140278   0.000000
     23         28.812896   0.000000
     24         30.266417   0.000000
 
  0.2000000E+00  0.1000000E+00  0.1250000E+00  0.3000000E-01
      1        -41.491738   1.000000
      2        -41.466640   1.000000
      3        -41.375921   1.000000
      4        -41.355066   1.000000
      5        -41.313371   1.000000
      6        -41.163101   1.000000
      7          3.722898   1.000000
      8          5.614926   1.000000
      9          6.580060   1.000000
     10          6.768034   1.000000
     11          7.334539   1.000000
     12          7.996016   1.000000
     13          8.710413   1.000000
     14          8.852477   1.000000
     15          9.739267   1.000000
     16          9.976746   1.000000
     17         10.957430   0.999999
     18         14.479990   0.000000
     19         17.818795   0.000000
     20         23.518934   0.000000
     21         25.375041   0.000000
     22         27.314562   0.000000
     23         28.693866   0.000000
     24         30.521486   0.000000
 
  0.3000000E+00  0.1000000E+00  0.1250000E+00  0.3000000E-01
      1        -41.590995   1.000000
      2        -41.558101   1.000000
      3        -41.393979   1.000000
      4        -41.343267   1.000000
      5        -41.331651   1.000000
      6        -41.179830   1.000000
      7          4.673912   1.000000
      8          5.377068   1.000000
      9          6.051561   1.000000
     10          6.920581   1.000000
     11          7.775579   1.000000
     12          8.154166   1.000000
     13          8.397841   1.000000
     14          9.663841   1.000000
     15         10.751897   1.000000
     16         10.811970   1.000000
     17         11.510980   0.000000
     18         15.569643   0.000000
     19         18.753105   0.000000
     20         20.266182   0.000000
     21         23.248952   0.000000
     22         25.415221   0.000000
     23         26.592827   0.000000
     24         28.441765   0.000000
 
  0.4000000E+00  0.1000000E+00  0.1250000E+00  0.3000000E-01
      1        -41.652239   1.000000
      2        -41.614472   1.000000
      3        -41.417633   1.000000
      4        -41.359444   1.000000
      5        -41.297447   1.000000
      6        -41.198811   1.000000
      7          4.875291   1.000000
      8          5.074526   1.000000
      9          5.840992   1.000000
     10          7.074261   1.000000
     11          7.861918   1.000000
     12          8.420627   1.000000
     13          8.824348   1.000000
     14         10.768125   1.000000
     15         10.884594   1.000000
     16         11.303974   0.000000
     17         13.108202   0.000000
     18         15.911963   0.000000
     19         17.697979   0.000000
     20         20.052569   0.000000
     21         21.425622   0.000000
     22         23.539495   0.000000
     23         25.086003   0.000000
     24         27.259406   0.000000
 
  0.2000000E+00  0.2000000E+00  0.1250000E+00  0.1500000E-01
      1        -41.548169   1.000000
      2        -41.547242   1.000000
      3        -41.400670   1.000000
      4        -41.366132   1.000000
      5        -41.336426   1.000000
      6        -41.177513   1.000000
      7          4.877088   1.000000
      8          6.027599   1.000000
      9          6.270436   1.000000
     10          6.352018   1.000000
     11          7.587571   1.000000
     12          7.596518   1.000000
     13          8.457379   1.000000
     14          9.062797   1.000000
     15         10.615158   1.000000
     16         10.804453   1.000000
     17         11.604399   0.000000
     18         15.566194   0.000000
     19         18.982651   0.000000
     20         21.408468   0.000000
     21         22.043256   0.000000
     22         26.530113   0.000000
     23         27.046901   0.000000
     24         29.036743   0.000000
 
  0.3000000E+00  0.2000000E+00  0.1250000E+00  0.3000000E-01
      1        -41.606806   1.000000
      2        -41.581361   1.000000
      3        -41.451555   1.000000
      4        -41.407344   1.000000
      5        -41.296905   1.000000
      6        -41.197997   1.000000
      7          5.468870   1.000000
      8          5.854913   1.000000
      9          6.024479   1.000000
     10          6.786391   1.000000
     11          7.609938   1.000000
     12          7.982756   1.000000
     13          8.270142   1.000000
     14          9.762245   1.000000
     15         10.487724   1.000000
     16         11.232152   0.001775
     17         13.250164   0.000000
     18         17.362890   0.000000
     19         17.641612   0.000000
     20         20.004228   0.000000
     21         21.268730   0.000000
     22         24.352140   0.000000
     23         25.907179   0.000000
     24         26.950090   0.000000
 
  0.4000000E+00  0.2000000E+00  0.1250000E+00  0.1500000E-01
      1        -41.628883   1.000000
      2        -41.591223   1.000000
      3        -41.475582   1.000000
      4        -41.423351   1.000000
      5        -41.273851   1.000000
      6        -41.213358   1.000000
      7          5.415406   1.000000
      8          5.735409   1.000000
      9          6.116305   1.000000
     10          7.006649   1.000000
     11          7.470472   1.000000
     12          8.176006   1.000000
     13          8.563286   1.000000
     14         10.429862   1.000000
     15         10.487274   1.000000
     16         11.010602   0.999597
     17         14.880795   0.000000
     18         15.347741   0.000000
     19         18.696708   0.000000
     20         19.869611   0.000000
     21         20.845709   0.000000
     22         23.787724   0.000000
     23         25.364387   0.000000
     24         25.631109   0.000000
 
  0.3000000E+00  0.3000000E+00  0.1250000E+00  0.1500000E-01
      1        -41.591985   1.000000
      2        -41.564708   1.000000
      3        -41.516297   1.000000
      4        -41.477384   1.000000
      5        -41.261483   1.000000
      6        -41.223920   1.000000
      7          5.801244   1.000000
      8          6.158651   1.000000
      9          6.468457   1.000000
     10          6.755511   1.000000
     11          7.547690   1.000000
     12          7.588828   1.000000
     13          8.493009   1.000000
     14         10.152952   1.000000
     15         10.260881   1.000000
     16         10.868486   1.000000
     17         14.905790   0.000000
     18         16.218080   0.000000
     19         17.753600   0.000000
     20         20.149102   0.000000
     21         22.779921   0.000000
     22         22.879690   0.000000
     23         24.734067   0.000000
     24         26.030461   0.000000
 
  0.0000000E+00  0.0000000E+00  0.2500000E+00  0.2500000E-02
      1        -41.414104   1.000000
      2        -41.289307   1.000000
      3        -41.289306   1.000000
      4        -41.260934   1.000000
      5        -41.260932   1.000000
      6        -41.183521   1.000000
      7          1.936497   1.000000
      8          3.950598   1.000000
      9          7.098777   1.000000
     10          7.664726   1.000000
     11          7.664726   1.000000
     12          7.942055   1.000000
     13          7.942056   1.000000
     14          8.664496   1.000000
     15          9.697988   1.000000
     16          9.697989   1.000000
     17         10.804650   1.000000
     18         10.804650   1.000000
     19         18.583366   0.000000
     20         25.240218   0.000000
     21         27.482689   0.000000
     22         27.608840   0.000000
     23         31.113551   0.000000
     24         31.113551   0.000000
 
  0.1000000E+00 -0.1387779E-16  0.2500000E+00  0.1500000E-01
      1        -41.408950   1.000000
      2        -41.321755   1.000000
      3        -41.301217   1.000000
      4        -41.299689   1.000000
      5        -41.268969   1.000000
      6        -41.181619   1.000000
      7          2.288769   1.000000
      8          4.299201   1.000000
      9          7.129530   1.000000
     10          7.486529   1.000000
     11          7.563402   1.000000
     12          7.918170   1.000000
     13          8.193900   1.000000
     14          8.305980   1.000000
     15          9.578191   1.000000
     16          9.579025   1.000000
     17         10.826221   1.000000
     18         11.431669   0.000000
     19         18.738186   0.000000
     20         25.742686   0.000000
     21         27.875672   0.000000
     22         27.992107   0.000000
     23         29.662110   0.000000
     24         30.542795   0.000000
 
  0.2000000E+00 -0.2775558E-16  0.2500000E+00  0.1500000E-01
      1        -41.438887   1.000000
      2        -41.400946   1.000000
      3        -41.358588   1.000000
      4        -41.325285   1.000000
      5        -41.289364   1.000000
      6        -41.181171   1.000000
      7          3.216550   1.000000
      8          5.098661   1.000000
      9          6.770755   1.000000
     10          7.058018   1.000000
     11          7.220746   1.000000
     12          8.030159   1.000000
     13          8.531167   1.000000
     14          8.881893   1.000000
     15          9.435844   1.000000
     16          9.455974   1.000000
     17         10.849242   1.000000
     18         12.442655   0.000000
     19         19.196879   0.000000
     20         25.540367   0.000000
     21         27.161631   0.000000
     22         27.932421   0.000000
     23         28.866880   0.000000
     24         29.875575   0.000000
 
  0.3000000E+00  0.0000000E+00  0.2500000E+00  0.1500000E-01
      1        -41.546725   1.000000
      2        -41.516132   1.000000
      3        -41.357525   1.000000
      4        -41.330955   1.000000
      5        -41.316288   1.000000
      6        -41.186729   1.000000
      7          4.186885   1.000000