 vasp.6.3.2 27Jun22 (build Aug 12 2022 00:53:59) complex                        
  
 executed on               tv2STD date 2024.11.30  15:57:55
 running   24 mpi-ranks, with    1 threads/rank
 distrk:  each k-point on   24 cores,    1 groups
 distr:  one band on NCORE=   1 cores,   24 groups


--------------------------------------------------------------------------------------------------------


 INCAR:
   SYSTEM = Pt-hcp
   NWRITE = 2    write-flag
   ISTART = 0    job   : 0-new, 1-cont, 2-samecut
   ICHARG = 2    charge: 0-wave, 1-file, 2-atom, >10-const
   INIWAV = 1    electr: 0-lowe 1-rand  2-diag
   ENCUT = 400     energy cutoff in eV
   PREC = Accurate      normal | accurate
   ADDGRID = .FALSE.  (use fine grid)
   NELM = 100     number of ELM steps
   EDIFF = 1E-06    energy stopping-criterion for ELM
   LREAL = .FALSE.      real-space projection (.FALSE., .TRUE., On, Auto)
   ALGO = Normal     Normal, Fast, Very_Fast
   LWAVE = .FALSE.
   LCHARG = .FALSE.
   NSW = 0       max number of geometry steps
   IBRION = -1     ionic relax: 0-MD, 1-quasi-Newton, 2-CG, 3-Damped MD
   EDIFFG = -0.02  force (eV/A) stopping-criterion for geometry steps
   ISIF = 2     (1:force\=y stress\=trace only ions\=y shape\=n volume\=n)
   ISYM = 1     (1-use symmetry, 0-no symmetry)
   ISMEAR = 0     (-1-Fermi, 1-Methfessel/Paxton)
   SIGMA = 0.05  broadening in eV

 POTCAR:    PAW_PBE Pt_pv 12Dec2005               
 POTCAR:    PAW_PBE Pt_pv 12Dec2005               
   SHA256 =  e5abf7e8cd8db70d0153315afc5ad66b6e3eeee29cc2d5b91b16730957c1d208 Pt_pv/POTCAR          
   COPYR  = (c) Copyright 12Dec2005 Georg Kresse                                                    
   COPYR  = This file is part of the software VASP. Any use, copying, and all other rights are regul
   COPYR  = If you do not have a valid VASP license, you may not use, copy or distribute this file. 
   VRHFIN =Pt: 5ps1d9                                                                               
   LEXCH  = PE                                                                                      
   EATOM  =  2428.2504 eV,  178.4714 Ry                                                             
                                                                                                    
   TITEL  = PAW_PBE Pt_pv 12Dec2005                                                                 
   LULTRA =        F    use ultrasoft PP ?                                                          
   IUNSCR =        1    unscreen: 0-lin 1-nonlin 2-no                                               
   RPACOR =    2.000    partial core radius                                                         
   POMASS =  195.080; ZVAL   =   16.000    mass and valenz                                          
   RCORE  =    2.200    outmost cutoff radius                                                       
   RWIGS  =    2.200; RWIGS  =    1.164    wigner-seitz radius (au A)                               
   ENMAX  =  294.607; ENMIN  =  220.955 eV                                                          
   ICORE  =        3    local potential                                                             
   LCOR   =        T    correct aug charges                                                         
   LPAW   =        T    paw PP                                                                      
   EAUG   =  527.014                                                                                
   DEXC   =    0.000                                                                                
   RMAX   =    2.247    core radius for proj-oper                                                   
   RAUG   =    1.300    factor for augmentation sphere                                              
   RDEP   =    2.279    radius for radial grids                                                     
   RDEPT  =    1.878    core radius for aug-charge                                                  
                                                                                                    
   Atomic configuration                                                                             
   16 entries                                                                                       
     n  l   j            E        occ.                                                              
     1  0  0.50    -78401.1885   2.0000                                                             
     2  0  0.50    -13770.7750   2.0000                                                             
     2  1  1.50    -11931.0468   6.0000                                                             
     3  0  0.50     -3234.7234   2.0000                                                             
     3  1  1.50     -2699.2216   6.0000                                                             
     3  2  2.50     -2119.5714  10.0000                                                             
     4  0  0.50      -695.1528   2.0000                                                             
     4  1  1.50      -519.6034   6.0000                                                             
     4  2  2.50      -306.6786  10.0000                                                             
     4  3  3.50       -70.1041  14.0000                                                             
     5  0  0.50      -101.7747   2.0000                                                             
     5  1  1.50       -55.9873   6.0000                                                             
     6  1  1.50        -6.8029   0.0000                                                             
     5  2  2.50        -6.1423   9.0000                                                             
     6  0  0.50        -5.6573   1.0000                                                             
     5  3  2.50        -1.3606   0.0000                                                             
   Description                                                                                      
     l       E           TYP  RCUT    TYP  RCUT                                                     
     1    -55.9873477     23  2.000                                                                 
     1     27.2116520     23  2.000                                                                 
     2     -6.1423404     23  2.200                                                                 
     2     -4.6754623     23  2.200                                                                 
     0     -5.6573207     23  2.200                                                                 
     0     47.6203910     23  2.200                                                                 
     3      6.8029130     23  2.200                                                                 
  local pseudopotential read in
  partial core-charges read in
  partial kinetic energy density read in
  atomic valenz-charges read in
  non local Contribution for L=           1  read in
    real space projection operators read in
  non local Contribution for L=           1  read in
    real space projection operators read in
  non local Contribution for L=           2  read in
    real space projection operators read in
  non local Contribution for L=           2  read in
    real space projection operators read in
  non local Contribution for L=           0  read in
    real space projection operators read in
  non local Contribution for L=           0  read in
    real space projection operators read in
    PAW grid and wavefunctions read in
 
   number of l-projection  operators is LMAX  =           6
   number of lm-projection operators is LMMAX =          18
 
  PAW_PBE Pt_pv 12Dec2005               :
 energy of atom  1       EATOM=-2428.2504
 kinetic energy error for atom=    0.0827 (will be added to EATOM!!)
 
 
 POSCAR: Pt
  positions in cartesian coordinates
  No initial velocities read in
 exchange correlation table for  LEXCH =        8
   RHO(1)=    0.500       N(1)  =     2000
   RHO(2)=  100.500       N(2)  =     4000
 


--------------------------------------------------------------------------------------------------------


 ion  position               nearest neighbor table
   1  0.000  0.000  0.000-
   2  0.333  0.667  0.500-
 
  LATTYP: Found a hexagonal cell.
 ALAT       =     2.7600000000
 C/A-ratio  =     1.7355072464
  
  Lattice vectors:
  
 A1 = (   2.7600000000,   0.0000000000,   0.0000000000)
 A2 = (  -1.3800000000,   2.3902301144,   0.0000000000)
 A3 = (   0.0000000000,   0.0000000000,   4.7900000000)


Analysis of symmetry for initial positions (statically):
=====================================================================
 Subroutine PRICEL returns:
 Original cell was already a primitive cell.
 

 Routine SETGRP: Setting up the symmetry group for a 
 hexagonal supercell.


 Subroutine GETGRP returns: Found 24 space group operations
 (whereof 12 operations were pure point group operations)
 out of a pool of 24 trial point group operations.


The static configuration has the point symmetry D_3h.
 The point group associated with its full space group is D_6h.


Analysis of symmetry for dynamics (positions and initial velocities):
=====================================================================
 Subroutine PRICEL returns:
 Original cell was already a primitive cell.
 

 Routine SETGRP: Setting up the symmetry group for a 
 hexagonal supercell.


 Subroutine GETGRP returns: Found 24 space group operations
 (whereof 12 operations were pure point group operations)
 out of a pool of 24 trial point group operations.


The dynamic configuration has the point symmetry D_3h.
 The point group associated with its full space group is D_6h.


 Subroutine INISYM returns: Found 24 space group operations
 (whereof 12 operations are pure point group operations),
 and found     1 'primitive' translations


----------------------------------------------------------------------------------------

                                     Primitive cell                                     

  volume of cell :      31.5998

  direct lattice vectors                    reciprocal lattice vectors
     2.760000000  0.000000000  0.000000000     0.362318841  0.209184880  0.000000000
    -1.380000000  2.390230114  0.000000000     0.000000000  0.418369760  0.000000000
     0.000000000  0.000000000  4.790000000     0.000000000  0.000000000  0.208768267

  length of vectors
     2.760000000  2.760000000  4.790000000     0.418369760  0.418369760  0.208768267

  position of ions in fractional coordinates (direct lattice)
     0.000000000  0.000000000  0.000000000
     0.333333333  0.666666667  0.500000000

  ion indices of the primitive-cell ions
   primitive index   ion index
                 1           1
                 2           2

----------------------------------------------------------------------------------------

 
 
 KPOINTS: Automatic mesh                          

Automatic generation of k-mesh.
 Grid dimensions read from file:
 generate k-points for:   10   10    8

 Generating k-lattice:

  Cartesian coordinates                     Fractional coordinates (reciprocal lattice)
     0.036231884  0.020918488  0.000000000     0.100000000  0.000000000  0.000000000
     0.000000000  0.041836976  0.000000000     0.000000000  0.100000000  0.000000000
     0.000000000  0.000000000  0.026096033     0.000000000  0.000000000  0.125000000

  Length of vectors
     0.041836976  0.041836976  0.026096033

  Shift w.r.t. Gamma in fractional coordinates (k-lattice)
     0.000000000  0.000000000  0.000000000

 
 Subroutine IBZKPT returns following result:
 ===========================================
 
 Found     70 irreducible k-points:
 
 Following reciprocal coordinates:
            Coordinates               Weight
  0.000000  0.000000  0.000000      1.000000
  0.100000 -0.000000  0.000000      6.000000
  0.200000 -0.000000  0.000000      6.000000
  0.300000  0.000000  0.000000      6.000000
  0.400000 -0.000000  0.000000      6.000000
  0.500000 -0.000000  0.000000      3.000000
  0.100000  0.100000  0.000000      6.000000
  0.200000  0.100000  0.000000     12.000000
  0.300000  0.100000  0.000000     12.000000
  0.400000  0.100000  0.000000     12.000000
  0.200000  0.200000  0.000000      6.000000
  0.300000  0.200000  0.000000     12.000000
  0.400000  0.200000  0.000000      6.000000
  0.300000  0.300000  0.000000      6.000000
  0.000000  0.000000  0.125000      2.000000
  0.100000 -0.000000  0.125000     12.000000
  0.200000 -0.000000  0.125000     12.000000
  0.300000  0.000000  0.125000     12.000000
  0.400000 -0.000000  0.125000     12.000000
  0.500000 -0.000000  0.125000      6.000000
  0.100000  0.100000  0.125000     12.000000
  0.200000  0.100000  0.125000     24.000000
  0.300000  0.100000  0.125000     24.000000
  0.400000  0.100000  0.125000     24.000000
  0.200000  0.200000  0.125000     12.000000
  0.300000  0.200000  0.125000     24.000000
  0.400000  0.200000  0.125000     12.000000
  0.300000  0.300000  0.125000     12.000000
  0.000000  0.000000  0.250000      2.000000
  0.100000 -0.000000  0.250000     12.000000
  0.200000 -0.000000  0.250000     12.000000
  0.300000  0.000000  0.250000     12.000000
  0.400000 -0.000000  0.250000     12.000000
  0.500000 -0.000000  0.250000      6.000000
  0.100000  0.100000  0.250000     12.000000
  0.200000  0.100000  0.250000     24.000000
  0.300000  0.100000  0.250000     24.000000
  0.400000  0.100000  0.250000     24.000000
  0.200000  0.200000  0.250000     12.000000
  0.300000  0.200000  0.250000     24.000000
  0.400000  0.200000  0.250000     12.000000
  0.300000  0.300000  0.250000     12.000000
  0.000000  0.000000  0.375000      2.000000
  0.100000 -0.000000  0.375000     12.000000
  0.200000 -0.000000  0.375000     12.000000
  0.300000  0.000000  0.375000     12.000000
  0.400000 -0.000000  0.375000     12.000000
  0.500000 -0.000000  0.375000      6.000000
  0.100000  0.100000  0.375000     12.000000
  0.200000  0.100000  0.375000     24.000000
  0.300000  0.100000  0.375000     24.000000
  0.400000  0.100000  0.375000     24.000000
  0.200000  0.200000  0.375000     12.000000
  0.300000  0.200000  0.375000     24.000000
  0.400000  0.200000  0.375000     12.000000
  0.300000  0.300000  0.375000     12.000000
  0.000000  0.000000  0.500000      1.000000
  0.100000 -0.000000  0.500000      6.000000
  0.200000 -0.000000  0.500000      6.000000
  0.300000  0.000000  0.500000      6.000000
  0.400000 -0.000000  0.500000      6.000000
  0.500000 -0.000000  0.500000      3.000000
  0.100000  0.100000  0.500000      6.000000
  0.200000  0.100000  0.500000     12.000000
  0.300000  0.100000  0.500000     12.000000
  0.400000  0.100000  0.500000     12.000000
  0.200000  0.200000  0.500000      6.000000
  0.300000  0.200000  0.500000     12.000000
  0.400000  0.200000  0.500000      6.000000
  0.300000  0.300000  0.500000      6.000000
 
 Following cartesian coordinates:
            Coordinates               Weight
  0.000000  0.000000  0.000000      1.000000
  0.036232  0.020918  0.000000      6.000000
  0.072464  0.041837  0.000000      6.000000
  0.108696  0.062755  0.000000      6.000000
  0.144928  0.083674  0.000000      6.000000
  0.181159  0.104592  0.000000      3.000000
  0.036232  0.062755  0.000000      6.000000
  0.072464  0.083674  0.000000     12.000000
  0.108696  0.104592  0.000000     12.000000
  0.144928  0.125511  0.000000     12.000000
  0.072464  0.125511  0.000000      6.000000
  0.108696  0.146429  0.000000     12.000000
  0.144928  0.167348  0.000000      6.000000
  0.108696  0.188266  0.000000      6.000000
  0.000000  0.000000  0.026096      2.000000
  0.036232  0.020918  0.026096     12.000000
  0.072464  0.041837  0.026096     12.000000
  0.108696  0.062755  0.026096     12.000000
  0.144928  0.083674  0.026096     12.000000
  0.181159  0.104592  0.026096      6.000000
  0.036232  0.062755  0.026096     12.000000
  0.072464  0.083674  0.026096     24.000000
  0.108696  0.104592  0.026096     24.000000
  0.144928  0.125511  0.026096     24.000000
  0.072464  0.125511  0.026096     12.000000
  0.108696  0.146429  0.026096     24.000000
  0.144928  0.167348  0.026096     12.000000
  0.108696  0.188266  0.026096     12.000000
  0.000000  0.000000  0.052192      2.000000
  0.036232  0.020918  0.052192     12.000000
  0.072464  0.041837  0.052192     12.000000
  0.108696  0.062755  0.052192     12.000000
  0.144928  0.083674  0.052192     12.000000
  0.181159  0.104592  0.052192      6.000000
  0.036232  0.062755  0.052192     12.000000
  0.072464  0.083674  0.052192     24.000000
  0.108696  0.104592  0.052192     24.000000
  0.144928  0.125511  0.052192     24.000000
  0.072464  0.125511  0.052192     12.000000
  0.108696  0.146429  0.052192     24.000000
  0.144928  0.167348  0.052192     12.000000
  0.108696  0.188266  0.052192     12.000000
  0.000000  0.000000  0.078288      2.000000
  0.036232  0.020918  0.078288     12.000000
  0.072464  0.041837  0.078288     12.000000
  0.108696  0.062755  0.078288     12.000000
  0.144928  0.083674  0.078288     12.000000
  0.181159  0.104592  0.078288      6.000000
  0.036232  0.062755  0.078288     12.000000
  0.072464  0.083674  0.078288     24.000000
  0.108696  0.104592  0.078288     24.000000
  0.144928  0.125511  0.078288     24.000000
  0.072464  0.125511  0.078288     12.000000
  0.108696  0.146429  0.078288     24.000000
  0.144928  0.167348  0.078288     12.000000
  0.108696  0.188266  0.078288     12.000000
  0.000000  0.000000  0.104384      1.000000
  0.036232  0.020918  0.104384      6.000000
  0.072464  0.041837  0.104384      6.000000
  0.108696  0.062755  0.104384      6.000000
  0.144928  0.083674  0.104384      6.000000
  0.181159  0.104592  0.104384      3.000000
  0.036232  0.062755  0.104384      6.000000
  0.072464  0.083674  0.104384     12.000000
  0.108696  0.104592  0.104384     12.000000
  0.144928  0.125511  0.104384     12.000000
  0.072464  0.125511  0.104384      6.000000
  0.108696  0.146429  0.104384     12.000000
  0.144928  0.167348  0.104384      6.000000
  0.108696  0.188266  0.104384      6.000000
 


--------------------------------------------------------------------------------------------------------




 Dimension of arrays:
   k-points           NKPTS =     70   k-points in BZ     NKDIM =     70   number of bands    NBANDS=     24
   number of dos      NEDOS =    301   number of ions     NIONS =      2
   non local maximal  LDIM  =      6   non local SUM 2l+1 LMDIM =     18
   total plane-waves  NPLWV =  10368
   max r-space proj   IRMAX =      1   max aug-charges    IRDMAX=  11369
   dimension x,y,z NGX =    18 NGY =   18 NGZ =   32
   dimension x,y,z NGXF=    36 NGYF=   36 NGZF=   64
   support grid    NGXF=    36 NGYF=   36 NGZF=   64
   ions per type =               2
   NGX,Y,Z   is equivalent  to a cutoff of  10.84, 10.84, 11.11 a.u.
   NGXF,Y,Z  is equivalent  to a cutoff of  21.68, 21.68, 22.21 a.u.

 SYSTEM =  Pt-hcp                                  
 POSCAR =  Pt                                      

 Startparameter for this run:
   NWRITE =      2    write-flag & timer
   PREC   = accura    normal or accurate (medium, high low for compatibility)
   ISTART =      0    job   : 0-new  1-cont  2-samecut
   ICHARG =      2    charge: 1-file 2-atom 10-const
   ISPIN  =      1    spin polarized calculation?
   LNONCOLLINEAR =      F non collinear calculations
   LSORBIT =      F    spin-orbit coupling
   INIWAV =      1    electr: 0-lowe 1-rand  2-diag
   LASPH  =      F    aspherical Exc in radial PAW
 Electronic Relaxation 1
   ENCUT  =  400.0 eV  29.40 Ry    5.42 a.u.   4.50  4.50  7.81*2*pi/ulx,y,z
   ENINI  =  400.0     initial cutoff
   ENAUG  =  527.0 eV  augmentation charge cutoff
   NELM   =    100;   NELMIN=  2; NELMDL= -5     # of ELM steps 
   EDIFF  = 0.1E-05   stopping-criterion for ELM
   LREAL  =      F    real-space projection
   NLSPLINE    = F    spline interpolate recip. space projectors
   LCOMPAT=      F    compatible to vasp.4.4
   GGA_COMPAT  = T    GGA compatible to vasp.4.4-vasp.4.6
   LMAXPAW     = -100 max onsite density
   LMAXMIX     =    2 max onsite mixed and CHGCAR
   VOSKOWN=      0    Vosko Wilk Nusair interpolation
   ROPT   =    0.00000
 Ionic relaxation
   EDIFFG = -.2E-01   stopping-criterion for IOM
   NSW    =      0    number of steps for IOM
   NBLOCK =      1;   KBLOCK =      1    inner block; outer block 
   IBRION =     -1    ionic relax: 0-MD 1-quasi-New 2-CG
   NFREE  =      0    steps in history (QN), initial steepest desc. (CG)
   ISIF   =      2    stress and relaxation
   IWAVPR =     10    prediction:  0-non 1-charg 2-wave 3-comb
   ISYM   =      1    0-nonsym 1-usesym 2-fastsym
   LCORR  =      T    Harris-Foulkes like correction to forces

   POTIM  = 0.5000    time-step for ionic-motion
   TEIN   =    0.0    initial temperature
   TEBEG  =    0.0;   TEEND  =   0.0 temperature during run
   SMASS  =  -3.00    Nose mass-parameter (am)
   estimated Nose-frequenzy (Omega)   =  0.10E-29 period in steps = 0.13E+47 mass=  -0.174E-27a.u.
   SCALEE = 1.0000    scale energy and forces
   NPACO  =    256;   APACO  = 10.0  distance and # of slots for P.C.
   PSTRESS=    0.0 pullay stress

  Mass of Ions in am
   POMASS = 195.08
  Ionic Valenz
   ZVAL   =  16.00
  Atomic Wigner-Seitz radii
   RWIGS  =  -1.00
  virtual crystal weights 
   VCA    =   1.00
   NELECT =      32.0000    total number of electrons
   NUPDOWN=      -1.0000    fix difference up-down

 DOS related values:
   EMIN   =  10.00;   EMAX   =-10.00  energy-range for DOS
   EFERMI =   0.00
   ISMEAR =     0;   SIGMA  =   0.05  broadening in eV -4-tet -1-fermi 0-gaus

 Electronic relaxation 2 (details)
   IALGO  =     38    algorithm
   LDIAG  =      T    sub-space diagonalisation (order eigenvalues)
   LSUBROT=      F    optimize rotation matrix (better conditioning)
   TURBO    =      0    0=normal 1=particle mesh
   IRESTART =      0    0=no restart 2=restart with 2 vectors
   NREBOOT  =      0    no. of reboots
   NMIN     =      0    reboot dimension
   EREF     =   0.00    reference energy to select bands
   IMIX   =      4    mixing-type and parameters
     AMIX     =   0.40;   BMIX     =  1.00
     AMIX_MAG =   1.60;   BMIX_MAG =  1.00
     AMIN     =   0.10
     WC   =   100.;   INIMIX=   1;  MIXPRE=   1;  MAXMIX= -45

 Intra band minimization:
   WEIMIN = 0.0000     energy-eigenvalue tresh-hold
   EBREAK =  0.10E-07  absolut break condition
   DEPER  =   0.30     relativ break condition  

   TIME   =   0.40     timestep for ELM

  volume/ion in A,a.u.               =      15.80       106.62
  Fermi-wavevector in a.u.,A,eV,Ry     =   1.643981  3.106673 36.772093  2.702673
  Thomas-Fermi vector in A             =   2.734024
 
 Write flags
   LWAVE        =      F    write WAVECAR
   LDOWNSAMPLE  =      F    k-point downsampling of WAVECAR
   LCHARG       =      F    write CHGCAR
   LVTOT        =      F    write LOCPOT, total local potential
   LVHAR        =      F    write LOCPOT, Hartree potential only
   LELF         =      F    write electronic localiz. function (ELF)
   LORBIT       =      0    0 simple, 1 ext, 2 COOP (PROOUT), +10 PAW based schemes


 Dipole corrections
   LMONO  =      F    monopole corrections only (constant potential shift)
   LDIPOL =      F    correct potential (dipole corrections)
   IDIPOL =      0    1-x, 2-y, 3-z, 4-all directions 
   EPSILON=  1.0000000 bulk dielectric constant

 Exchange correlation treatment:
   GGA     =    --    GGA type
   LEXCH   =     8    internal setting for exchange type
   LIBXC   =     F    Libxc                    
   VOSKOWN =     0    Vosko Wilk Nusair interpolation
   LHFCALC =     F    Hartree Fock is set to
   LHFONE  =     F    Hartree Fock one center treatment
   AEXX    =    0.0000 exact exchange contribution

 Linear response parameters
   LEPSILON=     F    determine dielectric tensor
   LRPA    =     F    only Hartree local field effects (RPA)
   LNABLA  =     F    use nabla operator in PAW spheres
   LVEL    =     F    velocity operator in full k-point grid
   CSHIFT  =0.1000    complex shift for real part using Kramers Kronig
   OMEGAMAX=  -1.0    maximum frequency
   DEG_THRESHOLD= 0.2000000E-02 threshold for treating states as degnerate
   RTIME   =   -0.100 relaxation time in fs
  (WPLASMAI=    0.000 imaginary part of plasma frequency in eV, 0.658/RTIME)
   DFIELD  = 0.0000000 0.0000000 0.0000000 field for delta impulse in time
 
  Optional k-point grid parameters
   LKPOINTS_OPT  =     F    use optional k-point grid
   KPOINTS_OPT_MODE=     1    mode for optional k-point grid
 
 Orbital magnetization related:
   ORBITALMAG=     F  switch on orbital magnetization
   LCHIMAG   =     F  perturbation theory with respect to B field
   DQ        =  0.001000  dq finite difference perturbation B field
   LLRAUG    =     F  two centre corrections for induced B field



--------------------------------------------------------------------------------------------------------


 Static calculation
 charge density and potential will be updated during run
 non-spin polarized calculation
 Variant of blocked Davidson
 Davidson routine will perform the subspace rotation
 perform sub-space diagonalisation
    after iterative eigenvector-optimisation
 modified Broyden-mixing scheme, WC =      100.0
 initial mixing is a Kerker type mixing with AMIX =  0.4000 and BMIX =      1.0000
 Hartree-type preconditioning will be used
 using additional bands            8
 reciprocal scheme for non local part
 use partial core corrections
 calculate Harris-corrections to forces 
   (improved forces if not selfconsistent)
 use gradient corrections 
 use of overlap-Matrix (Vanderbilt PP)
 Gauss-broadening in eV      SIGMA  =   0.05


--------------------------------------------------------------------------------------------------------


  energy-cutoff  :      400.00
  volume of cell :       31.60
      direct lattice vectors                 reciprocal lattice vectors
     2.760000000  0.000000000  0.000000000     0.362318841  0.209184880  0.000000000
    -1.380000000  2.390230114  0.000000000     0.000000000  0.418369760  0.000000000
     0.000000000  0.000000000  4.790000000     0.000000000  0.000000000  0.208768267

  length of vectors
     2.760000000  2.760000000  4.790000000     0.418369760  0.418369760  0.208768267


 
 k-points in units of 2pi/SCALE and weight: Automatic mesh                          
   0.00000000  0.00000000  0.00000000       0.001
   0.03623188  0.02091849  0.00000000       0.007
   0.07246377  0.04183698  0.00000000       0.007
   0.10869565  0.06275546  0.00000000       0.007
   0.14492754  0.08367395  0.00000000       0.007
   0.18115942  0.10459244  0.00000000       0.004
   0.03623188  0.06275546  0.00000000       0.007
   0.07246377  0.08367395  0.00000000       0.015
   0.10869565  0.10459244  0.00000000       0.015
   0.14492754  0.12551093  0.00000000       0.015
   0.07246377  0.12551093  0.00000000       0.007
   0.10869565  0.14642942  0.00000000       0.015
   0.14492754  0.16734790  0.00000000       0.007
   0.10869565  0.18826639  0.00000000       0.007
   0.00000000  0.00000000  0.02609603       0.003
   0.03623188  0.02091849  0.02609603       0.015
   0.07246377  0.04183698  0.02609603       0.015
   0.10869565  0.06275546  0.02609603       0.015
   0.14492754  0.08367395  0.02609603       0.015
   0.18115942  0.10459244  0.02609603       0.007
   0.03623188  0.06275546  0.02609603       0.015
   0.07246377  0.08367395  0.02609603       0.030
   0.10869565  0.10459244  0.02609603       0.030
   0.14492754  0.12551093  0.02609603       0.030
   0.07246377  0.12551093  0.02609603       0.015
   0.10869565  0.14642942  0.02609603       0.030
   0.14492754  0.16734790  0.02609603       0.015
   0.10869565  0.18826639  0.02609603       0.015
   0.00000000  0.00000000  0.05219207       0.003
   0.03623188  0.02091849  0.05219207       0.015
   0.07246377  0.04183698  0.05219207       0.015
   0.10869565  0.06275546  0.05219207       0.015
   0.14492754  0.08367395  0.05219207       0.015
   0.18115942  0.10459244  0.05219207       0.007
   0.03623188  0.06275546  0.05219207       0.015
   0.07246377  0.08367395  0.05219207       0.030
   0.10869565  0.10459244  0.05219207       0.030
   0.14492754  0.12551093  0.05219207       0.030
   0.07246377  0.12551093  0.05219207       0.015
   0.10869565  0.14642942  0.05219207       0.030
   0.14492754  0.16734790  0.05219207       0.015
   0.10869565  0.18826639  0.05219207       0.015
   0.00000000  0.00000000  0.07828810       0.003
   0.03623188  0.02091849  0.07828810       0.015
   0.07246377  0.04183698  0.07828810       0.015
   0.10869565  0.06275546  0.07828810       0.015
   0.14492754  0.08367395  0.07828810       0.015
   0.18115942  0.10459244  0.07828810       0.007
   0.03623188  0.06275546  0.07828810       0.015
   0.07246377  0.08367395  0.07828810       0.030
   0.10869565  0.10459244  0.07828810       0.030
   0.14492754  0.12551093  0.07828810       0.030
   0.07246377  0.12551093  0.07828810       0.015
   0.10869565  0.14642942  0.07828810       0.030
   0.14492754  0.16734790  0.07828810       0.015
   0.10869565  0.18826639  0.07828810       0.015
   0.00000000  0.00000000  0.10438413       0.001
   0.03623188  0.02091849  0.10438413       0.007
   0.07246377  0.04183698  0.10438413       0.007
   0.10869565  0.06275546  0.10438413       0.007
   0.14492754  0.08367395  0.10438413       0.007
   0.18115942  0.10459244  0.10438413       0.004
   0.03623188  0.06275546  0.10438413       0.007
   0.07246377  0.08367395  0.10438413       0.015
   0.10869565  0.10459244  0.10438413       0.015
   0.14492754  0.12551093  0.10438413       0.015
   0.07246377  0.12551093  0.10438413       0.007
   0.10869565  0.14642942  0.10438413       0.015
   0.14492754  0.16734790  0.10438413       0.007
   0.10869565  0.18826639  0.10438413       0.007
 
 k-points in reciprocal lattice and weights: Automatic mesh                          
   0.00000000  0.00000000  0.00000000       0.001
   0.10000000 -0.00000000  0.00000000       0.007
   0.20000000 -0.00000000  0.00000000       0.007
   0.30000000  0.00000000  0.00000000       0.007
   0.40000000 -0.00000000  0.00000000       0.007
   0.50000000 -0.00000000  0.00000000       0.004
   0.10000000  0.10000000  0.00000000       0.007
   0.20000000  0.10000000  0.00000000       0.015
   0.30000000  0.10000000  0.00000000       0.015
   0.40000000  0.10000000  0.00000000       0.015
   0.20000000  0.20000000  0.00000000       0.007
   0.30000000  0.20000000  0.00000000       0.015
   0.40000000  0.20000000  0.00000000       0.007
   0.30000000  0.30000000  0.00000000       0.007
   0.00000000  0.00000000  0.12500000       0.003
   0.10000000 -0.00000000  0.12500000       0.015
   0.20000000 -0.00000000  0.12500000       0.015
   0.30000000  0.00000000  0.12500000       0.015
   0.40000000 -0.00000000  0.12500000       0.015
   0.50000000 -0.00000000  0.12500000       0.007
   0.10000000  0.10000000  0.12500000       0.015
   0.20000000  0.10000000  0.12500000       0.030
   0.30000000  0.10000000  0.12500000       0.030
   0.40000000  0.10000000  0.12500000       0.030
   0.20000000  0.20000000  0.12500000       0.015
   0.30000000  0.20000000  0.12500000       0.030
   0.40000000  0.20000000  0.12500000       0.015
   0.30000000  0.30000000  0.12500000       0.015
   0.00000000  0.00000000  0.25000000       0.003
   0.10000000 -0.00000000  0.25000000       0.015
   0.20000000 -0.00000000  0.25000000       0.015
   0.30000000  0.00000000  0.25000000       0.015
   0.40000000 -0.00000000  0.25000000       0.015
   0.50000000 -0.00000000  0.25000000       0.007
   0.10000000  0.10000000  0.25000000       0.015
   0.20000000  0.10000000  0.25000000       0.030
   0.30000000  0.10000000  0.25000000       0.030
   0.40000000  0.10000000  0.25000000       0.030
   0.20000000  0.20000000  0.25000000       0.015
   0.30000000  0.20000000  0.25000000       0.030
   0.40000000  0.20000000  0.25000000       0.015
   0.30000000  0.30000000  0.25000000       0.015
   0.00000000  0.00000000  0.37500000       0.003
   0.10000000 -0.00000000  0.37500000       0.015
   0.20000000 -0.00000000  0.37500000       0.015
   0.30000000  0.00000000  0.37500000       0.015
   0.40000000 -0.00000000  0.37500000       0.015
   0.50000000 -0.00000000  0.37500000       0.007
   0.10000000  0.10000000  0.37500000       0.015
   0.20000000  0.10000000  0.37500000       0.030
   0.30000000  0.10000000  0.37500000       0.030
   0.40000000  0.10000000  0.37500000       0.030
   0.20000000  0.20000000  0.37500000       0.015
   0.30000000  0.20000000  0.37500000       0.030
   0.40000000  0.20000000  0.37500000       0.015
   0.30000000  0.30000000  0.37500000       0.015
   0.00000000  0.00000000  0.50000000       0.001
   0.10000000 -0.00000000  0.50000000       0.007
   0.20000000 -0.00000000  0.50000000       0.007
   0.30000000  0.00000000  0.50000000       0.007
   0.40000000 -0.00000000  0.50000000       0.007
   0.50000000 -0.00000000  0.50000000       0.004
   0.10000000  0.10000000  0.50000000       0.007
   0.20000000  0.10000000  0.50000000       0.015
   0.30000000  0.10000000  0.50000000       0.015
   0.40000000  0.10000000  0.50000000       0.015
   0.20000000  0.20000000  0.50000000       0.007
   0.30000000  0.20000000  0.50000000       0.015
   0.40000000  0.20000000  0.50000000       0.007
   0.30000000  0.30000000  0.50000000       0.007
 
 position of ions in fractional coordinates (direct lattice) 
   0.00000000  0.00000000  0.00000000
   0.33333333  0.66666667  0.50000000
 
 position of ions in cartesian coordinates  (Angst):
   0.00000000  0.00000000  0.00000000
   0.00000000  1.59348674  2.39500000
 


--------------------------------------------------------------------------------------------------------


 k-point   1 :   0.0000 0.0000 0.0000  plane waves:     549
 k-point   2 :   0.1000-0.0000 0.0000  plane waves:     571
 k-point   3 :   0.2000-0.0000 0.0000  plane waves:     574
 k-point   4 :   0.3000 0.0000 0.0000  plane waves:     584
 k-point   5 :   0.4000-0.0000 0.0000  plane waves:     572
 k-point   6 :   0.5000-0.0000 0.0000  plane waves:     556
 k-point   7 :   0.1000 0.1000 0.0000  plane waves:     577
 k-point   8 :   0.2000 0.1000 0.0000  plane waves:     579
 k-point   9 :   0.3000 0.1000 0.0000  plane waves:     572
 k-point  10 :   0.4000 0.1000 0.0000  plane waves:     566
 k-point  11 :   0.2000 0.2000 0.0000  plane waves:     581
 k-point  12 :   0.3000 0.2000 0.0000  plane waves:     572
 k-point  13 :   0.4000 0.2000 0.0000  plane waves:     572
 k-point  14 :   0.3000 0.3000 0.0000  plane waves:     576
 k-point  15 :   0.0000 0.0000 0.1250  plane waves:     573
 k-point  16 :   0.1000-0.0000 0.1250  plane waves:     573
 k-point  17 :   0.2000-0.0000 0.1250  plane waves:     577
 k-point  18 :   0.3000 0.0000 0.1250  plane waves:     577
 k-point  19 :   0.4000-0.0000 0.1250  plane waves:     574
 k-point  20 :   0.5000-0.0000 0.1250  plane waves:     570
 k-point  21 :   0.1000 0.1000 0.1250  plane waves:     583
 k-point  22 :   0.2000 0.1000 0.1250  plane waves:     581
 k-point  23 :   0.3000 0.1000 0.1250  plane waves:     571
 k-point  24 :   0.4000 0.1000 0.1250  plane waves:     565
 k-point  25 :   0.2000 0.2000 0.1250  plane waves:     579
 k-point  26 :   0.3000 0.2000 0.1250  plane waves:     564
 k-point  27 :   0.4000 0.2000 0.1250  plane waves:     563
 k-point  28 :   0.3000 0.3000 0.1250  plane waves:     577
 k-point  29 :   0.0000 0.0000 0.2500  plane waves:     574
 k-point  30 :   0.1000-0.0000 0.2500  plane waves:     582
 k-point  31 :   0.2000-0.0000 0.2500  plane waves:     578
 k-point  32 :   0.3000 0.0000 0.2500  plane waves:     577
 k-point  33 :   0.4000-0.0000 0.2500  plane waves:     574
 k-point  34 :   0.5000-0.0000 0.2500  plane waves:     566
 k-point  35 :   0.1000 0.1000 0.2500  plane waves:     582
 k-point  36 :   0.2000 0.1000 0.2500  plane waves:     581
 k-point  37 :   0.3000 0.1000 0.2500  plane waves:     571
 k-point  38 :   0.4000 0.1000 0.2500  plane waves:     569
 k-point  39 :   0.2000 0.2000 0.2500  plane waves:     574
 k-point  40 :   0.3000 0.2000 0.2500  plane waves:     566
 k-point  41 :   0.4000 0.2000 0.2500  plane waves:     567
 k-point  42 :   0.3000 0.3000 0.2500  plane waves:     567
 k-point  43 :   0.0000 0.0000 0.3750  plane waves:     592
 k-point  44 :   0.1000-0.0000 0.3750  plane waves:     585
 k-point  45 :   0.2000-0.0000 0.3750  plane waves:     586
 k-point  46 :   0.3000 0.0000 0.3750  plane waves:     571
 k-point  47 :   0.4000-0.0000 0.3750  plane waves:     568
 k-point  48 :   0.5000-0.0000 0.3750  plane waves:     564
 k-point  49 :   0.1000 0.1000 0.3750  plane waves:     584
 k-point  50 :   0.2000 0.1000 0.3750  plane waves:     582
 k-point  51 :   0.3000 0.1000 0.3750  plane waves:     574
 k-point  52 :   0.4000 0.1000 0.3750  plane waves:     567
 k-point  53 :   0.2000 0.2000 0.3750  plane waves:     571
 k-point  54 :   0.3000 0.2000 0.3750  plane waves:     568
 k-point  55 :   0.4000 0.2000 0.3750  plane waves:     568
 k-point  56 :   0.3000 0.3000 0.3750  plane waves:     564
 k-point  57 :   0.0000 0.0000 0.5000  plane waves:     604
 k-point  58 :   0.1000-0.0000 0.5000  plane waves:     594
 k-point  59 :   0.2000-0.0000 0.5000  plane waves:     586
 k-point  60 :   0.3000 0.0000 0.5000  plane waves:     572
 k-point  61 :   0.4000-0.0000 0.5000  plane waves:     566
 k-point  62 :   0.5000-0.0000 0.5000  plane waves:     552
 k-point  63 :   0.1000 0.1000 0.5000  plane waves:     594
 k-point  64 :   0.2000 0.1000 0.5000  plane waves:     576
 k-point  65 :   0.3000 0.1000 0.5000  plane waves:     574
 k-point  66 :   0.4000 0.1000 0.5000  plane waves:     568
 k-point  67 :   0.2000 0.2000 0.5000  plane waves:     570
 k-point  68 :   0.3000 0.2000 0.5000  plane waves:     566
 k-point  69 :   0.4000 0.2000 0.5000  plane waves:     570
 k-point  70 :   0.3000 0.3000 0.5000  plane waves:     568

 maximum and minimum number of plane-waves per node :       604      549

 maximum number of plane-waves:       604
 maximum index in each direction: 
   IXMAX=    4   IYMAX=    4   IZMAX=    7
   IXMIN=   -4   IYMIN=   -4   IZMIN=   -8


 serial   3D FFT for wavefunctions
 parallel 3D FFT for charge:
    minimum data exchange during FFTs selected (reduces bandwidth)


 total amount of memory used by VASP MPI-rank0    37932. kBytes
=======================================================================

   base      :      30000. kBytes
   nonl-proj :       6309. kBytes
   fftplans  :        195. kBytes
   grid      :        645. kBytes
   one-center:         31. kBytes
   wavefun   :        752. kBytes
 
     INWAV:  cpu time      0.0000: real time      0.0001
 Broyden mixing: mesh for mixing (old mesh)
   NGX =  9   NGY =  9   NGZ = 15
  (NGX  = 36   NGY  = 36   NGZ  = 64)
  gives a total of   1215 points

 initial charge density was supplied:
 charge density of overlapping atoms calculated
 number of electron      32.0000000 magnetization 
 keeping initial charge density in first step


--------------------------------------------------------------------------------------------------------


 Maximum index for augmentation-charges          736 (set IRDMAX)


--------------------------------------------------------------------------------------------------------


 First call to EWALD:  gamma=   0.561
 Maximum number of real-space cells 3x 3x 2
 Maximum number of reciprocal cells 2x 2x 4

    FEWALD:  cpu time      0.0015: real time      0.0015


--------------------------------------- Iteration      1(   1)  ---------------------------------------


    POTLOK:  cpu time      0.0039: real time      0.0040
    SETDIJ:  cpu time      0.0022: real time      0.0022
     EDDAV:  cpu time      0.2788: real time      0.2803
       DOS:  cpu time      0.0005: real time      0.0005
    --------------------------------------------
      LOOP:  cpu time      0.2855: real time      0.2871

 eigenvalue-minimisations  :  3384
 total energy-change (2. order) : 0.1262668E+03  (-0.2207854E+04)
 number of electron      32.0000000 magnetization 
 augmentation part       32.0000000 magnetization 

 Free energy of the ion-electron system (eV)
  ---------------------------------------------------
  alpha Z        PSCENC =       303.71314961
  Ewald energy   TEWEN  =     -4240.69024974
  -Hartree energ DENC   =      -819.48907223
  -exchange      EXHF   =         0.00000000
  -V(xc)+E(xc)   XCENC  =       127.32804736
  PAW double counting   =      4131.50523274    -4061.67189606
  entropy T*S    EENTRO =        -0.00128522
  eigenvalues    EBANDS =      -170.76249763
  atomic energy  EATOM  =      4856.33533031
  Solvation  Ediel_sol  =         0.00000000
  ---------------------------------------------------
  free energy    TOTEN  =       126.26675915 eV

  energy without entropy =      126.26804438  energy(sigma->0) =      126.26740176


--------------------------------------------------------------------------------------------------------




--------------------------------------- Iteration      1(   2)  ---------------------------------------


     EDDAV:  cpu time      0.2956: real time      0.2980
       DOS:  cpu time      0.0004: real time      0.0004
    --------------------------------------------
      LOOP:  cpu time      0.2960: real time      0.2984

 eigenvalue-minimisations  :  3528
 total energy-change (2. order) :-0.1378330E+03  (-0.1372141E+03)
 number of electron      32.0000000 magnetization 
 augmentation part       32.0000000 magnetization 

 Free energy of the ion-electron system (eV)
  ---------------------------------------------------
  alpha Z        PSCENC =       303.71314961
  Ewald energy   TEWEN  =     -4240.69024974
  -Hartree energ DENC   =      -819.48907223
  -exchange      EXHF   =         0.00000000
  -V(xc)+E(xc)   XCENC  =       127.32804736
  PAW double counting   =      4131.50523274    -4061.67189606
  entropy T*S    EENTRO =        -0.00349168
  eigenvalues    EBANDS =      -308.59327159
  atomic energy  EATOM  =      4856.33533031
  Solvation  Ediel_sol  =         0.00000000
  ---------------------------------------------------
  free energy    TOTEN  =       -11.56622127 eV

  energy without entropy =      -11.56272959  energy(sigma->0) =      -11.56447543


--------------------------------------------------------------------------------------------------------




--------------------------------------- Iteration      1(   3)  ---------------------------------------


     EDDAV:  cpu time      0.4353: real time      0.4375
       DOS:  cpu time      0.0004: real time      0.0004
    --------------------------------------------
      LOOP:  cpu time      0.4356: real time      0.4379

 eigenvalue-minimisations  :  4368
 total energy-change (2. order) :-0.1185289E+01  (-0.1181535E+01)
 number of electron      32.0000000 magnetization 
 augmentation part       32.0000000 magnetization 

 Free energy of the ion-electron system (eV)
  ---------------------------------------------------
  alpha Z        PSCENC =       303.71314961
  Ewald energy   TEWEN  =     -4240.69024974
  -Hartree energ DENC   =      -819.48907223
  -exchange      EXHF   =         0.00000000
  -V(xc)+E(xc)   XCENC  =       127.32804736
  PAW double counting   =      4131.50523274    -4061.67189606
  entropy T*S    EENTRO =        -0.00440502
  eigenvalues    EBANDS =      -309.77764760
  atomic energy  EATOM  =      4856.33533031
  Solvation  Ediel_sol  =         0.00000000
  ---------------------------------------------------
  free energy    TOTEN  =       -12.75151061 eV

  energy without entropy =      -12.74710559  energy(sigma->0) =      -12.74930810


--------------------------------------------------------------------------------------------------------




--------------------------------------- Iteration      1(   4)  ---------------------------------------


     EDDAV:  cpu time      0.5777: real time      0.5817
       DOS:  cpu time      0.0004: real time      0.0004
    --------------------------------------------
      LOOP:  cpu time      0.5781: real time      0.5820

 eigenvalue-minimisations  :  5088
 total energy-change (2. order) :-0.3454600E-02  (-0.3454455E-02)
 number of electron      32.0000000 magnetization 
 augmentation part       32.0000000 magnetization 

 Free energy of the ion-electron system (eV)
  ---------------------------------------------------
  alpha Z        PSCENC =       303.71314961
  Ewald energy   TEWEN  =     -4240.69024974
  -Hartree energ DENC   =      -819.48907223
  -exchange      EXHF   =         0.00000000
  -V(xc)+E(xc)   XCENC  =       127.32804736
  PAW double counting   =      4131.50523274    -4061.67189606
  entropy T*S    EENTRO =        -0.00441332
  eigenvalues    EBANDS =      -309.78109389
  atomic energy  EATOM  =      4856.33533031
  Solvation  Ediel_sol  =         0.00000000
  ---------------------------------------------------
  free energy    TOTEN  =       -12.75496521 eV

  energy without entropy =      -12.75055189  energy(sigma->0) =      -12.75275855


--------------------------------------------------------------------------------------------------------




--------------------------------------- Iteration      1(   5)  ---------------------------------------


     EDDAV:  cpu time      0.4674: real time      0.4698
       DOS:  cpu time      0.0004: real time      0.0004
    CHARGE:  cpu time      0.0157: real time      0.0158
    MIXING:  cpu time      0.0003: real time      0.0003
    --------------------------------------------
      LOOP:  cpu time      0.4838: real time      0.4862

 eigenvalue-minimisations  :  4488
 total energy-change (2. order) :-0.8895131E-06  (-0.8894435E-06)
 number of electron      32.0000014 magnetization 
 augmentation part        7.9529496 magnetization 

 Broyden mixing:
  rms(total) = 0.19555E+01    rms(broyden)= 0.19550E+01
  rms(prec ) = 0.21744E+01
  weight for this iteration     100.00

 Free energy of the ion-electron system (eV)
  ---------------------------------------------------
  alpha Z        PSCENC =       303.71314961
  Ewald energy   TEWEN  =     -4240.69024974
  -Hartree energ DENC   =      -819.48907223
  -exchange      EXHF   =         0.00000000
  -V(xc)+E(xc)   XCENC  =       127.32804736
  PAW double counting   =      4131.50523274    -4061.67189606
  entropy T*S    EENTRO =        -0.00441332
  eigenvalues    EBANDS =      -309.78109478
  atomic energy  EATOM  =      4856.33533031
  Solvation  Ediel_sol  =         0.00000000
  ---------------------------------------------------
  free energy    TOTEN  =       -12.75496610 eV

  energy without entropy =      -12.75055278  energy(sigma->0) =      -12.75275944


--------------------------------------------------------------------------------------------------------




--------------------------------------- Iteration      1(   6)  ---------------------------------------


    POTLOK:  cpu time      0.0032: real time      0.0033
    SETDIJ:  cpu time      0.0020: real time      0.0020
     EDDAV:  cpu time      0.2951: real time      0.2965
       DOS:  cpu time      0.0004: real time      0.0004
    CHARGE:  cpu time      0.0149: real time      0.0150
    MIXING:  cpu time      0.0003: real time      0.0003
    --------------------------------------------
      LOOP:  cpu time      0.3158: real time      0.3175

 eigenvalue-minimisations  :  3504
 total energy-change (2. order) : 0.6732123E+00  (-0.2622125E+00)
 number of electron      32.0000014 magnetization 
 augmentation part        8.1839818 magnetization 

 Broyden mixing:
  rms(total) = 0.59943E+00    rms(broyden)= 0.59939E+00
  rms(prec ) = 0.63953E+00
  weight for this iteration     100.00

 eigenvalues of (default mixing * dielectric matrix)
  average eigenvalue GAMMA=   1.4133
  1.4133

 Free energy of the ion-electron system (eV)
  ---------------------------------------------------
  alpha Z        PSCENC =       303.71314961
  Ewald energy   TEWEN  =     -4240.69024974
  -Hartree energ DENC   =      -788.44037471
  -exchange      EXHF   =         0.00000000
  -V(xc)+E(xc)   XCENC  =       125.99618020
  PAW double counting   =      4433.43153739    -4367.64328410
  entropy T*S    EENTRO =        -0.00447450
  eigenvalues    EBANDS =      -334.77956825
  atomic energy  EATOM  =      4856.33533031
  Solvation  Ediel_sol  =         0.00000000
  ---------------------------------------------------
  free energy    TOTEN  =       -12.08175379 eV

  energy without entropy =      -12.07727929  energy(sigma->0) =      -12.07951654


--------------------------------------------------------------------------------------------------------




--------------------------------------- Iteration      1(   7)  ---------------------------------------


    POTLOK:  cpu time      0.0029: real time      0.0030
    SETDIJ:  cpu time      0.0019: real time      0.0019
     EDDAV:  cpu time      0.4710: real time      0.4732
       DOS:  cpu time      0.0004: real time      0.0004
    CHARGE:  cpu time      0.0146: real time      0.0146
    MIXING:  cpu time      0.0003: real time      0.0003
    --------------------------------------------
      LOOP:  cpu time      0.4910: real time      0.4934

 eigenvalue-minimisations  :  4680
 total energy-change (2. order) : 0.3452774E-01  (-0.1436384E-01)
 number of electron      32.0000015 magnetization 
 augmentation part        8.2327252 magnetization 

 Broyden mixing:
  rms(total) = 0.18589E+00    rms(broyden)= 0.18588E+00
  rms(prec ) = 0.19776E+00
  weight for this iteration     100.00

 eigenvalues of (default mixing * dielectric matrix)
  average eigenvalue GAMMA=   1.9163
  1.1641  2.6685

 Free energy of the ion-electron system (eV)
  ---------------------------------------------------
  alpha Z        PSCENC =       303.71314961
  Ewald energy   TEWEN  =     -4240.69024974
  -Hartree energ DENC   =      -780.81512344
  -exchange      EXHF   =         0.00000000
  -V(xc)+E(xc)   XCENC  =       125.64759199
  PAW double counting   =      4554.26450327    -4489.52710158
  entropy T*S    EENTRO =        -0.00469654
  eigenvalues    EBANDS =      -340.97062993
  atomic energy  EATOM  =      4856.33533031
  Solvation  Ediel_sol  =         0.00000000
  ---------------------------------------------------
  free energy    TOTEN  =       -12.04722605 eV

  energy without entropy =      -12.04252951  energy(sigma->0) =      -12.04487778


--------------------------------------------------------------------------------------------------------




--------------------------------------- Iteration      1(   8)  ---------------------------------------


    POTLOK:  cpu time      0.0028: real time      0.0030
    SETDIJ:  cpu time      0.0018: real time      0.0019
     EDDAV:  cpu time      0.3121: real time      0.3136
       DOS:  cpu time      0.0004: real time      0.0004
    CHARGE:  cpu time      0.0146: real time      0.0146
    MIXING:  cpu time      0.0002: real time      0.0002
    --------------------------------------------
      LOOP:  cpu time      0.3319: real time      0.3337

 eigenvalue-minimisations  :  3624
 total energy-change (2. order) : 0.2583025E-02  (-0.7294380E-03)
 number of electron      32.0000014 magnetization 
 augmentation part        8.2254125 magnetization 

 Broyden mixing:
  rms(total) = 0.24349E-01    rms(broyden)= 0.24337E-01
  rms(prec ) = 0.26508E-01
  weight for this iteration     100.00

 eigenvalues of (default mixing * dielectric matrix)
  average eigenvalue GAMMA=   1.5853
  1.0951  1.2554  2.4055

 Free energy of the ion-electron system (eV)
  ---------------------------------------------------
  alpha Z        PSCENC =       303.71314961
  Ewald energy   TEWEN  =     -4240.69024974
  -Hartree energ DENC   =      -780.50833487
  -exchange      EXHF   =         0.00000000
  -V(xc)+E(xc)   XCENC  =       125.60820078
  PAW double counting   =      4625.70183356    -4561.03194885
  entropy T*S    EENTRO =        -0.00474560
  eigenvalues    EBANDS =      -341.16787822
  atomic energy  EATOM  =      4856.33533031
  Solvation  Ediel_sol  =         0.00000000
  ---------------------------------------------------
  free energy    TOTEN  =       -12.04464302 eV

  energy without entropy =      -12.03989742  energy(sigma->0) =      -12.04227022


--------------------------------------------------------------------------------------------------------




--------------------------------------- Iteration      1(   9)  ---------------------------------------


    POTLOK:  cpu time      0.0028: real time      0.0030
    SETDIJ:  cpu time      0.0018: real time      0.0018
     EDDAV:  cpu time      0.4502: real time      0.4523
       DOS:  cpu time      0.0003: real time      0.0003
    CHARGE:  cpu time      0.0155: real time      0.0156
    MIXING:  cpu time      0.0006: real time      0.0006
    --------------------------------------------
      LOOP:  cpu time      0.4712: real time      0.4735

 eigenvalue-minimisations  :  4416
 total energy-change (2. order) : 0.1681004E-03  (-0.2406309E-04)
 number of electron      32.0000015 magnetization 
 augmentation part        8.2245375 magnetization 

 Broyden mixing:
  rms(total) = 0.31879E-02    rms(broyden)= 0.31868E-02
  rms(prec ) = 0.36940E-02
  weight for this iteration     100.00

 eigenvalues of (default mixing * dielectric matrix)
  average eigenvalue GAMMA=   1.6531
  2.5063  1.0262  1.1961  1.8837

 Free energy of the ion-electron system (eV)
  ---------------------------------------------------
  alpha Z        PSCENC =       303.71314961
  Ewald energy   TEWEN  =     -4240.69024974
  -Hartree energ DENC   =      -780.80295759
  -exchange      EXHF   =         0.00000000
  -V(xc)+E(xc)   XCENC  =       125.62288689
  PAW double counting   =      4619.15038938    -4554.40526407
  entropy T*S    EENTRO =        -0.00472066
  eigenvalues    EBANDS =      -340.96303906
  atomic energy  EATOM  =      4856.33533031
  Solvation  Ediel_sol  =         0.00000000
  ---------------------------------------------------
  free energy    TOTEN  =       -12.04447492 eV

  energy without entropy =      -12.03975426  energy(sigma->0) =      -12.04211459


--------------------------------------------------------------------------------------------------------




--------------------------------------- Iteration      1(  10)  ---------------------------------------


    POTLOK:  cpu time      0.0028: real time      0.0030
    SETDIJ:  cpu time      0.0019: real time      0.0019
     EDDAV:  cpu time      0.4387: real time      0.4408
       DOS:  cpu time      0.0004: real time      0.0004
    CHARGE:  cpu time      0.0150: real time      0.0150
    MIXING:  cpu time      0.0003: real time      0.0003
    --------------------------------------------
      LOOP:  cpu time      0.4591: real time      0.4614

 eigenvalue-minimisations  :  4344
 total energy-change (2. order) :-0.1277443E-04  (-0.9165254E-06)
 number of electron      32.0000015 magnetization 
 augmentation part        8.2246787 magnetization 

 Broyden mixing:
  rms(total) = 0.83844E-03    rms(broyden)= 0.83793E-03
  rms(prec ) = 0.10393E-02
  weight for this iteration     100.00

 eigenvalues of (default mixing * dielectric matrix)
  average eigenvalue GAMMA=   1.7246
  2.6423  2.2879  0.9914  1.1937  1.5076

 Free energy of the ion-electron system (eV)
  ---------------------------------------------------
  alpha Z        PSCENC =       303.71314961
  Ewald energy   TEWEN  =     -4240.69024974
  -Hartree energ DENC   =      -780.81593808
  -exchange      EXHF   =         0.00000000
  -V(xc)+E(xc)   XCENC  =       125.62306890
  PAW double counting   =      4622.02274516    -4557.24820185
  entropy T*S    EENTRO =        -0.00471702
  eigenvalues    EBANDS =      -340.97967500
  atomic energy  EATOM  =      4856.33533031
  Solvation  Ediel_sol  =         0.00000000
  ---------------------------------------------------
  free energy    TOTEN  =       -12.04448770 eV

  energy without entropy =      -12.03977068  energy(sigma->0) =      -12.04212919


--------------------------------------------------------------------------------------------------------




--------------------------------------- Iteration      1(  11)  ---------------------------------------


    POTLOK:  cpu time      0.0028: real time      0.0030
    SETDIJ:  cpu time      0.0019: real time      0.0019
     EDDAV:  cpu time      0.3357: real time      0.3373
       DOS:  cpu time      0.0004: real time      0.0004
    --------------------------------------------
      LOOP:  cpu time      0.3407: real time      0.3425

 eigenvalue-minimisations  :  3696
 total energy-change (2. order) : 0.3051973E-06  (-0.1176667E-06)
 number of electron      32.0000015 magnetization 
 augmentation part        8.2246787 magnetization 

 Free energy of the ion-electron system (eV)
  ---------------------------------------------------
  alpha Z        PSCENC =       303.71314961
  Ewald energy   TEWEN  =     -4240.69024974
  -Hartree energ DENC   =      -780.83107733
  -exchange      EXHF   =         0.00000000
  -V(xc)+E(xc)   XCENC  =       125.62366612
  PAW double counting   =      4622.72300553    -4557.93292535
  entropy T*S    EENTRO =        -0.00471769
  eigenvalues    EBANDS =      -340.98066886
  atomic energy  EATOM  =      4856.33533031
  Solvation  Ediel_sol  =         0.00000000
  ---------------------------------------------------
  free energy    TOTEN  =       -12.04448739 eV

  energy without entropy =      -12.03976971  energy(sigma->0) =      -12.04212855


--------------------------------------------------------------------------------------------------------




 average (electrostatic) potential at core
  the test charge radii are     0.9952
  (the norm of the test charge is              1.0000)
       1 -89.4681       2 -89.4681
 
 
 
 E-fermi :  11.1291     XC(G=0): -13.6994     alpha+bet :-16.6031

 Fermi energy:        11.1290702082

 k-point     1 :       0.0000    0.0000    0.0000
  band No.  band energies     occupation 
      1     -41.4593      2.00000
      2     -41.2941      2.00000
      3     -41.2941      2.00000
      4     -41.2540      2.00000
      5     -41.2540      2.00000
      6     -41.1342      2.00000
      7       1.4189      2.00000
      8       4.0691      2.00000
      9       7.2068      2.00000
     10       7.7140      2.00000
     11       7.7140      2.00000
     12       8.0792      2.00000
     13       8.0792      2.00000
     14       9.3492      2.00000
     15       9.3492      2.00000
     16      10.4253      2.00000
     17      10.9276      2.00000
     18      10.9276      2.00000
     19      15.8068      0.00000
     20      26.2273      0.00000
     21      26.8078      0.00000
     22      28.3772      0.00000
     23      32.1717      0.00000
     24      32.1717      0.00000

 k-point     2 :       0.1000   -0.0000    0.0000
  band No.  band energies     occupation 
      1     -41.4491      2.00000
      2     -41.3314      2.00000
      3     -41.3057      2.00000
      4     -41.2921      2.00000
      5     -41.2624      2.00000
      6     -41.1371      2.00000
      7       1.7803      2.00000
      8       4.3963      2.00000
      9       7.1432      2.00000
     10       7.7204      2.00000
     11       7.9297      2.00000
     12       7.9894      2.00000
     13       8.3409      2.00000
     14       8.7642      2.00000
     15       9.1789      2.00000
     16       9.3235      2.00000
     17      10.9886      1.99993
     18      12.6842      0.00000
     19      15.7706      0.00000
     20      26.6604      0.00000
     21      27.3363      0.00000
     22      28.7057      0.00000
     23      30.5457      0.00000
     24      30.6655      0.00000

 k-point     3 :       0.2000   -0.0000    0.0000
  band No.  band energies     occupation 
      1     -41.4254      2.00000
      2     -41.4170      2.00000
      3     -41.3887      2.00000
      4     -41.3327      2.00000
      5     -41.2823      2.00000
      6     -41.1462      2.00000
      7       2.7657      2.00000
      8       5.1172      2.00000
      9       6.9192      2.00000
     10       7.4028      2.00000
     11       7.4382      2.00000
     12       8.3392      2.00000
     13       8.7710      2.00000
     14       8.8012      2.00000
     15       8.8100      2.00000
     16       9.0775      2.00000
     17      11.0871      1.76503
     18      14.8537      0.00000
     19      15.7026      0.00000
     20      25.1612      0.00000
     21      27.9577      0.00000
     22      28.2387      0.00000
     23      29.1129      0.00000
     24      29.3125      0.00000

 k-point     4 :       0.3000    0.0000    0.0000
  band No.  band energies     occupation 
      1     -41.5434      2.00000
      2     -41.5036      2.00000
      3     -41.3725      2.00000
      4     -41.3656      2.00000
      5     -41.3082      2.00000
      6     -41.1627      2.00000
      7       3.9714      2.00000
      8       5.2427      2.00000
      9       6.3491      2.00000
     10       7.1806      2.00000
     11       7.5391      2.00000
     12       8.2988      2.00000
     13       8.4117      2.00000
     14       9.4882      2.00000
     15       9.8927      2.00000
     16      10.1216      2.00000
     17      11.1395      0.76764
     18      15.8249      0.00000
     19      17.0625      0.00000
     20      21.4380      0.00000
     21      25.8570      0.00000
     22      26.4020      0.00000
     23      27.9941      0.00000
     24      29.1041      0.00000

 k-point     5 :       0.4000   -0.0000    0.0000
  band No.  band energies     occupation 
      1     -41.6357      2.00000
      2     -41.5948      2.00000
      3     -41.3917      2.00000
      4     -41.3283      2.00000
      5     -41.3270      2.00000
      6     -41.1840      2.00000
      7       4.6323      2.00000
      8       4.9292      2.00000
      9       5.6973      2.00000
     10       7.6981      2.00000
     11       7.9257      2.00000
     12       8.1343      2.00000
     13       8.3520      2.00000
     14      10.9743      1.99999
     15      11.1498      0.55792
     16      11.1505      0.54468
     17      11.3589      0.00000
     18      16.6331      0.00000
     19      17.7996      0.00000
     20      19.0257      0.00000
     21      23.5323      0.00000
     22      23.9492      0.00000
     23      25.0498      0.00000
     24      27.8287      0.00000

 k-point     6 :       0.5000   -0.0000    0.0000
  band No.  band energies     occupation 
      1     -41.6708      2.00000
      2     -41.6285      2.00000
      3     -41.4001      2.00000
      4     -41.3360      2.00000
      5     -41.3038      2.00000
      6     -41.1973      2.00000
      7       4.7244      2.00000
      8       4.8011      2.00000
      9       5.4771      2.00000
     10       7.7908      2.00000
     11       8.0350      2.00000
     12       8.2201      2.00000
     13       8.5561      2.00000
     14      11.1499      0.55494
     15      11.4299      0.00000
     16      11.6304      0.00000
     17      13.4047      0.00000
     18      14.8774      0.00000
     19      18.3933      0.00000
     20      19.9742      0.00000
     21      20.6260      0.00000
     22      23.1702      0.00000
     23      24.4040      0.00000
     24      27.2545      0.00000

 k-point     7 :       0.1000    0.1000    0.0000
  band No.  band energies     occupation 
      1     -41.4276      2.00000
      2     -41.3903      2.00000
      3     -41.3661      2.00000
      4     -41.3187      2.00000
      5     -41.2816      2.00000
      6     -41.1431      2.00000
      7       2.4621      2.00000
      8       4.9686      2.00000
      9       6.8778      2.00000
     10       7.6342      2.00000
     11       7.8043      2.00000
     12       7.9382      2.00000
     13       8.5734      2.00000
     14       8.5967      2.00000
     15       8.9275      2.00000
     16       9.2385      2.00000
     17      11.0092      1.99930
     18      14.2811      0.00000
     19      15.7204      0.00000
     20      26.5795      0.00000
     21      27.1882      0.00000
     22      28.2419      0.00000
     23      29.2648      0.00000
     24      30.0116      0.00000

 k-point     8 :       0.2000    0.1000    0.0000
  band No.  band energies     occupation 
      1     -41.4889      2.00000
      2     -41.4638      2.00000
      3     -41.3891      2.00000
      4     -41.3565      2.00000
      5     -41.3113      2.00000
      6     -41.1558      2.00000
      7       3.6321      2.00000
      8       5.5809      2.00000
      9       6.7021      2.00000
     10       6.7586      2.00000
     11       7.3629      2.00000
     12       8.1022      2.00000
     13       8.5488      2.00000
     14       8.8722      2.00000
     15       9.6291      2.00000
     16      10.0291      2.00000
     17      11.0085      1.99935
     18      15.7676      0.00000
     19      16.3640      0.00000
     20      23.3393      0.00000
     21      25.2459      0.00000
     22      27.3962      0.00000
     23      29.2944      0.00000
     24      29.9423      0.00000

 k-point     9 :       0.3000    0.1000    0.0000
  band No.  band energies     occupation 
      1     -41.5896      2.00000
      2     -41.5548      2.00000
      3     -41.3953      2.00000
      4     -41.3430      2.00000
      5     -41.3396      2.00000
      6     -41.1758      2.00000
      7       4.6898      2.00000
      8       5.3429      2.00000
      9       5.9877      2.00000
     10       7.1971      2.00000
     11       7.8051      2.00000
     12       7.8146      2.00000
     13       8.3837      2.00000
     14       9.6470      2.00000
     15      10.7099      2.00000
     16      10.9943      1.99986
     17      11.4525      0.00000
     18      16.3636      0.00000
     19      18.4925      0.00000
     20      19.5136      0.00000
     21      23.1375      0.00000
     22      25.9392      0.00000
     23      26.2422      0.00000
     24      28.2454      0.00000

 k-point    10 :       0.4000    0.1000    0.0000
  band No.  band energies     occupation 
      1     -41.6514      2.00000
      2     -41.6107      2.00000
      3     -41.4195      2.00000
      4     -41.3568      2.00000
      5     -41.3047      2.00000
      6     -41.1973      2.00000
      7       4.9973      2.00000
      8       5.0871      2.00000
      9       5.5869      2.00000
     10       7.7476      2.00000
     11       7.9850      2.00000
     12       7.9855      2.00000
     13       8.3149      2.00000
     14      10.8810      2.00000
     15      10.9767      1.99998
     16      11.2620      0.00017
     17      13.1549      0.00000
     18      16.1062      0.00000
     19      18.0490      0.00000
     20      20.1589      0.00000
     21      20.9269      0.00000
     22      23.2768      0.00000
     23      24.8721      0.00000
     24      27.1762      0.00000

 k-point    11 :       0.2000    0.2000    0.0000
  band No.  band energies     occupation 
      1     -41.5466      2.00000
      2     -41.5452      2.00000
      3     -41.4003      2.00000
      4     -41.3624      2.00000
      5     -41.3484      2.00000
      6     -41.1738      2.00000
      7       4.8429      2.00000
      8       6.1872      2.00000
      9       6.1903      2.00000
     10       6.2517      2.00000
     11       7.5770      2.00000
     12       7.6155      2.00000
     13       8.5744      2.00000
     14       8.9086      2.00000
     15      10.6942      2.00000
     16      10.8270      2.00000
     17      11.5334      0.00000
     18      16.3388      0.00000
     19      18.3695      0.00000
     20      20.9674      0.00000
     21      21.8809      0.00000
     22      26.6894      0.00000
     23      27.8886      0.00000
     24      28.3853      0.00000

 k-point    12 :       0.3000    0.2000    0.0000
  band No.  band energies     occupation 
      1     -41.6064      2.00000
      2     -41.5781      2.00000
      3     -41.4520      2.00000
      4     -41.4047      2.00000
      5     -41.3056      2.00000
      6     -41.1974      2.00000
      7       5.6272      2.00000
      8       5.8076      2.00000
      9       5.8410      2.00000
     10       6.9870      2.00000
     11       7.4706      2.00000
     12       8.0887      2.00000
     13       8.1277      2.00000
     14       9.7001      2.00000
     15      10.6880      2.00000
     16      11.1296      0.98698
     17      13.2067      0.00000
     18      17.3588      0.00000
     19      18.2886      0.00000
     20      19.9255      0.00000
     21      20.4514      0.00000
     22      24.8516      0.00000
     23      25.9034      0.00000
     24      26.8953      0.00000

 k-point    13 :       0.4000    0.2000    0.0000
  band No.  band energies     occupation 
      1     -41.6288      2.00000
      2     -41.5877      2.00000
      3     -41.4766      2.00000
      4     -41.4203      2.00000
      5     -41.2811      2.00000
      6     -41.2141      2.00000
      7       5.6727      2.00000
      8       5.6895      2.00000
      9       5.7433      2.00000
     10       7.5608      2.00000
     11       7.6104      2.00000
     12       7.7108      2.00000
     13       8.3947      2.00000
     14      10.4614      2.00000
     15      10.6376      2.00000
     16      10.9348      2.00000
     17      14.8012      0.00000
     18      15.3137      0.00000
     19      18.6227      0.00000
     20      20.1887      0.00000
     21      21.6602      0.00000
     22      22.6837      0.00000
     23      25.1033      0.00000
     24      26.3938      0.00000

 k-point    14 :       0.3000    0.3000    0.0000
  band No.  band energies     occupation 
      1     -41.5930      2.00000
      2     -41.5616      2.00000
      3     -41.5145      2.00000
      4     -41.4745      2.00000
      5     -41.2668      2.00000
      6     -41.2254      2.00000
      7       5.7670      2.00000
      8       6.1790      2.00000
      9       6.4344      2.00000
     10       6.8704      2.00000
     11       7.4222      2.00000
     12       7.6888      2.00000
     13       8.4828      2.00000
     14      10.0596      2.00000
     15      10.4713      2.00000
     16      10.7740      2.00000
     17      14.8104      0.00000
     18      16.0746      0.00000
     19      17.5025      0.00000
     20      21.0199      0.00000
     21      22.5844      0.00000
     22      23.8041      0.00000
     23      24.6224      0.00000
     24      25.0078      0.00000

 k-point    15 :       0.0000    0.0000    0.1250
  band No.  band energies     occupation 
      1     -41.4489      2.00000
      2     -41.2936      2.00000
      3     -41.2936      2.00000
      4     -41.2566      2.00000
      5     -41.2566      2.00000
      6     -41.1472      2.00000
      7       1.5524      2.00000
      8       4.0484      2.00000
      9       7.1736      2.00000
     10       7.6947      2.00000
     11       7.6947      2.00000
     12       8.0403      2.00000
     13       8.0403      2.00000
     14       9.4460      2.00000
     15       9.4460      2.00000
     16       9.8088      2.00000
     17      10.8991      2.00000
     18      10.8991      2.00000
     19      16.6723      0.00000
     20      25.7664      0.00000
     21      27.3158      0.00000
     22      28.0934      0.00000
     23      31.6208      0.00000
     24      31.6208      0.00000

 k-point    16 :       0.1000   -0.0000    0.1250
  band No.  band energies     occupation 
      1     -41.4387      2.00000
      2     -41.3292      2.00000
      3     -41.3038      2.00000
      4     -41.2946      2.00000
      5     -41.2639      2.00000
      6     -41.1487      2.00000
      7       1.9113      2.00000
      8       4.3825      2.00000
      9       7.1460      2.00000
     10       7.6356      2.00000
     11       7.8281      2.00000
     12       7.9617      2.00000
     13       8.2982      2.00000
     14       8.7098      2.00000
     15       9.2937      2.00000
     16       9.3240      2.00000
     17      10.9502      2.00000
     18      12.1464      0.00000
     19      16.7599      0.00000
     20      26.2671      0.00000
     21      27.7417      0.00000
     22      28.4775      0.00000
     23      29.9427      0.00000
     24      30.5873      0.00000

 k-point    17 :       0.2000   -0.0000    0.1250
  band No.  band energies     occupation 
      1     -41.4354      2.00000
      2     -41.3982      2.00000
      3     -41.3893      2.00000
      4     -41.3310      2.00000
      5     -41.2842      2.00000
      6     -41.1553      2.00000
      7       2.8814      2.00000
      8       5.1263      2.00000
      9       6.9508      2.00000
     10       7.1454      2.00000
     11       7.4466      2.00000
     12       8.2276      2.00000
     13       8.6137      2.00000
     14       8.9546      2.00000
     15       9.0193      2.00000
     16       9.1303      2.00000
     17      11.0267      1.99621
     18      13.6653      0.00000
     19      17.1717      0.00000
     20      25.2582      0.00000
     21      27.7407      0.00000
     22      28.3951      0.00000
     23      28.5998      0.00000
     24      29.7311      0.00000

 k-point    18 :       0.3000    0.0000    0.1250
  band No.  band energies     occupation 
      1     -41.5446      2.00000
      2     -41.5069      2.00000
      3     -41.3634      2.00000
      4     -41.3609      2.00000
      5     -41.3099      2.00000
      6     -41.1685      2.00000
      7       4.0249      2.00000
      8       5.2708      2.00000
      9       6.3300      2.00000
     10       7.0161      2.00000
     11       7.5672      2.00000
     12       8.4049      2.00000
     13       8.4731      2.00000
     14       9.5422      2.00000
     15       9.9143      2.00000
     16      10.0740      2.00000
     17      11.0695      1.90777
     18      14.7520      0.00000
     19      18.1676      0.00000
     20      21.7083      0.00000
     21      26.0962      0.00000
     22      26.1311      0.00000
     23      27.6957      0.00000
     24      29.5637      0.00000

 k-point    19 :       0.4000   -0.0000    0.1250
  band No.  band energies     occupation 
      1     -41.6369      2.00000
      2     -41.5986      2.00000
      3     -41.3893      2.00000
      4     -41.3306      2.00000
      5     -41.3191      2.00000
      6     -41.1873      2.00000
      7       4.5683      2.00000
      8       4.9367      2.00000
      9       5.8511      2.00000
     10       7.0681      2.00000
     11       8.1447      2.00000
     12       8.2187      2.00000
     13       8.8973      2.00000
     14      10.8920      2.00000
     15      10.9897      1.99992
     16      11.2483      0.00074
     17      11.2714      0.00006
     18      15.7822      0.00000
     19      17.8400      0.00000
     20      19.8415      0.00000
     21      23.2579      0.00000
     22      24.2252      0.00000
     23      25.3722      0.00000
     24      28.0502      0.00000

 k-point    20 :       0.5000   -0.0000    0.1250
  band No.  band energies     occupation 
      1     -41.6720      2.00000
      2     -41.6329      2.00000
      3     -41.3988      2.00000
      4     -41.3386      2.00000
      5     -41.2982      2.00000
      6     -41.1996      2.00000
      7       4.6463      2.00000
      8       4.7532      2.00000
      9       5.6978      2.00000
     10       7.1320      2.00000
     11       8.1245      2.00000
     12       8.2947      2.00000
     13       9.3471      2.00000
     14      10.9729      1.99999
     15      11.4496      0.00000
     16      11.6235      0.00000
     17      13.1681      0.00000
     18      14.7657      0.00000
     19      18.2540      0.00000
     20      18.9991      0.00000
     21      21.8555      0.00000
     22      23.4595      0.00000
     23      24.5364      0.00000
     24      27.5342      0.00000

 k-point    21 :       0.1000    0.1000    0.1250
  band No.  band energies     occupation 
      1     -41.4247      2.00000
      2     -41.3818      2.00000
      3     -41.3677      2.00000
      4     -41.3186      2.00000
      5     -41.2837      2.00000
      6     -41.1528      2.00000
      7       2.5850      2.00000
      8       4.9702      2.00000
      9       6.9089      2.00000
     10       7.3585      2.00000
     11       7.7158      2.00000
     12       7.9441      2.00000
     13       8.5060      2.00000
     14       8.7274      2.00000
     15       9.0174      2.00000
     16       9.3087      2.00000
     17      10.9577      2.00000
     18      13.3140      0.00000
     19      17.0163      0.00000
     20      26.5337      0.00000
     21      27.2561      0.00000
     22      28.1403      0.00000
     23      28.8129      0.00000
     24      30.2664      0.00000

 k-point    22 :       0.2000    0.1000    0.1250
  band No.  band energies     occupation 
      1     -41.4917      2.00000
      2     -41.4666      2.00000
      3     -41.3759      2.00000
      4     -41.3551      2.00000
      5     -41.3134      2.00000
      6     -41.1631      2.00000
      7       3.7229      2.00000
      8       5.6149      2.00000
      9       6.5801      2.00000
     10       6.7680      2.00000
     11       7.3345      2.00000
     12       7.9960      2.00000
     13       8.7104      2.00000
     14       8.8525      2.00000
     15       9.7393      2.00000
     16       9.9767      2.00000
     17      10.9574      2.00000
     18      14.4800      0.00000
     19      17.8188      0.00000
     20      23.5189      0.00000
     21      25.3750      0.00000
     22      27.3146      0.00000
     23      28.6939      0.00000
     24      30.5215      0.00000

 k-point    23 :       0.3000    0.1000    0.1250
  band No.  band energies     occupation 
      1     -41.5910      2.00000
      2     -41.5581      2.00000
      3     -41.3940      2.00000
      4     -41.3433      2.00000
      5     -41.3317      2.00000
      6     -41.1798      2.00000
      7       4.6739      2.00000
      8       5.3771      2.00000
      9       6.0516      2.00000
     10       6.9206      2.00000
     11       7.7756      2.00000
     12       8.1542      2.00000
     13       8.3978      2.00000
     14       9.6638      2.00000
     15      10.7519      2.00000
     16      10.8120      2.00000
     17      11.5110      0.00000
     18      15.5696      0.00000
     19      18.7531      0.00000
     20      20.2662      0.00000
     21      23.2490      0.00000
     22      25.4152      0.00000
     23      26.5928      0.00000
     24      28.4418      0.00000

 k-point    24 :       0.4000    0.1000    0.1250
  band No.  band energies     occupation 
      1     -41.6522      2.00000
      2     -41.6145      2.00000
      3     -41.4176      2.00000
      4     -41.3594      2.00000
      5     -41.2974      2.00000
      6     -41.1988      2.00000
      7       4.8753      2.00000
      8       5.0745      2.00000
      9       5.8410      2.00000
     10       7.0743      2.00000
     11       7.8619      2.00000
     12       8.4206      2.00000
     13       8.8243      2.00000
     14      10.7681      2.00000
     15      10.8846      2.00000
     16      11.3040      0.00000
[...]
      5     -41.2662      2.00000
      6     -41.2662      2.00000
      7       4.3345      2.00000
      8       4.3345      2.00000
      9       6.6399      2.00000
     10       6.6399      2.00000
     11       7.4805      2.00000
     12       7.4805      2.00000
     13       8.6185      2.00000
     14       8.6185      2.00000
     15      10.2100      2.00000
     16      10.2100      2.00000
     17      10.6879      2.00000
     18      10.6879      2.00000
     19      23.5666      0.00000
     20      23.5666      0.00000
     21      26.7069      0.00000
     22      26.7069      0.00000
     23      29.2833      0.00000
     24      29.2833      0.00000

 k-point    60 :       0.3000    0.0000    0.5000
  band No.  band energies     occupation 
      1     -41.5386      2.00000
      2     -41.5386      2.00000
      3     -41.3367      2.00000
      4     -41.3367      2.00000
      5     -41.2513      2.00000
      6     -41.2513      2.00000
      7       4.8056      2.00000
      8       4.8056      2.00000
      9       6.3286      2.00000
     10       6.3286      2.00000
     11       8.1952      2.00000
     12       8.1952      2.00000
     13       9.2491      2.00000
     14       9.2491      2.00000
     15      10.4175      2.00000
     16      10.4175      2.00000
     17      11.0503      1.97407
     18      11.0503      1.97407
     19      22.4591      0.00000
     20      22.4591      0.00000
     21      25.3521      0.00000
     22      25.3521      0.00000
     23      29.1577      0.00000
     24      29.1577      0.00000

 k-point    61 :       0.4000   -0.0000    0.5000
  band No.  band energies     occupation 
      1     -41.6309      2.00000
      2     -41.6309      2.00000
      3     -41.3594      2.00000
      4     -41.3594      2.00000
      5     -41.2393      2.00000
      6     -41.2393      2.00000
      7       4.7006      2.00000
      8       4.7006      2.00000
      9       6.0601      2.00000
     10       6.0601      2.00000
     11       9.3616      2.00000
     12       9.3616      2.00000
     13       9.7306      2.00000
     14       9.7306      2.00000
     15      11.1497      0.55922
     16      11.1497      0.55922
     17      11.7866      0.00000
     18      11.7866      0.00000
     19      19.4892      0.00000
     20      19.4892      0.00000
     21      25.2558      0.00000
     22      25.2558      0.00000
     23      27.4619      0.00000
     24      27.4619      0.00000

 k-point    62 :       0.5000   -0.0000    0.5000
  band No.  band energies     occupation 
      1     -41.6651      2.00000
      2     -41.6651      2.00000
      3     -41.3679      2.00000
      4     -41.3679      2.00000
      5     -41.2342      2.00000
      6     -41.2342      2.00000
      7       4.6096      2.00000
      8       4.6096      2.00000
      9       5.9545      2.00000
     10       5.9545      2.00000
     11       9.3455      2.00000
     12       9.3455      2.00000
     13      10.2962      2.00000
     14      10.2962      2.00000
     15      11.5453      0.00000
     16      11.5453      0.00000
     17      12.8412      0.00000
     18      12.8412      0.00000
     19      17.5817      0.00000
     20      17.5817      0.00000
     21      25.2659      0.00000
     22      25.2659      0.00000
     23      26.7310      0.00000
     24      26.7310      0.00000

 k-point    63 :       0.1000    0.1000    0.5000
  band No.  band energies     occupation 
      1     -41.3932      2.00000
      2     -41.3932      2.00000
      3     -41.3051      2.00000
      4     -41.3051      2.00000
      5     -41.2687      2.00000
      6     -41.2687      2.00000
      7       4.1217      2.00000
      8       4.1217      2.00000
      9       6.7380      2.00000
     10       6.7380      2.00000
     11       7.4099      2.00000
     12       7.4099      2.00000
     13       8.4616      2.00000
     14       8.4616      2.00000
     15      10.2091      2.00000
     16      10.2091      2.00000
     17      10.6354      2.00000
     18      10.6354      2.00000
     19      23.5471      0.00000
     20      23.5471      0.00000
     21      27.4478      0.00000
     22      27.4478      0.00000
     23      28.3921      0.00000
     24      28.3921      0.00000

 k-point    64 :       0.2000    0.1000    0.5000
  band No.  band energies     occupation 
      1     -41.4902      2.00000
      2     -41.4902      2.00000
      3     -41.3380      2.00000
      4     -41.3380      2.00000
      5     -41.2544      2.00000
      6     -41.2544      2.00000
      7       4.8981      2.00000
      8       4.8981      2.00000
      9       6.5097      2.00000
     10       6.5097      2.00000
     11       7.3425      2.00000
     12       7.3425      2.00000
     13       9.0904      2.00000
     14       9.0904      2.00000
     15      10.3962      2.00000
     16      10.3962      2.00000
     17      10.9650      2.00000
     18      10.9650      2.00000
     19      23.5050      0.00000
     20      23.5050      0.00000
     21      25.8075      0.00000
     22      25.8075      0.00000
     23      27.4813      0.00000
     24      27.4813      0.00000

 k-point    65 :       0.3000    0.1000    0.5000
  band No.  band energies     occupation 
      1     -41.5870      2.00000
      2     -41.5870      2.00000
      3     -41.3713      2.00000
      4     -41.3713      2.00000
      5     -41.2409      2.00000
      6     -41.2409      2.00000
      7       5.0158      2.00000
      8       5.0158      2.00000
      9       6.2862      2.00000
     10       6.2862      2.00000
     11       8.3225      2.00000
     12       8.3225      2.00000
     13       9.2053      2.00000
     14       9.2053      2.00000
     15      11.0264      1.99631
     16      11.0264      1.99631
     17      11.8288      0.00000
     18      11.8288      0.00000
     19      21.1098      0.00000
     20      21.1098      0.00000
     21      25.2960      0.00000
     22      25.2960      0.00000
     23      26.4037      0.00000
     24      26.4037      0.00000

 k-point    66 :       0.4000    0.1000    0.5000
  band No.  band energies     occupation 
      1     -41.6462      2.00000
      2     -41.6462      2.00000
      3     -41.3914      2.00000
      4     -41.3914      2.00000
      5     -41.2324      2.00000
      6     -41.2324      2.00000
      7       4.8795      2.00000
      8       4.8795      2.00000
      9       6.1133      2.00000
     10       6.1133      2.00000
     11       8.8118      2.00000
     12       8.8118      2.00000
     13       9.9089      2.00000
     14       9.9089      2.00000
     15      11.1192      1.22059
     16      11.1192      1.22059
     17      13.5079      0.00000
     18      13.5079      0.00000
     19      18.2198      0.00000
     20      18.2198      0.00000
     21      25.1037      0.00000
     22      25.1037      0.00000
     23      25.7809      0.00000
     24      25.7809      0.00000

 k-point    67 :       0.2000    0.2000    0.5000
  band No.  band energies     occupation 
      1     -41.5577      2.00000
      2     -41.5577      2.00000
      3     -41.3888      2.00000
      4     -41.3888      2.00000
      5     -41.2404      2.00000
      6     -41.2404      2.00000
      7       5.3806      2.00000
      8       5.3806      2.00000
      9       6.6552      2.00000
     10       6.6552      2.00000
     11       7.2331      2.00000
     12       7.2331      2.00000
     13       8.9544      2.00000
     14       8.9544      2.00000
     15      11.1218      1.16308
     16      11.1218      1.16308
     17      11.9415      0.00000
     18      11.9415      0.00000
     19      22.3417      0.00000
     20      22.3417      0.00000
     21      24.4317      0.00000
     22      24.4317      0.00000
     23      26.0716      0.00000
     24      26.0716      0.00000

 k-point    68 :       0.3000    0.2000    0.5000
  band No.  band energies     occupation 
      1     -41.6046      2.00000
      2     -41.6046      2.00000
      3     -41.4369      2.00000
      4     -41.4369      2.00000
      5     -41.2293      2.00000
      6     -41.2293      2.00000
      7       5.4637      2.00000
      8       5.4637      2.00000
      9       6.5474      2.00000
     10       6.5474      2.00000
     11       7.8384      2.00000
     12       7.8384      2.00000
     13       8.8947      2.00000
     14       8.8947      2.00000
     15      11.1914      0.07802
     16      11.1914      0.07802
     17      14.0122      0.00000
     18      14.0122      0.00000
     19      19.6619      0.00000
     20      19.6619      0.00000
     21      23.0480      0.00000
     22      23.0480      0.00000
     23      26.4861      0.00000
     24      26.4861      0.00000

 k-point    69 :       0.4000    0.2000    0.5000
  band No.  band energies     occupation 
      1     -41.6214      2.00000
      2     -41.6214      2.00000
      3     -41.4566      2.00000
      4     -41.4566      2.00000
      5     -41.2254      2.00000
      6     -41.2254      2.00000
      7       5.4562      2.00000
      8       5.4562      2.00000
      9       6.4758      2.00000
     10       6.4758      2.00000
     11       7.9273      2.00000
     12       7.9273      2.00000
     13       9.3186      2.00000
     14       9.3186      2.00000
     15      11.0504      1.97401
     16      11.0504      1.97401
     17      15.7052      0.00000
     18      15.7052      0.00000
     19      17.6835      0.00000
     20      17.6835      0.00000
     21      22.4511      0.00000
     22      22.4511      0.00000
     23      26.8965      0.00000
     24      26.8965      0.00000

 k-point    70 :       0.3000    0.3000    0.5000
  band No.  band energies     occupation 
      1     -41.5851      2.00000
      2     -41.5851      2.00000
      3     -41.5083      2.00000
      4     -41.5083      2.00000
      5     -41.2226      2.00000
      6     -41.2226      2.00000
      7       5.9137      2.00000
      8       5.9137      2.00000
      9       6.7349      2.00000
     10       6.7349      2.00000
     11       7.4951      2.00000
     12       7.4951      2.00000
     13       8.7717      2.00000
     14       8.7717      2.00000
     15      11.0346      1.99247
     16      11.0346      1.99247
     17      16.4680      0.00000
     18      16.4680      0.00000
     19      18.4149      0.00000
     20      18.4149      0.00000
     21      20.6418      0.00000
     22      20.6418      0.00000
     23      27.9630      0.00000
     24      27.9630      0.00000


--------------------------------------------------------------------------------------------------------


 soft charge-density along one line, spin component           1
         0         1         2         3         4         5         6         7         8         9
 total charge-density along one line
 
 pseudopotential strength for first ion, spin component:           1
-31.677  -0.000   0.000  10.732   0.000  -0.000   0.000  -0.000
 -0.000 -31.612  -0.000   0.000  10.667   0.000  -0.000  -0.000
  0.000  -0.000 -31.677  -0.000   0.000  10.732  -0.000  -0.000
 10.732   0.000  -0.000  16.250  -0.000   0.000  -0.000   0.000
  0.000  10.667   0.000  -0.000  16.274  -0.000   0.000   0.000
 -0.000   0.000  10.732   0.000  -0.000  16.250   0.000   0.000
  0.000  -0.000  -0.000  -0.000   0.000   0.000  -3.715  -0.000
 -0.000  -0.000  -0.000   0.000   0.000   0.000  -0.000  -3.670
 -0.000  -0.000   0.000   0.000   0.000  -0.000  -0.000  -0.000
 -0.000   0.000  -0.000   0.000  -0.000   0.000  -0.000   0.000
 -0.000  -0.000   0.000   0.000   0.000  -0.000  -0.000   0.000
  0.000  -0.000  -0.000  -0.000   0.000   0.000  -3.944  -0.000
 -0.000  -0.000  -0.000   0.000   0.000   0.000  -0.000  -3.895
 -0.000  -0.000   0.000   0.000   0.000  -0.000  -0.000  -0.000
 -0.000   0.000  -0.000   0.000  -0.000   0.000  -0.000   0.000
 -0.000  -0.000   0.000   0.000   0.000  -0.000  -0.000   0.000
  0.000   0.000  -0.000   0.000   0.000  -0.000  -0.000   0.000
 -0.000  -0.000   0.000  -0.000  -0.000   0.000   0.000  -0.000
 total augmentation occupancy for first ion, spin component:           1
  2.002   0.000  -0.000  -0.021  -0.000  -0.000   0.000   0.000  -0.000   0.000   0.004  -0.000   0.000   0.000   0.000  -0.004
  0.000   2.002   0.000   0.000  -0.019   0.000   0.000   0.000   0.000   0.000  -0.000   0.000   0.000   0.000   0.000  -0.000
 -0.000   0.000   2.002   0.000   0.000  -0.021   0.004   0.000   0.000   0.000  -0.000  -0.004   0.000  -0.000  -0.000   0.000
 -0.021  -0.000  -0.000   0.049   0.000   0.000  -0.000   0.000   0.000   0.000  -0.025   0.000   0.000  -0.000   0.000   0.024
  0.000  -0.019   0.000  -0.000   0.042  -0.000   0.000   0.000   0.000  -0.000   0.000   0.000   0.000   0.000   0.000  -0.000
  0.000   0.000  -0.021   0.000  -0.000   0.049  -0.025  -0.000  -0.000  -0.000   0.000   0.024   0.000   0.000  -0.000   0.000
  0.000   0.000   0.004  -0.000   0.000  -0.025   4.964   0.000   0.000   0.000   0.000  -2.696  -0.000  -0.000   0.000  -0.000
  0.000  -0.000   0.000   0.000   0.000   0.000  -0.000   4.226  -0.000   0.000   0.000   0.000  -2.298   0.000   0.000  -0.000
 -0.000   0.000   0.000   0.000   0.000  -0.000   0.000   0.000   5.015   0.000  -0.000  -0.000   0.000  -2.745   0.000   0.000
  0.000   0.000   0.000   0.000  -0.000   0.000   0.000   0.000   0.000   4.226   0.000   0.000  -0.000   0.000  -2.298  -0.000
  0.004  -0.000  -0.000  -0.025  -0.000  -0.000   0.000  -0.000  -0.000   0.000   4.964  -0.000  -0.000   0.000  -0.000  -2.696
 -0.000  -0.000  -0.004   0.000   0.000   0.024  -2.696  -0.000  -0.000   0.000  -0.000   2.161  -0.000   0.000   0.000   0.000
 -0.000   0.000   0.000   0.000  -0.000   0.000  -0.000  -2.298   0.000  -0.000  -0.000   0.000   2.212   0.000   0.000   0.000
  0.000   0.000  -0.000  -0.000   0.000   0.000  -0.000  -0.000  -2.745   0.000   0.000   0.000  -0.000   2.198  -0.000  -0.000
  0.000  -0.000   0.000   0.000   0.000  -0.000   0.000   0.000   0.000  -2.298   0.000   0.000  -0.000   0.000   2.212   0.000
 -0.004   0.000  -0.000   0.024  -0.000  -0.000  -0.000  -0.000   0.000   0.000  -2.696   0.000   0.000  -0.000   0.000   2.161
 -0.000   0.000   0.000   0.000   0.000   0.000  -0.000   0.000  -0.215   0.000   0.000   0.000  -0.000   0.198   0.000  -0.000
  0.000   0.000   0.000  -0.000   0.000   0.000  -0.000   0.000   0.004  -0.000   0.000   0.000   0.000   0.001   0.000   0.000


------------------------ aborting loop because EDIFF is reached ----------------------------------------


    CHARGE:  cpu time      0.0146: real time      0.0146
    FORLOC:  cpu time      0.0002: real time      0.0002
    FORNL :  cpu time      0.0136: real time      0.0136
    STRESS:  cpu time      0.1489: real time      0.1494
    FORCOR:  cpu time      0.0024: real time      0.0024
    FORHAR:  cpu time      0.0005: real time      0.0005
    MIXING:  cpu time      0.0002: real time      0.0002
    OFIELD:  cpu time      0.0000: real time      0.0000

  FORCE on cell =-STRESS in cart. coord.  units (eV):
  Direction    XX          YY          ZZ          XY          YZ          ZX
  --------------------------------------------------------------------------------------
  Alpha Z   303.71315   303.71315   303.71315
  Ewald   -1374.27429 -1374.27429 -1492.14368     0.00000     0.00000    -0.00000
  Hartree   277.65219   277.65219   225.52928    -0.00000    -0.00000    -0.00000
  E(xc)    -170.74371  -170.74371  -170.98452    -0.00000    -0.00000    -0.00000
  Local     183.84344   183.84351   341.49494     0.00006    -0.00000    -0.00000
  n-local   -59.32503   -61.71463   -62.66242   -13.20017     3.59856     3.34456
  augment   145.37392   145.37384   148.96659    -0.00007     0.00000     0.00000
  Kinetic   697.39315   691.31150   705.47505   -16.73007     3.60521     1.04485
  Fock        0.00000     0.00000     0.00000     0.00000     0.00000     0.00000
  -------------------------------------------------------------------------------------
  Total      -0.60282    -0.60282    -0.61162     0.00000     0.00000     0.00000
  in kB     -30.56407   -30.56407   -31.01041     0.00000     0.00000     0.00000
  external pressure =      -30.71 kB  Pullay stress =        0.00 kB


 VOLUME and BASIS-vectors are now :
 -----------------------------------------------------------------------------
  energy-cutoff  :      400.00
  volume of cell :       31.60
      direct lattice vectors                 reciprocal lattice vectors
     2.760000000  0.000000000  0.000000000     0.362318841  0.209184880  0.000000000
    -1.380000000  2.390230114  0.000000000     0.000000000  0.418369760  0.000000000
     0.000000000  0.000000000  4.790000000     0.000000000  0.000000000  0.208768267

  length of vectors
     2.760000000  2.760000000  4.790000000     0.418369760  0.418369760  0.208768267


 FORCES acting on ions
    electron-ion (+dipol)            ewald-force                    non-local-force                 convergence-correction
 -----------------------------------------------------------------------------------------------
   -.947E-07 0.547E-07 -.180E-13   0.179E-11 -.111E-11 -.683E-13   -.347E-17 0.694E-17 0.000E+00   -.705E-08 0.407E-08 0.628E-13
   0.946E-07 -.546E-07 -.216E-11   -.176E-11 0.110E-11 0.683E-13   -.347E-17 -.694E-17 0.000E+00   0.705E-08 -.407E-08 0.498E-13
 -----------------------------------------------------------------------------------------------
   -.386E-10 0.222E-10 -.218E-11   0.219E-13 -.314E-14 0.000E+00   -.694E-17 0.000E+00 0.000E+00   -.522E-13 -.868E-13 0.113E-12
 
 
 POSITION                                       TOTAL-FORCE (eV/Angst)
 -----------------------------------------------------------------------------------
      0.00000      0.00000      0.00000        -0.000000      0.000000      0.000000
      0.00000      1.59349      2.39500         0.000000      0.000000      0.000000
 -----------------------------------------------------------------------------------
    total drift:                               -0.000000      0.000000     -0.000000


--------------------------------------------------------------------------------------------------------



  FREE ENERGIE OF THE ION-ELECTRON SYSTEM (eV)
  ---------------------------------------------------
  free  energy   TOTEN  =       -12.04448739 eV

  energy  without entropy=      -12.03976971  energy(sigma->0) =      -12.04212855
 


--------------------------------------------------------------------------------------------------------


    POTLOK:  cpu time      0.0051: real time      0.0051


--------------------------------------------------------------------------------------------------------


     LOOP+:  cpu time      4.6805: real time      4.7114
    4ORBIT:  cpu time      0.0000: real time      0.0000

 total amount of memory used by VASP MPI-rank0    37932. kBytes
=======================================================================

   base      :      30000. kBytes
   nonl-proj :       6309. kBytes
   fftplans  :        195. kBytes
   grid      :        645. kBytes
   one-center:         31. kBytes
   wavefun   :        752. kBytes
 
  
  
 General timing and accounting informations for this job:
 ========================================================
  
                  Total CPU time used (sec):        5.469
                            User time (sec):        4.969
                          System time (sec):        0.500
                         Elapsed time (sec):        7.093
  
                   Maximum memory used (kb):      230180.
                   Average memory used (kb):          N/A
  
                          Minor page faults:        24744
                          Major page faults:           75
                 Voluntary context switches:         2232
