Pt-fcc                                  
   1.00000000000000     
     0.000000    1.939272    1.939272
     1.939272    0.000000    1.939272
     1.939272    1.939272    0.000000
   Pt
     1
Direct
  0.000000  0.000000  0.000000
 
   36   36   36
  127.66      127.53      126.69      124.06      118.37      108.80      95.406      79.300      62.304      46.403    
  33.141      23.240      16.545      12.265      9.4493      7.6450      6.5709      6.0122      5.8401      6.0122    
  6.5709      7.6450      9.4493      12.265      16.545      23.240      33.141      46.403      62.304      79.300    
  95.406      108.80      118.37      124.06      126.69      127.53      127.53      127.04      125.28      121.05    
  113.28      101.61      86.652      69.928      53.395      38.846      27.401      19.304      14.029      10.621    
  8.3785      6.9893      6.2046      5.8542      5.8542      6.2046      6.9893      8.3785      10.621      14.029    
  19.304      27.401      38.846      53.395      69.928      86.652      101.61      113.28      121.05      125.28    
  127.04      127.53      126.69      125.28      121.87      115.40      105.25      91.635      75.697      59.192    
  43.969      31.414      22.118      15.858      11.832      9.1592      7.4468      6.4264      5.8949      5.7310    
  5.8949      6.4264      7.4468      9.1592      11.832      15.858      22.118      31.414      43.969      59.192    
  75.697      91.635      105.25      115.40      121.87      125.28      126.69      127.04      124.06      121.05    
  115.40      106.44      94.132      79.265      63.311      48.013      34.869      24.723      17.631      13.002    
  9.9414      7.9207      6.6677      5.9578      5.6399      5.6400      5.9578      6.6677      7.9207      9.9414    
  13.002      17.631      24.723      34.869      48.013      63.311      79.265      94.132      106.44      115.40    
  121.05      124.06      125.28      125.28      118.37      113.28      105.25      94.132      80.470      65.442    
  50.596      37.401      26.836      19.181      14.057      10.669      8.3804      6.9134      6.0357      5.5761    
  5.4339      5.5761      6.0357      6.9134      8.3804      10.669      14.057      19.181      26.836      37.401    
  50.596      65.442      80.470      94.132      105.25      113.28      118.37      121.05      121.87      121.05    
  108.80      101.61      91.635      79.265      65.442      51.483      38.738      28.214      20.335      14.907    
  11.282      8.7905      7.1451      6.1195      5.5339      5.2699      5.2699      5.5339      6.1195      7.1451    
  8.7905      11.282      14.907      20.335      28.214      38.738      51.483      65.442      79.265      91.635    
  101.61      108.80      113.28      115.40      115.40      113.28      95.406      86.652      75.697      63.311    
  50.596      38.738      28.692      20.951      15.462      11.725      9.1151      7.3424      6.1992      5.5078    
  5.1417      5.0276      5.1417      5.5078      6.1992      7.3424      9.1151      11.725      15.462      20.951    
  28.692      38.738      50.596      63.311      75.697      86.652      95.406      101.61      105.25      106.44    
  105.25      101.61      79.300      69.928      59.192      48.013      37.401      28.214      20.951      15.655    
  11.958      9.3236      7.4865      6.2649      5.4929      5.0449      4.8403      4.8403      5.0449      5.4929    
  6.2649      7.4865      9.3236      11.958      15.655      20.951      28.214      37.401      48.013      59.192    
  69.928      79.300      86.652      91.635      94.132      94.132      91.635      86.652      62.304      53.395    
  43.969      34.869      26.836      20.335      15.462      11.958      9.3956      7.5626      6.3082      5.4854    
  4.9769      4.7022      4.6155      4.7022      4.9769      5.4854      6.3082      7.5626      9.3956      11.958    
  15.462      20.335      26.836      34.869      43.969      53.395      62.304      69.928      75.697      79.265    
  80.470      79.265      75.697      69.928      46.403      38.846      31.414      24.723      19.181      14.907    
  11.725      9.3236      7.5626      6.3233      5.4823      4.9363      4.6106      4.4587      4.4587      4.6106    
  4.9363      5.4823      6.3233      7.5626      9.3236      11.725      14.907      19.181      24.723      31.414    
  38.846      46.403      53.395      59.192      63.311      65.442      65.442      63.311      59.192      53.395    
  33.141      27.401      22.118      17.631      14.057      11.282      9.1151      7.4865      6.3082      5.4823    
  4.9228      4.5649      4.3657      4.3017      4.3657      4.5649      4.9228      5.4823      6.3082      7.4865    
  9.1151      11.282      14.057      17.631      22.118      27.401      33.141      38.846      43.969      48.013    
  50.596      51.483      50.596      48.013      43.969      38.846      23.240      19.304      15.858      13.002    
  10.669      8.7905      7.3424      6.2649      5.4854      4.9363      4.5649      4.3348      4.2246      4.2246    
  4.3348      4.5649      4.9363      5.4854      6.2649      7.3424      8.7905      10.669      13.002      15.858    
  19.304      23.240      27.401      31.414      34.869      37.401      38.738      38.738      37.401      34.869    
  31.414      27.401      16.545      14.029      11.832      9.9414      8.3804      7.1451      6.1992      5.4929    
  4.9769      4.6106      4.3657      4.2246      4.1784      4.2246      4.3657      4.6106      4.9769      5.4929    
  6.1992      7.1451      8.3805      9.9414      11.832      14.029      16.545      19.304      22.118      24.723    
  26.836      28.214      28.692      28.214      26.836      24.723      22.118      19.304      12.265      10.621    
  9.1592      7.9207      6.9134      6.1195      5.5078      5.0449      4.7022      4.4587      4.3017      4.2246    
  4.2246      4.3017      4.4587      4.7022      5.0449      5.5078      6.1195      6.9134      7.9207      9.1592    
  10.621      12.265      14.029      15.858      17.631      19.181      20.335      20.951      20.951      20.335    
  19.181      17.631      15.858      14.029      9.4493      8.3785      7.4468      6.6677      6.0357      5.5339    
  5.1417      4.8403      4.6155      4.4587      4.3657      4.3348      4.3657      4.4587      4.6155      4.8403    
  5.1417      5.5339      6.0357      6.6677      7.4468      8.3785      9.4494      10.621      11.832      13.002    
  14.057      14.907      15.462      15.655      15.462      14.907      14.057      13.002      11.832      10.621    
  7.6450      6.9893      6.4264      5.9578      5.5761      5.2699      5.0276      4.8403      4.7022      4.6106    
  4.5649      4.5649      4.6106      4.7022      4.8403      5.0276      5.2699      5.5761      5.9578      6.4264    
  6.9893      7.6450      8.3785      9.1592      9.9414      10.669      11.282      11.725      11.958      11.958    
  11.725      11.282      10.669      9.9414      9.1592      8.3785      6.5709      6.2046      5.8949      5.6399    
  5.4339      5.2699      5.1417      5.0449      4.9769      4.9363      4.9228      4.9363      4.9769      5.0449    
  5.1417      5.2699      5.4339      5.6399      5.8949      6.2046      6.5709      6.9893      7.4468      7.9207    
  8.3805      8.7905      9.1151      9.3236      9.3956      9.3236      9.1151      8.7905      8.3804      7.9207    
  7.4468      6.9893      6.0122      5.8542      5.7310      5.6400      5.5761      5.5339      5.5078      5.4929    
  5.4854      5.4823      5.4823      5.4854      5.4929      5.5078      5.5339      5.5761      5.6399      5.7310    
  5.8541      6.0122      6.2046      6.4264      6.6677      6.9134      7.1451      7.3424      7.4865      7.5626    
  7.5626      7.4865      7.3424      7.1451      6.9134      6.6677      6.4264      6.2046      5.8401      5.8542    
  5.8949      5.9578      6.0357      6.1195      6.1992      6.2649      6.3082      6.3233      6.3082      6.2649    
  6.1992      6.1195      6.0357      5.9578      5.8949      5.8541      5.8400      5.8541      5.8949      5.9578    
  6.0357      6.1195      6.1992      6.2649      6.3082      6.3233      6.3082      6.2649      6.1992      6.1195    
  6.0357      5.9578      5.8949      5.8542      6.0122      6.2046      6.4264      6.6677      6.9134      7.1451    
  7.3424      7.4865      7.5626      7.5626      7.4865      7.3424      7.1451      6.9134      6.6677      6.4264    
  6.2046      6.0122      5.8541      5.7310      5.6399      5.5761      5.5339      5.5078      5.4929      5.4854    
  5.4823      5.4823      5.4854      5.4929      5.5078      5.5339      5.5761      5.6400      5.7310      5.8542    
  6.5709      6.9893      7.4468      7.9207      8.3804      8.7905      9.1151      9.3236      9.3956      9.3236    
  9.1151      8.7905      8.3805      7.9207      7.4468      6.9893      6.5709      6.2046      5.8949      5.6399    
  5.4339      5.2699      5.1417      5.0449      4.9769      4.9363      4.9228      4.9363      4.9769      5.0449    
  5.1417      5.2699      5.4339      5.6399      5.8949      6.2046      7.6450      8.3785      9.1592      9.9414    
  10.669      11.282      11.725      11.958      11.958      11.725      11.282      10.669      9.9414      9.1592    
  8.3785      7.6450      6.9893      6.4264      5.9578      5.5761      5.2699      5.0276      4.8403      4.7022    
  4.6106      4.5649      4.5649      4.6106      4.7022      4.8403      5.0276      5.2699      5.5761      5.9578    
  6.4264      6.9893      9.4493      10.621      11.832      13.002      14.057      14.907      15.462      15.655    
  15.462      14.907      14.057      13.002      11.832      10.621      9.4494      8.3785      7.4468      6.6677    
  6.0357      5.5339      5.1417      4.8403      4.6155      4.4587      4.3657      4.3348      4.3657      4.4587    
  4.6155      4.8403      5.1417      5.5339      6.0357      6.6677      7.4468      8.3785      12.265      14.029    
  15.858      17.631      19.181      20.335      20.951      20.951      20.335      19.181      17.631      15.858    
  14.029      12.265      10.621      9.1592      7.9207      6.9134      6.1195      5.5078      5.0449      4.7022    
  4.4587      4.3017      4.2246      4.2246      4.3017      4.4587      4.7022      5.0449      5.5078      6.1195    
  6.9134      7.9207      9.1592      10.621      16.545      19.304      22.118      24.723      26.836      28.214    
  28.692      28.214      26.836      24.723      22.118      19.304      16.545      14.029      11.832      9.9414    
  8.3805      7.1451      6.1992      5.4929      4.9769      4.6106      4.3657      4.2246      4.1784      4.2246    
  4.3657      4.6106      4.9769      5.4929      6.1992      7.1451      8.3804      9.9414      11.832      14.029    
  23.240      27.401      31.414      34.869      37.401      38.738      38.738      37.401      34.869      31.414    
  27.401      23.240      19.304      15.858      13.002      10.669      8.7905      7.3424      6.2649      5.4854    
  4.9363      4.5649      4.3348      4.2246      4.2246      4.3348      4.5649      4.9363      5.4854      6.2649    
  7.3424      8.7905      10.669      13.002      15.858      19.304      33.141      38.846      43.969      48.013    
  50.596      51.483      50.596      48.013      43.969      38.846      33.141      27.401      22.118      17.631    
  14.057      11.282      9.1151      7.4865      6.3082      5.4823      4.9228      4.5649      4.3657      4.3017    
  4.3657      4.5649      4.9228      5.4823      6.3082      7.4865      9.1151      11.282      14.057      17.631    
  22.118      27.401      46.403      53.395      59.192      63.311      65.442      65.442      63.311      59.192    
  53.395      46.403      38.846      31.414      24.723      19.181      14.907      11.725      9.3236      7.5626    
  6.3233      5.4823      4.9363      4.6106      4.4587      4.4587      4.6106      4.9363      5.4823      6.3233    
  7.5626      9.3236      11.725      14.907      19.181      24.723      31.414      38.846      62.304      69.928    
  75.697      79.265      80.470      79.265      75.697      69.928      62.304      53.395      43.969      34.869    
  26.836      20.335      15.462      11.958      9.3956      7.5626      6.3082      5.4854      4.9769      4.7022    
  4.6155      4.7022      4.9769      5.4854      6.3082      7.5626      9.3956      11.958      15.462      20.335    
  26.836      34.869      43.969      53.395      79.300      86.652      91.635      94.132      94.132      91.635    
  86.652      79.300      69.928      59.192      48.013      37.401      28.214      20.951      15.655      11.958    
  9.3236      7.4865      6.2649      5.4929      5.0449      4.8403      4.8403      5.0449      5.4929      6.2649    
  7.4865      9.3236      11.958      15.655      20.951      28.214      37.401      48.013      59.192      69.928    
  95.406      101.61      105.25      106.44      105.25      101.61      95.406      86.652      75.697      63.311    
  50.596      38.738      28.692      20.951      15.462      11.725      9.1151      7.3424      6.1992      5.5078    
  5.1417      5.0276      5.1417      5.5078      6.1992      7.3424      9.1151      11.725      15.462      20.951    
  28.692      38.738      50.596      63.311      75.697      86.652      108.80      113.28      115.40      115.40    
  113.28      108.80      101.61      91.635      79.265      65.442      51.483      38.738      28.214      20.335    
  14.907      11.282      8.7905      7.1451      6.1195      5.5339      5.2699      5.2699      5.5339      6.1195    
  7.1451      8.7905      11.282      14.907      20.335      28.214      38.738      51.483      65.442      79.265    
  91.635      101.61      118.37      121.05      121.87      121.05      118.37      113.28      105.25      94.132    
  80.470      65.442      50.596      37.401      26.836      19.181      14.057      10.669      8.3804      6.9134    
  6.0357      5.5761      5.4339      5.5761      6.0357      6.9134      8.3804      10.669      14.057      19.181    
  26.836      37.401      50.596      65.442      80.470      94.132      105.25      113.28      124.06      125.28    
  125.28      124.06      121.05      115.40      106.44      94.132      79.265      63.311      48.013      34.869    
  24.723      17.631      13.002      9.9414      7.9207      6.6677      5.9578      5.6400      5.6399      5.9578    
  6.6677      7.9207      9.9414      13.002      17.631      24.723      34.869      48.013      63.311      79.265    
  94.132      106.44      115.40      121.05      126.69      127.04      126.69      125.28      121.87      115.40    
  105.25      91.635      75.697      59.192      43.969      31.414      22.118      15.858      11.832      9.1592    
  7.4468      6.4264      5.8949      5.7310      5.8949      6.4264      7.4468      9.1592      11.832      15.858    
  22.118      31.414      43.969      59.192      75.697      91.635      105.25      115.40      121.87      125.28    
  127.53      127.53      127.04      125.28      121.05      113.28      101.61      86.652      69.928      53.395    
  38.846      27.401      19.304      14.029      10.621      8.3785      6.9893      6.2046      5.8542      5.8542    
  6.2046      6.9893      8.3785      10.621      14.029      19.304      27.401      38.846      53.395      69.928    
  86.652      101.61      113.28      121.05      125.28      127.04      127.53      127.04      125.28      121.05    
  113.28      101.61      86.652      69.928      53.395      38.846      27.401      19.304      14.029      10.621    
  8.3785      6.9893      6.2046      5.8542      5.8542      6.2046      6.9893      8.3785      10.621      14.029    
  19.304      27.401      38.846      53.395      69.928      86.652      101.61      113.28      121.05      125.28    
  127.04      127.53      127.04      125.75      122.51      116.21      106.19      92.637      76.665      60.043    
  44.648      31.905      22.443      16.060      11.962      9.2494      7.5108      6.4751      5.9358      5.7696    
  5.9358      6.4751      7.5108      9.2494      11.962      16.060      22.443      31.905      44.648      60.043    
  76.665      92.637      106.19      116.21      122.51      125.75      127.04      127.34      125.28      122.51    
  117.12      108.38      96.187      81.272      65.111      49.492      35.976      25.478      18.109      13.302    
  10.146      8.0633      6.7722      6.0414      5.7145      5.7145      6.0414      6.7722      8.0633      10.146    
  13.302      18.109      25.478      35.976      49.492      65.111      81.272      96.187      108.38      117.12    
  122.51      125.28      126.37      126.37      121.05      116.21      108.38      97.357      83.595      68.264    
  52.951      39.205      28.102      20.000      14.567      11.009      8.6150      7.0806      6.1638      5.6845    
  5.5364      5.6845      6.1638      7.0806      8.6150      11.009      14.567      20.000      28.102      39.205    
  52.951      68.264      83.595      97.357      108.38      116.21      121.05      123.54      124.29      123.54    
  113.28      106.19      96.187      83.595      69.331      54.746      41.274      30.029      21.534      15.658    
  11.772      9.1269      7.3800      6.2931      5.6742      5.3958      5.3958      5.6742      6.2931      7.3800    
  9.1269      11.772      15.658      21.534      30.029      41.274      54.746      69.331      83.595      96.187    
  106.19      113.28      117.64      119.67      119.67      117.64      101.61      92.637      81.272      68.264    
  54.746      41.986      31.049      22.535      16.465      12.371      9.5577      7.6470      6.4177      5.6771    
  5.2864      5.1650      5.2864      5.6771      6.4177      7.6470      9.5577      12.371      16.465      22.535    
  31.049      41.986      54.746      68.264      81.272      92.637      101.61      107.90      111.55      112.74    
  111.55      107.90      86.652      76.665      65.111      52.951      41.274      31.049      22.882      16.895    
  12.757      9.8694      7.8584      6.5252      5.6871      5.2035      4.9836      4.9836      5.2035      5.6871    
  6.5252      7.8584      9.8694      12.757      16.895      22.882      31.049      41.274      52.951      65.111    
  76.665      86.652      94.419      99.648      102.26      102.26      99.648      94.419      69.928      60.043    
  49.492      39.205      30.029      22.535      16.895      12.890      10.033      7.9942      6.6043      5.6987    
  5.1434      4.8455      4.7520      4.8455      5.1434      5.6987      6.6043      7.9942      10.033      12.890    
  16.895      22.535      30.029      39.205      49.492      60.043      69.928      78.326      84.645      88.539    
  89.851      88.539      84.645      78.326      53.395      44.648      35.976      28.102      21.534      16.465    
  12.757      10.033      8.0410      6.6463      5.7076      5.1042      4.7478      4.5827      4.5827      4.7478    
  5.1042      5.7076      6.6463      8.0410      10.033      12.757      16.465      21.534      28.102      35.976    
  44.648      53.395      61.435      68.067      72.762      75.186      75.186      72.762      68.067      61.435    
  38.846      31.905      25.478      20.000      15.658      12.371      9.8694      7.9942      6.6463      5.7109    
  5.0848      4.6892      4.4712      4.4016      4.4712      4.6892      5.0848      5.7109      6.6463      7.9942    
  9.8694      12.371      15.658      20.000      25.478      31.905      38.846      45.702      51.830      56.651    
  59.723      60.776      59.723      56.651      51.830      45.702      27.401      22.443      18.109      14.567    
  11.772      9.5577      7.8584      6.6043      5.7076      5.0848      4.6696      4.4156      4.2950      4.2950    
  4.4156      4.6696      5.0848      5.7076      6.6043      7.8584      9.5577      11.772      14.567      18.109    
  22.443      27.401      32.629      37.652      41.965      45.117      46.779      46.779      45.117      41.965    
  37.652      32.629      19.304      16.060      13.302      11.009      9.1269      7.6470      6.5252      5.6987    
  5.1042      4.6892      4.4156      4.2597      4.2091      4.2597      4.4156      4.6892      5.1042      5.6987    
  6.5252      7.6470      9.1269      11.009      13.302      16.060      19.304      22.900      26.575      29.976    
  32.732      34.527      35.150      34.527      32.732      29.976      26.575      22.900      14.029      11.962    
  10.146      8.6150      7.3800      6.4177      5.6871      5.1434      4.7478      4.4712      4.2950      4.2091    
  4.2091      4.2950      4.4712      4.7478      5.1434      5.6871      6.4177      7.3800      8.6150      10.146    
  11.962      14.029      16.333      18.778      21.175      23.280      24.850      25.689      25.689      24.850    
  23.280      21.175      18.778      16.333      10.621      9.2494      8.0633      7.0806      6.2931      5.6771    
  5.2035      4.8455      4.5827      4.4016      4.2950      4.2597      4.2950      4.4016      4.5827      4.8455    
  5.2035      5.6771      6.2931      7.0806      8.0633      9.2494      10.621      12.129      13.702      15.272    
  16.723      17.909      18.688      18.959      18.688      17.909      16.723      15.272      13.702      12.129    
  8.3785      7.5108      6.7722      6.1638      5.6742      5.2864      4.9836      4.7520      4.5827      4.4712    
  4.4156      4.4156      4.4712      4.5827      4.7520      4.9836      5.2864      5.6742      6.1638      6.7722    
  7.5108      8.3785      9.3556      10.400      11.450      12.429      13.261      13.873      14.198      14.198    
  13.873      13.261      12.429      11.450      10.400      9.3556      6.9893      6.4751      6.0414      5.6845    
  5.3958      5.1650      4.9836      4.8455      4.7478      4.6892      4.6696      4.6892      4.7478      4.8455    
  4.9836      5.1650      5.3958      5.6845      6.0414      6.4751      6.9893      7.5785      8.2245      8.8957    
  9.5483      10.131      10.593      10.890      10.993      10.890      10.593      10.131      9.5482      8.8957    
  8.2245      7.5785      6.2046      5.9358      5.7145      5.5364      5.3958      5.2864      5.2035      5.1434    
  5.1042      5.0848      5.0848      5.1042      5.1434      5.2035      5.2864      5.3958      5.5364      5.7145    
  5.9358      6.2046      6.5204      6.8768      7.2595      7.6466      8.0099      8.3188      8.5440      8.6629    
  8.6629      8.5440      8.3188      8.0099      7.6466      7.2595      6.8768      6.5204      5.8542      5.7696    
  5.7145      5.6845      5.6742      5.6771      5.6871      5.6987      5.7076      5.7109      5.7076      5.6987    
  5.6871      5.6771      5.6742      5.6845      5.7145      5.7696      5.8541      5.9698      6.1150      6.2838    
  6.4663      6.6487      6.8150      6.9488      7.0356      7.0657      7.0356      6.9488      6.8150      6.6487    
  6.4663      6.2838      6.1150      5.9698      5.8542      5.9358      6.0414      6.1638      6.2931      6.4177    
  6.5252      6.6043      6.6463      6.6463      6.6043      6.5252      6.4177      6.2931      6.1638      6.0414    
  5.9358      5.8541      5.8002      5.7745      5.7748      5.7962      5.8320      5.8744      5.9154      5.9476    
  5.9652      5.9652      5.9476      5.9154      5.8744      5.8320      5.7962      5.7748      5.7745      5.8002    
  6.2046      6.4751      6.7722      7.0806      7.3800      7.6470      7.8584      7.9942      8.0410      7.9942    
  7.8584      7.6470      7.3800      7.0806      6.7722      6.4751      6.2046      5.9698      5.7745      5.6177    
  5.4956      5.4030      5.3349      5.2865      5.2545      5.2363      5.2304      5.2363      5.2545      5.2865    
  5.3349      5.4031      5.4956      5.6177      5.7745      5.9698      6.9893      7.5108      8.0633      8.6150    
  9.1269      9.5577      9.8694      10.033      10.033      9.8694      9.5577      9.1269      8.6150      8.0633    
  7.5108      6.9893      6.5204      6.1150      5.7748      5.4956      5.2700      5.0907      4.9515      4.8489    
  4.7809      4.7470      4.7470      4.7809      4.8489      4.9515      5.0907      5.2701      5.4956      5.7748    
  6.1150      6.5204      8.3785      9.2494      10.146      11.009      11.772      12.371      12.757      12.890    
  12.757      12.371      11.772      11.009      10.146      9.2494      8.3785      7.5785      6.8768      6.2838    
  5.7962      5.4030      5.0907      4.8467      4.6624      4.5325      4.4550      4.4291      4.4550      4.5325    
  4.6624      4.8467      5.0907      5.4031      5.7962      6.2838      6.8768      7.5785      10.621      11.962    
  13.302      14.567      15.658      16.465      16.895      16.895      16.465      15.658      14.567      13.302    
  11.962      10.621      9.3556      8.2245      7.2595      6.4663      5.8320      5.3349      4.9515      4.6624    
  4.4537      4.3175      4.2501      4.2501      4.3175      4.4537      4.6624      4.9515      5.3349      5.8320    
  6.4662      7.2595      8.2245      9.3556      14.029      16.060      18.109      20.000      21.534      22.535    
  22.882      22.535      21.534      20.000      18.109      16.060      14.029      12.129      10.400      8.8957    
  7.6466      6.6487      5.8744      5.2865      4.8489      4.5325      4.3175      4.1922      4.1509      4.1922    
  4.3175      4.5325      4.8489      5.2865      5.8744      6.6487      7.6466      8.8957      10.400      12.129    
  19.304      22.443      25.478      28.102      30.029      31.049      31.049      30.029      28.102      25.478    
  22.443      19.304      16.333      13.702      11.450      9.5483      8.0099      6.8150      5.9154      5.2545    
  4.7809      4.4550      4.2501      4.1509      4.1509      4.2501      4.4550      4.7809      5.2545      5.9154    
  6.8150      8.0099      9.5482      11.450      13.702      16.333      27.401      31.905      35.976      39.205    
  41.274      41.986      41.274      39.205      35.976      31.905      27.401      22.900      18.778      15.272    
  12.429      10.131      8.3188      6.9488      5.9476      5.2363      4.7470      4.4291      4.2501      4.1922    
  4.2501      4.4291      4.7470      5.2363      5.9476      6.9488      8.3188      10.131      12.429      15.272    
  18.778      22.900      38.846      44.648      49.492      52.951      54.746      54.746      52.951      49.492    
  44.648      38.846      32.629      26.575      21.175      16.723      13.261      10.593      8.5440      7.0356    
  5.9652      5.2304      4.7470      4.4550      4.3175      4.3175      4.4550      4.7470      5.2304      5.9652    
  7.0356      8.5440      10.593      13.261      16.723      21.175      26.575      32.629      53.395      60.043    
  65.111      68.264      69.331      68.264      65.111      60.043      53.395      45.702      37.652      29.976    
  23.280      17.909      13.873      10.890      8.6629      7.0657      5.9652      5.2363      4.7809      4.5325    
  4.4537      4.5325      4.7809      5.2363      5.9652      7.0657      8.6629      10.890      13.873      17.909    
  23.280      29.976      37.652      45.702      69.928      76.665      81.272      83.595      83.595      81.272    
  76.665      69.928      61.435      51.830      41.965      32.732      24.850      18.688      14.198      10.993    
  8.6629      7.0356      5.9476      5.2545      4.8489      4.6624      4.6624      4.8489      5.2545      5.9476    
  7.0356      8.6629      10.993      14.198      18.688      24.850      32.732      41.965      51.830      61.435    
  86.652      92.637      96.187      97.357      96.187      92.637      86.652      78.326      68.067      56.651    
  45.117      34.527      25.689      18.959      14.198      10.890      8.5440      6.9488      5.9154      5.2865    
  4.9515      4.8467      4.9515      5.2865      5.9154      6.9488      8.5440      10.890      14.198      18.959    
  25.689      34.527      45.117      56.651      68.067      78.326      101.61      106.19      108.38      108.38    
  106.19      101.61      94.419      84.645      72.762      59.723      46.779      35.150      25.689      18.688    
  13.873      10.593      8.3188      6.8150      5.8744      5.3349      5.0907      5.0907      5.3349      5.8744    
  6.8150      8.3188      10.593      13.873      18.688      25.689      35.150      46.779      59.723      72.762    
  84.645      94.419      113.28      116.21      117.12      116.21      113.28      107.90      99.648      88.539    
  75.186      60.776      46.779      34.527      24.850      17.909      13.261      10.131      8.0099      6.6487    
  5.8320      5.4031      5.2701      5.4031      5.8320      6.6487      8.0099      10.131      13.261      17.909    
  24.850      34.527      46.779      60.776      75.186      88.539      99.648      107.90      121.05      122.51    