Pt-fcc                                  
   1.00000000000000     
     0.000000    1.939272    1.939272
     1.939272    0.000000    1.939272
     1.939272    1.939272    0.000000
   Pt
     1
Direct
  0.000000  0.000000  0.000000
 
   36   36   36
 0.12766025320E+03 0.12752574816E+03 0.12669294034E+03 0.12406474304E+03 0.11837492285E+03
 0.10879641818E+03 0.95405935323E+02 0.79299858728E+02 0.62303896232E+02 0.46402899225E+02
 0.33141458971E+02 0.23240025767E+02 0.16544680699E+02 0.12264641644E+02 0.94493478712E+01
 0.76449801065E+01 0.65708627548E+01 0.60121580176E+01 0.58400523789E+01 0.60121580176E+01
 0.65708627548E+01 0.76449801065E+01 0.94493478712E+01 0.12264641644E+02 0.16544680699E+02
 0.23240025767E+02 0.33141458971E+02 0.46402899225E+02 0.62303896232E+02 0.79299858728E+02
 0.95405935323E+02 0.10879641818E+03 0.11837492285E+03 0.12406474304E+03 0.12669294034E+03
 0.12752574816E+03 0.12752574816E+03 0.12703874941E+03 0.12528368641E+03 0.12105340272E+03
 0.11328464831E+03 0.10160974221E+03 0.86651891077E+02 0.69927807746E+02 0.53395324736E+02
 0.38845755641E+02 0.27401271642E+02 0.19304190324E+02 0.14029168786E+02 0.10621427451E+02
 0.83784907568E+01 0.69893185430E+01 0.62045531904E+01 0.58541560411E+01 0.58541566957E+01
 0.62045547454E+01 0.69893200320E+01 0.83784911932E+01 0.10621426447E+02 0.14029166803E+02
 0.19304188478E+02 0.27401271028E+02 0.38845756602E+02 0.53395326363E+02 0.69927808007E+02
 0.86651887561E+02 0.10160973319E+03 0.11328463381E+03 0.12105338479E+03 0.12528366887E+03
 0.12703873660E+03 0.12752574347E+03 0.12669294034E+03 0.12528368641E+03 0.12187038984E+03
 0.11539851623E+03 0.10524726631E+03 0.91634847373E+02 0.75696626390E+02 0.59192436192E+02
 0.43969154093E+02 0.31413649017E+02 0.22118141313E+02 0.15858113198E+02 0.11831898303E+02
 0.91591816513E+01 0.74467650597E+01 0.64264010191E+01 0.58949120221E+01 0.57310294174E+01
 0.58949141191E+01 0.64264039185E+01 0.74467669173E+01 0.91591811518E+01 0.11831895494E+02
 0.15858109555E+02 0.22118138973E+02 0.31413649480E+02 0.43969157066E+02 0.59192439185E+02
 0.75696625458E+02 0.91634838725E+02 0.10524724817E+03 0.11539849017E+03 0.12187036075E+03
 0.12528366122E+03 0.12669292571E+03 0.12703873660E+03 0.12406474304E+03 0.12105340272E+03
 0.11539851623E+03 0.10643795516E+03 0.94132161652E+02 0.79265156689E+02 0.63310618088E+02
 0.48013426766E+02 0.34869210951E+02 0.24722723495E+02 0.17631204090E+02 0.13002162644E+02
 0.99413723602E+01 0.79206893115E+01 0.66676708658E+01 0.59577876977E+01 0.56399488647E+01
 0.56399502127E+01 0.59577909256E+01 0.66676739744E+01 0.79206902762E+01 0.99413703228E+01
 0.13002158532E+02 0.17631200215E+02 0.24722722326E+02 0.34869213565E+02 0.48013431862E+02
 0.63310622065E+02 0.79265154958E+02 0.94132150672E+02 0.10643793431E+03 0.11539848873E+03
 0.12105337488E+03 0.12406472233E+03 0.12528366122E+03 0.12528366887E+03 0.11837492285E+03
 0.11328464831E+03 0.10524726631E+03 0.94132161652E+02 0.80469703598E+02 0.65441942822E+02
 0.50596104788E+02 0.37400773937E+02 0.26836128220E+02 0.19181465373E+02 0.14057075776E+02
 0.10668739773E+02 0.83804469925E+01 0.69134415034E+01 0.60356664702E+01 0.55761053269E+01
 0.54339119131E+01 0.55761076460E+01 0.60356697285E+01 0.69134437059E+01 0.83804466655E+01
 0.10668736858E+02 0.14057071801E+02 0.19181462752E+02 0.26836128975E+02 0.37400778476E+02
 0.50596111348E+02 0.65441947983E+02 0.80469703637E+02 0.94132154277E+02 0.10524725193E+03
 0.11328463022E+03 0.11837490623E+03 0.12105337488E+03 0.12187036075E+03 0.12105338479E+03
 0.10879641818E+03 0.10160974221E+03 0.91634847373E+02 0.79265156689E+02 0.65441942822E+02
 0.51483019907E+02 0.38737586007E+02 0.28213979058E+02 0.20335224516E+02 0.14907089991E+02
 0.11281554928E+02 0.87904863728E+01 0.71450910908E+01 0.61195002472E+01 0.55338963471E+01
 0.52698890908E+01 0.52698900030E+01 0.55338985751E+01 0.61195025493E+01 0.71450921316E+01
 0.87904854773E+01 0.11281552489E+02 0.14907087393E+02 0.20335223516E+02 0.28213980960E+02
 0.38737590993E+02 0.51483026824E+02 0.65441949654E+02 0.79265161329E+02 0.91634848577E+02
 0.10160974014E+03 0.10879641429E+03 0.11328463022E+03 0.11539848873E+03 0.11539849017E+03
 0.11328463381E+03 0.95405935323E+02 0.86651891077E+02 0.75696626390E+02 0.63310618088E+02
 0.50596104788E+02 0.38737586007E+02 0.28692410979E+02 0.20951370149E+02 0.15461683920E+02
 0.11725206413E+02 0.91150797029E+01 0.73424355216E+01 0.61992257059E+01 0.55078031495E+01
 0.51417127896E+01 0.50276208338E+01 0.51417135689E+01 0.55078043737E+01 0.61992268438E+01
 0.73424360613E+01 0.91150793802E+01 0.11725205363E+02 0.15461682691E+02 0.20951369588E+02
 0.28692411972E+02 0.38737589285E+02 0.50596110615E+02 0.63310626239E+02 0.75696636096E+02
 0.86651901163E+02 0.95405944466E+02 0.10160974014E+03 0.10524725193E+03 0.10643793431E+03
 0.10524724817E+03 0.10160973319E+03 0.79299858728E+02 0.69927807746E+02 0.59192436192E+02
 0.48013426766E+02 0.37400773937E+02 0.28213979058E+02 0.20951370149E+02 0.15654614888E+02
 0.11958238239E+02 0.93236478409E+01 0.74865288835E+01 0.62649298292E+01 0.54929369228E+01
 0.50449207067E+01 0.48402630663E+01 0.48402629409E+01 0.50449204868E+01 0.54929369322E+01
 0.62649303277E+01 0.74865297840E+01 0.93236486682E+01 0.11958238321E+02 0.15654613776E+02
 0.20951368051E+02 0.28213976983E+02 0.37400773571E+02 0.48013429821E+02 0.59192443706E+02
 0.69927819476E+02 0.79299872871E+02 0.86651901163E+02 0.91634848577E+02 0.94132154277E+02
 0.94132150672E+02 0.91634838725E+02 0.86651887561E+02 0.62303896232E+02 0.53395324736E+02
 0.43969154093E+02 0.34869210951E+02 0.26836128220E+02 0.20335224516E+02 0.15461683920E+02
 0.11958238239E+02 0.93955923140E+01 0.75626176632E+01 0.63081723148E+01 0.54853574497E+01
 0.49768724841E+01 0.47021598786E+01 0.46154852488E+01 0.47021588248E+01 0.49768710882E+01
 0.54853567003E+01 0.63081728400E+01 0.75626192655E+01 0.93955939107E+01 0.11958238369E+02
 0.15461681475E+02 0.20335219548E+02 0.26836122082E+02 0.34869206073E+02 0.43969152944E+02
 0.53395328741E+02 0.62303905081E+02 0.69927819476E+02 0.75696636096E+02 0.79265161329E+02
 0.80469703637E+02 0.79265154958E+02 0.75696625458E+02 0.69927808007E+02 0.46402899225E+02
 0.38845755641E+02 0.31413649017E+02 0.24722723495E+02 0.19181465373E+02 0.14907089991E+02
 0.11725206413E+02 0.93236478409E+01 0.75626176632E+01 0.63232577637E+01 0.54822884286E+01
 0.49363241625E+01 0.46106345453E+01 0.44587213938E+01 0.44587205531E+01 0.46106325039E+01
 0.49363221100E+01 0.54822875845E+01 0.63232586474E+01 0.75626197007E+01 0.93236494866E+01
 0.11725205873E+02 0.14907086011E+02 0.19181458059E+02 0.24722714312E+02 0.31413640352E+02
 0.38845749900E+02 0.46402897687E+02 0.53395328741E+02 0.59192443706E+02 0.63310626239E+02
 0.65441949654E+02 0.65441947983E+02 0.63310622065E+02 0.59192439185E+02 0.53395326363E+02
 0.33141458971E+02 0.27401271642E+02 0.22118141313E+02 0.17631204090E+02 0.14057075776E+02
 0.11281554928E+02 0.91150797029E+01 0.74865288835E+01 0.63081723148E+01 0.54822884286E+01
 0.49228380481E+01 0.45648957138E+01 0.43656894462E+01 0.43017470495E+01 0.43656878635E+01
 0.45648933674E+01 0.49228361501E+01 0.54822879835E+01 0.63081735278E+01 0.74865310220E+01
 0.91150812460E+01 0.11281554300E+02 0.14057071869E+02 0.17631196872E+02 0.22118131818E+02
 0.27401261505E+02 0.33141449971E+02 0.38845749900E+02 0.43969152944E+02 0.48013429821E+02
 0.50596110615E+02 0.51483026824E+02 0.50596111348E+02 0.48013431862E+02 0.43969157066E+02
 0.38845756602E+02 0.23240025767E+02 0.19304190324E+02 0.15858113198E+02 0.13002162644E+02
 0.10668739773E+02 0.87904863728E+01 0.73424355216E+01 0.62649298292E+01 0.54853574497E+01
 0.49363241625E+01 0.45648957138E+01 0.43347944423E+01 0.42245737515E+01 0.42245731619E+01
 0.43347929289E+01 0.45648939939E+01 0.49363230536E+01 0.54853575946E+01 0.62649313188E+01
 0.73424379115E+01 0.87904886580E+01 0.10668740825E+02 0.13002161470E+02 0.15858109217E+02
 0.19304183720E+02 0.23240017152E+02 0.27401261505E+02 0.31413640352E+02 0.34869206073E+02
 0.37400773571E+02 0.38737589285E+02 0.38737590993E+02 0.37400778476E+02 0.34869213565E+02
 0.31413649480E+02 0.27401271028E+02 0.16544680699E+02 0.14029168786E+02 0.11831898303E+02
 0.99413723602E+01 0.83804469925E+01 0.71450910908E+01 0.61992257059E+01 0.54929369228E+01
 0.49768724841E+01 0.46106345453E+01 0.43656894462E+01 0.42245737515E+01 0.41784155552E+01
 0.42245734299E+01 0.43656888949E+01 0.46106339891E+01 0.49768722721E+01 0.54929375084E+01
 0.61992274694E+01 0.71450941916E+01 0.83804511514E+01 0.99413767536E+01 0.11831901851E+02
 0.14029170158E+02 0.16544679054E+02 0.19304183720E+02 0.22118131818E+02 0.24722714312E+02
 0.26836122082E+02 0.28213976983E+02 0.28692411972E+02 0.28213980960E+02 0.26836128975E+02
 0.24722722326E+02 0.22118138973E+02 0.19304188478E+02 0.12264641644E+02 0.10621427451E+02
 0.91591816513E+01 0.79206893115E+01 0.69134415034E+01 0.61195002472E+01 0.55078031495E+01
 0.50449207067E+01 0.47021598786E+01 0.44587213938E+01 0.43017470495E+01 0.42245731619E+01
 0.42245734299E+01 0.43017476912E+01 0.44587220295E+01 0.47021602210E+01 0.50449208426E+01
 0.55078036767E+01 0.61195020601E+01 0.69134453922E+01 0.79206955322E+01 0.91591894982E+01
 0.10621435518E+02 0.12264648149E+02 0.14029170158E+02 0.15858109217E+02 0.17631196872E+02
 0.19181458059E+02 0.20335219548E+02 0.20951368051E+02 0.20951369588E+02 0.20335223516E+02
 0.19181462752E+02 0.17631200215E+02 0.15858109555E+02 0.14029166803E+02 0.94493478712E+01
 0.83784907568E+01 0.74467650597E+01 0.66676708658E+01 0.60356664702E+01 0.55338963471E+01
 0.51417127896E+01 0.48402630663E+01 0.46154852488E+01 0.44587205531E+01 0.43656878635E+01
 0.43347929289E+01 0.43656888949E+01 0.44587220295E+01 0.46154863368E+01 0.48402632293E+01
 0.51417121645E+01 0.55338958660E+01 0.60356675003E+01 0.66676745859E+01 0.74467719333E+01
 0.83785001041E+01 0.94493580517E+01 0.10621435518E+02 0.11831901851E+02 0.13002161470E+02
 0.14057071869E+02 0.14907086011E+02 0.15461681475E+02 0.15654613776E+02 0.15461682691E+02
 0.14907087393E+02 0.14057071801E+02 0.13002158532E+02 0.11831895494E+02 0.10621426447E+02
 0.76449801065E+01 0.69893185430E+01 0.64264010191E+01 0.59577876977E+01 0.55761053269E+01
 0.52698890908E+01 0.50276208338E+01 0.48402629409E+01 0.47021588248E+01 0.46106325039E+01
 0.45648933674E+01 0.45648939939E+01 0.46106339891E+01 0.47021602210E+01 0.48402632293E+01
 0.50276195263E+01 0.52698865485E+01 0.55761027363E+01 0.59577866450E+01 0.64264027689E+01
 0.69893235694E+01 0.76449878151E+01 0.83785001041E+01 0.91591894982E+01 0.99413767536E+01
 0.10668740825E+02 0.11281554300E+02 0.11725205873E+02 0.11958238369E+02 0.11958238321E+02
 0.11725205363E+02 0.11281552489E+02 0.10668736858E+02 0.99413703228E+01 0.91591811518E+01
 0.83784911932E+01 0.65708627548E+01 0.62045531904E+01 0.58949120221E+01 0.56399488647E+01
 0.54339119131E+01 0.52698900030E+01 0.51417135689E+01 0.50449204868E+01 0.49768710882E+01
 0.49363221100E+01 0.49228361501E+01 0.49363230536E+01 0.49768722721E+01 0.50449208426E+01
 0.51417121645E+01 0.52698865485E+01 0.54339069438E+01 0.56399435850E+01 0.58949079260E+01
 0.62045514439E+01 0.65708638206E+01 0.69893235694E+01 0.74467719333E+01 0.79206955322E+01
 0.83804511514E+01 0.87904886580E+01 0.91150812460E+01 0.93236494866E+01 0.93955939107E+01
 0.93236486682E+01 0.91150793802E+01 0.87904854773E+01 0.83804466655E+01 0.79206902762E+01
 0.74467669173E+01 0.69893200320E+01 0.60121580176E+01 0.58541560411E+01 0.57310294174E+01
 0.56399502127E+01 0.55761076460E+01 0.55338985751E+01 0.55078043737E+01 0.54929369322E+01
 0.54853567003E+01 0.54822875845E+01 0.54822879835E+01 0.54853575946E+01 0.54929375084E+01
 0.55078036767E+01 0.55338958660E+01 0.55761027363E+01 0.56399435850E+01 0.57310220433E+01
 0.58541491318E+01 0.60121526190E+01 0.62045514439E+01 0.64264027689E+01 0.66676745859E+01
 0.69134453922E+01 0.71450941916E+01 0.73424379115E+01 0.74865310220E+01 0.75626197007E+01
 0.75626192655E+01 0.74865297840E+01 0.73424360613E+01 0.71450921316E+01 0.69134437059E+01
 0.66676739744E+01 0.64264039185E+01 0.62045547454E+01 0.58400523789E+01 0.58541566957E+01
 0.58949141191E+01 0.59577909256E+01 0.60356697285E+01 0.61195025493E+01 0.61992268438E+01
 0.62649303277E+01 0.63081728400E+01 0.63232586474E+01 0.63081735278E+01 0.62649313188E+01
 0.61992274694E+01 0.61195020601E+01 0.60356675003E+01 0.59577866450E+01 0.58949079260E+01
 0.58541491318E+01 0.58400443143E+01 0.58541491318E+01 0.58949079260E+01 0.59577866450E+01
 0.60356675003E+01 0.61195020601E+01 0.61992274694E+01 0.62649313188E+01 0.63081735278E+01
 0.63232586474E+01 0.63081728400E+01 0.62649303277E+01 0.61992268438E+01 0.61195025493E+01
 0.60356697285E+01 0.59577909256E+01 0.58949141191E+01 0.58541566957E+01 0.60121580176E+01
 0.62045547454E+01 0.64264039185E+01 0.66676739744E+01 0.69134437059E+01 0.71450921316E+01
 0.73424360613E+01 0.74865297840E+01 0.75626192655E+01 0.75626197007E+01 0.74865310220E+01
 0.73424379115E+01 0.71450941916E+01 0.69134453922E+01 0.66676745859E+01 0.64264027689E+01
 0.62045514439E+01 0.60121526190E+01 0.58541491318E+01 0.57310220433E+01 0.56399435850E+01
 0.55761027363E+01 0.55338958660E+01 0.55078036767E+01 0.54929375084E+01 0.54853575946E+01
 0.54822879835E+01 0.54822875845E+01 0.54853567003E+01 0.54929369322E+01 0.55078043737E+01
 0.55338985751E+01 0.55761076460E+01 0.56399502127E+01 0.57310294174E+01 0.58541560411E+01
 0.65708627548E+01 0.69893200320E+01 0.74467669173E+01 0.79206902762E+01 0.83804466655E+01
 0.87904854773E+01 0.91150793802E+01 0.93236486682E+01 0.93955939107E+01 0.93236494866E+01
 0.91150812460E+01 0.87904886580E+01 0.83804511514E+01 0.79206955322E+01 0.74467719333E+01
 0.69893235694E+01 0.65708638206E+01 0.62045514439E+01 0.58949079260E+01 0.56399435850E+01
 0.54339069438E+01 0.52698865485E+01 0.51417121645E+01 0.50449208426E+01 0.49768722721E+01
 0.49363230536E+01 0.49228361501E+01 0.49363221100E+01 0.49768710882E+01 0.50449204868E+01
 0.51417135689E+01 0.52698900030E+01 0.54339119131E+01 0.56399488647E+01 0.58949120221E+01
 0.62045531904E+01 0.76449801065E+01 0.83784911932E+01 0.91591811518E+01 0.99413703228E+01
 0.10668736858E+02 0.11281552489E+02 0.11725205363E+02 0.11958238321E+02 0.11958238369E+02
 0.11725205873E+02 0.11281554300E+02 0.10668740825E+02 0.99413767536E+01 0.91591894982E+01
 0.83785001041E+01 0.76449878151E+01 0.69893235694E+01 0.64264027689E+01 0.59577866450E+01
 0.55761027363E+01 0.52698865485E+01 0.50276195263E+01 0.48402632293E+01 0.47021602210E+01
 0.46106339891E+01 0.45648939939E+01 0.45648933674E+01 0.46106325039E+01 0.47021588248E+01
 0.48402629409E+01 0.50276208338E+01 0.52698890908E+01 0.55761053269E+01 0.59577876977E+01
 0.64264010191E+01 0.69893185430E+01 0.94493478712E+01 0.10621426447E+02 0.11831895494E+02
 0.13002158532E+02 0.14057071801E+02 0.14907087393E+02 0.15461682691E+02 0.15654613776E+02
 0.15461681475E+02 0.14907086011E+02 0.14057071869E+02 0.13002161470E+02 0.11831901851E+02
 0.10621435518E+02 0.94493580517E+01 0.83785001041E+01 0.74467719333E+01 0.66676745859E+01
 0.60356675003E+01 0.55338958660E+01 0.51417121645E+01 0.48402632293E+01 0.46154863368E+01
 0.44587220295E+01 0.43656888949E+01 0.43347929289E+01 0.43656878635E+01 0.44587205531E+01
 0.46154852488E+01 0.48402630663E+01 0.51417127896E+01 0.55338963471E+01 0.60356664702E+01
 0.66676708658E+01 0.74467650597E+01 0.83784907568E+01 0.12264641644E+02 0.14029166803E+02
 0.15858109555E+02 0.17631200215E+02 0.19181462752E+02 0.20335223516E+02 0.20951369588E+02
 0.20951368051E+02 0.20335219548E+02 0.19181458059E+02 0.17631196872E+02 0.15858109217E+02
 0.14029170158E+02 0.12264648149E+02 0.10621435518E+02 0.91591894982E+01 0.79206955322E+01
 0.69134453922E+01 0.61195020601E+01 0.55078036767E+01 0.50449208426E+01 0.47021602210E+01
 0.44587220295E+01 0.43017476912E+01 0.42245734299E+01 0.42245731619E+01 0.43017470495E+01
 0.44587213938E+01 0.47021598786E+01 0.50449207067E+01 0.55078031495E+01 0.61195002472E+01
 0.69134415034E+01 0.79206893115E+01 0.91591816513E+01 0.10621427451E+02 0.16544680699E+02
 0.19304188478E+02 0.22118138973E+02 0.24722722326E+02 0.26836128975E+02 0.28213980960E+02
 0.28692411972E+02 0.28213976983E+02 0.26836122082E+02 0.24722714312E+02 0.22118131818E+02
 0.19304183720E+02 0.16544679054E+02 0.14029170158E+02 0.11831901851E+02 0.99413767536E+01
 0.83804511514E+01 0.71450941916E+01 0.61992274694E+01 0.54929375084E+01 0.49768722721E+01
 0.46106339891E+01 0.43656888949E+01 0.42245734299E+01 0.41784155552E+01 0.42245737515E+01
 0.43656894462E+01 0.46106345453E+01 0.49768724841E+01 0.54929369228E+01 0.61992257059E+01
 0.71450910908E+01 0.83804469925E+01 0.99413723602E+01 0.11831898303E+02 0.14029168786E+02
 0.23240025767E+02 0.27401271028E+02 0.31413649480E+02 0.34869213565E+02 0.37400778476E+02
 0.38737590993E+02 0.38737589285E+02 0.37400773571E+02 0.34869206073E+02 0.31413640352E+02
 0.27401261505E+02 0.23240017152E+02 0.19304183720E+02 0.15858109217E+02 0.13002161470E+02
 0.10668740825E+02 0.87904886580E+01 0.73424379115E+01 0.62649313188E+01 0.54853575946E+01
 0.49363230536E+01 0.45648939939E+01 0.43347929289E+01 0.42245731619E+01 0.42245737515E+01
 0.43347944423E+01 0.45648957138E+01 0.49363241625E+01 0.54853574497E+01 0.62649298292E+01
 0.73424355216E+01 0.87904863728E+01 0.10668739773E+02 0.13002162644E+02 0.15858113198E+02
 0.19304190324E+02 0.33141458971E+02 0.38845756602E+02 0.43969157066E+02 0.48013431862E+02
 0.50596111348E+02 0.51483026824E+02 0.50596110615E+02 0.48013429821E+02 0.43969152944E+02
 0.38845749900E+02 0.33141449971E+02 0.27401261505E+02 0.22118131818E+02 0.17631196872E+02
 0.14057071869E+02 0.11281554300E+02 0.91150812460E+01 0.74865310220E+01 0.63081735278E+01
 0.54822879835E+01 0.49228361501E+01 0.45648933674E+01 0.43656878635E+01 0.43017470495E+01
 0.43656894462E+01 0.45648957138E+01 0.49228380481E+01 0.54822884286E+01 0.63081723148E+01
 0.74865288835E+01 0.91150797029E+01 0.11281554928E+02 0.14057075776E+02 0.17631204090E+02
 0.22118141313E+02 0.27401271642E+02 0.46402899225E+02 0.53395326363E+02 0.59192439185E+02
 0.63310622065E+02 0.65441947983E+02 0.65441949654E+02 0.63310626239E+02 0.59192443706E+02
 0.53395328741E+02 0.46402897687E+02 0.38845749900E+02 0.31413640352E+02 0.24722714312E+02
 0.19181458059E+02 0.14907086011E+02 0.11725205873E+02 0.93236494866E+01 0.75626197007E+01
 0.63232586474E+01 0.54822875845E+01 0.49363221100E+01 0.46106325039E+01 0.44587205531E+01
 0.44587213938E+01 0.46106345453E+01 0.49363241625E+01 0.54822884286E+01 0.63232577637E+01
 0.75626176632E+01 0.93236478409E+01 0.11725206413E+02 0.14907089991E+02 0.19181465373E+02
 0.24722723495E+02 0.31413649017E+02 0.38845755641E+02 0.62303896232E+02 0.69927808007E+02
 0.75696625458E+02 0.79265154958E+02 0.80469703637E+02 0.79265161329E+02 0.75696636096E+02
 0.69927819476E+02 0.62303905081E+02 0.53395328741E+02 0.43969152944E+02 0.34869206073E+02
 0.26836122082E+02 0.20335219548E+02 0.15461681475E+02 0.11958238369E+02 0.93955939107E+01
 0.75626192655E+01 0.63081728400E+01 0.54853567003E+01 0.49768710882E+01 0.47021588248E+01
 0.46154852488E+01 0.47021598786E+01 0.49768724841E+01 0.54853574497E+01 0.63081723148E+01
 0.75626176632E+01 0.93955923140E+01 0.11958238239E+02 0.15461683920E+02 0.20335224516E+02
 0.26836128220E+02 0.34869210951E+02 0.43969154093E+02 0.53395324736E+02 0.79299858728E+02
 0.86651887561E+02 0.91634838725E+02 0.94132150672E+02 0.94132154277E+02 0.91634848577E+02
 0.86651901163E+02 0.79299872871E+02 0.69927819476E+02 0.59192443706E+02 0.48013429821E+02
 0.37400773571E+02 0.28213976983E+02 0.20951368051E+02 0.15654613776E+02 0.11958238321E+02
 0.93236486682E+01 0.74865297840E+01 0.62649303277E+01 0.54929369322E+01 0.50449204868E+01
 0.48402629409E+01 0.48402630663E+01 0.50449207067E+01 0.54929369228E+01 0.62649298292E+01
 0.74865288835E+01 0.93236478409E+01 0.11958238239E+02 0.15654614888E+02 0.20951370149E+02
 0.28213979058E+02 0.37400773937E+02 0.48013426766E+02 0.59192436192E+02 0.69927807746E+02
 0.95405935323E+02 0.10160973319E+03 0.10524724817E+03 0.10643793431E+03 0.10524725193E+03
 0.10160974014E+03 0.95405944466E+02 0.86651901163E+02 0.75696636096E+02 0.63310626239E+02
 0.50596110615E+02 0.38737589285E+02 0.28692411972E+02 0.20951369588E+02 0.15461682691E+02
 0.11725205363E+02 0.91150793802E+01 0.73424360613E+01 0.61992268438E+01 0.55078043737E+01
 0.51417135689E+01 0.50276208338E+01 0.51417127896E+01 0.55078031495E+01 0.61992257059E+01
 0.73424355216E+01 0.91150797029E+01 0.11725206413E+02 0.15461683920E+02 0.20951370149E+02
 0.28692410979E+02 0.38737586007E+02 0.50596104788E+02 0.63310618088E+02 0.75696626390E+02
 0.86651891077E+02 0.10879641818E+03 0.11328463381E+03 0.11539849017E+03 0.11539848873E+03
 0.11328463022E+03 0.10879641429E+03 0.10160974014E+03 0.91634848577E+02 0.79265161329E+02
 0.65441949654E+02 0.51483026824E+02 0.38737590993E+02 0.28213980960E+02 0.20335223516E+02
 0.14907087393E+02 0.11281552489E+02 0.87904854773E+01 0.71450921316E+01 0.61195025493E+01
 0.55338985751E+01 0.52698900030E+01 0.52698890908E+01 0.55338963471E+01 0.61195002472E+01
 0.71450910908E+01 0.87904863728E+01 0.11281554928E+02 0.14907089991E+02 0.20335224516E+02
 0.28213979058E+02 0.38737586007E+02 0.51483019907E+02 0.65441942822E+02 0.79265156689E+02
 0.91634847373E+02 0.10160974221E+03 0.11837492285E+03 0.12105338479E+03 0.12187036075E+03
 0.12105337488E+03 0.11837490623E+03 0.11328463022E+03 0.10524725193E+03 0.94132154277E+02
 0.80469703637E+02 0.65441947983E+02 0.50596111348E+02 0.37400778476E+02 0.26836128975E+02
 0.19181462752E+02 0.14057071801E+02 0.10668736858E+02 0.83804466655E+01 0.69134437059E+01
 0.60356697285E+01 0.55761076460E+01 0.54339119131E+01 0.55761053269E+01 0.60356664702E+01
 0.69134415034E+01 0.83804469925E+01 0.10668739773E+02 0.14057075776E+02 0.19181465373E+02
 0.26836128220E+02 0.37400773937E+02 0.50596104788E+02 0.65441942822E+02 0.80469703598E+02
 0.94132161652E+02 0.10524726631E+03 0.11328464831E+03 0.12406474304E+03 0.12528366887E+03
 0.12528366122E+03 0.12406472233E+03 0.12105337488E+03 0.11539848873E+03 0.10643793431E+03
 0.94132150672E+02 0.79265154958E+02 0.63310622065E+02 0.48013431862E+02 0.34869213565E+02
 0.24722722326E+02 0.17631200215E+02 0.13002158532E+02 0.99413703228E+01 0.79206902762E+01
 0.66676739744E+01 0.59577909256E+01 0.56399502127E+01 0.56399488647E+01 0.59577876977E+01
 0.66676708658E+01 0.79206893115E+01 0.99413723602E+01 0.13002162644E+02 0.17631204090E+02
 0.24722723495E+02 0.34869210951E+02 0.48013426766E+02 0.63310618088E+02 0.79265156689E+02
 0.94132161652E+02 0.10643795516E+03 0.11539851623E+03 0.12105340272E+03 0.12669294034E+03
 0.12703873660E+03 0.12669292571E+03 0.12528366122E+03 0.12187036075E+03 0.11539849017E+03
 0.10524724817E+03 0.91634838725E+02 0.75696625458E+02 0.59192439185E+02 0.43969157066E+02
 0.31413649480E+02 0.22118138973E+02 0.15858109555E+02 0.11831895494E+02 0.91591811518E+01
 0.74467669173E+01 0.64264039185E+01 0.58949141191E+01 0.57310294174E+01 0.58949120221E+01
 0.64264010191E+01 0.74467650597E+01 0.91591816513E+01 0.11831898303E+02 0.15858113198E+02
 0.22118141313E+02 0.31413649017E+02 0.43969154093E+02 0.59192436192E+02 0.75696626390E+02
 0.91634847373E+02 0.10524726631E+03 0.11539851623E+03 0.12187038984E+03 0.12528368641E+03
 0.12752574816E+03 0.12752574347E+03 0.12703873660E+03 0.12528366887E+03 0.12105338479E+03
 0.11328463381E+03 0.10160973319E+03 0.86651887561E+02 0.69927808007E+02 0.53395326363E+02
 0.38845756602E+02 0.27401271028E+02 0.19304188478E+02 0.14029166803E+02 0.10621426447E+02
 0.83784911932E+01 0.69893200320E+01 0.62045547454E+01 0.58541566957E+01 0.58541560411E+01
 0.62045531904E+01 0.69893185430E+01 0.83784907568E+01 0.10621427451E+02 0.14029168786E+02
 0.19304190324E+02 0.27401271642E+02 0.38845755641E+02 0.53395324736E+02 0.69927807746E+02
 0.86651891077E+02 0.10160974221E+03 0.11328464831E+03 0.12105340272E+03 0.12528368641E+03
 0.12703874941E+03 0.12752574816E+03 0.12703874941E+03 0.12528368641E+03 0.12105340272E+03
 0.11328464831E+03 0.10160974221E+03 0.86651891077E+02 0.69927807746E+02 0.53395324736E+02
 0.38845755641E+02 0.27401271642E+02 0.19304190324E+02 0.14029168786E+02 0.10621427451E+02
 0.83784907568E+01 0.69893185430E+01 0.62045531904E+01 0.58541560411E+01 0.58541566957E+01
 0.62045547454E+01 0.69893200320E+01 0.83784911932E+01 0.10621426447E+02 0.14029166803E+02
 0.19304188478E+02 0.27401271028E+02 0.38845756602E+02 0.53395326363E+02 0.69927808007E+02
 0.86651887561E+02 0.10160973319E+03 0.11328463381E+03 0.12105338479E+03 0.12528366887E+03
 0.12703873660E+03 0.12752574347E+03 0.12703874941E+03 0.12575089933E+03 0.12250680593E+03
 0.11620927476E+03 0.10619199598E+03 0.92637236628E+02 0.76664623075E+02 0.60042774576E+02
 0.44647737996E+02 0.31905147413E+02 0.22442971933E+02 0.16060083962E+02 0.11962368613E+02
 0.92494010985E+01 0.75108182541E+01 0.64751068492E+01 0.59358433553E+01 0.57696132187E+01
 0.59358456086E+01 0.64751099624E+01 0.75108202468E+01 0.92494005638E+01 0.11962365611E+02
 0.16060080084E+02 0.22442969465E+02 0.31905147891E+02 0.44647741009E+02 0.60042777317E+02
 0.76664621211E+02 0.92637226030E+02 0.10619197481E+03 0.11620924488E+03 0.12250677285E+03
 0.12575087082E+03 0.12703873289E+03 0.12734056902E+03 0.12528368641E+03 0.12250680593E+03
 0.11712053274E+03 0.10838422444E+03 0.96187368298E+02 0.81271875563E+02 0.65111404268E+02
 0.49491882121E+02 0.35975837829E+02 0.25478194191E+02 0.18109292742E+02 0.13301655030E+02
 0.10145959163E+02 0.80632957541E+01 0.67722138995E+01 0.60413997837E+01 0.57144734049E+01
 0.57144749744E+01 0.60414035337E+01 0.67722174919E+01 0.80632968328E+01 0.10145956759E+02
 0.13301650261E+02 0.18109288303E+02 0.25478192871E+02 0.35975840679E+02 0.49491887310E+02
 0.65111407245E+02 0.81271870732E+02 0.96187351523E+02 0.10838419529E+03 0.11712049559E+03
 0.12250676897E+03 0.12528365911E+03 0.12636726098E+03 0.12636727105E+03 0.12105340272E+03
 0.11620927476E+03 0.10838422444E+03 0.97357140237E+02 0.83594672376E+02 0.68263692919E+02
 0.52950764401E+02 0.39205050427E+02 0.28101609217E+02 0.20000045272E+02 0.14566714282E+02
 0.11008789587E+02 0.86149973760E+01 0.70806223968E+01 0.61637649022E+01 0.56845442639E+01
 0.55364369025E+01 0.56845472430E+01 0.61637690472E+01 0.70806251061E+01 0.86149967701E+01
 0.11008785676E+02 0.14566709141E+02 0.20000042003E+02 0.28101610233E+02 0.39205055786E+02
 0.52950771213E+02 0.68263696131E+02 0.83594666850E+02 0.97357123196E+02 0.10838419716E+03
 0.11620924285E+03 0.12105337440E+03 0.12354124747E+03 0.12428704299E+03 0.12354126411E+03
 0.11328464831E+03 0.10619199598E+03 0.96187368298E+02 0.83594672376E+02 0.69330700722E+02
 0.54746435402E+02 0.41274108897E+02 0.30029306655E+02 0.21533967273E+02 0.15658204024E+02
 0.11771658343E+02 0.91269267998E+01 0.73799991099E+01 0.62931086069E+01 0.56741601432E+01
 0.53957733453E+01 0.53957747194E+01 0.56741634537E+01 0.62931118835E+01 0.73800003011E+01
 0.91269249785E+01 0.11771654321E+02 0.15658200096E+02 0.21533966070E+02 0.30029309736E+02
 0.41274115680E+02 0.54746443107E+02 0.69330705354E+02 0.83594670444E+02 0.96187358542E+02
 0.10619198015E+03 0.11328463086E+03 0.11764329658E+03 0.11966995230E+03 0.11966995740E+03
 0.11764331012E+03 0.10160974221E+03 0.92637236628E+02 0.81271875563E+02 0.68263692919E+02
 0.54746435402E+02 0.41985823640E+02 0.31049179567E+02 0.22534668600E+02 0.16465389224E+02
 0.12371443500E+02 0.95577052763E+01 0.76470211483E+01 0.64177091498E+01 0.56770593410E+01
 0.52864400074E+01 0.51650073961E+01 0.52864417061E+01 0.56770618089E+01 0.64177110111E+01
 0.76470213033E+01 0.95577035296E+01 0.12371440735E+02 0.16465387094E+02 0.22534668775E+02
 0.31049182985E+02 0.41985829985E+02 0.54746443202E+02 0.68263700126E+02 0.81271880388E+02
 0.92637238288E+02 0.10160974122E+03 0.10789689812E+03 0.11154950898E+03 0.11273879952E+03
 0.11154951064E+03 0.10789690029E+03 0.86651891077E+02 0.76664623075E+02 0.65111404268E+02
 0.52950764401E+02 0.41274108897E+02 0.31049179567E+02 0.22882317831E+02 0.16895270801E+02
 0.12756685578E+02 0.98693876651E+01 0.78583832079E+01 0.65252400051E+01 0.56870819277E+01
 0.52034735705E+01 0.49835741423E+01 0.49835744892E+01 0.52034744807E+01 0.56870830344E+01
 0.65252408508E+01 0.78583833924E+01 0.98693870453E+01 0.12756684346E+02 0.16895269540E+02
 0.22882317388E+02 0.31049180876E+02 0.41274112730E+02 0.52950771064E+02 0.65111413504E+02
 0.76664633953E+02 0.86651902142E+02 0.94419389298E+02 0.99647801983E+02 0.10225628958E+03
 0.10225628728E+03 0.99647795489E+02 0.94419379735E+02 0.69927807746E+02 0.60042774576E+02
 0.49491882121E+02 0.39205050427E+02 0.30029306655E+02 0.22534668600E+02 0.16895270801E+02
 0.12889780661E+02 0.10033040860E+02 0.79941842835E+01 0.66043471639E+01 0.56987224083E+01
 0.51434226102E+01 0.48455402783E+01 0.47519561143E+01 0.48455399186E+01 0.51434222329E+01
 0.56987224493E+01 0.66043478136E+01 0.79941852428E+01 0.10033041417E+02 0.12889780029E+02
 0.16895268653E+02 0.22534665466E+02 0.30029303953E+02 0.39205050125E+02 0.49491885884E+02
 0.60042783068E+02 0.69927820078E+02 0.78326194713E+02 0.84645375745E+02 0.88539342104E+02
 0.89851167706E+02 0.88539335256E+02 0.84645363904E+02 0.78326180979E+02 0.53395324736E+02
 0.44647737996E+02 0.35975837829E+02 0.28101609217E+02 0.21533967273E+02 0.16465389224E+02
 0.12756685578E+02 0.10033040860E+02 0.80410265133E+01 0.66462841867E+01 0.57076033901E+01
 0.51042268570E+01 0.47477702632E+01 0.45826963507E+01 0.45826957223E+01 0.47477687698E+01
 0.51042254777E+01 0.57076030528E+01 0.66462851970E+01 0.80410281957E+01 0.10033041818E+02
 0.12756684321E+02 0.16465385010E+02 0.21533960704E+02 0.28101602137E+02 0.35975832835E+02
 0.44647737250E+02 0.53395329024E+02 0.61435469308E+02 0.68067256339E+02 0.72761752182E+02
 0.75186355479E+02 0.75186352598E+02 0.72761744564E+02 0.68067246727E+02 0.61435461032E+02
 0.38845755641E+02 0.31905147413E+02 0.25478194191E+02 0.20000045272E+02 0.15658204024E+02
 0.12371443500E+02 0.98693876651E+01 0.79941842835E+01 0.66462841867E+01 0.57108913540E+01