   1   1   1   0
  0.1458633E+02  0.2742544E-09  0.2742544E-09  0.2742544E-09  0.5000000E-15
  1.000000000000000E-004
  CAR 
 Pt-fcc                                  
     71.91097941    -45.77831839  301     12.76183520      1.00000000
    -45.778  0.0000E+00  0.0000E+00
    -45.386  0.0000E+00  0.0000E+00
    -44.994  0.0000E+00  0.0000E+00
    -44.601  0.0000E+00  0.0000E+00
    -44.209  0.0000E+00  0.0000E+00
    -43.817  0.0000E+00  0.0000E+00
    -43.425  0.0000E+00  0.0000E+00
    -43.032  0.0000E+00  0.0000E+00
    -42.640  0.0000E+00  0.0000E+00
    -42.248  0.0000E+00  0.0000E+00
    -41.855  0.0000E+00  0.0000E+00
    -41.463  0.0000E+00  0.0000E+00
    -41.071  0.0000E+00  0.0000E+00
    -40.678  0.3129E-15  0.1227E-15
    -40.286  0.3298E-01  0.1294E-01
    -39.894  0.1146E+00  0.5934E-01
    -39.502  0.0000E+00  0.6000E-01
    -39.109  0.0000E+00  0.6000E-01
    -38.717  0.0000E+00  0.6000E-01
    -38.325  0.0000E+00  0.6000E-01
    -37.932  0.0000E+00  0.6000E-01
    -37.540  0.0000E+00  0.6000E-01
    -37.148  0.0000E+00  0.6000E-01
    -36.755  0.0000E+00  0.6000E-01
    -36.363  0.0000E+00  0.6000E-01
    -35.971  0.0000E+00  0.6000E-01
    -35.579  0.0000E+00  0.6000E-01
    -35.186  0.0000E+00  0.6000E-01
    -34.794  0.0000E+00  0.6000E-01
    -34.402  0.0000E+00  0.6000E-01
    -34.009  0.0000E+00  0.6000E-01
    -33.617  0.0000E+00  0.6000E-01
    -33.225  0.0000E+00  0.6000E-01
    -32.832  0.0000E+00  0.6000E-01
    -32.440  0.0000E+00  0.6000E-01
    -32.048  0.0000E+00  0.6000E-01
    -31.656  0.0000E+00  0.6000E-01
    -31.263  0.0000E+00  0.6000E-01
    -30.871  0.0000E+00  0.6000E-01
    -30.479  0.0000E+00  0.6000E-01
    -30.086  0.0000E+00  0.6000E-01
    -29.694  0.0000E+00  0.6000E-01
    -29.302  0.0000E+00  0.6000E-01
    -28.910  0.0000E+00  0.6000E-01
    -28.517  0.0000E+00  0.6000E-01
    -28.125  0.0000E+00  0.6000E-01
    -27.733  0.0000E+00  0.6000E-01
    -27.340  0.0000E+00  0.6000E-01
    -26.948  0.0000E+00  0.6000E-01
    -26.556  0.0000E+00  0.6000E-01
    -26.163  0.0000E+00  0.6000E-01
    -25.771  0.0000E+00  0.6000E-01
    -25.379  0.0000E+00  0.6000E-01
    -24.987  0.0000E+00  0.6000E-01
    -24.594  0.0000E+00  0.6000E-01
    -24.202  0.0000E+00  0.6000E-01
    -23.810  0.0000E+00  0.6000E-01
    -23.417  0.0000E+00  0.6000E-01
    -23.025  0.0000E+00  0.6000E-01
    -22.633  0.0000E+00  0.6000E-01
    -22.240  0.0000E+00  0.6000E-01
    -21.848  0.0000E+00  0.6000E-01
    -21.456  0.0000E+00  0.6000E-01
    -21.064  0.0000E+00  0.6000E-01
    -20.671  0.0000E+00  0.6000E-01
    -20.279  0.0000E+00  0.6000E-01
    -19.887  0.0000E+00  0.6000E-01
    -19.494  0.0000E+00  0.6000E-01
    -19.102  0.0000E+00  0.6000E-01
    -18.710  0.0000E+00  0.6000E-01
    -18.317  0.0000E+00  0.6000E-01
    -17.925  0.0000E+00  0.6000E-01
    -17.533  0.0000E+00  0.6000E-01
    -17.141  0.0000E+00  0.6000E-01
    -16.748  0.0000E+00  0.6000E-01
    -16.356  0.0000E+00  0.6000E-01
    -15.964  0.0000E+00  0.6000E-01
    -15.571  0.0000E+00  0.6000E-01
    -15.179  0.0000E+00  0.6000E-01
    -14.787  0.0000E+00  0.6000E-01
    -14.395  0.0000E+00  0.6000E-01
    -14.002  0.0000E+00  0.6000E-01
    -13.610  0.0000E+00  0.6000E-01
    -13.218  0.0000E+00  0.6000E-01
    -12.825  0.0000E+00  0.6000E-01
    -12.433  0.0000E+00  0.6000E-01
    -12.041  0.0000E+00  0.6000E-01
    -11.648  0.0000E+00  0.6000E-01
    -11.256  0.0000E+00  0.6000E-01
    -10.864  0.0000E+00  0.6000E-01
    -10.472  0.0000E+00  0.6000E-01
    -10.079  0.0000E+00  0.6000E-01
     -9.687  0.0000E+00  0.6000E-01
     -9.295  0.0000E+00  0.6000E-01
     -8.902  0.0000E+00  0.6000E-01
     -8.510  0.0000E+00  0.6000E-01
     -8.118  0.0000E+00  0.6000E-01
     -7.725  0.0000E+00  0.6000E-01
     -7.333  0.0000E+00  0.6000E-01
     -6.941  0.0000E+00  0.6000E-01
     -6.549  0.0000E+00  0.6000E-01
     -6.156  0.0000E+00  0.6000E-01
     -5.764  0.0000E+00  0.6000E-01
     -5.372  0.0000E+00  0.6000E-01
     -4.979  0.0000E+00  0.6000E-01
     -4.587  0.0000E+00  0.6000E-01
     -4.195  0.0000E+00  0.6000E-01
     -3.802  0.0000E+00  0.6000E-01
     -3.410  0.0000E+00  0.6000E-01
     -3.018  0.0000E+00  0.6000E-01
     -2.626  0.0000E+00  0.6000E-01
     -2.233  0.0000E+00  0.6000E-01
     -1.841  0.0000E+00  0.6000E-01
     -1.449  0.0000E+00  0.6000E-01
     -1.056  0.0000E+00  0.6000E-01
     -0.664  0.0000E+00  0.6000E-01
     -0.272  0.0000E+00  0.6000E-01
      0.121  0.0000E+00  0.6000E-01
      0.513  0.0000E+00  0.6000E-01
      0.905  0.0000E+00  0.6000E-01
      1.297  0.0000E+00  0.6000E-01
      1.690  0.0000E+00  0.6000E-01
      2.082  0.1093E-07  0.6000E-01
      2.474  0.2064E-03  0.6008E-01
      2.867  0.5071E-03  0.6028E-01
      3.259  0.6690E-03  0.6054E-01
      3.651  0.6593E-03  0.6080E-01
      4.043  0.1507E-02  0.6139E-01
      4.436  0.1032E-02  0.6180E-01
      4.828  0.1662E-02  0.6248E-01
      5.220  0.4259E-02  0.6420E-01
      5.613  0.6714E-02  0.6692E-01
      6.005  0.1111E-01  0.7143E-01
      6.397  0.1282E-01  0.7658E-01
      6.790  0.1166E-01  0.8126E-01
      7.182  0.1027E-01  0.8532E-01
      7.574  0.1155E-01  0.8989E-01
      7.966  0.1267E-01  0.9501E-01
      8.359  0.1342E-01  0.1004E+00
      8.751  0.1511E-01  0.1066E+00
      9.143  0.1887E-01  0.1142E+00
      9.536  0.1544E-01  0.1204E+00
      9.928  0.1085E-01  0.1248E+00
     10.320  0.1091E-01  0.1292E+00
     10.713  0.1520E-01  0.1352E+00
     11.105  0.1040E-01  0.1396E+00
     11.497  0.1023E-01  0.1439E+00
     11.889  0.1211E-01  0.1486E+00
     12.282  0.8355E-02  0.1520E+00
     12.674  0.1644E-01  0.1586E+00
     13.066  0.1504E-01  0.1648E+00
     13.459  0.3905E-02  0.1664E+00
     13.851  0.2817E-02  0.1675E+00
     14.243  0.3307E-02  0.1688E+00
     14.636  0.1743E-02  0.1695E+00
     15.028  0.3463E-02  0.1709E+00
     15.420  0.2543E-02  0.1719E+00
     15.812  0.2403E-02  0.1729E+00
     16.205  0.2022E-02  0.1737E+00
     16.597  0.2735E-02  0.1749E+00
     16.989  0.2280E-02  0.1759E+00
     17.382  0.2299E-02  0.1769E+00
     17.774  0.1666E-02  0.1775E+00
     18.166  0.1736E-02  0.1782E+00
     18.558  0.2987E-02  0.1794E+00
     18.951  0.3790E-02  0.1809E+00
     19.343  0.2835E-02  0.1820E+00
     19.735  0.3441E-02  0.1835E+00
     20.128  0.2261E-02  0.1843E+00
     20.520  0.3511E-02  0.1857E+00
     20.912  0.3780E-02  0.1872E+00
     21.305  0.1241E-02  0.1877E+00
     21.697  0.4133E-02  0.1894E+00
     22.089  0.3362E-02  0.1907E+00
     22.481  0.1257E-02  0.1912E+00
     22.874  0.2582E-02  0.1922E+00
     23.266  0.4458E-02  0.1940E+00
     23.658  0.4336E-02  0.1957E+00
     24.051  0.1806E-02  0.1965E+00
     24.443  0.5810E-02  0.1988E+00
     24.835  0.1189E-02  0.1993E+00
     25.228  0.5674E-02  0.2015E+00
     25.620  0.4431E-02  0.2034E+00
     26.012  0.4028E-02  0.2050E+00
     26.404  0.5609E-02  0.2072E+00
     26.797  0.4454E-02  0.2090E+00
     27.189  0.6179E-02  0.2115E+00
     27.581  0.5844E-02  0.2138E+00
     27.974  0.8132E-02  0.2172E+00
     28.366  0.6523E-02  0.2197E+00
     28.758  0.7890E-02  0.2229E+00
     29.151  0.6173E-02  0.2254E+00
     29.543  0.7338E-02  0.2284E+00
     29.935  0.4850E-02  0.2303E+00
     30.327  0.7173E-02  0.2332E+00
     30.720  0.2616E-02  0.2343E+00
     31.112  0.3842E-02  0.2358E+00
     31.504  0.1952E-02  0.2366E+00
     31.897  0.5632E-02  0.2389E+00
     32.289  0.5458E-02  0.2411E+00
     32.681  0.6651E-02  0.2437E+00
     33.074  0.9202E-02  0.2474E+00
     33.466  0.4917E-02  0.2493E+00
     33.858  0.8035E-02  0.2525E+00
     34.250  0.5820E-02  0.2548E+00
     34.643  0.5757E-02  0.2571E+00
     35.035  0.3404E-02  0.2585E+00
     35.427  0.2501E-02  0.2594E+00
     35.820  0.3418E-02  0.2608E+00
     36.212  0.5187E-02  0.2628E+00
     36.604  0.3451E-02  0.2642E+00
     36.996  0.4100E-02  0.2659E+00
     37.389  0.6035E-02  0.2683E+00
     37.781  0.3135E-02  0.2695E+00
     38.173  0.8393E-02  0.2729E+00
     38.566  0.4113E-02  0.2746E+00
     38.958  0.5912E-02  0.2769E+00
     39.350  0.3368E-02  0.2782E+00
     39.743  0.6514E-02  0.2808E+00
     40.135  0.7859E-02  0.2839E+00
     40.527  0.8926E-02  0.2874E+00
     40.919  0.1167E-01  0.2920E+00
     41.312  0.1071E-01  0.2963E+00
     41.704  0.1079E-01  0.3006E+00
     42.096  0.8041E-02  0.3038E+00
     42.489  0.7938E-02  0.3070E+00
     42.881  0.5218E-02  0.3091E+00
     43.273  0.4049E-02  0.3107E+00
     43.666  0.6056E-02  0.3131E+00
     44.058  0.7248E-02  0.3160E+00
     44.450  0.7184E-02  0.3189E+00
     44.842  0.7937E-02  0.3221E+00
     45.235  0.8115E-02  0.3254E+00
     45.627  0.9480E-02  0.3292E+00
     46.019  0.3599E-02  0.3307E+00
     46.412  0.7757E-02  0.3338E+00
     46.804  0.5881E-02  0.3361E+00
     47.196  0.5254E-02  0.3382E+00
     47.589  0.4979E-02  0.3402E+00
     47.981  0.6831E-02  0.3429E+00
     48.373  0.6949E-02  0.3457E+00
     48.765  0.6420E-02  0.3482E+00
     49.158  0.8206E-02  0.3515E+00
     49.550  0.1145E-01  0.3561E+00
     49.942  0.1048E-01  0.3602E+00
     50.335  0.1061E-01  0.3644E+00
     50.727  0.7684E-02  0.3676E+00
     51.119  0.1048E-01  0.3718E+00
     51.512  0.9059E-02  0.3754E+00
     51.904  0.1002E-01  0.3794E+00
     52.296  0.6929E-02  0.3822E+00
     52.688  0.5471E-02  0.3843E+00
     53.081  0.5628E-02  0.3866E+00
     53.473  0.5794E-01  0.4093E+00
     53.865  0.8989E-02  0.4129E+00
     54.258  0.6318E-02  0.4155E+00
     54.650  0.8459E-02  0.4188E+00
     55.042  0.6081E-02  0.4212E+00
     55.434  0.1094E-01  0.4257E+00
     55.827  0.7483E-02  0.4287E+00
     56.219  0.8661E-02  0.4321E+00
     56.611  0.4824E-02  0.4342E+00
     57.004  0.8026E-02  0.4374E+00
     57.396  0.8334E-02  0.4407E+00
     57.788  0.6344E-02  0.4433E+00
     58.181  0.8657E-02  0.4468E+00
     58.573  0.1020E-01  0.4508E+00
     58.965  0.7623E-02  0.4540E+00
     59.357  0.8609E-02  0.4575E+00
     59.750  0.7705E-02  0.4607E+00
     60.142  0.8656E-02  0.4642E+00
     60.534  0.7531E-02  0.4671E+00
     60.927  0.5592E-02  0.4693E+00
     61.319  0.5726E-02  0.4716E+00
     61.711  0.6515E-02  0.4743E+00
     62.104  0.2144E-02  0.4753E+00
     62.496  0.2664E-02  0.4763E+00
     62.888  0.2018E-02  0.4771E+00
     63.280  0.1369E-02  0.4777E+00
     63.673  0.2166E-02  0.4786E+00
     64.065  0.1460E-02  0.4792E+00
     64.457  0.4312E-03  0.4793E+00
     64.850  0.5751E-03  0.4796E+00
     65.242  0.5416E-09  0.4796E+00
     65.634  0.6035E-03  0.4799E+00
     66.027  0.0000E+00  0.4799E+00
     66.419  0.8356E-08  0.4799E+00
     66.811  0.3059E-03  0.4800E+00
     67.203  0.0000E+00  0.4800E+00
     67.596  0.0000E+00  0.4800E+00
     67.988  0.0000E+00  0.4800E+00
     68.380  0.0000E+00  0.4800E+00
     68.773  0.0000E+00  0.4800E+00
     69.165  0.0000E+00  0.4800E+00
     69.557  0.0000E+00  0.4800E+00
     69.949  0.0000E+00  0.4800E+00
     70.342  0.0000E+00  0.4800E+00
     70.734  0.0000E+00  0.4800E+00
     71.126  0.0000E+00  0.4800E+00
     71.519  0.0000E+00  0.4800E+00
     71.911  0.0000E+00  0.4800E+00
     71.91097941    -45.77831839  301     12.76183520      1.00000000
    -45.778  0.0000E+00  0.0000E+00  0.0000E+00  0.0000E+00  0.0000E+00  0.0000E+00  0.0000E+00  0.0000E+00  0.0000E+00
    -45.386  0.0000E+00  0.0000E+00  0.0000E+00  0.0000E+00  0.0000E+00  0.0000E+00  0.0000E+00  0.0000E+00  0.0000E+00
    -44.994  0.0000E+00  0.0000E+00  0.0000E+00  0.0000E+00  0.0000E+00  0.0000E+00  0.0000E+00  0.0000E+00  0.0000E+00
    -44.601  0.0000E+00  0.0000E+00  0.0000E+00  0.0000E+00  0.0000E+00  0.0000E+00  0.0000E+00  0.0000E+00  0.0000E+00
    -44.209  0.0000E+00  0.0000E+00  0.0000E+00  0.0000E+00  0.0000E+00  0.0000E+00  0.0000E+00  0.0000E+00  0.0000E+00
    -43.817  0.0000E+00  0.0000E+00  0.0000E+00  0.0000E+00  0.0000E+00  0.0000E+00  0.0000E+00  0.0000E+00  0.0000E+00
    -43.425  0.0000E+00  0.0000E+00  0.0000E+00  0.0000E+00  0.0000E+00  0.0000E+00  0.0000E+00  0.0000E+00  0.0000E+00
    -43.032  0.0000E+00  0.0000E+00  0.0000E+00  0.0000E+00  0.0000E+00  0.0000E+00  0.0000E+00  0.0000E+00  0.0000E+00
    -42.640  0.0000E+00  0.0000E+00  0.0000E+00  0.0000E+00  0.0000E+00  0.0000E+00  0.0000E+00  0.0000E+00  0.0000E+00
    -42.248  0.0000E+00  0.0000E+00  0.0000E+00  0.0000E+00  0.0000E+00  0.0000E+00  0.0000E+00  0.0000E+00  0.0000E+00
    -41.855  0.0000E+00  0.0000E+00  0.0000E+00  0.0000E+00  0.0000E+00  0.0000E+00  0.0000E+00  0.0000E+00  0.0000E+00
    -41.463  0.0000E+00  0.0000E+00  0.0000E+00  0.0000E+00  0.0000E+00  0.0000E+00  0.0000E+00  0.0000E+00  0.0000E+00
    -41.071  0.0000E+00  0.0000E+00  0.0000E+00  0.0000E+00  0.0000E+00  0.0000E+00  0.0000E+00  0.0000E+00  0.0000E+00
    -40.678  0.8523E-19  0.1023E-13  0.1023E-13  0.1023E-13  0.4648E-19  0.4648E-19  0.3612E-19  0.4648E-19  0.3612E-19
    -40.286  0.1214E-03  0.1081E+01  0.1081E+01  0.1081E+01  0.3905E-04  0.3905E-04  0.1820E-04  0.3905E-04  0.1820E-04
    -39.894  0.2255E-03  0.3791E+01  0.3791E+01  0.3791E+01  0.1539E-03  0.1539E-03  0.8359E-04  0.1539E-03  0.8359E-04
    -39.502  0.0000E+00  0.0000E+00  0.0000E+00  0.0000E+00  0.0000E+00  0.0000E+00  0.0000E+00  0.0000E+00  0.0000E+00
    -39.109  0.0000E+00  0.0000E+00  0.0000E+00  0.0000E+00  0.0000E+00  0.0000E+00  0.0000E+00  0.0000E+00  0.0000E+00
    -38.717  0.0000E+00  0.0000E+00  0.0000E+00  0.0000E+00  0.0000E+00  0.0000E+00  0.0000E+00  0.0000E+00  0.0000E+00
    -38.325  0.0000E+00  0.0000E+00  0.0000E+00  0.0000E+00  0.0000E+00  0.0000E+00  0.0000E+00  0.0000E+00  0.0000E+00
    -37.932  0.0000E+00  0.0000E+00  0.0000E+00  0.0000E+00  0.0000E+00  0.0000E+00  0.0000E+00  0.0000E+00  0.0000E+00
    -37.540  0.0000E+00  0.0000E+00  0.0000E+00  0.0000E+00  0.0000E+00  0.0000E+00  0.0000E+00  0.0000E+00  0.0000E+00
    -37.148  0.0000E+00  0.0000E+00  0.0000E+00  0.0000E+00  0.0000E+00  0.0000E+00  0.0000E+00  0.0000E+00  0.0000E+00
    -36.755  0.0000E+00  0.0000E+00  0.0000E+00  0.0000E+00  0.0000E+00  0.0000E+00  0.0000E+00  0.0000E+00  0.0000E+00
    -36.363  0.0000E+00  0.0000E+00  0.0000E+00  0.0000E+00  0.0000E+00  0.0000E+00  0.0000E+00  0.0000E+00  0.0000E+00
    -35.971  0.0000E+00  0.0000E+00  0.0000E+00  0.0000E+00  0.0000E+00  0.0000E+00  0.0000E+00  0.0000E+00  0.0000E+00
    -35.579  0.0000E+00  0.0000E+00  0.0000E+00  0.0000E+00  0.0000E+00  0.0000E+00  0.0000E+00  0.0000E+00  0.0000E+00
    -35.186  0.0000E+00  0.0000E+00  0.0000E+00  0.0000E+00  0.0000E+00  0.0000E+00  0.0000E+00  0.0000E+00  0.0000E+00
    -34.794  0.0000E+00  0.0000E+00  0.0000E+00  0.0000E+00  0.0000E+00  0.0000E+00  0.0000E+00  0.0000E+00  0.0000E+00
    -34.402  0.0000E+00  0.0000E+00  0.0000E+00  0.0000E+00  0.0000E+00  0.0000E+00  0.0000E+00  0.0000E+00  0.0000E+00
    -34.009  0.0000E+00  0.0000E+00  0.0000E+00  0.0000E+00  0.0000E+00  0.0000E+00  0.0000E+00  0.0000E+00  0.0000E+00
    -33.617  0.0000E+00  0.0000E+00  0.0000E+00  0.0000E+00  0.0000E+00  0.0000E+00  0.0000E+00  0.0000E+00  0.0000E+00
    -33.225  0.0000E+00  0.0000E+00  0.0000E+00  0.0000E+00  0.0000E+00  0.0000E+00  0.0000E+00  0.0000E+00  0.0000E+00
    -32.832  0.0000E+00  0.0000E+00  0.0000E+00  0.0000E+00  0.0000E+00  0.0000E+00  0.0000E+00  0.0000E+00  0.0000E+00
    -32.440  0.0000E+00  0.0000E+00  0.0000E+00  0.0000E+00  0.0000E+00  0.0000E+00  0.0000E+00  0.0000E+00  0.0000E+00
    -32.048  0.0000E+00  0.0000E+00  0.0000E+00  0.0000E+00  0.0000E+00  0.0000E+00  0.0000E+00  0.0000E+00  0.0000E+00
    -31.656  0.0000E+00  0.0000E+00  0.0000E+00  0.0000E+00  0.0000E+00  0.0000E+00  0.0000E+00  0.0000E+00  0.0000E+00
    -31.263  0.0000E+00  0.0000E+00  0.0000E+00  0.0000E+00  0.0000E+00  0.0000E+00  0.0000E+00  0.0000E+00  0.0000E+00
    -30.871  0.0000E+00  0.0000E+00  0.0000E+00  0.0000E+00  0.0000E+00  0.0000E+00  0.0000E+00  0.0000E+00  0.0000E+00
    -30.479  0.0000E+00  0.0000E+00  0.0000E+00  0.0000E+00  0.0000E+00  0.0000E+00  0.0000E+00  0.0000E+00  0.0000E+00
    -30.086  0.0000E+00  0.0000E+00  0.0000E+00  0.0000E+00  0.0000E+00  0.0000E+00  0.0000E+00  0.0000E+00  0.0000E+00
    -29.694  0.0000E+00  0.0000E+00  0.0000E+00  0.0000E+00  0.0000E+00  0.0000E+00  0.0000E+00  0.0000E+00  0.0000E+00
    -29.302  0.0000E+00  0.0000E+00  0.0000E+00  0.0000E+00  0.0000E+00  0.0000E+00  0.0000E+00  0.0000E+00  0.0000E+00
    -28.910  0.0000E+00  0.0000E+00  0.0000E+00  0.0000E+00  0.0000E+00  0.0000E+00  0.0000E+00  0.0000E+00  0.0000E+00
    -28.517  0.0000E+00  0.0000E+00  0.0000E+00  0.0000E+00  0.0000E+00  0.0000E+00  0.0000E+00  0.0000E+00  0.0000E+00
    -28.125  0.0000E+00  0.0000E+00  0.0000E+00  0.0000E+00  0.0000E+00  0.0000E+00  0.0000E+00  0.0000E+00  0.0000E+00
    -27.733  0.0000E+00  0.0000E+00  0.0000E+00  0.0000E+00  0.0000E+00  0.0000E+00  0.0000E+00  0.0000E+00  0.0000E+00
    -27.340  0.0000E+00  0.0000E+00  0.0000E+00  0.0000E+00  0.0000E+00  0.0000E+00  0.0000E+00  0.0000E+00  0.0000E+00
    -26.948  0.0000E+00  0.0000E+00  0.0000E+00  0.0000E+00  0.0000E+00  0.0000E+00  0.0000E+00  0.0000E+00  0.0000E+00
    -26.556  0.0000E+00  0.0000E+00  0.0000E+00  0.0000E+00  0.0000E+00  0.0000E+00  0.0000E+00  0.0000E+00  0.0000E+00
    -26.163  0.0000E+00  0.0000E+00  0.0000E+00  0.0000E+00  0.0000E+00  0.0000E+00  0.0000E+00  0.0000E+00  0.0000E+00
    -25.771  0.0000E+00  0.0000E+00  0.0000E+00  0.0000E+00  0.0000E+00  0.0000E+00  0.0000E+00  0.0000E+00  0.0000E+00
    -25.379  0.0000E+00  0.0000E+00  0.0000E+00  0.0000E+00  0.0000E+00  0.0000E+00  0.0000E+00  0.0000E+00  0.0000E+00
    -24.987  0.0000E+00  0.0000E+00  0.0000E+00  0.0000E+00  0.0000E+00  0.0000E+00  0.0000E+00  0.0000E+00  0.0000E+00
    -24.594  0.0000E+00  0.0000E+00  0.0000E+00  0.0000E+00  0.0000E+00  0.0000E+00  0.0000E+00  0.0000E+00  0.0000E+00
    -24.202  0.0000E+00  0.0000E+00  0.0000E+00  0.0000E+00  0.0000E+00  0.0000E+00  0.0000E+00  0.0000E+00  0.0000E+00
    -23.810  0.0000E+00  0.0000E+00  0.0000E+00  0.0000E+00  0.0000E+00  0.0000E+00  0.0000E+00  0.0000E+00  0.0000E+00
    -23.417  0.0000E+00  0.0000E+00  0.0000E+00  0.0000E+00  0.0000E+00  0.0000E+00  0.0000E+00  0.0000E+00  0.0000E+00
    -23.025  0.0000E+00  0.0000E+00  0.0000E+00  0.0000E+00  0.0000E+00  0.0000E+00  0.0000E+00  0.0000E+00  0.0000E+00
    -22.633  0.0000E+00  0.0000E+00  0.0000E+00  0.0000E+00  0.0000E+00  0.0000E+00  0.0000E+00  0.0000E+00  0.0000E+00
    -22.240  0.0000E+00  0.0000E+00  0.0000E+00  0.0000E+00  0.0000E+00  0.0000E+00  0.0000E+00  0.0000E+00  0.0000E+00
    -21.848  0.0000E+00  0.0000E+00  0.0000E+00  0.0000E+00  0.0000E+00  0.0000E+00  0.0000E+00  0.0000E+00  0.0000E+00
    -21.456  0.0000E+00  0.0000E+00  0.0000E+00  0.0000E+00  0.0000E+00  0.0000E+00  0.0000E+00  0.0000E+00  0.0000E+00
    -21.064  0.0000E+00  0.0000E+00  0.0000E+00  0.0000E+00  0.0000E+00  0.0000E+00  0.0000E+00  0.0000E+00  0.0000E+00
    -20.671  0.0000E+00  0.0000E+00  0.0000E+00  0.0000E+00  0.0000E+00  0.0000E+00  0.0000E+00  0.0000E+00  0.0000E+00
    -20.279  0.0000E+00  0.0000E+00  0.0000E+00  0.0000E+00  0.0000E+00  0.0000E+00  0.0000E+00  0.0000E+00  0.0000E+00
    -19.887  0.0000E+00  0.0000E+00  0.0000E+00  0.0000E+00  0.0000E+00  0.0000E+00  0.0000E+00  0.0000E+00  0.0000E+00
    -19.494  0.0000E+00  0.0000E+00  0.0000E+00  0.0000E+00  0.0000E+00  0.0000E+00  0.0000E+00  0.0000E+00  0.0000E+00
    -19.102  0.0000E+00  0.0000E+00  0.0000E+00  0.0000E+00  0.0000E+00  0.0000E+00  0.0000E+00  0.0000E+00  0.0000E+00
    -18.710  0.0000E+00  0.0000E+00  0.0000E+00  0.0000E+00  0.0000E+00  0.0000E+00  0.0000E+00  0.0000E+00  0.0000E+00
    -18.317  0.0000E+00  0.0000E+00  0.0000E+00  0.0000E+00  0.0000E+00  0.0000E+00  0.0000E+00  0.0000E+00  0.0000E+00
    -17.925  0.0000E+00  0.0000E+00  0.0000E+00  0.0000E+00  0.0000E+00  0.0000E+00  0.0000E+00  0.0000E+00  0.0000E+00
    -17.533  0.0000E+00  0.0000E+00  0.0000E+00  0.0000E+00  0.0000E+00  0.0000E+00  0.0000E+00  0.0000E+00  0.0000E+00
    -17.141  0.0000E+00  0.0000E+00  0.0000E+00  0.0000E+00  0.0000E+00  0.0000E+00  0.0000E+00  0.0000E+00  0.0000E+00
    -16.748  0.0000E+00  0.0000E+00  0.0000E+00  0.0000E+00  0.0000E+00  0.0000E+00  0.0000E+00  0.0000E+00  0.0000E+00
    -16.356  0.0000E+00  0.0000E+00  0.0000E+00  0.0000E+00  0.0000E+00  0.0000E+00  0.0000E+00  0.0000E+00  0.0000E+00
    -15.964  0.0000E+00  0.0000E+00  0.0000E+00  0.0000E+00  0.0000E+00  0.0000E+00  0.0000E+00  0.0000E+00  0.0000E+00
    -15.571  0.0000E+00  0.0000E+00  0.0000E+00  0.0000E+00  0.0000E+00  0.0000E+00  0.0000E+00  0.0000E+00  0.0000E+00
    -15.179  0.0000E+00  0.0000E+00  0.0000E+00  0.0000E+00  0.0000E+00  0.0000E+00  0.0000E+00  0.0000E+00  0.0000E+00
    -14.787  0.0000E+00  0.0000E+00  0.0000E+00  0.0000E+00  0.0000E+00  0.0000E+00  0.0000E+00  0.0000E+00  0.0000E+00
    -14.395  0.0000E+00  0.0000E+00  0.0000E+00  0.0000E+00  0.0000E+00  0.0000E+00  0.0000E+00  0.0000E+00  0.0000E+00
    -14.002  0.0000E+00  0.0000E+00  0.0000E+00  0.0000E+00  0.0000E+00  0.0000E+00  0.0000E+00  0.0000E+00  0.0000E+00
    -13.610  0.0000E+00  0.0000E+00  0.0000E+00  0.0000E+00  0.0000E+00  0.0000E+00  0.0000E+00  0.0000E+00  0.0000E+00
    -13.218  0.0000E+00  0.0000E+00  0.0000E+00  0.0000E+00  0.0000E+00  0.0000E+00  0.0000E+00  0.0000E+00  0.0000E+00
    -12.825  0.0000E+00  0.0000E+00  0.0000E+00  0.0000E+00  0.0000E+00  0.0000E+00  0.0000E+00  0.0000E+00  0.0000E+00
    -12.433  0.0000E+00  0.0000E+00  0.0000E+00  0.0000E+00  0.0000E+00  0.0000E+00  0.0000E+00  0.0000E+00  0.0000E+00
    -12.041  0.0000E+00  0.0000E+00  0.0000E+00  0.0000E+00  0.0000E+00  0.0000E+00  0.0000E+00  0.0000E+00  0.0000E+00
    -11.648  0.0000E+00  0.0000E+00  0.0000E+00  0.0000E+00  0.0000E+00  0.0000E+00  0.0000E+00  0.0000E+00  0.0000E+00
    -11.256  0.0000E+00  0.0000E+00  0.0000E+00  0.0000E+00  0.0000E+00  0.0000E+00  0.0000E+00  0.0000E+00  0.0000E+00
    -10.864  0.0000E+00  0.0000E+00  0.0000E+00  0.0000E+00  0.0000E+00  0.0000E+00  0.0000E+00  0.0000E+00  0.0000E+00
    -10.472  0.0000E+00  0.0000E+00  0.0000E+00  0.0000E+00  0.0000E+00  0.0000E+00  0.0000E+00  0.0000E+00  0.0000E+00
    -10.079  0.0000E+00  0.0000E+00  0.0000E+00  0.0000E+00  0.0000E+00  0.0000E+00  0.0000E+00  0.0000E+00  0.0000E+00
     -9.687  0.0000E+00  0.0000E+00  0.0000E+00  0.0000E+00  0.0000E+00  0.0000E+00  0.0000E+00  0.0000E+00  0.0000E+00
     -9.295  0.0000E+00  0.0000E+00  0.0000E+00  0.0000E+00  0.0000E+00  0.0000E+00  0.0000E+00  0.0000E+00  0.0000E+00
     -8.902  0.0000E+00  0.0000E+00  0.0000E+00  0.0000E+00  0.0000E+00  0.0000E+00  0.0000E+00  0.0000E+00  0.0000E+00
     -8.510  0.0000E+00  0.0000E+00  0.0000E+00  0.0000E+00  0.0000E+00  0.0000E+00  0.0000E+00  0.0000E+00  0.0000E+00
     -8.118  0.0000E+00  0.0000E+00  0.0000E+00  0.0000E+00  0.0000E+00  0.0000E+00  0.0000E+00  0.0000E+00  0.0000E+00
     -7.725  0.0000E+00  0.0000E+00  0.0000E+00  0.0000E+00  0.0000E+00  0.0000E+00  0.0000E+00  0.0000E+00  0.0000E+00
     -7.333  0.0000E+00  0.0000E+00  0.0000E+00  0.0000E+00  0.0000E+00  0.0000E+00  0.0000E+00  0.0000E+00  0.0000E+00
     -6.941  0.0000E+00  0.0000E+00  0.0000E+00  0.0000E+00  0.0000E+00  0.0000E+00  0.0000E+00  0.0000E+00  0.0000E+00
     -6.549  0.0000E+00  0.0000E+00  0.0000E+00  0.0000E+00  0.0000E+00  0.0000E+00  0.0000E+00  0.0000E+00  0.0000E+00
     -6.156  0.0000E+00  0.0000E+00  0.0000E+00  0.0000E+00  0.0000E+00  0.0000E+00  0.0000E+00  0.0000E+00  0.0000E+00
     -5.764  0.0000E+00  0.0000E+00  0.0000E+00  0.0000E+00  0.0000E+00  0.0000E+00  0.0000E+00  0.0000E+00  0.0000E+00
     -5.372  0.0000E+00  0.0000E+00  0.0000E+00  0.0000E+00  0.0000E+00  0.0000E+00  0.0000E+00  0.0000E+00  0.0000E+00
     -4.979  0.0000E+00  0.0000E+00  0.0000E+00  0.0000E+00  0.0000E+00  0.0000E+00  0.0000E+00  0.0000E+00  0.0000E+00
     -4.587  0.0000E+00  0.0000E+00  0.0000E+00  0.0000E+00  0.0000E+00  0.0000E+00  0.0000E+00  0.0000E+00  0.0000E+00
     -4.195  0.0000E+00  0.0000E+00  0.0000E+00  0.0000E+00  0.0000E+00  0.0000E+00  0.0000E+00  0.0000E+00  0.0000E+00
     -3.802  0.0000E+00  0.0000E+00  0.0000E+00  0.0000E+00  0.0000E+00  0.0000E+00  0.0000E+00  0.0000E+00  0.0000E+00
     -3.410  0.0000E+00  0.0000E+00  0.0000E+00  0.0000E+00  0.0000E+00  0.0000E+00  0.0000E+00  0.0000E+00  0.0000E+00
     -3.018  0.0000E+00  0.0000E+00  0.0000E+00  0.0000E+00  0.0000E+00  0.0000E+00  0.0000E+00  0.0000E+00  0.0000E+00
     -2.626  0.0000E+00  0.0000E+00  0.0000E+00  0.0000E+00  0.0000E+00  0.0000E+00  0.0000E+00  0.0000E+00  0.0000E+00
     -2.233  0.0000E+00  0.0000E+00  0.0000E+00  0.0000E+00  0.0000E+00  0.0000E+00  0.0000E+00  0.0000E+00  0.0000E+00
     -1.841  0.0000E+00  0.0000E+00  0.0000E+00  0.0000E+00  0.0000E+00  0.0000E+00  0.0000E+00  0.0000E+00  0.0000E+00
     -1.449  0.0000E+00  0.0000E+00  0.0000E+00  0.0000E+00  0.0000E+00  0.0000E+00  0.0000E+00  0.0000E+00  0.0000E+00
     -1.056  0.0000E+00  0.0000E+00  0.0000E+00  0.0000E+00  0.0000E+00  0.0000E+00  0.0000E+00  0.0000E+00  0.0000E+00
     -0.664  0.0000E+00  0.0000E+00  0.0000E+00  0.0000E+00  0.0000E+00  0.0000E+00  0.0000E+00  0.0000E+00  0.0000E+00
     -0.272  0.0000E+00  0.0000E+00  0.0000E+00  0.0000E+00  0.0000E+00  0.0000E+00  0.0000E+00  0.0000E+00  0.0000E+00
      0.121  0.0000E+00  0.0000E+00  0.0000E+00  0.0000E+00  0.0000E+00  0.0000E+00  0.0000E+00  0.0000E+00  0.0000E+00
      0.513  0.0000E+00  0.0000E+00  0.0000E+00  0.0000E+00  0.0000E+00  0.0000E+00  0.0000E+00  0.0000E+00  0.0000E+00
      0.905  0.0000E+00  0.0000E+00  0.0000E+00  0.0000E+00  0.0000E+00  0.0000E+00  0.0000E+00  0.0000E+00  0.0000E+00
      1.297  0.0000E+00  0.0000E+00  0.0000E+00  0.0000E+00  0.0000E+00  0.0000E+00  0.0000E+00  0.0000E+00  0.0000E+00
      1.690  0.0000E+00  0.0000E+00  0.0000E+00  0.0000E+00  0.0000E+00  0.0000E+00  0.0000E+00  0.0000E+00  0.0000E+00
      2.082  0.4503E-06  0.5292E-09  0.5292E-09  0.5292E-09  0.3059E-10  0.3059E-10  0.2206E-26  0.3059E-10  0.2206E-26
      2.474  0.8440E-02  0.2317E-04  0.2317E-04  0.2317E-04  0.2174E-05  0.2174E-05  0.1550E-05  0.2174E-05  0.1550E-05
      2.867  0.2037E-01  0.1237E-03  0.1237E-03  0.1237E-03  0.3368E-04  0.3368E-04  0.6949E-05  0.3368E-04  0.6949E-05
      3.259  0.2602E-01  0.2999E-03  0.2999E-03  0.2999E-03  0.1135E-03  0.1135E-03  0.7623E-04  0.1135E-03  0.7623E-04
      3.651  0.2506E-01  0.3557E-03  0.3557E-03  0.3557E-03  0.3064E-03  0.3064E-03  0.5800E-04  0.3064E-03  0.5800E-04
      4.043  0.5453E-01  0.1120E-02  0.1120E-02  0.1120E-02  0.1038E-02  0.1038E-02  0.6651E-03  0.1038E-02  0.6651E-03
      4.436  0.3518E-01  0.8864E-03  0.8864E-03  0.8864E-03  0.1760E-02  0.1760E-02  0.3787E-03  0.1760E-02  0.3787E-03
      4.828  0.5210E-01  0.1512E-02  0.1512E-02  0.1512E-02  0.3958E-02  0.3958E-02  0.2444E-02  0.3958E-02  0.2444E-02
      5.220  0.1026E+00  0.2802E-02  0.2802E-02  0.2802E-02  0.3521E-01  0.3521E-01  0.2860E-02  0.3521E-01  0.2860E-02
      5.613  0.1018E+00  0.3144E-02  0.3144E-02  0.3144E-02  0.5546E-01  0.5546E-01  0.5939E-01  0.5546E-01  0.5939E-01
      6.005  0.1180E+00  0.4983E-02  0.4983E-02  0.4983E-02  0.1045E+00  0.1045E+00  0.1240E+00  0.1045E+00  0.1240E+00
      6.397  0.8938E-01  0.5345E-02  0.5345E-02  0.5345E-02  0.1690E+00  0.1690E+00  0.1193E+00  0.1690E+00  0.1193E+00
      6.790  0.5422E-01  0.5476E-02  0.5476E-02  0.5476E-02  0.1675E+00  0.1675E+00  0.1118E+00  0.1675E+00  0.1118E+00
      7.182  0.1857E-01  0.5667E-02  0.5667E-02  0.5667E-02  0.1578E+00  0.1578E+00  0.1063E+00  0.1578E+00  0.1063E+00
      7.574  0.1068E-01  0.8313E-02  0.8313E-02  0.8313E-02  0.1750E+00  0.1750E+00  0.1258E+00  0.1750E+00  0.1258E+00
      7.966  0.9249E-02  0.7933E-02  0.7933E-02  0.7933E-02  0.1706E+00  0.1706E+00  0.1848E+00  0.1706E+00  0.1848E+00
      8.359  0.1680E-01  0.8265E-02  0.8265E-02  0.8265E-02  0.2079E+00  0.2079E+00  0.1633E+00  0.2079E+00  0.1633E+00
      8.751  0.2514E-01  0.1027E-01  0.1027E-01  0.1027E-01  0.2269E+00  0.2269E+00  0.1958E+00  0.2269E+00  0.1958E+00
      9.143  0.2559E-01  0.1336E-01  0.1336E-01  0.1336E-01  0.3088E+00  0.3088E+00  0.2231E+00  0.3088E+00  0.2231E+00
      9.536  0.1746E-01  0.8484E-02  0.8484E-02  0.8484E-02  0.2639E+00  0.2639E+00  0.1933E+00  0.2639E+00  0.1933E+00
      9.928  0.1225E-01  0.8675E-02  0.8675E-02  0.8675E-02  0.1626E+00  0.1626E+00  0.1567E+00  0.1626E+00  0.1567E+00
     10.320  0.1186E-01  0.6903E-02  0.6903E-02  0.6903E-02  0.1267E+00  0.1267E+00  0.2304E+00  0.1267E+00  0.2304E+00
     10.713  0.1077E-01  0.8420E-02  0.8420E-02  0.8420E-02  0.1411E+00  0.1411E+00  0.3933E+00  0.1411E+00  0.3933E+00
     11.105  0.8607E-02  0.4386E-02  0.4386E-02  0.4386E-02  0.9583E-01  0.9583E-01  0.2858E+00  0.9583E-01  0.2858E+00
     11.497  0.5741E-02  0.3513E-02  0.3513E-02  0.3513E-02  0.1022E+00  0.1022E+00  0.2817E+00  0.1022E+00  0.2817E+00
     11.889  0.5807E-02  0.4396E-02  0.4396E-02  0.4396E-02  0.1681E+00  0.1681E+00  0.2705E+00  0.1681E+00  0.2705E+00
     12.282  0.5171E-02  0.2342E-02  0.2342E-02  0.2342E-02  0.1390E+00  0.1390E+00  0.1606E+00  0.1390E+00  0.1606E+00
     12.674  0.6778E-02  0.2421E-02  0.2421E-02  0.2421E-02  0.3101E+00  0.3101E+00  0.2872E+00  0.3101E+00  0.2872E+00
     13.066  0.1417E-01  0.3337E-02  0.3337E-02  0.3337E-02  0.3389E+00  0.3389E+00  0.1743E+00  0.3389E+00  0.1743E+00
     13.459  0.4252E-02  0.8398E-03  0.8398E-03  0.8398E-03  0.1040E+00  0.1040E+00  0.2280E-01  0.1040E+00  0.2280E-01
     13.851  0.1426E-01  0.3797E-02  0.3797E-02  0.3797E-02  0.4110E-01  0.4110E-01  0.3811E-01  0.4110E-01  0.3811E-01
     14.243  0.1998E-01  0.5334E-02  0.5334E-02  0.5334E-02  0.4805E-01  0.4805E-01  0.3791E-01  0.4805E-01  0.3791E-01
     14.636  0.1135E-01  0.3375E-02  0.3375E-02  0.3375E-02  0.2301E-01  0.2301E-01  0.1951E-01  0.2301E-01  0.1951E-01
     15.028  0.3039E-01  0.7144E-02  0.7144E-02  0.7144E-02  0.4676E-01  0.4676E-01  0.3067E-01  0.4676E-01  0.3067E-01
     15.420  0.1605E-01  0.7559E-02  0.7559E-02  0.7559E-02  0.2906E-01  0.2906E-01  0.2014E-01  0.2906E-01  0.2014E-01