 vasp.6.3.2 27Jun22 (build Aug 12 2022 00:53:59) complex                        
  
 executed on               tv2STD date 2024.12.03  01:38:43
 running   24 mpi-ranks, with    1 threads/rank
 distrk:  each k-point on   24 cores,    1 groups
 distr:  one band on NCORE=   1 cores,   24 groups


--------------------------------------------------------------------------------------------------------


 INCAR:
   SYSTEM = Pt-fcc
   NWRITE = 2    write-flag
   ISTART = 0    job   : 0-new, 1-cont, 2-samecut
   ICHARG = 2    charge: 0-wave, 1-file, 2-atom, >10-const
   INIWAV = 1    electr: 0-lowe 1-rand  2-diag
   ENCUT = 425.0     energy cutoff in eV
   PREC = accurate      normal | accurate
   ADDGRID = .FALSE.  (use fine grid)
   NELM = 100     number of ELM steps
   EDIFF = 1E-06    energy stopping-criterion for ELM
   LREAL = .FALSE.      real-space projection (.FALSE., .TRUE., On, Auto)
   ALGO = Normal     Normal, Fast, Very_Fast
   LWAVE = .TRUE.
   LCHARG = .TRUE.
   NSW = 100       max number of geometry steps
   IBRION = 2     ionic relax: 0-MD, 1-quasi-Newton, 2-CG, 3-Damped MD
   EDIFFG = -0.02  force (eV/A) stopping-criterion for geometry steps
   ISIF = 2     (1:force\=y stress\=trace only ions\=y shape\=n volume\=n)
   ISYM = 1     (1-use symmetry, 0-no symmetry)
   ISMEAR = 0     (-1-Fermi, 1-Methfessel/Paxton)
   SIGMA = 0.05   broadening in eV
   LORBIT = 11

 POTCAR:    PAW_PBE Pt_pv 12Dec2005               
 POTCAR:    PAW_PBE Pt_pv 12Dec2005               
   SHA256 =  e5abf7e8cd8db70d0153315afc5ad66b6e3eeee29cc2d5b91b16730957c1d208 Pt_pv/POTCAR          
   COPYR  = (c) Copyright 12Dec2005 Georg Kresse                                                    
   COPYR  = This file is part of the software VASP. Any use, copying, and all other rights are regul
   COPYR  = If you do not have a valid VASP license, you may not use, copy or distribute this file. 
   VRHFIN =Pt: 5ps1d9                                                                               
   LEXCH  = PE                                                                                      
   EATOM  =  2428.2504 eV,  178.4714 Ry                                                             
                                                                                                    
   TITEL  = PAW_PBE Pt_pv 12Dec2005                                                                 
   LULTRA =        F    use ultrasoft PP ?                                                          
   IUNSCR =        1    unscreen: 0-lin 1-nonlin 2-no                                               
   RPACOR =    2.000    partial core radius                                                         
   POMASS =  195.080; ZVAL   =   16.000    mass and valenz                                          
   RCORE  =    2.200    outmost cutoff radius                                                       
   RWIGS  =    2.200; RWIGS  =    1.164    wigner-seitz radius (au A)                               
   ENMAX  =  294.607; ENMIN  =  220.955 eV                                                          
   ICORE  =        3    local potential                                                             
   LCOR   =        T    correct aug charges                                                         
   LPAW   =        T    paw PP                                                                      
   EAUG   =  527.014                                                                                
   DEXC   =    0.000                                                                                
   RMAX   =    2.247    core radius for proj-oper                                                   
   RAUG   =    1.300    factor for augmentation sphere                                              
   RDEP   =    2.279    radius for radial grids                                                     
   RDEPT  =    1.878    core radius for aug-charge                                                  
                                                                                                    
   Atomic configuration                                                                             
   16 entries                                                                                       
     n  l   j            E        occ.                                                              
     1  0  0.50    -78401.1885   2.0000                                                             
     2  0  0.50    -13770.7750   2.0000                                                             
     2  1  1.50    -11931.0468   6.0000                                                             
     3  0  0.50     -3234.7234   2.0000                                                             
     3  1  1.50     -2699.2216   6.0000                                                             
     3  2  2.50     -2119.5714  10.0000                                                             
     4  0  0.50      -695.1528   2.0000                                                             
     4  1  1.50      -519.6034   6.0000                                                             
     4  2  2.50      -306.6786  10.0000                                                             
     4  3  3.50       -70.1041  14.0000                                                             
     5  0  0.50      -101.7747   2.0000                                                             
     5  1  1.50       -55.9873   6.0000                                                             
     6  1  1.50        -6.8029   0.0000                                                             
     5  2  2.50        -6.1423   9.0000                                                             
     6  0  0.50        -5.6573   1.0000                                                             
     5  3  2.50        -1.3606   0.0000                                                             
   Description                                                                                      
     l       E           TYP  RCUT    TYP  RCUT                                                     
     1    -55.9873477     23  2.000                                                                 
     1     27.2116520     23  2.000                                                                 
     2     -6.1423404     23  2.200                                                                 
     2     -4.6754623     23  2.200                                                                 
     0     -5.6573207     23  2.200                                                                 
     0     47.6203910     23  2.200                                                                 
     3      6.8029130     23  2.200                                                                 
  local pseudopotential read in
  partial core-charges read in
  partial kinetic energy density read in
  atomic valenz-charges read in
  non local Contribution for L=           1  read in
    real space projection operators read in
  non local Contribution for L=           1  read in
    real space projection operators read in
  non local Contribution for L=           2  read in
    real space projection operators read in
  non local Contribution for L=           2  read in
    real space projection operators read in
  non local Contribution for L=           0  read in
    real space projection operators read in
  non local Contribution for L=           0  read in
    real space projection operators read in
    PAW grid and wavefunctions read in
 
   number of l-projection  operators is LMAX  =           6
   number of lm-projection operators is LMMAX =          18
 
  PAW_PBE Pt_pv 12Dec2005               :
 energy of atom  1       EATOM=-2428.2504
 kinetic energy error for atom=    0.0554 (will be added to EATOM!!)
 
 
 POSCAR: Pt
  positions in cartesian coordinates
  No initial velocities read in
 exchange correlation table for  LEXCH =        8
   RHO(1)=    0.500       N(1)  =     2000
   RHO(2)=  100.500       N(2)  =     4000
 


--------------------------------------------------------------------------------------------------------


 ion  position               nearest neighbor table
   1  0.000  0.000  0.000-
 
  LATTYP: Found a face centered cubic cell.
 ALAT       =     3.8785433137
  
  Lattice vectors:
  
 A1 = (   0.0000000000,   1.9392716568,   1.9392716568)
 A2 = (   1.9392716568,   0.0000000000,   1.9392716568)
 A3 = (   1.9392716568,   1.9392716568,   0.0000000000)


Analysis of symmetry for initial positions (statically):
=====================================================================
 Subroutine PRICEL returns:
 Original cell was already a primitive cell.
 

 Routine SETGRP: Setting up the symmetry group for a 
 face centered cubic supercell.


 Subroutine GETGRP returns: Found 48 space group operations
 (whereof 48 operations were pure point group operations)
 out of a pool of 48 trial point group operations.


The static configuration has the point symmetry O_h .


Analysis of symmetry for dynamics (positions and initial velocities):
=====================================================================
 Subroutine PRICEL returns:
 Original cell was already a primitive cell.
 

 Routine SETGRP: Setting up the symmetry group for a 
 face centered cubic supercell.


 Subroutine GETGRP returns: Found 48 space group operations
 (whereof 48 operations were pure point group operations)
 out of a pool of 48 trial point group operations.


The dynamic configuration has the point symmetry O_h .


 Subroutine INISYM returns: Found 48 space group operations
 (whereof 48 operations are pure point group operations),
 and found     1 'primitive' translations


----------------------------------------------------------------------------------------

                                     Primitive cell                                     

  volume of cell :      14.5863

  direct lattice vectors                    reciprocal lattice vectors
     0.000000000  1.939271657  1.939271657    -0.257828757  0.257828757  0.257828757
     1.939271657  0.000000000  1.939271657     0.257828757 -0.257828757  0.257828757
     1.939271657  1.939271657  0.000000000     0.257828757  0.257828757 -0.257828757

  length of vectors
     2.742544278  2.742544278  2.742544278     0.446572506  0.446572506  0.446572506

  position of ions in fractional coordinates (direct lattice)
     0.000000000  0.000000000  0.000000000

  ion indices of the primitive-cell ions
   primitive index   ion index
                 1           1

----------------------------------------------------------------------------------------

 
 
 KPOINTS: Automatic mesh                          

Automatic generation of k-mesh.
 Grid dimensions read from file:
 generate k-points for:   10   10   10

 Generating k-lattice:

  Cartesian coordinates                     Fractional coordinates (reciprocal lattice)
    -0.025782876  0.025782876  0.025782876     0.100000000 -0.000000000 -0.000000000
     0.025782876 -0.025782876  0.025782876     0.000000000  0.100000000  0.000000000
     0.025782876  0.025782876 -0.025782876     0.000000000  0.000000000  0.100000000

  Length of vectors
     0.044657251  0.044657251  0.044657251

  Shift w.r.t. Gamma in fractional coordinates (k-lattice)
     0.500000000  0.500000000  0.500000000

 
 Subroutine IBZKPT returns following result:
 ===========================================
 
 Found    110 irreducible k-points:
 
 Following reciprocal coordinates:
            Coordinates               Weight
  0.050000  0.050000  0.050000      8.000000
  0.150000  0.050000  0.050000     24.000000
  0.250000  0.050000  0.050000     24.000000
  0.350000  0.050000  0.050000     24.000000
  0.450000  0.050000  0.050000     24.000000
 -0.450000  0.050000  0.050000     24.000000
 -0.350000  0.050000  0.050000     24.000000
 -0.250000  0.050000  0.050000     24.000000
 -0.150000  0.050000  0.050000     24.000000
 -0.050000  0.050000  0.050000     24.000000
  0.150000  0.150000  0.050000     24.000000
  0.250000  0.150000  0.050000     48.000000
  0.350000  0.150000  0.050000     48.000000
  0.450000  0.150000  0.050000     48.000000
 -0.450000  0.150000  0.050000     48.000000
 -0.350000  0.150000  0.050000     48.000000
 -0.250000  0.150000  0.050000     48.000000
 -0.150000  0.150000  0.050000     48.000000
 -0.050000  0.150000  0.050000     48.000000
  0.250000  0.250000  0.050000     24.000000
  0.350000  0.250000  0.050000     48.000000
  0.450000  0.250000  0.050000     48.000000
 -0.450000  0.250000  0.050000     48.000000
 -0.350000  0.250000  0.050000     48.000000
 -0.250000  0.250000  0.050000     48.000000
 -0.150000  0.250000  0.050000     48.000000
 -0.050000  0.250000  0.050000     48.000000
  0.350000  0.350000  0.050000     24.000000
  0.450000  0.350000  0.050000     48.000000
 -0.450000  0.350000  0.050000     48.000000
 -0.350000  0.350000  0.050000     48.000000
 -0.250000  0.350000  0.050000     48.000000
 -0.150000  0.350000  0.050000     48.000000
 -0.050000  0.350000  0.050000     48.000000
  0.450000  0.450000  0.050000     24.000000
 -0.450000  0.450000  0.050000     48.000000
 -0.350000  0.450000  0.050000     48.000000
 -0.250000  0.450000  0.050000     48.000000
 -0.150000  0.450000  0.050000     48.000000
 -0.050000  0.450000  0.050000     48.000000
 -0.450000 -0.450000  0.050000     24.000000
 -0.350000 -0.450000  0.050000     48.000000
 -0.250000 -0.450000  0.050000     48.000000
 -0.150000 -0.450000  0.050000     48.000000
 -0.350000 -0.350000  0.050000     24.000000
 -0.250000 -0.350000  0.050000     48.000000
 -0.150000 -0.350000  0.050000     48.000000
 -0.250000 -0.250000  0.050000     24.000000
 -0.150000 -0.250000  0.050000     48.000000
 -0.150000 -0.150000  0.050000     24.000000
  0.150000  0.150000  0.150000      8.000000
  0.250000  0.150000  0.150000     24.000000
  0.350000  0.150000  0.150000     24.000000
  0.450000  0.150000  0.150000     24.000000
 -0.450000  0.150000  0.150000     24.000000
 -0.350000  0.150000  0.150000     24.000000
 -0.250000  0.150000  0.150000     24.000000
 -0.150000  0.150000  0.150000     24.000000
  0.250000  0.250000  0.150000     24.000000
  0.350000  0.250000  0.150000     48.000000
  0.450000  0.250000  0.150000     48.000000
 -0.450000  0.250000  0.150000     48.000000
 -0.350000  0.250000  0.150000     48.000000
 -0.250000  0.250000  0.150000     48.000000
 -0.150000  0.250000  0.150000     48.000000
  0.350000  0.350000  0.150000     24.000000
  0.450000  0.350000  0.150000     48.000000
 -0.450000  0.350000  0.150000     48.000000
 -0.350000  0.350000  0.150000     48.000000
 -0.250000  0.350000  0.150000     48.000000
 -0.150000  0.350000  0.150000     48.000000
  0.450000  0.450000  0.150000     24.000000
 -0.450000  0.450000  0.150000     48.000000
 -0.350000  0.450000  0.150000     48.000000
 -0.250000  0.450000  0.150000     48.000000
 -0.150000  0.450000  0.150000     48.000000
 -0.450000 -0.450000  0.150000     24.000000
 -0.350000 -0.450000  0.150000     48.000000
 -0.250000 -0.450000  0.150000     48.000000
 -0.350000 -0.350000  0.150000     24.000000
 -0.250000 -0.350000  0.150000     48.000000
 -0.250000 -0.250000  0.150000     24.000000
  0.250000  0.250000  0.250000      8.000000
  0.350000  0.250000  0.250000     24.000000
  0.450000  0.250000  0.250000     24.000000
 -0.450000  0.250000  0.250000     24.000000
 -0.350000  0.250000  0.250000     24.000000
 -0.250000  0.250000  0.250000     24.000000
  0.350000  0.350000  0.250000     24.000000
  0.450000  0.350000  0.250000     48.000000
 -0.450000  0.350000  0.250000     48.000000
 -0.350000  0.350000  0.250000     48.000000
 -0.250000  0.350000  0.250000     48.000000
  0.450000  0.450000  0.250000     24.000000
 -0.450000  0.450000  0.250000     48.000000
 -0.350000  0.450000  0.250000     48.000000
 -0.250000  0.450000  0.250000     48.000000
 -0.450000 -0.450000  0.250000     24.000000
 -0.350000 -0.450000  0.250000     48.000000
 -0.350000 -0.350000  0.250000     24.000000
  0.350000  0.350000  0.350000      8.000000
  0.450000  0.350000  0.350000     24.000000
 -0.450000  0.350000  0.350000     24.000000
 -0.350000  0.350000  0.350000     24.000000
  0.450000  0.450000  0.350000     24.000000
 -0.450000  0.450000  0.350000     48.000000
 -0.350000  0.450000  0.350000     48.000000
 -0.450000 -0.450000  0.350000     24.000000
  0.450000  0.450000  0.450000      8.000000
 -0.450000  0.450000  0.450000     24.000000
 
 Following cartesian coordinates:
            Coordinates               Weight
  0.012891  0.012891  0.012891      8.000000
 -0.012891  0.038674  0.038674     24.000000
 -0.038674  0.064457  0.064457     24.000000
 -0.064457  0.090240  0.090240     24.000000
 -0.090240  0.116023  0.116023     24.000000
  0.141806 -0.116023 -0.116023     24.000000
  0.116023 -0.090240 -0.090240     24.000000
  0.090240 -0.064457 -0.064457     24.000000
  0.064457 -0.038674 -0.038674     24.000000
  0.038674 -0.012891 -0.012891     24.000000
  0.012891  0.012891  0.064457     24.000000
 -0.012891  0.038674  0.090240     48.000000
 -0.038674  0.064457  0.116023     48.000000
 -0.064457  0.090240  0.141806     48.000000
  0.167589 -0.141806 -0.090240     48.000000
  0.141806 -0.116023 -0.064457     48.000000
  0.116023 -0.090240 -0.038674     48.000000
  0.090240 -0.064457 -0.012891     48.000000
  0.064457 -0.038674  0.012891     48.000000
  0.012891  0.012891  0.116023     24.000000
 -0.012891  0.038674  0.141806     48.000000
 -0.038674  0.064457  0.167589     48.000000
  0.193372 -0.167589 -0.064457     48.000000
  0.167589 -0.141806 -0.038674     48.000000
  0.141806 -0.116023 -0.012891     48.000000
  0.116023 -0.090240  0.012891     48.000000
  0.090240 -0.064457  0.038674     48.000000
  0.012891  0.012891  0.167589     24.000000
 -0.012891  0.038674  0.193372     48.000000
  0.219154 -0.193372 -0.038674     48.000000
  0.193372 -0.167589 -0.012891     48.000000
  0.167589 -0.141806  0.012891     48.000000
  0.141806 -0.116023  0.038674     48.000000
  0.116023 -0.090240  0.064457     48.000000
  0.012891  0.012891  0.219154     24.000000
  0.244937 -0.219154 -0.012891     48.000000
  0.219154 -0.193372  0.012891     48.000000
  0.193372 -0.167589  0.038674     48.000000
  0.167589 -0.141806  0.064457     48.000000
  0.141806 -0.116023  0.090240     48.000000
  0.012891  0.012891 -0.244937     24.000000
 -0.012891  0.038674 -0.219154     48.000000
 -0.038674  0.064457 -0.193372     48.000000
 -0.064457  0.090240 -0.167589     48.000000
  0.012891  0.012891 -0.193372     24.000000
 -0.012891  0.038674 -0.167589     48.000000
 -0.038674  0.064457 -0.141806     48.000000
  0.012891  0.012891 -0.141806     24.000000
 -0.012891  0.038674 -0.116023     48.000000
  0.012891  0.012891 -0.090240     24.000000
  0.038674  0.038674  0.038674      8.000000
  0.012891  0.064457  0.064457     24.000000
 -0.012891  0.090240  0.090240     24.000000
 -0.038674  0.116023  0.116023     24.000000
  0.193372 -0.116023 -0.116023     24.000000
  0.167589 -0.090240 -0.090240     24.000000
  0.141806 -0.064457 -0.064457     24.000000
  0.116023 -0.038674 -0.038674     24.000000
  0.038674  0.038674  0.090240     24.000000
  0.012891  0.064457  0.116023     48.000000
 -0.012891  0.090240  0.141806     48.000000
  0.219154 -0.141806 -0.090240     48.000000
  0.193372 -0.116023 -0.064457     48.000000
  0.167589 -0.090240 -0.038674     48.000000
  0.141806 -0.064457 -0.012891     48.000000
  0.038674  0.038674  0.141806     24.000000
  0.012891  0.064457  0.167589     48.000000
  0.244937 -0.167589 -0.064457     48.000000
  0.219154 -0.141806 -0.038674     48.000000
  0.193372 -0.116023 -0.012891     48.000000
  0.167589 -0.090240  0.012891     48.000000
  0.038674  0.038674  0.193372     24.000000
  0.270720 -0.193372 -0.038674     48.000000
  0.244937 -0.167589 -0.012891     48.000000
  0.219154 -0.141806  0.012891     48.000000
  0.193372 -0.116023  0.038674     48.000000
  0.038674  0.038674 -0.270720     24.000000
  0.012891  0.064457 -0.244937     48.000000
 -0.012891  0.090240 -0.219154     48.000000
  0.038674  0.038674 -0.219154     24.000000
  0.012891  0.064457 -0.193372     48.000000
  0.038674  0.038674 -0.167589     24.000000
  0.064457  0.064457  0.064457      8.000000
  0.038674  0.090240  0.090240     24.000000
  0.012891  0.116023  0.116023     24.000000
  0.244937 -0.116023 -0.116023     24.000000
  0.219154 -0.090240 -0.090240     24.000000
  0.193372 -0.064457 -0.064457     24.000000
  0.064457  0.064457  0.116023     24.000000
  0.038674  0.090240  0.141806     48.000000
  0.270720 -0.141806 -0.090240     48.000000
  0.244937 -0.116023 -0.064457     48.000000
  0.219154 -0.090240 -0.038674     48.000000
  0.064457  0.064457  0.167589     24.000000
  0.296503 -0.167589 -0.064457     48.000000
  0.270720 -0.141806 -0.038674     48.000000
  0.244937 -0.116023 -0.012891     48.000000
  0.064457  0.064457 -0.296503     24.000000
  0.038674  0.090240 -0.270720     48.000000
  0.064457  0.064457 -0.244937     24.000000
  0.090240  0.090240  0.090240      8.000000
  0.064457  0.116023  0.116023     24.000000
  0.296503 -0.116023 -0.116023     24.000000
  0.270720 -0.090240 -0.090240     24.000000
  0.090240  0.090240  0.141806     24.000000
  0.322286 -0.141806 -0.090240     48.000000
  0.296503 -0.116023 -0.064457     48.000000
  0.090240  0.090240 -0.322286     24.000000
  0.116023  0.116023  0.116023      8.000000
  0.348069 -0.116023 -0.116023     24.000000
 


--------------------------------------------------------------------------------------------------------




 Dimension of arrays:
   k-points           NKPTS =    110   k-points in BZ     NKDIM =    110   number of bands    NBANDS=     24
   number of dos      NEDOS =    301   number of ions     NIONS =      1
   non local maximal  LDIM  =      6   non local SUM 2l+1 LMDIM =     18
   total plane-waves  NPLWV =   5832
   max r-space proj   IRMAX =      1   max aug-charges    IRDMAX=  13811
   dimension x,y,z NGX =    18 NGY =   18 NGZ =   18
   dimension x,y,z NGXF=    36 NGYF=   36 NGZF=   36
   support grid    NGXF=    36 NGYF=   36 NGZF=   36
   ions per type =               1
   NGX,Y,Z   is equivalent  to a cutoff of  10.91, 10.91, 10.91 a.u.
   NGXF,Y,Z  is equivalent  to a cutoff of  21.82, 21.82, 21.82 a.u.

 SYSTEM =  Pt-fcc                                  
 POSCAR =  Pt                                      

 Startparameter for this run:
   NWRITE =      2    write-flag & timer
   PREC   = accura    normal or accurate (medium, high low for compatibility)
   ISTART =      0    job   : 0-new  1-cont  2-samecut
   ICHARG =      2    charge: 1-file 2-atom 10-const
   ISPIN  =      1    spin polarized calculation?
   LNONCOLLINEAR =      F non collinear calculations
   LSORBIT =      F    spin-orbit coupling
   INIWAV =      1    electr: 0-lowe 1-rand  2-diag
   LASPH  =      F    aspherical Exc in radial PAW
 Electronic Relaxation 1
   ENCUT  =  425.0 eV  31.24 Ry    5.59 a.u.   4.61  4.61  4.61*2*pi/ulx,y,z
   ENINI  =  425.0     initial cutoff
   ENAUG  =  527.0 eV  augmentation charge cutoff
   NELM   =    100;   NELMIN=  2; NELMDL= -5     # of ELM steps 
   EDIFF  = 0.1E-05   stopping-criterion for ELM
   LREAL  =      F    real-space projection
   NLSPLINE    = F    spline interpolate recip. space projectors
   LCOMPAT=      F    compatible to vasp.4.4
   GGA_COMPAT  = T    GGA compatible to vasp.4.4-vasp.4.6
   LMAXPAW     = -100 max onsite density
   LMAXMIX     =    2 max onsite mixed and CHGCAR
   VOSKOWN=      0    Vosko Wilk Nusair interpolation
   ROPT   =    0.00000
 Ionic relaxation
   EDIFFG = -.2E-01   stopping-criterion for IOM
   NSW    =    100    number of steps for IOM
   NBLOCK =      1;   KBLOCK =    100    inner block; outer block 
   IBRION =      2    ionic relax: 0-MD 1-quasi-New 2-CG
   NFREE  =      1    steps in history (QN), initial steepest desc. (CG)
   ISIF   =      2    stress and relaxation
   IWAVPR =     11    prediction:  0-non 1-charg 2-wave 3-comb
   ISYM   =      1    0-nonsym 1-usesym 2-fastsym
   LCORR  =      T    Harris-Foulkes like correction to forces

   POTIM  = 0.5000    time-step for ionic-motion
   TEIN   =    0.0    initial temperature
   TEBEG  =    0.0;   TEEND  =   0.0 temperature during run
   SMASS  =  -3.00    Nose mass-parameter (am)
   estimated Nose-frequenzy (Omega)   =  0.10E-29 period in steps = 0.13E+47 mass=  -0.172E-27a.u.
   SCALEE = 1.0000    scale energy and forces
   NPACO  =    256;   APACO  = 10.0  distance and # of slots for P.C.
   PSTRESS=    0.0 pullay stress

  Mass of Ions in am
   POMASS = 195.08
  Ionic Valenz
   ZVAL   =  16.00
  Atomic Wigner-Seitz radii
   RWIGS  =  -1.00
  virtual crystal weights 
   VCA    =   1.00
   NELECT =      16.0000    total number of electrons
   NUPDOWN=      -1.0000    fix difference up-down

 DOS related values:
   EMIN   =  10.00;   EMAX   =-10.00  energy-range for DOS
   EFERMI =   0.00
   ISMEAR =     0;   SIGMA  =   0.05  broadening in eV -4-tet -1-fermi 0-gaus

 Electronic relaxation 2 (details)
   IALGO  =     38    algorithm
   LDIAG  =      T    sub-space diagonalisation (order eigenvalues)
   LSUBROT=      F    optimize rotation matrix (better conditioning)
   TURBO    =      0    0=normal 1=particle mesh
   IRESTART =      0    0=no restart 2=restart with 2 vectors
   NREBOOT  =      0    no. of reboots
   NMIN     =      0    reboot dimension
   EREF     =   0.00    reference energy to select bands
   IMIX   =      4    mixing-type and parameters
     AMIX     =   0.40;   BMIX     =  1.00
     AMIX_MAG =   1.60;   BMIX_MAG =  1.00
     AMIN     =   0.10
     WC   =   100.;   INIMIX=   1;  MIXPRE=   1;  MAXMIX= -45

 Intra band minimization:
   WEIMIN = 0.0010     energy-eigenvalue tresh-hold
   EBREAK =  0.10E-07  absolut break condition
   DEPER  =   0.30     relativ break condition  

   TIME   =   0.40     timestep for ELM

  volume/ion in A,a.u.               =      14.59        98.43
  Fermi-wavevector in a.u.,A,eV,Ry     =   1.688364  3.190546 38.784417  2.850574
  Thomas-Fermi vector in A             =   2.770684
 
 Write flags
   LWAVE        =      T    write WAVECAR
   LDOWNSAMPLE  =      F    k-point downsampling of WAVECAR
   LCHARG       =      T    write CHGCAR
   LVTOT        =      F    write LOCPOT, total local potential
   LVHAR        =      F    write LOCPOT, Hartree potential only
   LELF         =      F    write electronic localiz. function (ELF)
   LORBIT       =     11    0 simple, 1 ext, 2 COOP (PROOUT), +10 PAW based schemes


 Dipole corrections
   LMONO  =      F    monopole corrections only (constant potential shift)
   LDIPOL =      F    correct potential (dipole corrections)
   IDIPOL =      0    1-x, 2-y, 3-z, 4-all directions 
   EPSILON=  1.0000000 bulk dielectric constant

 Exchange correlation treatment:
   GGA     =    --    GGA type
   LEXCH   =     8    internal setting for exchange type
   LIBXC   =     F    Libxc                    
   VOSKOWN =     0    Vosko Wilk Nusair interpolation
   LHFCALC =     F    Hartree Fock is set to
   LHFONE  =     F    Hartree Fock one center treatment
   AEXX    =    0.0000 exact exchange contribution

 Linear response parameters
   LEPSILON=     F    determine dielectric tensor
   LRPA    =     F    only Hartree local field effects (RPA)
   LNABLA  =     F    use nabla operator in PAW spheres
   LVEL    =     F    velocity operator in full k-point grid
   CSHIFT  =0.1000    complex shift for real part using Kramers Kronig
   OMEGAMAX=  -1.0    maximum frequency
   DEG_THRESHOLD= 0.2000000E-02 threshold for treating states as degnerate
   RTIME   =   -0.100 relaxation time in fs
  (WPLASMAI=    0.000 imaginary part of plasma frequency in eV, 0.658/RTIME)
   DFIELD  = 0.0000000 0.0000000 0.0000000 field for delta impulse in time
 
  Optional k-point grid parameters
   LKPOINTS_OPT  =     F    use optional k-point grid
   KPOINTS_OPT_MODE=     1    mode for optional k-point grid
 
 Orbital magnetization related:
   ORBITALMAG=     F  switch on orbital magnetization
   LCHIMAG   =     F  perturbation theory with respect to B field
   DQ        =  0.001000  dq finite difference perturbation B field
   LLRAUG    =     F  two centre corrections for induced B field



--------------------------------------------------------------------------------------------------------


 conjugate gradient relaxation of ions
 charge density and potential will be updated during run
 non-spin polarized calculation
 Variant of blocked Davidson
 Davidson routine will perform the subspace rotation
 perform sub-space diagonalisation
    after iterative eigenvector-optimisation
 modified Broyden-mixing scheme, WC =      100.0
 initial mixing is a Kerker type mixing with AMIX =  0.4000 and BMIX =      1.0000
 Hartree-type preconditioning will be used
 using additional bands           16
 reciprocal scheme for non local part
 use partial core corrections
 calculate Harris-corrections to forces 
   (improved forces if not selfconsistent)
 use gradient corrections 
 use of overlap-Matrix (Vanderbilt PP)
 Gauss-broadening in eV      SIGMA  =   0.05


--------------------------------------------------------------------------------------------------------


  energy-cutoff  :      425.00
  volume of cell :       14.59
      direct lattice vectors                 reciprocal lattice vectors
     0.000000000  1.939271657  1.939271657    -0.257828757  0.257828757  0.257828757
     1.939271657  0.000000000  1.939271657     0.257828757 -0.257828757  0.257828757
     1.939271657  1.939271657  0.000000000     0.257828757  0.257828757 -0.257828757

  length of vectors
     2.742544278  2.742544278  2.742544278     0.446572506  0.446572506  0.446572506


 
 k-points in units of 2pi/SCALE and weight: Automatic mesh                          
   0.01289144  0.01289144  0.01289144       0.002
  -0.01289144  0.03867431  0.03867431       0.006
  -0.03867431  0.06445719  0.06445719       0.006
  -0.06445719  0.09024006  0.09024006       0.006
  -0.09024006  0.11602294  0.11602294       0.006
   0.14180582 -0.11602294 -0.11602294       0.006
   0.11602294 -0.09024006 -0.09024006       0.006
   0.09024006 -0.06445719 -0.06445719       0.006
   0.06445719 -0.03867431 -0.03867431       0.006
   0.03867431 -0.01289144 -0.01289144       0.006
   0.01289144  0.01289144  0.06445719       0.006
  -0.01289144  0.03867431  0.09024006       0.012
  -0.03867431  0.06445719  0.11602294       0.012
  -0.06445719  0.09024006  0.14180582       0.012
   0.16758869 -0.14180582 -0.09024006       0.012
   0.14180582 -0.11602294 -0.06445719       0.012
   0.11602294 -0.09024006 -0.03867431       0.012
   0.09024006 -0.06445719 -0.01289144       0.012
   0.06445719 -0.03867431  0.01289144       0.012
   0.01289144  0.01289144  0.11602294       0.006
  -0.01289144  0.03867431  0.14180582       0.012
  -0.03867431  0.06445719  0.16758869       0.012
   0.19337157 -0.16758869 -0.06445719       0.012
   0.16758869 -0.14180582 -0.03867431       0.012
   0.14180582 -0.11602294 -0.01289144       0.012
   0.11602294 -0.09024006  0.01289144       0.012
   0.09024006 -0.06445719  0.03867431       0.012
   0.01289144  0.01289144  0.16758869       0.006
  -0.01289144  0.03867431  0.19337157       0.012
   0.21915444 -0.19337157 -0.03867431       0.012
   0.19337157 -0.16758869 -0.01289144       0.012
   0.16758869 -0.14180582  0.01289144       0.012
   0.14180582 -0.11602294  0.03867431       0.012
   0.11602294 -0.09024006  0.06445719       0.012
   0.01289144  0.01289144  0.21915444       0.006
   0.24493732 -0.21915444 -0.01289144       0.012
   0.21915444 -0.19337157  0.01289144       0.012
   0.19337157 -0.16758869  0.03867431       0.012
   0.16758869 -0.14180582  0.06445719       0.012
   0.14180582 -0.11602294  0.09024006       0.012
   0.01289144  0.01289144 -0.24493732       0.006
  -0.01289144  0.03867431 -0.21915444       0.012
  -0.03867431  0.06445719 -0.19337157       0.012
  -0.06445719  0.09024006 -0.16758869       0.012
   0.01289144  0.01289144 -0.19337157       0.006
  -0.01289144  0.03867431 -0.16758869       0.012
  -0.03867431  0.06445719 -0.14180582       0.012
   0.01289144  0.01289144 -0.14180582       0.006
  -0.01289144  0.03867431 -0.11602294       0.012
   0.01289144  0.01289144 -0.09024006       0.006
   0.03867431  0.03867431  0.03867431       0.002
   0.01289144  0.06445719  0.06445719       0.006
  -0.01289144  0.09024006  0.09024006       0.006
  -0.03867431  0.11602294  0.11602294       0.006
   0.19337157 -0.11602294 -0.11602294       0.006
   0.16758869 -0.09024006 -0.09024006       0.006
   0.14180582 -0.06445719 -0.06445719       0.006
   0.11602294 -0.03867431 -0.03867431       0.006
   0.03867431  0.03867431  0.09024006       0.006
   0.01289144  0.06445719  0.11602294       0.012
  -0.01289144  0.09024006  0.14180582       0.012
   0.21915444 -0.14180582 -0.09024006       0.012
   0.19337157 -0.11602294 -0.06445719       0.012
   0.16758869 -0.09024006 -0.03867431       0.012
   0.14180582 -0.06445719 -0.01289144       0.012
   0.03867431  0.03867431  0.14180582       0.006
   0.01289144  0.06445719  0.16758869       0.012
   0.24493732 -0.16758869 -0.06445719       0.012
   0.21915444 -0.14180582 -0.03867431       0.012
   0.19337157 -0.11602294 -0.01289144       0.012
   0.16758869 -0.09024006  0.01289144       0.012
   0.03867431  0.03867431  0.19337157       0.006
   0.27072019 -0.19337157 -0.03867431       0.012
   0.24493732 -0.16758869 -0.01289144       0.012
   0.21915444 -0.14180582  0.01289144       0.012
   0.19337157 -0.11602294  0.03867431       0.012
   0.03867431  0.03867431 -0.27072019       0.006
   0.01289144  0.06445719 -0.24493732       0.012
  -0.01289144  0.09024006 -0.21915444       0.012
   0.03867431  0.03867431 -0.21915444       0.006
   0.01289144  0.06445719 -0.19337157       0.012
   0.03867431  0.03867431 -0.16758869       0.006
   0.06445719  0.06445719  0.06445719       0.002
   0.03867431  0.09024006  0.09024006       0.006
   0.01289144  0.11602294  0.11602294       0.006
   0.24493732 -0.11602294 -0.11602294       0.006
   0.21915444 -0.09024006 -0.09024006       0.006
   0.19337157 -0.06445719 -0.06445719       0.006
   0.06445719  0.06445719  0.11602294       0.006
   0.03867431  0.09024006  0.14180582       0.012
   0.27072019 -0.14180582 -0.09024006       0.012
   0.24493732 -0.11602294 -0.06445719       0.012
   0.21915444 -0.09024006 -0.03867431       0.012
   0.06445719  0.06445719  0.16758869       0.006
   0.29650307 -0.16758869 -0.06445719       0.012
   0.27072019 -0.14180582 -0.03867431       0.012
   0.24493732 -0.11602294 -0.01289144       0.012
   0.06445719  0.06445719 -0.29650307       0.006
   0.03867431  0.09024006 -0.27072019       0.012
   0.06445719  0.06445719 -0.24493732       0.006
   0.09024006  0.09024006  0.09024006       0.002
   0.06445719  0.11602294  0.11602294       0.006
   0.29650307 -0.11602294 -0.11602294       0.006
   0.27072019 -0.09024006 -0.09024006       0.006
   0.09024006  0.09024006  0.14180582       0.006
   0.32228595 -0.14180582 -0.09024006       0.012
   0.29650307 -0.11602294 -0.06445719       0.012
   0.09024006  0.09024006 -0.32228595       0.006
   0.11602294  0.11602294  0.11602294       0.002
   0.34806882 -0.11602294 -0.11602294       0.006
 
 k-points in reciprocal lattice and weights: Automatic mesh                          
   0.05000000  0.05000000  0.05000000       0.002
   0.15000000  0.05000000  0.05000000       0.006
   0.25000000  0.05000000  0.05000000       0.006
   0.35000000  0.05000000  0.05000000       0.006
   0.45000000  0.05000000  0.05000000       0.006
  -0.45000000  0.05000000  0.05000000       0.006
  -0.35000000  0.05000000  0.05000000       0.006
  -0.25000000  0.05000000  0.05000000       0.006
  -0.15000000  0.05000000  0.05000000       0.006
  -0.05000000  0.05000000  0.05000000       0.006
   0.15000000  0.15000000  0.05000000       0.006
   0.25000000  0.15000000  0.05000000       0.012
   0.35000000  0.15000000  0.05000000       0.012
   0.45000000  0.15000000  0.05000000       0.012
  -0.45000000  0.15000000  0.05000000       0.012
  -0.35000000  0.15000000  0.05000000       0.012
  -0.25000000  0.15000000  0.05000000       0.012
  -0.15000000  0.15000000  0.05000000       0.012
  -0.05000000  0.15000000  0.05000000       0.012
   0.25000000  0.25000000  0.05000000       0.006
   0.35000000  0.25000000  0.05000000       0.012
   0.45000000  0.25000000  0.05000000       0.012
  -0.45000000  0.25000000  0.05000000       0.012
  -0.35000000  0.25000000  0.05000000       0.012
  -0.25000000  0.25000000  0.05000000       0.012
  -0.15000000  0.25000000  0.05000000       0.012
  -0.05000000  0.25000000  0.05000000       0.012
   0.35000000  0.35000000  0.05000000       0.006
   0.45000000  0.35000000  0.05000000       0.012
  -0.45000000  0.35000000  0.05000000       0.012
  -0.35000000  0.35000000  0.05000000       0.012
  -0.25000000  0.35000000  0.05000000       0.012
  -0.15000000  0.35000000  0.05000000       0.012
  -0.05000000  0.35000000  0.05000000       0.012
   0.45000000  0.45000000  0.05000000       0.006
  -0.45000000  0.45000000  0.05000000       0.012
  -0.35000000  0.45000000  0.05000000       0.012
  -0.25000000  0.45000000  0.05000000       0.012
  -0.15000000  0.45000000  0.05000000       0.012
  -0.05000000  0.45000000  0.05000000       0.012
  -0.45000000 -0.45000000  0.05000000       0.006
  -0.35000000 -0.45000000  0.05000000       0.012
  -0.25000000 -0.45000000  0.05000000       0.012
  -0.15000000 -0.45000000  0.05000000       0.012
  -0.35000000 -0.35000000  0.05000000       0.006
  -0.25000000 -0.35000000  0.05000000       0.012
  -0.15000000 -0.35000000  0.05000000       0.012
  -0.25000000 -0.25000000  0.05000000       0.006
  -0.15000000 -0.25000000  0.05000000       0.012
  -0.15000000 -0.15000000  0.05000000       0.006
   0.15000000  0.15000000  0.15000000       0.002
   0.25000000  0.15000000  0.15000000       0.006
   0.35000000  0.15000000  0.15000000       0.006
   0.45000000  0.15000000  0.15000000       0.006
  -0.45000000  0.15000000  0.15000000       0.006
  -0.35000000  0.15000000  0.15000000       0.006
  -0.25000000  0.15000000  0.15000000       0.006
  -0.15000000  0.15000000  0.15000000       0.006
   0.25000000  0.25000000  0.15000000       0.006
   0.35000000  0.25000000  0.15000000       0.012
   0.45000000  0.25000000  0.15000000       0.012
  -0.45000000  0.25000000  0.15000000       0.012
  -0.35000000  0.25000000  0.15000000       0.012
  -0.25000000  0.25000000  0.15000000       0.012
  -0.15000000  0.25000000  0.15000000       0.012
   0.35000000  0.35000000  0.15000000       0.006
   0.45000000  0.35000000  0.15000000       0.012
  -0.45000000  0.35000000  0.15000000       0.012
  -0.35000000  0.35000000  0.15000000       0.012
  -0.25000000  0.35000000  0.15000000       0.012
  -0.15000000  0.35000000  0.15000000       0.012
   0.45000000  0.45000000  0.15000000       0.006
  -0.45000000  0.45000000  0.15000000       0.012
  -0.35000000  0.45000000  0.15000000       0.012
  -0.25000000  0.45000000  0.15000000       0.012
  -0.15000000  0.45000000  0.15000000       0.012
  -0.45000000 -0.45000000  0.15000000       0.006
  -0.35000000 -0.45000000  0.15000000       0.012
  -0.25000000 -0.45000000  0.15000000       0.012
  -0.35000000 -0.35000000  0.15000000       0.006
  -0.25000000 -0.35000000  0.15000000       0.012
  -0.25000000 -0.25000000  0.15000000       0.006
   0.25000000  0.25000000  0.25000000       0.002
   0.35000000  0.25000000  0.25000000       0.006
   0.45000000  0.25000000  0.25000000       0.006
  -0.45000000  0.25000000  0.25000000       0.006
  -0.35000000  0.25000000  0.25000000       0.006
  -0.25000000  0.25000000  0.25000000       0.006
   0.35000000  0.35000000  0.25000000       0.006
   0.45000000  0.35000000  0.25000000       0.012
  -0.45000000  0.35000000  0.25000000       0.012
  -0.35000000  0.35000000  0.25000000       0.012
  -0.25000000  0.35000000  0.25000000       0.012
   0.45000000  0.45000000  0.25000000       0.006
  -0.45000000  0.45000000  0.25000000       0.012
  -0.35000000  0.45000000  0.25000000       0.012
  -0.25000000  0.45000000  0.25000000       0.012
  -0.45000000 -0.45000000  0.25000000       0.006
  -0.35000000 -0.45000000  0.25000000       0.012
  -0.35000000 -0.35000000  0.25000000       0.006
   0.35000000  0.35000000  0.35000000       0.002
   0.45000000  0.35000000  0.35000000       0.006
  -0.45000000  0.35000000  0.35000000       0.006
  -0.35000000  0.35000000  0.35000000       0.006
   0.45000000  0.45000000  0.35000000       0.006
  -0.45000000  0.45000000  0.35000000       0.012
  -0.35000000  0.45000000  0.35000000       0.012
  -0.45000000 -0.45000000  0.35000000       0.006
   0.45000000  0.45000000  0.45000000       0.002
  -0.45000000  0.45000000  0.45000000       0.006
 
 position of ions in fractional coordinates (direct lattice) 
   0.00000000  0.00000000  0.00000000
 
 position of ions in cartesian coordinates  (Angst):
   0.00000000  0.00000000  0.00000000
 


--------------------------------------------------------------------------------------------------------


 k-point   1 :   0.0500 0.0500 0.0500  plane waves:     286
 k-point   2 :   0.1500 0.0500 0.0500  plane waves:     296
 k-point   3 :   0.2500 0.0500 0.0500  plane waves:     294
 k-point   4 :   0.3500 0.0500 0.0500  plane waves:     290
 k-point   5 :   0.4500 0.0500 0.0500  plane waves:     285
 k-point   6 :  -0.4500 0.0500 0.0500  plane waves:     281
 k-point   7 :  -0.3500 0.0500 0.0500  plane waves:     288
 k-point   8 :  -0.2500 0.0500 0.0500  plane waves:     297
 k-point   9 :  -0.1500 0.0500 0.0500  plane waves:     295
 k-point  10 :  -0.0500 0.0500 0.0500  plane waves:     296
 k-point  11 :   0.1500 0.1500 0.0500  plane waves:     297
 k-point  12 :   0.2500 0.1500 0.0500  plane waves:     296
 k-point  13 :   0.3500 0.1500 0.0500  plane waves:     294
 k-point  14 :   0.4500 0.1500 0.0500  plane waves:     289
 k-point  15 :  -0.4500 0.1500 0.0500  plane waves:     289
 k-point  16 :  -0.3500 0.1500 0.0500  plane waves:     289
 k-point  17 :  -0.2500 0.1500 0.0500  plane waves:     292
 k-point  18 :  -0.1500 0.1500 0.0500  plane waves:     295
 k-point  19 :  -0.0500 0.1500 0.0500  plane waves:     295
 k-point  20 :   0.2500 0.2500 0.0500  plane waves:     297
 k-point  21 :   0.3500 0.2500 0.0500  plane waves:     298
 k-point  22 :   0.4500 0.2500 0.0500  plane waves:     289
 k-point  23 :  -0.4500 0.2500 0.0500  plane waves:     291
 k-point  24 :  -0.3500 0.2500 0.0500  plane waves:     288
 k-point  25 :  -0.2500 0.2500 0.0500  plane waves:     289
 k-point  26 :  -0.1500 0.2500 0.0500  plane waves:     294
 k-point  27 :  -0.0500 0.2500 0.0500  plane waves:     295
 k-point  28 :   0.3500 0.3500 0.0500  plane waves:     302
 k-point  29 :   0.4500 0.3500 0.0500  plane waves:     294
 k-point  30 :  -0.4500 0.3500 0.0500  plane waves:     289
 k-point  31 :  -0.3500 0.3500 0.0500  plane waves:     284
 k-point  32 :  -0.2500 0.3500 0.0500  plane waves:     285
 k-point  33 :  -0.1500 0.3500 0.0500  plane waves:     289
 k-point  34 :  -0.0500 0.3500 0.0500  plane waves:     292
 k-point  35 :   0.4500 0.4500 0.0500  plane waves:     291
 k-point  36 :  -0.4500 0.4500 0.0500  plane waves:     290
 k-point  37 :  -0.3500 0.4500 0.0500  plane waves:     287
 k-point  38 :  -0.2500 0.4500 0.0500  plane waves:     285
 k-point  39 :  -0.1500 0.4500 0.0500  plane waves:     291
 k-point  40 :  -0.0500 0.4500 0.0500  plane waves:     284
 k-point  41 :  -0.4500-0.4500 0.0500  plane waves:     298
 k-point  42 :  -0.3500-0.4500 0.0500  plane waves:     291
 k-point  43 :  -0.2500-0.4500 0.0500  plane waves:     293
 k-point  44 :  -0.1500-0.4500 0.0500  plane waves:     288
 k-point  45 :  -0.3500-0.3500 0.0500  plane waves:     291
 k-point  46 :  -0.2500-0.3500 0.0500  plane waves:     295
 k-point  47 :  -0.1500-0.3500 0.0500  plane waves:     289
 k-point  48 :  -0.2500-0.2500 0.0500  plane waves:     296
 k-point  49 :  -0.1500-0.2500 0.0500  plane waves:     298
 k-point  50 :  -0.1500-0.1500 0.0500  plane waves:     299
 k-point  51 :   0.1500 0.1500 0.1500  plane waves:     301
 k-point  52 :   0.2500 0.1500 0.1500  plane waves:     296
 k-point  53 :   0.3500 0.1500 0.1500  plane waves:     296
 k-point  54 :   0.4500 0.1500 0.1500  plane waves:     289
 k-point  55 :  -0.4500 0.1500 0.1500  plane waves:     288
 k-point  56 :  -0.3500 0.1500 0.1500  plane waves:     289
 k-point  57 :  -0.2500 0.1500 0.1500  plane waves:     288
 k-point  58 :  -0.1500 0.1500 0.1500  plane waves:     294
 k-point  59 :   0.2500 0.2500 0.1500  plane waves:     293
 k-point  60 :   0.3500 0.2500 0.1500  plane waves:     293
 k-point  61 :   0.4500 0.2500 0.1500  plane waves:     290
 k-point  62 :  -0.4500 0.2500 0.1500  plane waves:     292
 k-point  63 :  -0.3500 0.2500 0.1500  plane waves:     287
 k-point  64 :  -0.2500 0.2500 0.1500  plane waves:     291
 k-point  65 :  -0.1500 0.2500 0.1500  plane waves:     293
 k-point  66 :   0.3500 0.3500 0.1500  plane waves:     293
 k-point  67 :   0.4500 0.3500 0.1500  plane waves:     294
 k-point  68 :  -0.4500 0.3500 0.1500  plane waves:     290
 k-point  69 :  -0.3500 0.3500 0.1500  plane waves:     285
 k-point  70 :  -0.2500 0.3500 0.1500  plane waves:     287
 k-point  71 :  -0.1500 0.3500 0.1500  plane waves:     288
 k-point  72 :   0.4500 0.4500 0.1500  plane waves:     293
 k-point  73 :  -0.4500 0.4500 0.1500  plane waves:     289
 k-point  74 :  -0.3500 0.4500 0.1500  plane waves:     287
 k-point  75 :  -0.2500 0.4500 0.1500  plane waves:     283
 k-point  76 :  -0.1500 0.4500 0.1500  plane waves:     288
 k-point  77 :  -0.4500-0.4500 0.1500  plane waves:     286
 k-point  78 :  -0.3500-0.4500 0.1500  plane waves:     288
 k-point  79 :  -0.2500-0.4500 0.1500  plane waves:     289
 k-point  80 :  -0.3500-0.3500 0.1500  plane waves:     290
 k-point  81 :  -0.2500-0.3500 0.1500  plane waves:     292
 k-point  82 :  -0.2500-0.2500 0.1500  plane waves:     292
 k-point  83 :   0.2500 0.2500 0.2500  plane waves:     296
 k-point  84 :   0.3500 0.2500 0.2500  plane waves:     295
 k-point  85 :   0.4500 0.2500 0.2500  plane waves:     290
 k-point  86 :  -0.4500 0.2500 0.2500  plane waves:     285
 k-point  87 :  -0.3500 0.2500 0.2500  plane waves:     286
 k-point  88 :  -0.2500 0.2500 0.2500  plane waves:     290
 k-point  89 :   0.3500 0.3500 0.2500  plane waves:     296
 k-point  90 :   0.4500 0.3500 0.2500  plane waves:     287
 k-point  91 :  -0.4500 0.3500 0.2500  plane waves:     287
 k-point  92 :  -0.3500 0.3500 0.2500  plane waves:     282
 k-point  93 :  -0.2500 0.3500 0.2500  plane waves:     289
 k-point  94 :   0.4500 0.4500 0.2500  plane waves:     287
 k-point  95 :  -0.4500 0.4500 0.2500  plane waves:     289
 k-point  96 :  -0.3500 0.4500 0.2500  plane waves:     286
 k-point  97 :  -0.2500 0.4500 0.2500  plane waves:     283
 k-point  98 :  -0.4500-0.4500 0.2500  plane waves:     286
 k-point  99 :  -0.3500-0.4500 0.2500  plane waves:     287
 k-point 100 :  -0.3500-0.3500 0.2500  plane waves:     286
 k-point 101 :   0.3500 0.3500 0.3500  plane waves:     287
 k-point 102 :   0.4500 0.3500 0.3500  plane waves:     290
 k-point 103 :  -0.4500 0.3500 0.3500  plane waves:     289
 k-point 104 :  -0.3500 0.3500 0.3500  plane waves:     284
 k-point 105 :   0.4500 0.4500 0.3500  plane waves:     289
 k-point 106 :  -0.4500 0.4500 0.3500  plane waves:     290
 k-point 107 :  -0.3500 0.4500 0.3500  plane waves:     287
 k-point 108 :  -0.4500-0.4500 0.3500  plane waves:     287
 k-point 109 :   0.4500 0.4500 0.4500  plane waves:     284
 k-point 110 :  -0.4500 0.4500 0.4500  plane waves:     287

 maximum and minimum number of plane-waves per node :       302      281

 maximum number of plane-waves:       302
 maximum index in each direction: 
   IXMAX=    5   IYMAX=    5   IZMAX=    4
   IXMIN=   -5   IYMIN=   -5   IZMIN=   -5


 serial   3D FFT for wavefunctions
 parallel 3D FFT for charge:
    minimum data exchange during FFTs selected (reduces bandwidth)


 total amount of memory used by VASP MPI-rank0    36033. kBytes
=======================================================================

   base      :      30000. kBytes
   nonl-proj :       4947. kBytes
   fftplans  :        113. kBytes
   grid      :        367. kBytes
   one-center:         15. kBytes
   wavefun   :        591. kBytes
 
     INWAV:  cpu time      0.0000: real time      0.0004
 Broyden mixing: mesh for mixing (old mesh)
   NGX =  9   NGY =  9   NGZ =  9
  (NGX  = 36   NGY  = 36   NGZ  = 36)
  gives a total of    729 points

 initial charge density was supplied:
 charge density of overlapping atoms calculated
 number of electron      16.0000000 magnetization 
 keeping initial charge density in first step


--------------------------------------------------------------------------------------------------------


 Maximum index for augmentation-charges          878 (set IRDMAX)


--------------------------------------------------------------------------------------------------------


 First call to EWALD:  gamma=   0.725
 Maximum number of real-space cells 3x 3x 3
 Maximum number of reciprocal cells 3x 3x 3

    FEWALD:  cpu time      0.0014: real time      0.0014


--------------------------------------- Iteration      1(   1)  ---------------------------------------


    POTLOK:  cpu time      0.0027: real time      0.0029
    SETDIJ:  cpu time      0.0021: real time      0.0021
     EDDAV:  cpu time      0.4499: real time      0.4524
       DOS:  cpu time      0.0006: real time      0.0006
    --------------------------------------------
      LOOP:  cpu time      0.4553: real time      0.4579

 eigenvalue-minimisations  :  5856
 total energy-change (2. order) : 0.1590742E+02  (-0.1172950E+04)
 number of electron      16.0000000 magnetization 
 augmentation part       16.0000000 magnetization 

 Free energy of the ion-electron system (eV)
  ---------------------------------------------------
  alpha Z        PSCENC =       164.49093433
  Ewald energy   TEWEN  =     -2178.83163511
  -Hartree energ DENC   =      -382.34788041
  -exchange      EXHF   =         0.00000000
  -V(xc)+E(xc)   XCENC  =        64.06448227
  PAW double counting   =      2065.75261637    -2030.83594803
  entropy T*S    EENTRO =        -0.00086383
  eigenvalues    EBANDS =      -114.57929273
  atomic energy  EATOM  =      2428.19501064
  Solvation  Ediel_sol  =         0.00000000
  ---------------------------------------------------
  free energy    TOTEN  =        15.90742351 eV

  energy without entropy =       15.90828733  energy(sigma->0) =       15.90785542


--------------------------------------------------------------------------------------------------------




--------------------------------------- Iteration      1(   2)  ---------------------------------------


     EDDAV:  cpu time      0.6032: real time      0.6074
       DOS:  cpu time      0.0005: real time      0.0005
    --------------------------------------------
      LOOP:  cpu time      0.6037: real time      0.6078

 eigenvalue-minimisations  :  7008
 total energy-change (2. order) :-0.2223770E+02  (-0.2195147E+02)
 number of electron      16.0000000 magnetization 
 augmentation part       16.0000000 magnetization 

 Free energy of the ion-electron system (eV)
  ---------------------------------------------------
  alpha Z        PSCENC =       164.49093433
  Ewald energy   TEWEN  =     -2178.83163511
  -Hartree energ DENC   =      -382.34788041
  -exchange      EXHF   =         0.00000000
  -V(xc)+E(xc)   XCENC  =        64.06448227
  PAW double counting   =      2065.75261637    -2030.83594803
  entropy T*S    EENTRO =        -0.00161801
  eigenvalues    EBANDS =      -136.81623579
  atomic energy  EATOM  =      2428.19501064
  Solvation  Ediel_sol  =         0.00000000
  ---------------------------------------------------
  free energy    TOTEN  =        -6.33027373 eV

  energy without entropy =       -6.32865572  energy(sigma->0) =       -6.32946473


--------------------------------------------------------------------------------------------------------




--------------------------------------- Iteration      1(   3)  ---------------------------------------


     EDDAV:  cpu time      0.6086: real time      0.6121
       DOS:  cpu time      0.0005: real time      0.0005
    --------------------------------------------
      LOOP:  cpu time      0.6091: real time      0.6126

 eigenvalue-minimisations  :  6720
 total energy-change (2. order) :-0.2930522E-01  (-0.2930402E-01)
 number of electron      16.0000000 magnetization 
 augmentation part       16.0000000 magnetization 

 Free energy of the ion-electron system (eV)
  ---------------------------------------------------
  alpha Z        PSCENC =       164.49093433
  Ewald energy   TEWEN  =     -2178.83163511
  -Hartree energ DENC   =      -382.34788041
  -exchange      EXHF   =         0.00000000
  -V(xc)+E(xc)   XCENC  =        64.06448227
  PAW double counting   =      2065.75261637    -2030.83594803
  entropy T*S    EENTRO =        -0.00162054
  eigenvalues    EBANDS =      -136.84553848
  atomic energy  EATOM  =      2428.19501064
  Solvation  Ediel_sol  =         0.00000000
  ---------------------------------------------------
  free energy    TOTEN  =        -6.35957895 eV

  energy without entropy =       -6.35795841  energy(sigma->0) =       -6.35876868


--------------------------------------------------------------------------------------------------------




--------------------------------------- Iteration      1(   4)  ---------------------------------------


     EDDAV:  cpu time      0.8593: real time      0.8641
       DOS:  cpu time      0.0005: real time      0.0005
    --------------------------------------------
      LOOP:  cpu time      0.8598: real time      0.8645

 eigenvalue-minimisations  :  8352
 total energy-change (2. order) :-0.2514092E-04  (-0.2513964E-04)
 number of electron      16.0000000 magnetization 
 augmentation part       16.0000000 magnetization 

 Free energy of the ion-electron system (eV)
  ---------------------------------------------------
  alpha Z        PSCENC =       164.49093433
  Ewald energy   TEWEN  =     -2178.83163511
  -Hartree energ DENC   =      -382.34788041
  -exchange      EXHF   =         0.00000000
  -V(xc)+E(xc)   XCENC  =        64.06448227
  PAW double counting   =      2065.75261637    -2030.83594803
  entropy T*S    EENTRO =        -0.00162054
  eigenvalues    EBANDS =      -136.84556361
  atomic energy  EATOM  =      2428.19501064
  Solvation  Ediel_sol  =         0.00000000
  ---------------------------------------------------
  free energy    TOTEN  =        -6.35960409 eV

  energy without entropy =       -6.35798355  energy(sigma->0) =       -6.35879382


--------------------------------------------------------------------------------------------------------




--------------------------------------- Iteration      1(   5)  ---------------------------------------


     EDDAV:  cpu time      0.6105: real time      0.6139
       DOS:  cpu time      0.0005: real time      0.0005
    CHARGE:  cpu time      0.0119: real time      0.0119
    MIXING:  cpu time      0.0002: real time      0.0002
    --------------------------------------------
      LOOP:  cpu time      0.6230: real time      0.6265

 eigenvalue-minimisations  :  6744
 total energy-change (2. order) : 0.7803465E-09  (-0.6356687E-09)
 number of electron      16.0000002 magnetization 
 augmentation part        3.9822833 magnetization 

 Broyden mixing:
  rms(total) = 0.16750E+01    rms(broyden)= 0.16749E+01
  rms(prec ) = 0.21786E+01
  weight for this iteration     100.00

 Free energy of the ion-electron system (eV)
  ---------------------------------------------------
  alpha Z        PSCENC =       164.49093433
  Ewald energy   TEWEN  =     -2178.83163511
  -Hartree energ DENC   =      -382.34788041
  -exchange      EXHF   =         0.00000000
  -V(xc)+E(xc)   XCENC  =        64.06448227
  PAW double counting   =      2065.75261637    -2030.83594803
  entropy T*S    EENTRO =        -0.00162054
  eigenvalues    EBANDS =      -136.84556361
  atomic energy  EATOM  =      2428.19501064
  Solvation  Ediel_sol  =         0.00000000
  ---------------------------------------------------
  free energy    TOTEN  =        -6.35960409 eV

  energy without entropy =       -6.35798355  energy(sigma->0) =       -6.35879382


--------------------------------------------------------------------------------------------------------




--------------------------------------- Iteration      1(   6)  ---------------------------------------


    POTLOK:  cpu time      0.0023: real time      0.0025
    SETDIJ:  cpu time      0.0020: real time      0.0020
     EDDAV:  cpu time      0.4770: real time      0.4797
       DOS:  cpu time      0.0005: real time      0.0005
    CHARGE:  cpu time      0.0119: real time      0.0119
    MIXING:  cpu time      0.0002: real time      0.0002
    --------------------------------------------
      LOOP:  cpu time      0.4939: real time      0.4969

 eigenvalue-minimisations  :  5952
 total energy-change (2. order) : 0.3207343E+00  (-0.1110294E+00)
 number of electron      16.0000002 magnetization 
 augmentation part        4.0880610 magnetization 

 Broyden mixing:
  rms(total) = 0.58594E+00    rms(broyden)= 0.58593E+00
  rms(prec ) = 0.68946E+00
  weight for this iteration     100.00

 eigenvalues of (default mixing * dielectric matrix)
  average eigenvalue GAMMA=   1.5188
  1.5188

 Free energy of the ion-electron system (eV)
  ---------------------------------------------------
  alpha Z        PSCENC =       164.49093433
  Ewald energy   TEWEN  =     -2178.83163511
  -Hartree energ DENC   =      -367.69873750
  -exchange      EXHF   =         0.00000000
  -V(xc)+E(xc)   XCENC  =        63.42908665
  PAW double counting   =      2268.38324801    -2235.57702757
  entropy T*S    EENTRO =        -0.00216613
  eigenvalues    EBANDS =      -148.42758312
  atomic energy  EATOM  =      2428.19501064
  Solvation  Ediel_sol  =         0.00000000
  ---------------------------------------------------
  free energy    TOTEN  =        -6.03886979 eV

  energy without entropy =       -6.03670366  energy(sigma->0) =       -6.03778672


--------------------------------------------------------------------------------------------------------




--------------------------------------- Iteration      1(   7)  ---------------------------------------


    POTLOK:  cpu time      0.0023: real time      0.0024
    SETDIJ:  cpu time      0.0019: real time      0.0019
     EDDAV:  cpu time      0.7505: real time      0.7546
       DOS:  cpu time      0.0005: real time      0.0005
    CHARGE:  cpu time      0.0113: real time      0.0113
    MIXING:  cpu time      0.0002: real time      0.0002
    --------------------------------------------
      LOOP:  cpu time      0.7666: real time      0.7710

 eigenvalue-minimisations  :  7920
 total energy-change (2. order) : 0.2150540E-01  (-0.9181289E-02)
 number of electron      16.0000002 magnetization 
 augmentation part        4.1172700 magnetization 

 Broyden mixing:
  rms(total) = 0.16828E+00    rms(broyden)= 0.16828E+00
  rms(prec ) = 0.19531E+00
  weight for this iteration     100.00

 eigenvalues of (default mixing * dielectric matrix)
  average eigenvalue GAMMA=   1.9794
  1.2281  2.7307

 Free energy of the ion-electron system (eV)
  ---------------------------------------------------
  alpha Z        PSCENC =       164.49093433
  Ewald energy   TEWEN  =     -2178.83163511
  -Hartree energ DENC   =      -363.28087996
  -exchange      EXHF   =         0.00000000
  -V(xc)+E(xc)   XCENC  =        63.22787806
  PAW double counting   =      2371.70268389    -2339.62160020
  entropy T*S    EENTRO =        -0.00227377
  eigenvalues    EBANDS =      -151.89748228
  atomic energy  EATOM  =      2428.19501064
  Solvation  Ediel_sol  =         0.00000000
  ---------------------------------------------------
  free energy    TOTEN  =        -6.01736440 eV

  energy without entropy =       -6.01509063  energy(sigma->0) =       -6.01622751


--------------------------------------------------------------------------------------------------------




--------------------------------------- Iteration      1(   8)  ---------------------------------------


    POTLOK:  cpu time      0.0021: real time      0.0022
    SETDIJ:  cpu time      0.0017: real time      0.0017
     EDDAV:  cpu time      0.4380: real time      0.4404
       DOS:  cpu time      0.0005: real time      0.0005
    CHARGE:  cpu time      0.0113: real time      0.0113
    MIXING:  cpu time      0.0002: real time      0.0002
    --------------------------------------------
      LOOP:  cpu time      0.4537: real time      0.4564

 eigenvalue-minimisations  :  5736
 total energy-change (2. order) : 0.1675366E-02  (-0.4647393E-03)
 number of electron      16.0000002 magnetization 
 augmentation part        4.1119163 magnetization 

 Broyden mixing:
  rms(total) = 0.19246E-01    rms(broyden)= 0.19241E-01
  rms(prec ) = 0.23127E-01
  weight for this iteration     100.00

 eigenvalues of (default mixing * dielectric matrix)
  average eigenvalue GAMMA=   1.5787
  1.0725  1.2245  2.4392

 Free energy of the ion-electron system (eV)
  ---------------------------------------------------
  alpha Z        PSCENC =       164.49093433
  Ewald energy   TEWEN  =     -2178.83163511
  -Hartree energ DENC   =      -363.33219320
  -exchange      EXHF   =         0.00000000
  -V(xc)+E(xc)   XCENC  =        63.21746554
  PAW double counting   =      2430.75168671    -2398.75067236
  entropy T*S    EENTRO =        -0.00229634
  eigenvalues    EBANDS =      -151.75398925
  atomic energy  EATOM  =      2428.19501064
  Solvation  Ediel_sol  =         0.00000000
  ---------------------------------------------------
  free energy    TOTEN  =        -6.01568903 eV

  energy without entropy =       -6.01339269  energy(sigma->0) =       -6.01454086


--------------------------------------------------------------------------------------------------------




--------------------------------------- Iteration      1(   9)  ---------------------------------------


    POTLOK:  cpu time      0.0021: real time      0.0022
    SETDIJ:  cpu time      0.0019: real time      0.0019
     EDDAV:  cpu time      0.6719: real time      0.6755
       DOS:  cpu time      0.0005: real time      0.0005
    CHARGE:  cpu time      0.0113: real time      0.0113
    MIXING:  cpu time      0.0002: real time      0.0002
    --------------------------------------------
      LOOP:  cpu time      0.6877: real time      0.6916

 eigenvalue-minimisations  :  7152
 total energy-change (2. order) : 0.8600911E-04  (-0.7663999E-05)
 number of electron      16.0000002 magnetization 
 augmentation part        4.1126202 magnetization 

 Broyden mixing:
  rms(total) = 0.15940E-02    rms(broyden)= 0.15928E-02
  rms(prec ) = 0.31826E-02
  weight for this iteration     100.00

 eigenvalues of (default mixing * dielectric matrix)
  average eigenvalue GAMMA=   1.8357
  1.0116  1.2165  2.7310  2.3836

 Free energy of the ion-electron system (eV)
  ---------------------------------------------------
  alpha Z        PSCENC =       164.49093433
  Ewald energy   TEWEN  =     -2178.83163511
  -Hartree energ DENC   =      -363.33884475
  -exchange      EXHF   =         0.00000000
  -V(xc)+E(xc)   XCENC  =        63.21906991
  PAW double counting   =      2425.40581854    -2393.37795271
  entropy T*S    EENTRO =        -0.00229257
  eigenvalues    EBANDS =      -151.77571131
  atomic energy  EATOM  =      2428.19501064
  Solvation  Ediel_sol  =         0.00000000
  ---------------------------------------------------
  free energy    TOTEN  =        -6.01560302 eV

  energy without entropy =       -6.01331045  energy(sigma->0) =       -6.01445674


--------------------------------------------------------------------------------------------------------




--------------------------------------- Iteration      1(  10)  ---------------------------------------


    POTLOK:  cpu time      0.0020: real time      0.0021
    SETDIJ:  cpu time      0.0017: real time      0.0017
     EDDAV:  cpu time      0.7000: real time      0.7039
       DOS:  cpu time      0.0005: real time      0.0005
    CHARGE:  cpu time      0.0113: real time      0.0113
    MIXING:  cpu time      0.0002: real time      0.0002
    --------------------------------------------
      LOOP:  cpu time      0.7157: real time      0.7197

 eigenvalue-minimisations  :  7440
 total energy-change (2. order) :-0.4848346E-05  (-0.4399062E-06)
 number of electron      16.0000002 magnetization 
 augmentation part        4.1126436 magnetization 

 Broyden mixing:
  rms(total) = 0.52157E-03    rms(broyden)= 0.52139E-03
  rms(prec ) = 0.54162E-03
  weight for this iteration     100.00

 eigenvalues of (default mixing * dielectric matrix)
  average eigenvalue GAMMA=   1.7350
  2.6779  2.3361  0.9848  1.4479  1.2282

 Free energy of the ion-electron system (eV)
  ---------------------------------------------------
  alpha Z        PSCENC =       164.49093433
  Ewald energy   TEWEN  =     -2178.83163511
  -Hartree energ DENC   =      -363.37058966
  -exchange      EXHF   =         0.00000000
  -V(xc)+E(xc)   XCENC  =        63.22031673
  PAW double counting   =      2427.16849060    -2395.11352155
  entropy T*S    EENTRO =        -0.00229133
  eigenvalues    EBANDS =      -151.77232252
  atomic energy  EATOM  =      2428.19501064
  Solvation  Ediel_sol  =         0.00000000
  ---------------------------------------------------
  free energy    TOTEN  =        -6.01560787 eV

  energy without entropy =       -6.01331654  energy(sigma->0) =       -6.01446220


--------------------------------------------------------------------------------------------------------




--------------------------------------- Iteration      1(  11)  ---------------------------------------


    POTLOK:  cpu time      0.0020: real time      0.0021
    SETDIJ:  cpu time      0.0018: real time      0.0018
     EDDAV:  cpu time      0.2752: real time      0.2767
       DOS:  cpu time      0.0005: real time      0.0005
    --------------------------------------------
      LOOP:  cpu time      0.2794: real time      0.2811

 eigenvalue-minimisations  :  3624
 total energy-change (2. order) : 0.4992762E-07  (-0.3623152E-09)
 number of electron      16.0000002 magnetization 
 augmentation part        4.1126436 magnetization 

 Free energy of the ion-electron system (eV)
  ---------------------------------------------------
  alpha Z        PSCENC =       164.49093433
  Ewald energy   TEWEN  =     -2178.83163511
  -Hartree energ DENC   =      -363.36993372
  -exchange      EXHF   =         0.00000000
  -V(xc)+E(xc)   XCENC  =        63.22028318
  PAW double counting   =      2427.03095308    -2394.97617483
  entropy T*S    EENTRO =        -0.00229133
  eigenvalues    EBANDS =      -151.77275406
  atomic energy  EATOM  =      2428.19501064
  Solvation  Ediel_sol  =         0.00000000
  ---------------------------------------------------
  free energy    TOTEN  =        -6.01560782 eV

  energy without entropy =       -6.01331649  energy(sigma->0) =       -6.01446215


--------------------------------------------------------------------------------------------------------




 average (electrostatic) potential at core
  the test charge radii are     0.9952
  (the norm of the test charge is              1.0000)
       1 -88.1789
 
 
 
 E-fermi :  12.7618     XC(G=0): -14.2226     alpha+bet :-17.9845

 Fermi energy:        12.7618351988

 k-point     1 :       0.0500    0.0500    0.0500
  band No.  band energies     occupation 
      1     -39.9145      2.00000
      2     -39.9022      2.00000
      3     -39.9022      2.00000
      4       2.2129      2.00000
      5       8.6789      2.00000
      6       8.7712      2.00000
      7       8.7712      2.00000
      8      10.9922      2.00000
      9      10.9922      2.00000
     10      27.4179      0.00000
     11      31.8492      0.00000
     12      32.5674      0.00000
     13      32.5674      0.00000
     14      38.5247      0.00000
     15      43.9969      0.00000
     16      44.7523      0.00000
     17      44.7523      0.00000
     18      48.2930      0.00000
     19      48.2930      0.00000
     20      49.2437      0.00000
     21      53.2954      0.00000
     22      54.9468      0.00000
     23      54.9468      0.00000
     24      62.2116      0.00000

 k-point     2 :       0.1500    0.0500    0.0500
  band No.  band energies     occupation 
      1     -39.9790      2.00000
      2     -39.9218      2.00000
      3     -39.9082      2.00000
      4       2.7538      2.00000
      5       8.4301      2.00000
      6       8.9620      2.00000
      7       9.0035      2.00000
      8      10.7477      2.00000
      9      11.0512      2.00000
     10      28.2264      0.00000
     11      30.1419      0.00000
     12      32.7517      0.00000
     13      33.7396      0.00000
     14      39.4233      0.00000
     15      41.8538      0.00000
     16      42.2242      0.00000
     17      43.7602      0.00000
     18      46.5106      0.00000
     19      49.7229      0.00000
     20      52.0471      0.00000
     21      53.2801      0.00000
     22      53.6744      0.00000
     23      56.1237      0.00000
     24      62.8609      0.00000

 k-point     3 :       0.2500    0.0500    0.0500
  band No.  band energies     occupation 
      1     -40.1195      2.00000
      2     -39.9470      2.00000
      3     -39.9269      2.00000
      4       3.9015      2.00000
      5       8.1950      2.00000
      6       9.1603      2.00000
      7       9.2023      2.00000
      8      10.7276      2.00000
      9      11.3310      2.00000
     10      27.3235      0.00000
     11      29.3066      0.00000
     12      34.0040      0.00000
     13      35.9513      0.00000
     14      36.0220      0.00000
     15      39.3969      0.00000
     16      39.6296      0.00000
     17      46.0944      0.00000
     18      46.8908      0.00000
     19      50.3019      0.00000
     20      52.2620      0.00000
     21      53.2794      0.00000
     22      55.0387      0.00000
     23      56.7271      0.00000
     24      63.1807      0.00000

 k-point     4 :       0.3500    0.0500    0.0500
  band No.  band energies     occupation 
      1     -40.2792      2.00000
      2     -39.9714      2.00000
      3     -39.9509      2.00000
      4       4.8913      2.00000
      5       8.8067      2.00000
      6       8.9966      2.00000
      7       9.0315      2.00000
      8      11.4336      2.00000
      9      12.1278      2.00000
     10      23.9523      0.00000
     11      28.4848      0.00000
     12      33.4891      0.00000
     13      35.7449      0.00000
     14      36.7835      0.00000
     15      38.7467      0.00000
     16      39.2452      0.00000
     17      47.2744      0.00000
     18      49.5846      0.00000
     19      51.6280      0.00000
     20      52.7076      0.00000
     21      53.2820      0.00000
     22      55.5712      0.00000
     23      57.4038      0.00000
     24      62.2039      0.00000

 k-point     5 :       0.4500    0.0500    0.0500
  band No.  band energies     occupation 
      1     -40.3963      2.00000
      2     -39.9863      2.00000
      3     -39.9720      2.00000
      4       5.1207      2.00000
      5       8.6834      2.00000
      6       8.7896      2.00000
      7      10.6517      2.00000
      8      12.3447      2.00000
      9      13.0583      0.00000
     10      20.3629      0.00000
     11      27.3127      0.00000
     12      31.9042      0.00000
     13      32.9459      0.00000
     14      39.9015      0.00000
     15      41.0874      0.00000
     16      41.5845      0.00000
     17      47.8407      0.00000
     18      49.3188      0.00000
     19      50.5320      0.00000
     20      53.2860      0.00000
     21      55.0549      0.00000
     22      57.8853      0.00000
     23      58.0192      0.00000
     24      59.2867      0.00000

 k-point     6 :      -0.4500    0.0500    0.0500
  band No.  band energies     occupation 
      1     -40.4288      2.00000
      2     -39.9865      2.00000
      3     -39.9811      2.00000
      4       5.1187      2.00000
      5       8.5869      2.00000
      6       8.7338      2.00000
      7      11.4069      2.00000
      8      12.7963      0.32915
      9      13.4788      0.00000
     10      18.8704      0.00000
     11      27.0037      0.00000
     12      31.7689      0.00000
     13      31.8053      0.00000
     14      41.3306      0.00000
     15      41.5721      0.00000
     16      43.0656      0.00000
     17      48.0435      0.00000
     18      48.8047      0.00000
     19      49.1930      0.00000
     20      53.2912      0.00000
     21      56.1462      0.00000
     22      56.7437      0.00000
     23      58.9875      0.00000
     24      59.7344      0.00000

 k-point     7 :      -0.3500    0.0500    0.0500
  band No.  band energies     occupation 
      1     -40.3656      2.00000
      2     -39.9763      2.00000
      3     -39.9723      2.00000
      4       5.0963      2.00000
      5       8.7264      2.00000
      6       8.8921      2.00000
      7       9.9730      2.00000
      8      12.3955      2.00000
      9      12.4775      2.00000
     10      21.4873      0.00000
     11      27.6209      0.00000
     12      32.5524      0.00000
     13      33.4128      0.00000
     14      39.5891      0.00000
     15      39.7583      0.00000
     16      40.7796      0.00000
     17      47.1414      0.00000
     18      50.3643      0.00000
     19      51.0028      0.00000
     20      53.2824      0.00000
     21      54.9592      0.00000
     22      56.0411      0.00000
     23      58.0571      0.00000
     24      60.0297      0.00000

 k-point     8 :      -0.2500    0.0500    0.0500
  band No.  band energies     occupation 
      1     -40.2286      2.00000
      2     -39.9587      2.00000
      3     -39.9488      2.00000
      4       4.6449      2.00000
      5       8.4425      2.00000
      6       9.0321      2.00000
      7       9.1421      2.00000
      8      11.2704      2.00000
      9      11.7143      2.00000
     10      25.1497      0.00000
     11      28.9533      0.00000
     12      34.2561      0.00000
     13      35.5143      0.00000
     14      37.2680      0.00000
     15      37.8720      0.00000
     16      38.6485      0.00000
     17      46.8183      0.00000
     18      49.6452      0.00000
     19      50.6109      0.00000
     20      52.9675      0.00000
     21      53.2796      0.00000
     22      54.2843      0.00000
     23      57.8132      0.00000
     24      63.3534      0.00000

 k-point     9 :      -0.1500    0.0500    0.0500
  band No.  band energies     occupation 
      1     -40.0666      2.00000
      2     -39.9343      2.00000
      3     -39.9246      2.00000
      4       3.4838      2.00000
      5       8.2093      2.00000
      6       9.1537      2.00000
      7       9.1781      2.00000
      8      10.6677      2.00000
      9      11.1671      2.00000
     10      28.3430      0.00000
     11      29.0786      0.00000
     12      33.7392      0.00000
     13      34.6474      0.00000
     14      37.5119      0.00000
     15      39.5825      0.00000
     16      41.2279      0.00000
     17      44.6022      0.00000
     18      46.6589      0.00000
     19      50.6009      0.00000
     20      52.4433      0.00000
     21      53.2817      0.00000
     22      53.6465      0.00000
     23      56.9787      0.00000
     24      63.0950      0.00000

 k-point    10 :      -0.0500    0.0500    0.0500
  band No.  band energies     occupation 
      1     -39.9440      2.00000
      2     -39.9130      2.00000
      3     -39.9094      2.00000
      4       2.4887      2.00000
      5       8.5103      2.00000
      6       8.9008      2.00000
      7       8.9086      2.00000
      8      10.7897      2.00000
      9      11.0740      2.00000
     10      27.8487      0.00000
     11      31.0848      0.00000
     12      32.6357      0.00000
     13      32.8877      0.00000
     14      39.8112      0.00000
     15      42.3369      0.00000
     16      42.6802      0.00000
     17      44.8304      0.00000
     18      46.1864      0.00000
     19      50.3028      0.00000
     20      50.8066      0.00000
     21      53.2800      0.00000
     22      53.5241      0.00000
     23      56.0483      0.00000
     24      62.7109      0.00000

 k-point    11 :       0.1500    0.1500    0.0500
  band No.  band energies     occupation 
      1     -39.9923      2.00000
      2     -39.9315      2.00000
      3     -39.9280      2.00000
      4       3.0213      2.00000
      5       8.1822      2.00000
      6       9.1752      2.00000
      7       9.1826      2.00000
      8      10.4368      2.00000
      9      11.2322      2.00000
     10      28.6609      0.00000
     11      30.3875      0.00000
     12      32.6164      0.00000
     13      32.9787      0.00000
     14      39.9297      0.00000
     15      40.7622      0.00000
     16      42.6578      0.00000
     17      42.9624      0.00000
     18      45.4158      0.00000
     19      51.1932      0.00000
     20      52.4471      0.00000
     21      52.5889      0.00000
     22      53.2757      0.00000
     23      56.9225      0.00000
     24      63.9443      0.00000

 k-point    12 :       0.2500    0.1500    0.0500
  band No.  band energies     occupation 
      1     -40.0912      2.00000
      2     -39.9670      2.00000
      3     -39.9418      2.00000
      4       3.9786      2.00000
      5       7.8050      2.00000
      6       9.2919      2.00000
      7       9.5687      2.00000
      8      10.3191      2.00000
      9      11.5346      2.00000
     10      28.6761      0.00000
     11      29.8020      0.00000
     12      32.3010      0.00000
     13      33.6288      0.00000
     14      37.3813      0.00000
     15      39.7596      0.00000
     16      41.0473      0.00000
     17      44.7219      0.00000
     18      46.1877      0.00000
     19      50.0579      0.00000
     20      51.7653      0.00000
     21      53.2744      0.00000
     22      55.3718      0.00000
     23      58.3365      0.00000
     24      63.8021      0.00000

 k-point    13 :       0.3500    0.1500    0.0500
  band No.  band energies     occupation 
      1     -40.2315      2.00000
      2     -39.9987      2.00000
      3     -39.9651      2.00000
      4       5.1318      2.00000
      5       7.8543      2.00000
      6       8.8352      2.00000
      7       9.5777      2.00000
      8      11.2240      2.00000
      9      12.3149      2.00000
     10      25.4486      0.00000
     11      29.4818      0.00000
     12      31.7351      0.00000
     13      33.7754      0.00000
     14      37.9921      0.00000
     15      38.8402      0.00000
     16      40.8133      0.00000
     17      44.0173      0.00000
     18      49.6411      0.00000
     19      51.5063      0.00000
     20      51.7097      0.00000
     21      53.2762      0.00000
     22      55.4826      0.00000
     23      59.8769      0.00000
     24      61.6801      0.00000

[...]
     13      34.3750      0.00000
     14      39.0695      0.00000
     15      40.1961      0.00000
     16      43.4784      0.00000
     17      47.7615      0.00000
     18      48.7953      0.00000
     19      51.8063      0.00000
     20      53.2794      0.00000
     21      53.7988      0.00000
     22      56.1850      0.00000
     23      59.0518      0.00000
     24      60.1453      0.00000

 k-point   100 :      -0.3500   -0.3500    0.2500
  band No.  band energies     occupation 
      1     -40.3238      2.00000
      2     -40.2092      2.00000
      3     -40.0608      2.00000
      4       6.1212      2.00000
      5       6.9713      2.00000
      6       9.6663      2.00000
      7      11.2748      2.00000
      8      12.5976      2.00000
      9      18.6444      0.00000
     10      19.3462      0.00000
     11      23.4844      0.00000
     12      27.7078      0.00000
     13      32.9731      0.00000
     14      39.8247      0.00000
     15      40.4561      0.00000
     16      41.8524      0.00000
     17      49.7855      0.00000
     18      50.8184      0.00000
     19      50.8349      0.00000
     20      53.2805      0.00000
     21      53.4752      0.00000
     22      55.4225      0.00000
     23      57.8506      0.00000
     24      59.7591      0.00000

 k-point   101 :       0.3500    0.3500    0.3500
  band No.  band energies     occupation 
      1     -40.3281      2.00000
      2     -39.9624      2.00000
      3     -39.9624      2.00000
      4       4.9423      2.00000
      5       8.8890      2.00000
      6       8.8890      2.00000
      7       9.5660      2.00000
      8      12.0071      2.00000
      9      12.0071      2.00000
     10      22.6827      0.00000
     11      27.8956      0.00000
     12      34.0212      0.00000
     13      34.0212      0.00000
     14      38.5814      0.00000
     15      39.1051      0.00000
     16      39.1051      0.00000
     17      49.0595      0.00000
     18      49.0595      0.00000
     19      50.9134      0.00000
     20      53.2842      0.00000
     21      54.6286      0.00000
     22      56.3234      0.00000
     23      56.3234      0.00000
     24      62.3422      0.00000

 k-point   102 :       0.4500    0.3500    0.3500
  band No.  band energies     occupation 
      1     -40.3565      2.00000
      2     -40.0137      2.00000
      3     -39.9682      2.00000
      4       5.3633      2.00000
      5       8.5984      2.00000
      6       9.0371      2.00000
      7       9.5503      2.00000
      8      11.8318      2.00000
      9      13.4884      0.00000
     10      21.5815      0.00000
     11      27.9700      0.00000
     12      31.0184      0.00000
     13      33.9858      0.00000
     14      37.9544      0.00000
     15      40.9772      0.00000
     16      42.0209      0.00000
     17      46.4636      0.00000
     18      49.4102      0.00000
     19      51.9726      0.00000
     20      53.0479      0.00000
     21      53.2798      0.00000
     22      57.2690      0.00000
     23      58.0393      0.00000
     24      59.5448      0.00000

 k-point   103 :      -0.4500    0.3500    0.3500
  band No.  band energies     occupation 
      1     -40.3437      2.00000
      2     -40.1147      2.00000
      3     -39.9935      2.00000
      4       6.2640      2.00000
      5       7.9931      2.00000
      6       8.9520      2.00000
      7       9.6709      2.00000
      8      11.7917      2.00000
      9      15.4196      0.00000
     10      20.9454      0.00000
     11      26.8957      0.00000
     12      29.9140      0.00000
     13      32.6650      0.00000
     14      37.8400      0.00000
     15      40.8377      0.00000
     16      44.6440      0.00000
     17      47.8996      0.00000
     18      49.3886      0.00000
     19      50.7286      0.00000
     20      51.8052      0.00000
     21      53.2800      0.00000
     22      55.3836      0.00000
     23      59.6739      0.00000
     24      60.4016      0.00000

 k-point   104 :      -0.3500    0.3500    0.3500
  band No.  band energies     occupation 
      1     -40.2921      2.00000
      2     -40.2280      2.00000
      3     -40.0290      2.00000
      4       6.6023      2.00000
      5       7.6582      2.00000
      6       8.7157      2.00000
      7      10.5584      2.00000
      8      12.0137      2.00000
      9      16.9541      0.00000
     10      21.3308      0.00000
     11      23.5642      0.00000
     12      30.2376      0.00000
     13      31.5285      0.00000
     14      39.1445      0.00000
     15      40.3124      0.00000
     16      42.8953      0.00000
     17      50.1528      0.00000
     18      50.8696      0.00000
     19      51.2494      0.00000
     20      53.2827      0.00000
     21      53.5259      0.00000
     22      53.8501      0.00000
     23      56.0832      0.00000
     24      61.5702      0.00000

 k-point   105 :       0.4500    0.4500    0.3500
  band No.  band energies     occupation 
      1     -40.3876      2.00000
      2     -40.0006      2.00000
      3     -39.9906      2.00000
      4       5.3567      2.00000
      5       8.4585      2.00000
      6       9.0404      2.00000
      7       9.8816      2.00000
      8      12.7733      0.74611
      9      13.5190      0.00000
     10      20.3387      0.00000
     11      27.7056      0.00000
     12      31.4424      0.00000
     13      32.2026      0.00000
     14      40.0624      0.00000
     15      41.3494      0.00000
     16      42.1753      0.00000
     17      45.4874      0.00000
     18      50.6186      0.00000
     19      51.2000      0.00000
     20      53.2810      0.00000
     21      53.6028      0.00000
     22      57.3664      0.00000
     23      58.2875      0.00000
     24      59.2829      0.00000

 k-point   106 :      -0.4500    0.4500    0.3500
  band No.  band energies     occupation 
      1     -40.3785      2.00000
      2     -40.0743      2.00000
      3     -40.0049      2.00000
      4       5.9525      2.00000
      5       7.9777      2.00000
      6       9.3095      2.00000
      7       9.5750      2.00000
      8      12.5162      2.00000
      9      15.6014      0.00000
     10      19.4249      0.00000
     11      28.1018      0.00000
     12      29.1330      0.00000
     13      31.9810      0.00000
     14      39.3976      0.00000
     15      41.6067      0.00000
     16      44.6204      0.00000
     17      45.6151      0.00000
     18      49.4933      0.00000
     19      51.5309      0.00000
     20      52.0906      0.00000
     21      53.2789      0.00000
     22      55.5944      0.00000
     23      59.4386      0.00000
     24      60.9848      0.00000

 k-point   107 :      -0.3500    0.4500    0.3500
  band No.  band energies     occupation 
      1     -40.3317      2.00000
      2     -40.1722      2.00000
      3     -40.0385      2.00000
      4       6.7248      2.00000
      5       7.4431      2.00000
      6       8.6907      2.00000
      7      10.3215      2.00000
      8      12.4393      2.00000
      9      17.6425      0.00000
     10      19.2759      0.00000
     11      25.6513      0.00000
     12      28.2555      0.00000
     13      32.7543      0.00000
     14      38.6694      0.00000
     15      42.0072      0.00000
     16      43.8355      0.00000
     17      46.6332      0.00000
     18      48.3020      0.00000
     19      53.2799      0.00000
     20      53.4213      0.00000
     21      53.8026      0.00000
     22      54.2195      0.00000
     23      57.8225      0.00000
     24      60.3535      0.00000

 k-point   108 :      -0.4500   -0.4500    0.3500
  band No.  band energies     occupation 
      1     -40.3743      2.00000
      2     -40.1016      2.00000
      3     -40.0159      2.00000
      4       6.0956      2.00000
      5       7.8224      2.00000
      6       9.2780      2.00000
      7       9.7167      2.00000
      8      12.6815      1.97687
      9      16.7314      0.00000
     10      18.4993      0.00000
     11      27.3923      0.00000
     12      30.3594      0.00000
     13      30.3888      0.00000
     14      40.5046      0.00000
     15      40.8307      0.00000
     16      43.9417      0.00000
     17      46.3217      0.00000
     18      49.8848      0.00000
     19      51.7973      0.00000
     20      52.2979      0.00000
     21      53.2827      0.00000
     22      55.0673      0.00000
     23      58.8117      0.00000
     24      61.4688      0.00000

 k-point   109 :       0.4500    0.4500    0.4500
  band No.  band energies     occupation 
      1     -40.4223      2.00000
      2     -39.9763      2.00000
      3     -39.9763      2.00000
      4       5.0362      2.00000
      5       8.6869      2.00000
      6       8.6869      2.00000
      7      11.6536      2.00000
      8      12.6874      1.96485
      9      12.6874      1.96485
     10      19.4424      0.00000
     11      26.9534      0.00000
     12      32.1808      0.00000
     13      32.1808      0.00000
     14      41.2337      0.00000
     15      41.2337      0.00000
     16      42.0991      0.00000
     17      48.7861      0.00000
     18      48.7861      0.00000
     19      49.1826      0.00000
     20      53.2868      0.00000
     21      57.2700      0.00000
     22      57.2700      0.00000
     23      58.8400      0.00000
     24      59.3157      0.00000

 k-point   110 :      -0.4500    0.4500    0.4500
  band No.  band energies     occupation 
      1     -40.4172      2.00000
      2     -40.0157      2.00000
      3     -39.9864      2.00000
      4       5.3646      2.00000
      5       8.3996      2.00000
      6       8.9271      2.00000
      7      10.6282      2.00000
      8      12.6482      1.99869
      9      14.5678      0.00000
     10      18.8025      0.00000
     11      27.4181      0.00000
     12      30.8264      0.00000
     13      31.8357      0.00000
     14      40.8496      0.00000
     15      41.3070      0.00000
     16      43.7841      0.00000
     17      48.1606      0.00000
     18      49.0046      0.00000
     19      49.0588      0.00000
     20      53.2820      0.00000
     21      54.6648      0.00000
     22      55.3020      0.00000
     23      59.6450      0.00000
     24      60.0845      0.00000


--------------------------------------------------------------------------------------------------------


 soft charge-density along one line, spin component           1
         0         1         2         3         4         5         6         7         8         9
 total charge-density along one line
 
 pseudopotential strength for first ion, spin component:           1
-31.195  -0.000  -0.000  10.248   0.000   0.000  -0.000   0.000
 -0.000 -31.195  -0.000   0.000  10.248   0.000  -0.000  -0.000
 -0.000  -0.000 -31.195   0.000   0.000  10.248  -0.000  -0.000
 10.248   0.000   0.000  16.444  -0.000  -0.000  -0.000  -0.000
  0.000  10.248   0.000  -0.000  16.444  -0.000   0.000   0.000
  0.000   0.000  10.248  -0.000  -0.000  16.444   0.000   0.000
 -0.000  -0.000  -0.000  -0.000   0.000   0.000  -3.396   0.000
  0.000  -0.000  -0.000  -0.000   0.000   0.000   0.000  -3.396
  0.000  -0.000   0.000  -0.000   0.000  -0.000   0.000  -0.000
 -0.000  -0.000   0.000   0.000   0.000  -0.000   0.000   0.000
  0.000   0.000  -0.000  -0.000  -0.000   0.000   0.000   0.000
 -0.000  -0.000  -0.000   0.000  -0.000   0.000  -3.588   0.000
  0.000  -0.000  -0.000   0.000   0.000   0.000   0.000  -3.588
 -0.000   0.000   0.000  -0.000   0.000  -0.000   0.000  -0.000
 -0.000  -0.000   0.000   0.000   0.000  -0.000   0.000   0.000
  0.000   0.000  -0.000  -0.000  -0.000  -0.000   0.000   0.000
  0.000  -0.000   0.000   0.000   0.000   0.000   0.000   0.000
 -0.000  -0.000  -0.000  -0.000  -0.000  -0.000  -0.000  -0.000
 total augmentation occupancy for first ion, spin component:           1
  2.003  -0.000   0.000  -0.022   0.000   0.000   0.000   0.000   0.000   0.000   0.000   0.000   0.000   0.000   0.000   0.000
 -0.000   2.003   0.000   0.000  -0.022   0.000   0.000   0.000   0.000   0.000   0.000   0.000   0.000   0.000   0.000   0.000
  0.000   0.000   2.003   0.000  -0.000  -0.022   0.000   0.000   0.000   0.000   0.000   0.000   0.000   0.000   0.000   0.000
 -0.022   0.000   0.000   0.055   0.000   0.000   0.000   0.000   0.000   0.000   0.000   0.000   0.000   0.000   0.000   0.000
  0.000  -0.022  -0.000   0.000   0.055  -0.000   0.000   0.000   0.000   0.000   0.000   0.000   0.000   0.000   0.000   0.000
  0.000  -0.000  -0.022  -0.000  -0.000   0.055   0.000   0.000   0.000   0.000   0.000   0.000   0.000   0.000   0.000   0.000
  0.000   0.000   0.000   0.000   0.000   0.000   6.044  -0.000  -0.000  -0.000  -0.000  -3.575   0.000   0.000   0.000   0.000
  0.000   0.000   0.000   0.000   0.000   0.000   0.000   6.044   0.000  -0.000   0.000  -0.000  -3.575  -0.000   0.000  -0.000
  0.000   0.000   0.000   0.000   0.000   0.000   0.000   0.000   4.993   0.000   0.000   0.000  -0.000  -2.885   0.000  -0.000
  0.000   0.000   0.000   0.000   0.000   0.000  -0.000   0.000   0.000   6.044   0.000   0.000   0.000   0.000  -3.575  -0.000
  0.000   0.000   0.000   0.000   0.000   0.000  -0.000   0.000   0.000   0.000   4.993  -0.000  -0.000  -0.000  -0.000  -2.885
  0.000   0.000   0.000   0.000   0.000   0.000  -3.575  -0.000   0.000   0.000   0.000   2.864  -0.000  -0.000  -0.000  -0.000
  0.000   0.000   0.000   0.000   0.000   0.000  -0.000  -3.575  -0.000   0.000  -0.000  -0.000   2.864  -0.000  -0.000   0.000
  0.000   0.000   0.000   0.000   0.000   0.000   0.000  -0.000  -2.885   0.000  -0.000   0.000   0.000   2.644  -0.000   0.000
  0.000   0.000   0.000   0.000   0.000   0.000   0.000   0.000  -0.000  -3.575  -0.000  -0.000  -0.000  -0.000   2.864   0.000
  0.000   0.000   0.000   0.000   0.000   0.000   0.000   0.000  -0.000  -0.000  -2.885  -0.000   0.000   0.000   0.000   2.644
  0.000   0.000   0.000   0.000   0.000   0.000   0.000  -0.000  -0.000   0.000  -0.000  -0.000   0.000   0.000   0.000   0.000
  0.000   0.000   0.000   0.000   0.000   0.000   0.000  -0.000   0.000  -0.000  -0.000   0.000   0.000   0.000  -0.000   0.000


------------------------ aborting loop because EDIFF is reached ----------------------------------------





 total charge

# of ion       s       p       d       tot
------------------------------------------
    1        0.355   6.098   7.080  13.533
 
    CHARGE:  cpu time      0.0115: real time      0.0116
    FORLOC:  cpu time      0.0001: real time      0.0001
    FORNL :  cpu time      0.0064: real time      0.0064
    STRESS:  cpu time      0.1130: real time      0.1135
    FORCOR:  cpu time      0.0017: real time      0.0017
    FORHAR:  cpu time      0.0003: real time      0.0003
    MIXING:  cpu time      0.0002: real time      0.0002
    OFIELD:  cpu time      0.0000: real time      0.0000

  FORCE on cell =-STRESS in cart. coord.  units (eV):
  Direction    XX          YY          ZZ          XY          YZ          ZX
  --------------------------------------------------------------------------------------
  Alpha Z   164.49093   164.49093   164.49093
  Ewald    -726.27724  -726.27724  -726.27724     0.00000     0.00000    -0.00000
  Hartree   121.12237   121.12237   121.12237     0.00000     0.00000     0.00000
  E(xc)     -85.74428   -85.74428   -85.74428     0.00000     0.00000     0.00000
  Local     133.63878   133.63878   133.63878    -0.00004    -0.00004    -0.00004
  n-local   -28.94289   -26.06493   -31.68396     3.37371    -3.18235     0.15416
  augment    73.30715    73.30715    73.30715     0.00004     0.00004     0.00004
  Kinetic   349.10508   354.72317   346.31448     4.68967    -4.06630    -0.58434
  Fock        0.00000     0.00000     0.00000     0.00000     0.00000     0.00000
  -------------------------------------------------------------------------------------
  Total       1.68804     1.68804     1.68804    -0.00000     0.00000     0.00000
  in kB     185.41629   185.41629   185.41629    -0.00000     0.00000     0.00000
  external pressure =      185.42 kB  Pullay stress =        0.00 kB


 VOLUME and BASIS-vectors are now :
 -----------------------------------------------------------------------------
  energy-cutoff  :      425.00
  volume of cell :       14.59
      direct lattice vectors                 reciprocal lattice vectors
     0.000000000  1.939271657  1.939271657    -0.257828757  0.257828757  0.257828757
     1.939271657  0.000000000  1.939271657     0.257828757 -0.257828757  0.257828757
     1.939271657  1.939271657  0.000000000     0.257828757  0.257828757 -0.257828757

  length of vectors
     2.742544278  2.742544278  2.742544278     0.446572506  0.446572506  0.446572506


 FORCES acting on ions
    electron-ion (+dipol)            ewald-force                    non-local-force                 convergence-correction
 -----------------------------------------------------------------------------------------------
   -.276E-14 -.240E-14 0.237E-15   0.222E-15 -.491E-15 -.107E-13   0.000E+00 -.258E-25 0.129E-25   0.788E-14 -.355E-13 0.181E-14
 -----------------------------------------------------------------------------------------------
   -.276E-14 -.240E-14 0.237E-15   0.222E-15 -.491E-15 -.107E-13   0.000E+00 -.258E-25 0.129E-25   0.788E-14 -.355E-13 0.181E-14
 
 
 POSITION                                       TOTAL-FORCE (eV/Angst)
 -----------------------------------------------------------------------------------
      0.00000      0.00000      0.00000         0.000000     -0.000000      0.000000
 -----------------------------------------------------------------------------------
    total drift:                                0.000000     -0.000000     -0.000000


--------------------------------------------------------------------------------------------------------



  FREE ENERGIE OF THE ION-ELECTRON SYSTEM (eV)
  ---------------------------------------------------
  free  energy   TOTEN  =        -6.01560782 eV

  energy  without entropy=       -6.01331649  energy(sigma->0) =       -6.01446215
 


--------------------------------------------------------------------------------------------------------


    POTLOK:  cpu time      0.0040: real time      0.0040


--------------------------------------------------------------------------------------------------------




--------------------------------------------------------------------------------------------------------


  
 reached required accuracy - stopping structural energy minimisation
 writing wavefunctions
     LOOP+:  cpu time      6.7664: real time      6.8741
    4ORBIT:  cpu time      0.0000: real time      0.0000



 total charge

# of ion       s       p       d       tot
------------------------------------------
    1        0.355   6.098   7.080  13.533
 

 total amount of memory used by VASP MPI-rank0    36033. kBytes
=======================================================================

   base      :      30000. kBytes
   nonl-proj :       4947. kBytes
   fftplans  :        113. kBytes
   grid      :        367. kBytes
   one-center:         15. kBytes
   wavefun   :        591. kBytes
 
  
  
 General timing and accounting informations for this job:
 ========================================================
  
                  Total CPU time used (sec):        7.877
                            User time (sec):        7.380
                          System time (sec):        0.497
                         Elapsed time (sec):        9.350
  
                   Maximum memory used (kb):      224988.
                   Average memory used (kb):          N/A
  
                          Minor page faults:        27009
                          Major page faults:           62
                 Voluntary context switches:         2619
