PROCAR lm decomposed
# of k-points:  110         # of bands:   24         # of ions:    1

 k-point     1 :    0.05000000 0.05000000 0.05000000     weight = 0.00200000

band     1 # energy  -39.91448537 # occ.  2.00000000
 
ion      s     py     pz     px    dxy    dyz    dz2    dxz  x2-y2    tot
    1  0.000  0.332  0.332  0.332  0.000  0.000  0.000  0.000  0.000  0.997
 
band     2 # energy  -39.90223251 # occ.  2.00000000
 
ion      s     py     pz     px    dxy    dyz    dz2    dxz  x2-y2    tot
    1  0.000  0.002  0.528  0.467  0.000  0.000  0.000  0.000  0.000  0.997
 
band     3 # energy  -39.90223251 # occ.  2.00000000
 
ion      s     py     pz     px    dxy    dyz    dz2    dxz  x2-y2    tot
    1  0.000  0.663  0.136  0.198  0.000  0.000  0.000  0.000  0.000  0.997
 
band     4 # energy    2.21286442 # occ.  2.00000000
 
ion      s     py     pz     px    dxy    dyz    dz2    dxz  x2-y2    tot
    1  0.412  0.000  0.000  0.000  0.000  0.000  0.000  0.000  0.000  0.414
 
band     5 # energy    8.67890664 # occ.  2.00000000
 
ion      s     py     pz     px    dxy    dyz    dz2    dxz  x2-y2    tot
    1  0.000  0.000  0.000  0.000  0.282  0.282  0.000  0.282  0.000  0.847
 
band     6 # energy    8.77121565 # occ.  2.00000000
 
ion      s     py     pz     px    dxy    dyz    dz2    dxz  x2-y2    tot
    1  0.000  0.000  0.000  0.000  0.000  0.428  0.000  0.423  0.000  0.852
 
band     7 # energy    8.77121565 # occ.  2.00000000
 
ion      s     py     pz     px    dxy    dyz    dz2    dxz  x2-y2    tot
    1  0.000  0.000  0.000  0.000  0.567  0.140  0.000  0.144  0.000  0.852
 
band     8 # energy   10.99219570 # occ.  2.00000000
 
ion      s     py     pz     px    dxy    dyz    dz2    dxz  x2-y2    tot
    1  0.000  0.000  0.000  0.000  0.000  0.000  0.000  0.000  0.914  0.914
 
band     9 # energy   10.99219570 # occ.  2.00000000
 
ion      s     py     pz     px    dxy    dyz    dz2    dxz  x2-y2    tot
    1  0.000  0.000  0.000  0.000  0.000  0.000  0.914  0.000  0.000  0.914
 
band    10 # energy   27.41790494 # occ.  0.00000000
 
ion      s     py     pz     px    dxy    dyz    dz2    dxz  x2-y2    tot
    1  0.000  0.000  0.000  0.000  0.002  0.002  0.000  0.002  0.000  0.007
 
band    11 # energy   31.84922932 # occ.  0.00000000
 
ion      s     py     pz     px    dxy    dyz    dz2    dxz  x2-y2    tot
    1  0.009  0.021  0.021  0.021  0.002  0.002  0.000  0.002  0.000  0.075
 
band    12 # energy   32.56743612 # occ.  0.00000000
 
ion      s     py     pz     px    dxy    dyz    dz2    dxz  x2-y2    tot
    1  0.000  0.036  0.000  0.032  0.000  0.001  0.000  0.001  0.003  0.072
 
band    13 # energy   32.56743612 # occ.  0.00000000
 
ion      s     py     pz     px    dxy    dyz    dz2    dxz  x2-y2    tot
    1  0.000  0.009  0.045  0.013  0.001  0.000  0.003  0.000  0.000  0.072
 
band    14 # energy   38.52471448 # occ.  0.00000000
 
ion      s     py     pz     px    dxy    dyz    dz2    dxz  x2-y2    tot
    1  0.045  0.005  0.005  0.005  0.001  0.001  0.000  0.001  0.000  0.061
 
band    15 # energy   43.99693467 # occ.  0.00000000
 
ion      s     py     pz     px    dxy    dyz    dz2    dxz  x2-y2    tot
    1  0.008  0.055  0.055  0.055  0.114  0.114  0.000  0.114  0.000  0.514
 
band    16 # energy   44.75227081 # occ.  0.00000000
 
ion      s     py     pz     px    dxy    dyz    dz2    dxz  x2-y2    tot
    1  0.000  0.047  0.001  0.037  0.003  0.189  0.000  0.240  0.002  0.518
 
band    17 # energy   44.75227081 # occ.  0.00000000
 
ion      s     py     pz     px    dxy    dyz    dz2    dxz  x2-y2    tot
    1  0.000  0.009  0.056  0.019  0.285  0.099  0.002  0.048  0.000  0.518
 
band    18 # energy   48.29303578 # occ.  0.00000000
 
ion      s     py     pz     px    dxy    dyz    dz2    dxz  x2-y2    tot
    1  0.000  0.301  0.000  0.283  0.000  0.040  0.000  0.043  0.019  0.687
 
band    19 # energy   48.29303578 # occ.  0.00000000
 
ion      s     py     pz     px    dxy    dyz    dz2    dxz  x2-y2    tot
    1  0.000  0.089  0.390  0.106  0.056  0.015  0.019  0.013  0.000  0.687
 
band    20 # energy   49.24367595 # occ.  0.00000000
 
ion      s     py     pz     px    dxy    dyz    dz2    dxz  x2-y2    tot
    1  0.027  0.160  0.160  0.160  0.061  0.061  0.000  0.061  0.000  0.691
 
band    21 # energy   53.29535149 # occ.  0.00000000
 
ion      s     py     pz     px    dxy    dyz    dz2    dxz  x2-y2    tot
    1  6.305  0.000  0.000  0.000  0.000  0.000  0.000  0.000  0.000  6.305
 
band    22 # energy   54.94675630 # occ.  0.00000000
 
ion      s     py     pz     px    dxy    dyz    dz2    dxz  x2-y2    tot
    1  0.000  0.019  0.006  0.004  0.000  0.000  0.147  0.000  0.324  0.500
 
band    23 # energy   54.94675630 # occ.  0.00000000
 
ion      s     py     pz     px    dxy    dyz    dz2    dxz  x2-y2    tot
    1  0.000  0.000  0.013  0.016  0.000  0.000  0.324  0.000  0.147  0.500
 
band    24 # energy   62.21160919 # occ.  0.00000000
 
ion      s     py     pz     px    dxy    dyz    dz2    dxz  x2-y2    tot
    1  0.000  0.000  0.000  0.000  0.000  0.000  0.000  0.000  0.000  0.000
 

 k-point     2 :    0.15000000 0.05000000 0.05000000     weight = 0.00600000

band     1 # energy  -39.97897395 # occ.  2.00000000
 
ion      s     py     pz     px    dxy    dyz    dz2    dxz  x2-y2    tot
    1  0.000  0.455  0.455  0.084  0.000  0.000  0.000  0.000  0.000  0.995
 
band     2 # energy  -39.92182376 # occ.  2.00000000
 
ion      s     py     pz     px    dxy    dyz    dz2    dxz  x2-y2    tot
    1  0.000  0.042  0.042  0.912  0.000  0.000  0.000  0.000  0.000  0.997
 
band     3 # energy  -39.90819079 # occ.  2.00000000
 
ion      s     py     pz     px    dxy    dyz    dz2    dxz  x2-y2    tot
    1  0.000  0.498  0.498  0.000  0.000  0.000  0.000  0.000  0.000  0.997
 
band     4 # energy    2.75379572 # occ.  2.00000000
 
ion      s     py     pz     px    dxy    dyz    dz2    dxz  x2-y2    tot
    1  0.399  0.004  0.004  0.000  0.000  0.002  0.000  0.000  0.000  0.411
 
band     5 # energy    8.43013254 # occ.  2.00000000
 
ion      s     py     pz     px    dxy    dyz    dz2    dxz  x2-y2    tot
    1  0.000  0.000  0.000  0.002  0.397  0.029  0.000  0.397  0.000  0.826
 
band     6 # energy    8.96201080 # occ.  2.00000000
 
ion      s     py     pz     px    dxy    dyz    dz2    dxz  x2-y2    tot
    1  0.000  0.000  0.000  0.000  0.425  0.000  0.003  0.425  0.001  0.855
 
band     7 # energy    9.00346175 # occ.  2.00000000
 
ion      s     py     pz     px    dxy    dyz    dz2    dxz  x2-y2    tot
    1  0.000  0.001  0.001  0.000  0.015  0.794  0.006  0.015  0.018  0.850
 
band     8 # energy   10.74767780 # occ.  2.00000000
 
ion      s     py     pz     px    dxy    dyz    dz2    dxz  x2-y2    tot
    1  0.000  0.000  0.000  0.000  0.002  0.000  0.672  0.002  0.224  0.900
 
band     9 # energy   11.05115202 # occ.  2.00000000
 
ion      s     py     pz     px    dxy    dyz    dz2    dxz  x2-y2    tot
    1  0.000  0.000  0.000  0.000  0.001  0.024  0.221  0.001  0.664  0.912
 
band    10 # energy   28.22644596 # occ.  0.00000000
 
ion      s     py     pz     px    dxy    dyz    dz2    dxz  x2-y2    tot
    1  0.000  0.000  0.000  0.001  0.020  0.002  0.000  0.020  0.000  0.044
 
band    11 # energy   30.14185298 # occ.  0.00000000
 
ion      s     py     pz     px    dxy    dyz    dz2    dxz  x2-y2    tot
    1  0.032  0.024  0.024  0.007  0.003  0.016  0.001  0.003  0.004  0.115
 
band    12 # energy   32.75171506 # occ.  0.00000000
 
ion      s     py     pz     px    dxy    dyz    dz2    dxz  x2-y2    tot
    1  0.000  0.003  0.003  0.085  0.011  0.002  0.001  0.011  0.004  0.120
 
band    13 # energy   33.73964042 # occ.  0.00000000
 
ion      s     py     pz     px    dxy    dyz    dz2    dxz  x2-y2    tot
    1  0.000  0.031  0.031  0.000  0.001  0.000  0.023  0.001  0.008  0.094
 
band    14 # energy   39.42334665 # occ.  0.00000000
 
ion      s     py     pz     px    dxy    dyz    dz2    dxz  x2-y2    tot
    1  0.002  0.103  0.103  0.010  0.006  0.114  0.000  0.006  0.001  0.344
 
band    15 # energy   41.85382178 # occ.  0.00000000
 
ion      s     py     pz     px    dxy    dyz    dz2    dxz  x2-y2    tot
    1  0.033  0.014  0.014  0.069  0.031  0.069  0.003  0.031  0.009  0.275
 
band    16 # energy   42.22417879 # occ.  0.00000000
 
ion      s     py     pz     px    dxy    dyz    dz2    dxz  x2-y2    tot
    1  0.033  0.001  0.001  0.120  0.072  0.000  0.000  0.072  0.000  0.299
 
band    17 # energy   43.76022738 # occ.  0.00000000
 
ion      s     py     pz     px    dxy    dyz    dz2    dxz  x2-y2    tot
    1  0.000  0.074  0.074  0.000  0.157  0.000  0.014  0.157  0.005  0.482
 
band    18 # energy   46.51057986 # occ.  0.00000000
 
ion      s     py     pz     px    dxy    dyz    dz2    dxz  x2-y2    tot
    1  0.000  0.206  0.206  0.000  0.073  0.000  0.049  0.073  0.016  0.624
 
band    19 # energy   49.72286713 # occ.  0.00000000
 
ion      s     py     pz     px    dxy    dyz    dz2    dxz  x2-y2    tot
    1  0.078  0.125  0.125  0.033  0.000  0.266  0.007  0.000  0.022  0.657
 
band    20 # energy   52.04707258 # occ.  0.00000000
 
ion      s     py     pz     px    dxy    dyz    dz2    dxz  x2-y2    tot
    1  0.042  0.006  0.006  0.327  0.131  0.002  0.011  0.131  0.034  0.690
 
band    21 # energy   53.28007171 # occ.  0.00000000
 
ion      s     py     pz     px    dxy    dyz    dz2    dxz  x2-y2    tot
    1  6.281  0.000  0.000  0.000  0.000  0.000  0.000  0.000  0.000  6.282
 
band    22 # energy   53.67438966 # occ.  0.00000000
 
ion      s     py     pz     px    dxy    dyz    dz2    dxz  x2-y2    tot
    1  0.004  0.007  0.007  0.096  0.010  0.012  0.066  0.010  0.198  0.410
 
band    23 # energy   56.12366223 # occ.  0.00000000
 
ion      s     py     pz     px    dxy    dyz    dz2    dxz  x2-y2    tot
    1  0.000  0.065  0.065  0.000  0.001  0.000  0.240  0.001  0.080  0.451
 
band    24 # energy   62.86091555 # occ.  0.00000000
 
ion      s     py     pz     px    dxy    dyz    dz2    dxz  x2-y2    tot
    1  0.000  0.000  0.000  0.000  0.008  0.000  0.033  0.008  0.011  0.060
 

 k-point     3 :    0.25000000 0.05000000 0.05000000     weight = 0.00600000

band     1 # energy  -40.11949777 # occ.  2.00000000
 
ion      s     py     pz     px    dxy    dyz    dz2    dxz  x2-y2    tot
    1  0.000  0.390  0.390  0.211  0.000  0.000  0.000  0.000  0.000  0.990
 
band     2 # energy  -39.94698699 # occ.  2.00000000
 
ion      s     py     pz     px    dxy    dyz    dz2    dxz  x2-y2    tot
    1  0.000  0.106  0.106  0.784  0.000  0.000  0.000  0.000  0.000  0.996
 
band     3 # energy  -39.92687279 # occ.  2.00000000
 
ion      s     py     pz     px    dxy    dyz    dz2    dxz  x2-y2    tot
    1  0.000  0.498  0.498  0.000  0.000  0.000  0.000  0.000  0.000  0.996
 
band     4 # energy    3.90150626 # occ.  2.00000000
 
ion      s     py     pz     px    dxy    dyz    dz2    dxz  x2-y2    tot
    1  0.355  0.009  0.009  0.003  0.013  0.023  0.000  0.013  0.001  0.425
 
band     5 # energy    8.19498600 # occ.  2.00000000
 
ion      s     py     pz     px    dxy    dyz    dz2    dxz  x2-y2    tot
    1  0.010  0.004  0.004  0.007  0.337  0.063  0.000  0.337  0.000  0.763
 
band     6 # energy    9.16029403 # occ.  2.00000000
 
ion      s     py     pz     px    dxy    dyz    dz2    dxz  x2-y2    tot
    1  0.001  0.001  0.001  0.000  0.035  0.575  0.049  0.035  0.148  0.845
 
band     7 # energy    9.20232231 # occ.  2.00000000
 
ion      s     py     pz     px    dxy    dyz    dz2    dxz  x2-y2    tot
    1  0.000  0.000  0.000  0.000  0.348  0.000  0.119  0.348  0.040  0.856
 
band     8 # energy   10.72758127 # occ.  2.00000000
 
ion      s     py     pz     px    dxy    dyz    dz2    dxz  x2-y2    tot
    1  0.000  0.000  0.000  0.000  0.083  0.000  0.542  0.083  0.181  0.889
 
band     9 # energy   11.33099499 # occ.  2.00000000
 
ion      s     py     pz     px    dxy    dyz    dz2    dxz  x2-y2    tot
    1  0.002  0.001  0.001  0.000  0.011  0.181  0.175  0.011  0.524  0.906
 
band    10 # energy   27.32353218 # occ.  0.00000000
 
ion      s     py     pz     px    dxy    dyz    dz2    dxz  x2-y2    tot
    1  0.078  0.027  0.027  0.023  0.023  0.039  0.001  0.023  0.004  0.246
 
band    11 # energy   29.30660400 # occ.  0.00000000
 
ion      s     py     pz     px    dxy    dyz    dz2    dxz  x2-y2    tot
    1  0.002  0.003  0.003  0.009  0.051  0.016  0.000  0.051  0.000  0.135
 
band    12 # energy   34.00395551 # occ.  0.00000000
 
ion      s     py     pz     px    dxy    dyz    dz2    dxz  x2-y2    tot
    1  0.000  0.011  0.011  0.122  0.017  0.024  0.007  0.017  0.020  0.230
 
band    13 # energy   35.95128505 # occ.  0.00000000
 
ion      s     py     pz     px    dxy    dyz    dz2    dxz  x2-y2    tot
    1  0.000  0.031  0.031  0.000  0.007  0.000  0.059  0.007  0.020  0.156
 
band    14 # energy   36.02202038 # occ.  0.00000000
 
ion      s     py     pz     px    dxy    dyz    dz2    dxz  x2-y2    tot
    1  0.039  0.088  0.088  0.002  0.000  0.049  0.002  0.000  0.006  0.275
 
band    15 # energy   39.39689008 # occ.  0.00000000
 
ion      s     py     pz     px    dxy    dyz    dz2    dxz  x2-y2    tot
    1  0.004  0.000  0.000  0.126  0.027  0.015  0.008  0.027  0.023  0.229
 
band    16 # energy   39.62962636 # occ.  0.00000000
 
ion      s     py     pz     px    dxy    dyz    dz2    dxz  x2-y2    tot
    1  0.000  0.111  0.111  0.000  0.065  0.000  0.031  0.065  0.010  0.393
 
band    17 # energy   46.09440845 # occ.  0.00000000
 
ion      s     py     pz     px    dxy    dyz    dz2    dxz  x2-y2    tot
    1  0.072  0.000  0.000  0.000  0.000  0.005  0.002  0.000  0.007  0.088
 
band    18 # energy   46.89079180 # occ.  0.00000000
 
ion      s     py     pz     px    dxy    dyz    dz2    dxz  x2-y2    tot
    1  0.000  0.135  0.135  0.000  0.118  0.000  0.053  0.118  0.018  0.576
 
band    19 # energy   50.30186620 # occ.  0.00000000
 
ion      s     py     pz     px    dxy    dyz    dz2    dxz  x2-y2    tot
    1  0.061  0.066  0.066  0.092  0.002  0.260  0.017  0.002  0.052  0.617
 
band    20 # energy   52.26204033 # occ.  0.00000000
 
ion      s     py     pz     px    dxy    dyz    dz2    dxz  x2-y2    tot
    1  0.122  0.009  0.009  0.009  0.092  0.000  0.032  0.092  0.096  0.463
 
band    21 # energy   53.27936975 # occ.  0.00000000
 
ion      s     py     pz     px    dxy    dyz    dz2    dxz  x2-y2    tot
    1  6.258  0.000  0.000  0.000  0.000  0.000  0.000  0.000  0.000  6.259
 
band    22 # energy   55.03865732 # occ.  0.00000000
 
ion      s     py     pz     px    dxy    dyz    dz2    dxz  x2-y2    tot
    1  0.030  0.012  0.012  0.267  0.073  0.042  0.008  0.073  0.024  0.539
 
band    23 # energy   56.72709971 # occ.  0.00000000
 
ion      s     py     pz     px    dxy    dyz    dz2    dxz  x2-y2    tot
    1  0.000  0.090  0.090  0.000  0.008  0.000  0.126  0.008  0.042  0.364
 
band    24 # energy   63.18071304 # occ.  0.00000000
 
ion      s     py     pz     px    dxy    dyz    dz2    dxz  x2-y2    tot
    1  0.000  0.000  0.000  0.000  0.002  0.000  0.042  0.002  0.014  0.061
 

 k-point     4 :    0.35000000 0.05000000 0.05000000     weight = 0.00600000

band     1 # energy  -40.27923488 # occ.  2.00000000
 
ion      s     py     pz     px    dxy    dyz    dz2    dxz  x2-y2    tot
    1  0.000  0.359  0.359  0.268  0.000  0.000  0.000  0.000  0.000  0.985
 
band     2 # energy  -39.97142238 # occ.  2.00000000
 
ion      s     py     pz     px    dxy    dyz    dz2    dxz  x2-y2    tot
    1  0.000  0.135  0.135  0.725  0.000  0.000  0.000  0.000  0.000  0.995
 
band     3 # energy  -39.95087050 # occ.  2.00000000
 
ion      s     py     pz     px    dxy    dyz    dz2    dxz  x2-y2    tot
    1  0.000  0.498  0.498  0.000  0.000  0.000  0.000  0.000  0.000  0.996
 
band     4 # energy    4.89130685 # occ.  2.00000000
 
ion      s     py     pz     px    dxy    dyz    dz2    dxz  x2-y2    tot
    1  0.246  0.007  0.007  0.002  0.085  0.096  0.000  0.085  0.001  0.530
 
band     5 # energy    8.80668902 # occ.  2.00000000
 
ion      s     py     pz     px    dxy    dyz    dz2    dxz  x2-y2    tot
    1  0.045  0.012  0.012  0.018  0.263  0.011  0.011  0.263  0.034  0.668
 
band     6 # energy    8.99659307 # occ.  2.00000000
 
ion      s     py     pz     px    dxy    dyz    dz2    dxz  x2-y2    tot
    1  0.016  0.008  0.008  0.003  0.000  0.364  0.090  0.000  0.270  0.760
 
band     7 # energy    9.03147758 # occ.  2.00000000
 
ion      s     py     pz     px    dxy    dyz    dz2    dxz  x2-y2    tot
    1  0.000  0.000  0.000  0.000  0.217  0.000  0.309  0.217  0.103  0.847
 
band     8 # energy   11.43355945 # occ.  2.00000000
 
ion      s     py     pz     px    dxy    dyz    dz2    dxz  x2-y2    tot
    1  0.000  0.001  0.001  0.000  0.222  0.000  0.344  0.222  0.115  0.904
 
band     9 # energy   12.12775066 # occ.  2.00000000
 
ion      s     py     pz     px    dxy    dyz    dz2    dxz  x2-y2    tot
    1  0.008  0.003  0.003  0.000  0.027  0.364  0.120  0.027  0.359  0.910
 
band    10 # energy   23.95228546 # occ.  0.00000000
 
ion      s     py     pz     px    dxy    dyz    dz2    dxz  x2-y2    tot
    1  0.173  0.031  0.031  0.033  0.063  0.072  0.001  0.063  0.002  0.469
 
band    11 # energy   28.48478183 # occ.  0.00000000
 
ion      s     py     pz     px    dxy    dyz    dz2    dxz  x2-y2    tot
    1  0.006  0.007  0.007  0.013  0.033  0.009  0.001  0.033  0.002  0.113
 
band    12 # energy   33.48907966 # occ.  0.00000000
 
ion      s     py     pz     px    dxy    dyz    dz2    dxz  x2-y2    tot
    1  0.010  0.050  0.050  0.137  0.029  0.033  0.000  0.029  0.001  0.339
 
band    13 # energy   35.74490141 # occ.  0.00000000
 
ion      s     py     pz     px    dxy    dyz    dz2    dxz  x2-y2    tot
    1  0.000  0.116  0.116  0.000  0.032  0.000  0.019  0.032  0.006  0.320
 
band    14 # energy   36.78351785 # occ.  0.00000000
 
ion      s     py     pz     px    dxy    dyz    dz2    dxz  x2-y2    tot
    1  0.016  0.006  0.006  0.046  0.001  0.017  0.014  0.001  0.043  0.149
 
band    15 # energy   38.74667688 # occ.  0.00000000
 
ion      s     py     pz     px    dxy    dyz    dz2    dxz  x2-y2    tot
    1  0.000  0.015  0.015  0.000  0.018  0.000  0.127  0.018  0.042  0.237
 
band    16 # energy   39.24516411 # occ.  0.00000000
 
ion      s     py     pz     px    dxy    dyz    dz2    dxz  x2-y2    tot
    1  0.022  0.007  0.007  0.024  0.003  0.000  0.018  0.003  0.053  0.138
 
band    17 # energy   47.27439589 # occ.  0.00000000
 
ion      s     py     pz     px    dxy    dyz    dz2    dxz  x2-y2    tot
    1  0.000  0.136  0.136  0.000  0.093  0.000  0.043  0.093  0.014  0.516
 
band    18 # energy   49.58456463 # occ.  0.00000000
 
ion      s     py     pz     px    dxy    dyz    dz2    dxz  x2-y2    tot
    1  0.144  0.012  0.012  0.071  0.000  0.184  0.017  0.000  0.052  0.493
 
band    19 # energy   51.62804929 # occ.  0.00000000
 
ion      s     py     pz     px    dxy    dyz    dz2    dxz  x2-y2    tot
    1  0.055  0.035  0.035  0.061  0.053  0.023  0.015  0.053  0.046  0.375
 
band    20 # energy   52.70764161 # occ.  0.00000000
 
ion      s     py     pz     px    dxy    dyz    dz2    dxz  x2-y2    tot
    1  0.071  0.015  0.015  0.020  0.053  0.005  0.008  0.053  0.023  0.263
 
band    21 # energy   53.28199164 # occ.  0.00000000
 
ion      s     py     pz     px    dxy    dyz    dz2    dxz  x2-y2    tot
    1  6.248  0.000  0.000  0.000  0.000  0.000  0.000  0.000  0.000  6.249
 
band    22 # energy   55.57123310 # occ.  0.00000000
 
ion      s     py     pz     px    dxy    dyz    dz2    dxz  x2-y2    tot
    1  0.011  0.033  0.033  0.141  0.026  0.079  0.002  0.026  0.006  0.356
 
band    23 # energy   57.40383695 # occ.  0.00000000
 
ion      s     py     pz     px    dxy    dyz    dz2    dxz  x2-y2    tot
    1  0.000  0.098  0.098  0.000  0.015  0.000  0.062  0.015  0.021  0.310
 
band    24 # energy   62.20387978 # occ.  0.00000000
 
ion      s     py     pz     px    dxy    dyz    dz2    dxz  x2-y2    tot
    1  0.000  0.002  0.002  0.000  0.040  0.000  0.070  0.040  0.023  0.177
 

 k-point     5 :    0.45000000 0.05000000 0.05000000     weight = 0.00600000

band     1 # energy  -40.39628324 # occ.  2.00000000
 
ion      s     py     pz     px    dxy    dyz    dz2    dxz  x2-y2    tot
    1  0.000  0.339  0.339  0.303  0.000  0.000  0.000  0.000  0.000  0.981
 
band     2 # energy  -39.98626539 # occ.  2.00000000
 
ion      s     py     pz     px    dxy    dyz    dz2    dxz  x2-y2    tot
    1  0.000  0.154  0.154  0.687  0.000  0.000  0.000  0.000  0.000  0.995
 
band     3 # energy  -39.97196365 # occ.  2.00000000
 
ion      s     py     pz     px    dxy    dyz    dz2    dxz  x2-y2    tot
    1  0.000  0.498  0.498  0.000  0.000  0.000  0.000  0.000  0.000  0.995
 
band     4 # energy    5.12069669 # occ.  2.00000000
 
ion      s     py     pz     px    dxy    dyz    dz2    dxz  x2-y2    tot
    1  0.156  0.002  0.002  0.000  0.155  0.159  0.000  0.155  0.000  0.628
 
band     5 # energy    8.68337135 # occ.  2.00000000
 
ion      s     py     pz     px    dxy    dyz    dz2    dxz  x2-y2    tot
    1  0.000  0.000  0.000  0.000  0.055  0.247  0.118  0.055  0.355  0.831
 
band     6 # energy    8.78957940 # occ.  2.00000000
 
ion      s     py     pz     px    dxy    dyz    dz2    dxz  x2-y2    tot
    1  0.000  0.000  0.000  0.000  0.174  0.000  0.368  0.174  0.123  0.838
 
band     7 # energy   10.65169469 # occ.  2.00000000
 
ion      s     py     pz     px    dxy    dyz    dz2    dxz  x2-y2    tot
    1  0.047  0.039  0.039  0.040  0.105  0.007  0.014  0.105  0.042  0.437
 
band     8 # energy   12.34467408 # occ.  2.00000000
 
ion      s     py     pz     px    dxy    dyz    dz2    dxz  x2-y2    tot
    1  0.000  0.000  0.000  0.000  0.277  0.000  0.284  0.277  0.095  0.934
 
band     9 # energy   13.05831579 # occ.  0.00000000
 
ion      s     py     pz     px    dxy    dyz    dz2    dxz  x2-y2    tot
    1  0.017  0.010  0.010  0.006  0.028  0.407  0.087  0.028  0.260  0.853
 
band    10 # energy   20.36285850 # occ.  0.00000000
 
ion      s     py     pz     px    dxy    dyz    dz2    dxz  x2-y2    tot
    1  0.299  0.016  0.016  0.020  0.111  0.100  0.001  0.111  0.002  0.676
 
band    11 # energy   27.31274191 # occ.  0.00000000
 
ion      s     py     pz     px    dxy    dyz    dz2    dxz  x2-y2    tot
    1  0.001  0.004  0.004  0.006  0.008  0.000  0.001  0.008  0.003  0.037
 
band    12 # energy   31.90417594 # occ.  0.00000000
 
ion      s     py     pz     px    dxy    dyz    dz2    dxz  x2-y2    tot
    1  0.004  0.039  0.039  0.145  0.015  0.003  0.000  0.015  0.001  0.262
 
band    13 # energy   32.94592173 # occ.  0.00000000
 
ion      s     py     pz     px    dxy    dyz    dz2    dxz  x2-y2    tot
    1  0.000  0.109  0.109  0.000  0.007  0.000  0.013  0.007  0.004  0.249
 
band    14 # energy   39.90153748 # occ.  0.00000000
 
ion      s     py     pz     px    dxy    dyz    dz2    dxz  x2-y2    tot
    1  0.008  0.000  0.000  0.025  0.000  0.071  0.041  0.000  0.124  0.269
 
band    15 # energy   41.08737279 # occ.  0.00000000
 
ion      s     py     pz     px    dxy    dyz    dz2    dxz  x2-y2    tot
    1  0.000  0.004  0.004  0.000  0.050  0.000  0.202  0.050  0.067  0.377
 
band    16 # energy   41.58449355 # occ.  0.00000000
 
ion      s     py     pz     px    dxy    dyz    dz2    dxz  x2-y2    tot
    1  0.065  0.008  0.008  0.009  0.051  0.006  0.012  0.051  0.036  0.247
 
band    17 # energy   47.84071197 # occ.  0.00000000
 
ion      s     py     pz     px    dxy    dyz    dz2    dxz  x2-y2    tot
    1  0.000  0.163  0.163  0.000  0.031  0.000  0.006  0.031  0.002  0.397
 
band    18 # energy   49.31876864 # occ.  0.00000000
 
ion      s     py     pz     px    dxy    dyz    dz2    dxz  x2-y2    tot
    1  0.089  0.008  0.008  0.160  0.002  0.118  0.014  0.002  0.042  0.442
 
band    19 # energy   50.53196264 # occ.  0.00000000
 
ion      s     py     pz     px    dxy    dyz    dz2    dxz  x2-y2    tot
    1  0.029  0.065  0.065  0.030  0.045  0.004  0.007  0.045  0.021  0.310
 
band    20 # energy   53.28596445 # occ.  0.00000000
 
ion      s     py     pz     px    dxy    dyz    dz2    dxz  x2-y2    tot
    1  6.292  0.000  0.000  0.000  0.000  0.000  0.000  0.000  0.000  6.292
 
band    21 # energy   55.05489942 # occ.  0.00000000
 
ion      s     py     pz     px    dxy    dyz    dz2    dxz  x2-y2    tot
    1  0.004  0.037  0.037  0.078  0.011  0.064  0.002  0.011  0.006  0.250
 
band    22 # energy   57.88527267 # occ.  0.00000000
 
ion      s     py     pz     px    dxy    dyz    dz2    dxz  x2-y2    tot
    1  0.000  0.076  0.076  0.000  0.000  0.000  0.027  0.000  0.009  0.188
 
band    23 # energy   58.01917609 # occ.  0.00000000
 
ion      s     py     pz     px    dxy    dyz    dz2    dxz  x2-y2    tot
    1  0.053  0.002  0.002  0.000  0.001  0.001  0.000  0.001  0.000  0.060
 
band    24 # energy   59.28673810 # occ.  0.00000000
 
ion      s     py     pz     px    dxy    dyz    dz2    dxz  x2-y2    tot
    1  0.000  0.018  0.018  0.000  0.120  0.000  0.004  0.120  0.001  0.282
 

 k-point     6 :   -0.45000000 0.05000000 0.05000000     weight = 0.00600000

band     1 # energy  -40.42880485 # occ.  2.00000000
 
ion      s     py     pz     px    dxy    dyz    dz2    dxz  x2-y2    tot
    1  0.000  0.323  0.323  0.333  0.000  0.000  0.000  0.000  0.000  0.980
 
band     2 # energy  -39.98652153 # occ.  2.00000000
 
ion      s     py     pz     px    dxy    dyz    dz2    dxz  x2-y2    tot
    1  0.000  0.169  0.169  0.656  0.000  0.000  0.000  0.000  0.000  0.995
 
band     3 # energy  -39.98110559 # occ.  2.00000000
 
ion      s     py     pz     px    dxy    dyz    dz2    dxz  x2-y2    tot
    1  0.000  0.497  0.497  0.000  0.000  0.000  0.000  0.000  0.000  0.995
 
band     4 # energy    5.11867534 # occ.  2.00000000
 
ion      s     py     pz     px    dxy    dyz    dz2    dxz  x2-y2    tot
    1  0.139  0.000  0.000  0.001  0.166  0.176  0.000  0.166  0.000  0.647
 
band     5 # energy    8.58691783 # occ.  2.00000000
 
ion      s     py     pz     px    dxy    dyz    dz2    dxz  x2-y2    tot
    1  0.000  0.000  0.000  0.000  0.058  0.209  0.125  0.058  0.376  0.828
 
band     6 # energy    8.73379607 # occ.  2.00000000
 
ion      s     py     pz     px    dxy    dyz    dz2    dxz  x2-y2    tot
    1  0.000  0.000  0.000  0.000  0.170  0.000  0.371  0.170  0.124  0.836
 
band     7 # energy   11.40694990 # occ.  2.00000000
 
ion      s     py     pz     px    dxy    dyz    dz2    dxz  x2-y2    tot
    1  0.003  0.040  0.040  0.039  0.027  0.191  0.028  0.027  0.084  0.478
 
band     8 # energy   12.79633560 # occ.  0.32915432
 
ion      s     py     pz     px    dxy    dyz    dz2    dxz  x2-y2    tot
    1  0.000  0.000  0.000  0.000  0.286  0.000  0.285  0.286  0.095  0.953
 
band     9 # energy   13.47881463 # occ.  0.00000000
 
ion      s     py     pz     px    dxy    dyz    dz2    dxz  x2-y2    tot
    1  0.002  0.024  0.024  0.029  0.075  0.196  0.064  0.075  0.193  0.683
 
band    10 # energy   18.87039065 # occ.  0.00000000
 
ion      s     py     pz     px    dxy    dyz    dz2    dxz  x2-y2    tot
    1  0.384  0.002  0.002  0.000  0.136  0.140  0.000  0.136  0.000  0.801
 
band    11 # energy   27.00367503 # occ.  0.00000000
 
ion      s     py     pz     px    dxy    dyz    dz2    dxz  x2-y2    tot
    1  0.000  0.003  0.003  0.005  0.000  0.005  0.001  0.000  0.004  0.022
 
band    12 # energy   31.76885710 # occ.  0.00000000
 
ion      s     py     pz     px    dxy    dyz    dz2    dxz  x2-y2    tot
    1  0.004  0.036  0.036  0.143  0.003  0.006  0.002  0.003  0.006  0.239
 
band    13 # energy   31.80533520 # occ.  0.00000000
 
ion      s     py     pz     px    dxy    dyz    dz2    dxz  x2-y2    tot
    1  0.000  0.110  0.110  0.000  0.001  0.000  0.004  0.001  0.001  0.227
 
band    14 # energy   41.33058423 # occ.  0.00000000
 
ion      s     py     pz     px    dxy    dyz    dz2    dxz  x2-y2    tot
    1  0.000  0.002  0.002  0.000  0.054  0.000  0.206  0.054  0.069  0.388
 
band    15 # energy   41.57208133 # occ.  0.00000000
 
ion      s     py     pz     px    dxy    dyz    dz2    dxz  x2-y2    tot
    1  0.000  0.000  0.000  0.001  0.016  0.082  0.072  0.016  0.217  0.404
 
band    16 # energy   43.06555754 # occ.  0.00000000
 
ion      s     py     pz     px    dxy    dyz    dz2    dxz  x2-y2    tot
    1  0.115  0.003  0.003  0.000  0.072  0.071  0.000  0.072  0.000  0.336
 
band    17 # energy   48.04345433 # occ.  0.00000000
 
ion      s     py     pz     px    dxy    dyz    dz2    dxz  x2-y2    tot
    1  0.025  0.086  0.086  0.101  0.005  0.001  0.000  0.005  0.001  0.310
 
band    18 # energy   48.80469573 # occ.  0.00000000
 
ion      s     py     pz     px    dxy    dyz    dz2    dxz  x2-y2    tot
    1  0.000  0.002  0.002  0.148  0.005  0.000  0.002  0.005  0.005  0.169
 
band    19 # energy   49.19300154 # occ.  0.00000000
 
ion      s     py     pz     px    dxy    dyz    dz2    dxz  x2-y2    tot
    1  0.000  0.171  0.171  0.000  0.003  0.000  0.020  0.003  0.007  0.374
 
band    20 # energy   53.29118693 # occ.  0.00000000
 
ion      s     py     pz     px    dxy    dyz    dz2    dxz  x2-y2    tot
    1  6.302  0.000  0.000  0.000  0.000  0.000  0.000  0.000  0.000  6.302
 
band    21 # energy   56.14621466 # occ.  0.00000000
 
ion      s     py     pz     px    dxy    dyz    dz2    dxz  x2-y2    tot
    1  0.000  0.051  0.051  0.000  0.054  0.000  0.000  0.054  0.000  0.210
 
band    22 # energy   56.74370198 # occ.  0.00000000
 
ion      s     py     pz     px    dxy    dyz    dz2    dxz  x2-y2    tot
    1  0.008  0.013  0.013  0.052  0.010  0.049  0.001  0.010  0.002  0.157
 