       N       E                     dE             d eps       ncg     rms          rms(c)
DAV:   1     0.252610043411E+02    0.25261E+02   -0.40397E+03  1352   0.919E+02
DAV:   2    -0.689054025721E+01   -0.32152E+02   -0.29618E+02  1440   0.147E+02
DAV:   3    -0.779802664604E+01   -0.90749E+00   -0.90491E+00  1576   0.284E+01
DAV:   4    -0.780739126957E+01   -0.93646E-02   -0.93623E-02  1600   0.258E+00
DAV:   5    -0.780763575931E+01   -0.24449E-03   -0.24448E-03  1752   0.371E-01    0.114E+01
DAV:   6    -0.719170385968E+01    0.61593E+00   -0.11501E+01  1728   0.447E+01    0.424E+00
DAV:   7    -0.703210139070E+01    0.15960E+00   -0.13167E+00  1692   0.138E+01    0.241E+00
DAV:   8    -0.702207735640E+01    0.10024E-01   -0.15000E-02  1816   0.980E-01    0.126E+00
DAV:   9    -0.701582704470E+01    0.62503E-02   -0.71456E-03  1940   0.676E-01    0.312E-01
DAV:  10    -0.701548609071E+01    0.34095E-03   -0.25410E-04  2036   0.118E-01    0.688E-02
DAV:  11    -0.701549169003E+01   -0.55993E-05   -0.15910E-04  1924   0.135E-01    0.430E-02
DAV:  12    -0.701549144391E+01    0.24612E-06   -0.27934E-06  1428   0.220E-02
   1 F= -.70154914E+01 E0= -.70140226E+01  d E =-.440649E-02  mag=     1.6646
