Pt-fcc                                  
   1.00000000000000     
     0.000000    2.038214    2.038214
     2.038214    0.000000    2.038214
     2.038214    2.038214    0.000000
   Pt
     1
Direct
  0.000000  0.000000  0.000000
 
   40   40   40
  148.24      148.10      147.28      144.75      139.23      129.80      116.26      99.412      80.841      62.514    
  46.217      33.108      23.517      17.020      12.713      9.7556      7.7858      6.5299      5.7738      5.3736    
  5.2488      5.3736      5.7738      6.5299      7.7858      9.7556      12.713      17.020      23.517      33.108    
  46.217      62.514      80.841      99.412      116.26      129.80      139.23      144.75      147.28      148.10    
  148.10      147.62      145.92      141.83      134.24      122.58      107.19      89.287      70.711      53.372    
  38.751      27.567      19.731      14.532      11.008      8.6081      7.0438      6.0704      5.5117      5.2581    
  5.2581      5.5117      6.0704      7.0438      8.6081      11.008      14.532      19.731      27.567      38.751    
  53.372      70.711      89.287      107.19      122.58      134.24      141.83      145.92      147.62      148.10    
  147.28      145.92      142.63      136.32      126.25      112.38      95.557      77.349      59.620      44.020    
  31.577      22.526      16.402      12.307      9.4819      7.5991      6.3964      5.6706      5.2855      5.1652    
  5.2855      5.6706      6.3964      7.5991      9.4819      12.307      16.402      22.526      31.577      44.020    
  59.620      77.349      95.557      112.38      126.25      136.32      142.63      145.92      147.28      147.62    
  144.75      141.83      136.32      127.45      114.96      99.390      81.988      64.450      48.446      35.191    
  25.192      18.234      13.580      10.364      8.1736      6.7414      5.8460      5.3293      5.0937      5.0937    
  5.3293      5.8460      6.7414      8.1736      10.364      13.580      18.234      25.192      35.192      48.446    
  64.450      81.988      99.390      114.96      127.45      136.32      141.83      144.74      145.92      145.92    
  139.23      134.24      126.25      114.96      100.68      84.366      67.492      51.631      38.063      27.482    
  19.894      14.746      11.202      8.7367      7.0897      6.0308      5.3864      5.0418      4.9337      5.0418    
  5.3864      6.0308      7.0897      8.7367      11.202      14.746      19.894      27.482      38.063      51.631    
  67.492      84.366      100.68      114.96      126.25      134.24      139.23      141.83      142.63      141.83    
  129.80      122.58      112.38      99.390      84.366      68.530      53.295      39.909      29.160      21.225    
  15.728      11.934      9.2520      7.4210      6.2148      5.4523      5.0071      4.8023      4.8024      5.0071    
  5.4523      6.2148      7.4210      9.2520      11.934      15.728      21.225      29.160      39.909      53.295    
  68.530      84.366      99.390      112.38      122.58      129.80      134.24      136.32      136.32      134.24    
  116.26      107.19      95.557      81.988      67.492      53.295      40.546      30.047      22.089      16.443    
  12.506      9.6813      7.7122      6.3855      5.5209      4.9865      4.6967      4.6050      4.6967      4.9865    
  5.5209      6.3855      7.7122      9.6813      12.506      16.443      22.089      30.047      40.546      53.295    
  67.492      81.988      95.557      107.19      116.26      122.58      126.25      127.45      126.25      122.58    
  99.412      89.287      77.349      64.450      51.631      39.909      30.047      22.388      16.820      12.870    
  9.9900      7.9405      6.5294      5.5852      4.9766      4.6143      4.4453      4.4453      4.6143      4.9766    
  5.5852      6.5294      7.9405      9.9900      12.870      16.820      22.388      30.047      39.909      51.631    
  64.450      77.349      89.287      99.412      107.19      112.38      114.96      114.96      112.38      107.19    
  80.841      70.711      59.620      48.446      38.063      29.160      22.089      16.820      12.995      10.151    
  8.0862      6.6338      5.6379      4.9736      4.5528      4.3199      4.2453      4.3199      4.5528      4.9736    
  5.6379      6.6338      8.0862      10.151      12.995      16.820      22.089      29.160      38.063      48.446    
  59.620      70.711      80.841      89.287      95.557      99.390      100.68      99.390      95.557      89.287    
  62.514      53.372      44.020      35.191      27.482      21.225      16.443      12.870      10.151      8.1364    
  6.6887      5.6725      4.9741      4.5104      4.2269      4.0921      4.0921      4.2269      4.5104      4.9741    
  5.6725      6.6887      8.1364      10.151      12.870      16.443      21.225      27.482      35.191      44.020    
  53.372      62.514      70.711      77.349      81.988      84.366      84.366      81.988      77.349      70.711    
  46.217      38.751      31.577      25.192      19.894      15.728      12.506      9.9900      8.0862      6.6887    
  5.6845      4.9751      4.4857      4.1653      3.9835      3.9244      3.9835      4.1653      4.4857      4.9751    
  5.6845      6.6887      8.0862      9.9900      12.506      15.728      19.894      25.192      31.577      38.751    
  46.217      53.372      59.620      64.450      67.492      68.530      67.492      64.450      59.620      53.372    
  33.108      27.567      22.526      18.234      14.746      11.934      9.6813      7.9405      6.6338      5.6725    
  4.9751      4.4775      4.1346      3.9184      3.8135      3.8135      3.9184      4.1346      4.4775      4.9751    
  5.6725      6.6338      7.9405      9.6813      11.934      14.746      18.234      22.526      27.567      33.108    
  38.751      44.020      48.446      51.631      53.295      53.295      51.631      48.446      44.020      38.751    
  23.517      19.731      16.402      13.580      11.202      9.2520      7.7122      6.5294      5.6379      4.9741    
  4.4857      4.1346      3.8967      3.7581      3.7126      3.7581      3.8967      4.1346      4.4857      4.9741    
  5.6379      6.5294      7.7122      9.2520      11.202      13.580      16.402      19.731      23.517      27.567    
  31.577      35.191      38.063      39.909      40.546      39.909      38.063      35.192      31.577      27.567    
  17.020      14.532      12.307      10.364      8.7367      7.4210      6.3855      5.5852      4.9736      4.5104    
  4.1653      3.9184      3.7581      3.6790      3.6790      3.7581      3.9184      4.1653      4.5104      4.9736    
  5.5853      6.3855      7.4210      8.7368      10.364      12.307      14.532      17.020      19.731      22.526    
  25.192      27.482      29.160      30.047      30.047      29.160      27.482      25.192      22.526      19.731    
  12.713      11.008      9.4819      8.1736      7.0897      6.2148      5.5209      4.9766      4.5528      4.2269    
  3.9835      3.8135      3.7126      3.6790      3.7126      3.8135      3.9835      4.2269      4.5528      4.9766    
  5.5209      6.2148      7.0897      8.1736      9.4819      11.008      12.713      14.532      16.402      18.234    
  19.894      21.225      22.089      22.388      22.089      21.225      19.894      18.234      16.402      14.532    
  9.7556      8.6081      7.5991      6.7414      6.0308      5.4523      4.9865      4.6143      4.3199      4.0921    
  3.9244      3.8135      3.7581      3.7581      3.8135      3.9244      4.0921      4.3199      4.6143      4.9865    
  5.4523      6.0308      6.7414      7.5991      8.6081      9.7556      11.008      12.307      13.580      14.746    
  15.728      16.443      16.820      16.820      16.443      15.728      14.746      13.580      12.307      11.008    
  7.7858      7.0438      6.3964      5.8460      5.3864      5.0071      4.6967      4.4453      4.2453      4.0921    
  3.9835      3.9184      3.8967      3.9184      3.9835      4.0921      4.2453      4.4453      4.6967      5.0071    
  5.3864      5.8460      6.3964      7.0438      7.7858      8.6081      9.4819      10.364      11.202      11.934    
  12.506      12.870      12.995      12.870      12.506      11.934      11.202      10.364      9.4819      8.6081    
  6.5299      6.0704      5.6706      5.3293      5.0418      4.8023      4.6050      4.4453      4.3199      4.2269    
  4.1653      4.1346      4.1346      4.1653      4.2269      4.3199      4.4453      4.6050      4.8023      5.0418    
  5.3292      5.6706      6.0704      6.5299      7.0438      7.5991      8.1736      8.7368      9.2520      9.6813    
  9.9900      10.151      10.151      9.9900      9.6813      9.2520      8.7367      8.1736      7.5991      7.0438    
  5.7738      5.5117      5.2855      5.0937      4.9337      4.8024      4.6967      4.6143      4.5528      4.5104    
  4.4857      4.4775      4.4857      4.5104      4.5528      4.6143      4.6967      4.8023      4.9337      5.0937    
  5.2855      5.5117      5.7738      6.0704      6.3964      6.7414      7.0897      7.4210      7.7122      7.9405    
  8.0862      8.1364      8.0862      7.9405      7.7122      7.4210      7.0897      6.7414      6.3964      6.0704    
  5.3736      5.2581      5.1652      5.0937      5.0418      5.0071      4.9865      4.9766      4.9736      4.9741    
  4.9751      4.9751      4.9741      4.9736      4.9766      4.9865      5.0071      5.0418      5.0937      5.1652    
  5.2581      5.3736      5.5117      5.6706      5.8460      6.0308      6.2148      6.3855      6.5294      6.6338    
  6.6887      6.6887      6.6338      6.5294      6.3855      6.2148      6.0308      5.8460      5.6706      5.5117    
  5.2488      5.2581      5.2855      5.3293      5.3864      5.4523      5.5209      5.5852      5.6379      5.6725    
  5.6845      5.6725      5.6379      5.5853      5.5209      5.4523      5.3864      5.3292      5.2855      5.2581    
  5.2488      5.2581      5.2855      5.3292      5.3864      5.4523      5.5209      5.5853      5.6379      5.6725    
  5.6845      5.6725      5.6379      5.5852      5.5209      5.4523      5.3864      5.3293      5.2855      5.2581    
  5.3736      5.5117      5.6706      5.8460      6.0308      6.2148      6.3855      6.5294      6.6338      6.6887    
  6.6887      6.6338      6.5294      6.3855      6.2148      6.0308      5.8460      5.6706      5.5117      5.3736    
  5.2581      5.1652      5.0937      5.0418      5.0071      4.9865      4.9766      4.9736      4.9741      4.9751    
  4.9751      4.9741      4.9736      4.9766      4.9865      5.0071      5.0418      5.0937      5.1652      5.2581    
  5.7738      6.0704      6.3964      6.7414      7.0897      7.4210      7.7122      7.9405      8.0862      8.1364    
  8.0862      7.9405      7.7122      7.4210      7.0897      6.7414      6.3964      6.0704      5.7738      5.5117    
  5.2855      5.0937      4.9337      4.8023      4.6967      4.6143      4.5528      4.5104      4.4857      4.4775    
  4.4857      4.5104      4.5528      4.6143      4.6967      4.8024      4.9337      5.0937      5.2855      5.5117    
  6.5299      7.0438      7.5991      8.1736      8.7367      9.2520      9.6813      9.9900      10.151      10.151    
  9.9900      9.6813      9.2520      8.7368      8.1736      7.5991      7.0438      6.5299      6.0704      5.6706    
  5.3292      5.0418      4.8023      4.6050      4.4453      4.3199      4.2269      4.1653      4.1346      4.1346    
  4.1653      4.2269      4.3199      4.4453      4.6050      4.8023      5.0418      5.3293      5.6706      6.0704    
  7.7858      8.6081      9.4819      10.364      11.202      11.934      12.506      12.870      12.995      12.870    
  12.506      11.934      11.202      10.364      9.4819      8.6081      7.7858      7.0438      6.3964      5.8460    
  5.3864      5.0071      4.6967      4.4453      4.2453      4.0921      3.9835      3.9184      3.8967      3.9184    
  3.9835      4.0921      4.2453      4.4453      4.6967      5.0071      5.3864      5.8460      6.3964      7.0438    
  9.7556      11.008      12.307      13.580      14.746      15.728      16.443      16.820      16.820      16.443    
  15.728      14.746      13.580      12.307      11.008      9.7556      8.6081      7.5991      6.7414      6.0308    
  5.4523      4.9865      4.6143      4.3199      4.0921      3.9244      3.8135      3.7581      3.7581      3.8135    
  3.9244      4.0921      4.3199      4.6143      4.9865      5.4523      6.0308      6.7414      7.5991      8.6081    
  12.713      14.532      16.402      18.234      19.894      21.225      22.089      22.388      22.089      21.225    
  19.894      18.234      16.402      14.532      12.713      11.008      9.4819      8.1736      7.0897      6.2148    
  5.5209      4.9766      4.5528      4.2269      3.9835      3.8135      3.7126      3.6790      3.7126      3.8135    
  3.9835      4.2269      4.5528      4.9766      5.5209      6.2148      7.0897      8.1736      9.4819      11.008    
  17.020      19.731      22.526      25.192      27.482      29.160      30.047      30.047      29.160      27.482    
  25.192      22.526      19.731      17.020      14.532      12.307      10.364      8.7368      7.4210      6.3855    
  5.5853      4.9736      4.5104      4.1653      3.9184      3.7581      3.6790      3.6790      3.7581      3.9184    
  4.1653      4.5104      4.9736      5.5852      6.3855      7.4210      8.7367      10.364      12.307      14.532    
  23.517      27.567      31.577      35.192      38.063      39.909      40.546      39.909      38.063      35.191    
  31.577      27.567      23.517      19.731      16.402      13.580      11.202      9.2520      7.7122      6.5294    
  5.6379      4.9741      4.4857      4.1346      3.8967      3.7581      3.7126      3.7581      3.8967      4.1346    
  4.4857      4.9741      5.6379      6.5294      7.7122      9.2520      11.202      13.580      16.402      19.731    
  33.108      38.751      44.020      48.446      51.631      53.295      53.295      51.631      48.446      44.020    
  38.751      33.108      27.567      22.526      18.234      14.746      11.934      9.6813      7.9405      6.6338    
  5.6725      4.9751      4.4775      4.1346      3.9184      3.8135      3.8135      3.9184      4.1346      4.4775    
  4.9751      5.6725      6.6338      7.9405      9.6813      11.934      14.746      18.234      22.526      27.567    
  46.217      53.372      59.620      64.450      67.492      68.530      67.492      64.450      59.620      53.372    
  46.217      38.751      31.577      25.192      19.894      15.728      12.506      9.9900      8.0862      6.6887    
  5.6845      4.9751      4.4857      4.1653      3.9835      3.9244      3.9835      4.1653      4.4857      4.9751    
  5.6845      6.6887      8.0862      9.9900      12.506      15.728      19.894      25.192      31.577      38.751    
  62.514      70.711      77.349      81.988      84.366      84.366      81.988      77.349      70.711      62.514    
  53.372      44.020      35.191      27.482      21.225      16.443      12.870      10.151      8.1364      6.6887    
  5.6725      4.9741      4.5104      4.2269      4.0921      4.0921      4.2269      4.5104      4.9741      5.6725    
  6.6887      8.1364      10.151      12.870      16.443      21.225      27.482      35.191      44.020      53.372    
  80.841      89.287      95.557      99.390      100.68      99.390      95.557      89.287      80.841      70.711    
  59.620      48.446      38.063      29.160      22.089      16.820      12.995      10.151      8.0862      6.6338    
  5.6379      4.9736      4.5528      4.3199      4.2453      4.3199      4.5528      4.9736      5.6379      6.6338    
  8.0862      10.151      12.995      16.820      22.089      29.160      38.063      48.446      59.620      70.711    
  99.412      107.19      112.38      114.96      114.96      112.38      107.19      99.412      89.287      77.349    
  64.450      51.631      39.909      30.047      22.388      16.820      12.870      9.9900      7.9405      6.5294    
  5.5852      4.9766      4.6143      4.4453      4.4453      4.6143      4.9766      5.5852      6.5294      7.9405    
  9.9900      12.870      16.820      22.388      30.047      39.909      51.631      64.450      77.349      89.287    
  116.26      122.58      126.25      127.45      126.25      122.58      116.26      107.19      95.557      81.988    
  67.492      53.295      40.546      30.047      22.089      16.443      12.506      9.6813      7.7122      6.3855    
  5.5209      4.9865      4.6967      4.6050      4.6967      4.9865      5.5209      6.3855      7.7122      9.6813    
  12.506      16.443      22.089      30.047      40.546      53.295      67.492      81.988      95.557      107.19    
  129.80      134.24      136.32      136.32      134.24      129.80      122.58      112.38      99.390      84.366    
  68.530      53.295      39.909      29.160      21.225      15.728      11.934      9.2520      7.4210      6.2148    
  5.4523      5.0071      4.8024      4.8023      5.0071      5.4523      6.2148      7.4210      9.2520      11.934    
  15.728      21.225      29.160      39.909      53.295      68.530      84.366      99.390      112.38      122.58    
  139.23      141.83      142.63      141.83      139.23      134.24      126.25      114.96      100.68      84.366    
  67.492      51.631      38.063      27.482      19.894      14.746      11.202      8.7367      7.0897      6.0308    
  5.3864      5.0418      4.9337      5.0418      5.3864      6.0308      7.0897      8.7367      11.202      14.746    
  19.894      27.482      38.063      51.631      67.492      84.366      100.68      114.96      126.25      134.24    
  144.75      145.92      145.92      144.74      141.83      136.32      127.45      114.96      99.390      81.988    
  64.450      48.446      35.192      25.192      18.234      13.580      10.364      8.1736      6.7414      5.8460    
  5.3293      5.0937      5.0937      5.3293      5.8460      6.7414      8.1736      10.364      13.580      18.234    
  25.192      35.191      48.446      64.450      81.988      99.390      114.96      127.45      136.32      141.83    
  147.28      147.62      147.28      145.92      142.63      136.32      126.25      112.38      95.557      77.349    
  59.620      44.020      31.577      22.526      16.402      12.307      9.4819      7.5991      6.3964      5.6706    
  5.2855      5.1652      5.2855      5.6706      6.3964      7.5991      9.4819      12.307      16.402      22.526    
  31.577      44.020      59.620      77.349      95.557      112.38      126.25      136.32      142.63      145.92    
  148.10      148.10      147.62      145.92      141.83      134.24      122.58      107.19      89.287      70.711    
  53.372      38.751      27.567      19.731      14.532      11.008      8.6081      7.0438      6.0704      5.5117    
  5.2581      5.2581      5.5117      6.0704      7.0438      8.6081      11.008      14.532      19.731      27.567    
  38.751      53.372      70.711      89.287      107.19      122.58      134.24      141.83      145.92      147.62    
  148.10      147.62      145.92      141.83      134.24      122.58      107.19      89.287      70.711      53.372    
  38.751      27.567      19.731      14.532      11.008      8.6081      7.0438      6.0704      5.5117      5.2581    
  5.2581      5.5117      6.0704      7.0438      8.6081      11.008      14.532      19.731      27.567      38.751    
  53.372      70.711      89.287      107.19      122.58      134.24      141.83      145.92      147.62      148.10    
  147.62      146.37      143.25      137.12      127.20      113.41      96.592      78.300      60.422      44.641    
  32.017      22.815      16.584      12.430      9.5663      7.6585      6.4404      5.7059      5.3165      5.1949    
  5.3165      5.7059      6.4404      7.6585      9.5663      12.430      16.584      22.815      32.017      44.641    
  60.422      78.300      96.592      113.41      127.20      137.12      143.25      146.37      147.62      147.91    
  145.92      143.25      138.01      129.39      117.07      101.52      83.978      66.170      49.815      36.193    
  25.869      18.665      13.859      10.557      8.3076      6.8379      5.9205      5.3919      5.1513      5.1513    
  5.3919      5.9205      6.8380      8.3076      10.557      13.859      18.665      25.869      36.193      49.815    
  66.170      83.978      101.52      117.07      129.39      138.01      143.25      145.92      146.96      146.96    
  141.83      137.12      129.39      118.27      103.98      87.466      70.206      53.834      39.716      28.626    
  20.635      15.219      11.525      8.9602      7.2474      6.1484      5.4814      5.1257      5.0143      5.1257    
  5.4814      6.1484      7.2474      8.9602      11.525      15.219      20.635      28.626      39.716      53.834    
  70.207      87.466      103.98      118.27      129.39      137.12      141.83      144.24      144.95      144.24    
  134.24      127.20      117.07      103.98      88.640      72.282      56.375      42.260      30.822      22.322    
  16.428      12.407      9.5774      7.6474      6.3792      5.5804      5.1157      4.9027      4.9027      5.1157    
  5.5804      6.3792      7.6474      9.5774      12.407      16.428      22.322      30.822      42.260      56.375    
  72.282      88.640      103.98      117.07      127.20      134.24      138.51      140.49      140.49      138.51    
  122.58      113.41      101.52      87.466      72.282      57.243      43.591      32.235      23.557      17.388    
  13.137      10.117      8.0127      6.5991      5.6821      5.1182      4.8139      4.7178      4.8139      5.1182    
  5.6821      6.5992      8.0127      10.117      13.137      17.388      23.557      32.235      43.591      57.243    
  72.282      87.466      101.52      113.41      122.58      128.90      132.53      133.70      132.53      128.90    
  107.19      96.592      83.978      70.206      56.375      43.591      32.723      24.211      18.008      13.659    
  10.537      8.3167      6.7929      5.7787      5.1293      4.7452      4.5668      4.5668      4.7452      5.1293    
  5.7787      6.7929      8.3167      10.537      13.659      18.008      24.211      32.723      43.591      56.375    
  70.207      83.978      96.592      107.19      115.25      120.60      123.24      123.24      120.60      115.25    
  89.287      78.300      66.170      53.834      42.260      32.235      24.211      18.222      13.932      10.805    
  8.5351      6.9449      5.8615      5.1446      4.6941      4.4465      4.3675      4.4465      4.6941      5.1446    
  5.8615      6.9449      8.5351      10.805      13.932      18.222      24.211      32.235      42.260      53.834    
  66.170      78.300      89.287      98.380      105.09      109.18      110.55      109.18      105.09      98.380    
  70.711      60.422      49.815      39.716      30.822      23.557      18.008      13.932      10.896      8.6493    
  7.0422      5.9222      5.1597      4.6584      4.3546      4.2110      4.2110      4.3546      4.6584      5.1597    
  5.9222      7.0422      8.6493      10.896      13.932      18.008      23.557      30.822      39.716      49.815    
  60.422      70.711      79.878      87.263      92.406      95.036      95.036      92.406      87.263      79.878    
  53.372      44.641      36.193      28.626      22.322      17.388      13.659      10.805      8.6493      7.0756    
  5.9543      5.1705      4.6359      4.2897      4.0947      4.0317      4.0947      4.2897      4.6359      5.1705    
  5.9543      7.0756      8.6493      10.805      13.659      17.388      22.322      28.626      36.193      44.641    
  53.372      61.692      68.921      74.490      77.990      79.183      77.990      74.490      68.921      61.692    
  38.751      32.017      25.869      20.635      16.428      13.137      10.537      8.5351      7.0422      5.9543    
  5.1744      4.6251      4.2511      4.0175      3.9048      3.9048      4.0175      4.2511      4.6251      5.1744    
  5.9543      7.0422      8.5351      10.537      13.137      16.428      20.635      25.869      32.017      38.751    
  45.576      51.921      57.233      61.047      63.037      63.037      61.047      57.233      51.921      45.576    
  27.567      22.815      18.665      15.219      12.407      10.117      8.3167      6.9449      5.9222      5.1705    
  4.6251      4.2383      3.9788      3.8289      3.7798      3.8289      3.9788      4.2382      4.6251      5.1705    
  5.9222      6.9449      8.3167      10.117      12.407      15.219      18.665      22.815      27.567      32.651    
  37.674      42.191      45.773      48.072      48.864      48.072      45.773      42.191      37.674      32.651    
  19.731      16.584      13.859      11.525      9.5774      8.0127      6.7929      5.8615      5.1597      4.6359    
  4.2511      3.9788      3.8036      3.7176      3.7176      3.8036      3.9788      4.2511      4.6359      5.1597    
  5.8615      6.7929      8.0127      9.5774      11.525      13.859      16.584      19.731      23.216      26.834    
  30.290      33.258      35.432      36.582      36.582      35.432      33.258      30.290      26.834      23.216    
  14.532      12.430      10.557      8.9602      7.6474      6.5991      5.7787      5.1446      4.6584      4.2897    
  4.0175      3.8289      3.7176      3.6807      3.7176      3.8289      4.0175      4.2897      4.6584      5.1446    
  5.7788      6.5992      7.6474      8.9602      10.557      12.430      14.532      16.830      19.262      21.686    
  23.898      25.680      26.839      27.240      26.839      25.680      23.898      21.686      19.262      16.830    
  11.008      9.5663      8.3076      7.2474      6.3792      5.6821      5.1293      4.6941      4.3546      4.0947    
  3.9048      3.7798      3.7176      3.7176      3.7798      3.9048      4.0947      4.3546      4.6941      5.1293    
  5.6821      6.3792      7.2474      8.3076      9.5663      11.008      12.587      14.233      15.870      17.412    
  18.733      19.705      20.221      20.221      19.705      18.733      17.412      15.870      14.232      12.587    
  8.6081      7.6585      6.8379      6.1484      5.5804      5.1182      4.7452      4.4465      4.2110      4.0317    
  3.9048      3.8289      3.8036      3.8289      3.9048      4.0317      4.2110      4.4465      4.7452      5.1182    
  5.5804      6.1484      6.8380      7.6585      8.6081      9.6683      10.801      11.949      13.041      13.999    
  14.751      15.235      15.402      15.235      14.751      13.999      13.041      11.949      10.801      9.6683    
  7.0438      6.4404      5.9205      5.4814      5.1157      4.8139      4.5668      4.3675      4.2110      4.0947    
  4.0175      3.9788      3.9788      4.0175      4.0947      4.2110      4.3675      4.5668      4.8139      5.1157    
  5.4814      5.9205      6.4404      7.0438      7.7244      8.4649      9.2347      9.9921      10.687      11.266    
  11.683      11.902      11.902      11.683      11.266      10.687      9.9920      9.2347      8.4648      7.7244    
  6.0704      5.7059      5.3919      5.1257      4.9027      4.7178      4.5668      4.4465      4.3546      4.2897    
  4.2511      4.2382      4.2511      4.2897      4.3546      4.4465      4.5668      4.7178      4.9027      5.1257    
  5.3919      5.7059      6.0704      6.4844      6.9408      7.4251      7.9150      8.3817      8.7922      9.1141    
  9.3197      9.3904      9.3197      9.1141      8.7922      8.3817      7.9150      7.4251      6.9408      6.4844    
  5.5117      5.3165      5.1513      5.0143      4.9027      4.8139      4.7452      4.6941      4.6584      4.6359    
  4.6251      4.6251      4.6359      4.6584      4.6941      4.7452      4.8139      4.9027      5.0142      5.1513    
  5.3165      5.5117      5.7374      5.9912      6.2672      6.5547      6.8385      7.1003      7.3200      7.4788    
  7.5622      7.5622      7.4788      7.3200      7.1003      6.8385      6.5547      6.2672      5.9912      5.7374    
  5.2581      5.1949      5.1513      5.1257      5.1157      5.1182      5.1293      5.1446      5.1597      5.1705    
  5.1744      5.1705      5.1597      5.1446      5.1293      5.1182      5.1157      5.1257      5.1513      5.1949    
  5.2581      5.3417      5.4453      5.5667      5.7015      5.8427      5.9810      6.1054      6.2045      6.2685    
  6.2907      6.2685      6.2045      6.1054      5.9810      5.8427      5.7015      5.5667      5.4453      5.3417    
  5.2581      5.3165      5.3919      5.4814      5.5804      5.6821      5.7787      5.8615      5.9222      5.9543    
  5.9543      5.9222      5.8615      5.7788      5.6821      5.5804      5.4814      5.3919      5.3165      5.2581    
  5.2182      5.1972      5.1942      5.2074      5.2338      5.2693      5.3084      5.3450      5.3735      5.3890    
  5.3890      5.3735      5.3450      5.3084      5.2693      5.2338      5.2074      5.1942      5.1972      5.2183    
  5.5117      5.7059      5.9205      6.1484      6.3792      6.5992      6.7929      6.9449      7.0422      7.0756    