Pt-fcc                                  
   1.00000000000000     
     0.000000    2.000596    2.000596
     2.000596    0.000000    2.000596
     2.000596    2.000596    0.000000
   Pt
     1
Direct
  0.000000  0.000000  0.000000
 
   40   40   40
  140.15      140.03      139.30      137.06      132.15      123.71      111.51      96.175      79.056      61.902    
  46.368      33.610      24.065      17.476      13.106      10.112      8.0932      6.7961      6.0125      5.5976    
  5.4682      5.5976      6.0125      6.7961      8.0932      10.112      13.106      17.476      24.065      33.610    
  46.368      61.902      79.056      96.175      111.51      123.71      132.15      137.06      139.30      140.03    
  140.03      139.60      138.10      134.47      127.70      117.23      103.27      86.871      69.610      53.226    
  39.137      28.121      20.235      14.942      11.384      8.9382      7.3277      6.3203      5.7410      5.4782    
  5.4782      5.7410      6.3203      7.3277      8.9382      11.384      14.942      20.235      28.121      39.137    
  53.226      69.610      86.871      103.27      117.23      127.70      134.47      138.10      139.60      140.03    
  139.30      138.10      135.17      129.56      120.53      108.00      92.640      75.807      59.163      44.248    
  32.099      23.065      16.845      12.696      9.8319      7.9008      6.6584      5.9064      5.5075      5.3830    
  5.5075      5.9064      6.6584      7.9008      9.8319      12.696      16.845      23.065      32.099      44.248    
  59.163      75.807      92.640      108.00      120.53      129.56      135.17      138.10      139.30      139.60    
  137.06      134.47      129.56      121.60      110.34      96.153      80.118      63.725      48.509      35.655    
  25.746      18.713      13.977      10.730      8.4915      7.0155      6.0889      5.5540      5.3105      5.3105    
  5.5540      6.0889      7.0155      8.4915      10.730      13.977      18.713      25.746      35.655      48.509    
  63.725      80.118      96.152      110.34      121.60      129.56      134.47      137.06      138.10      138.10    
  132.15      127.70      120.53      110.34      97.329      82.321      66.587      51.559      38.463      28.034    
  20.400      15.158      11.577      9.0682      7.3748      6.2805      5.6140      5.2582      5.1468      5.2582    
  5.6140      6.2805      7.3748      9.0682      11.577      15.158      20.400      28.034      38.463      51.559    
  66.587      82.321      97.329      110.34      120.53      127.70      132.15      134.47      135.17      134.47    
  123.71      117.23      108.00      96.153      82.321      67.561      53.148      40.260      29.703      21.749    
  16.157      12.316      9.5938      7.7154      6.4704      5.6823      5.2231      5.0126      5.0126      5.2232    
  5.6823      6.4704      7.7154      9.5938      12.316      16.157      21.749      29.703      40.260      53.148    
  67.561      82.321      96.153      108.00      117.23      123.71      127.70      129.56      129.56      127.70    
  111.51      103.27      92.640      80.118      66.587      53.148      40.879      30.583      22.622      16.885    
  12.890      10.030      8.0137      6.6458      5.7527      5.2018      4.9044      4.8106      4.9044      5.2018    
  5.7527      6.6458      8.0137      10.030      12.890      16.885      22.622      30.583      40.879      53.148    
  66.587      80.118      92.640      103.27      111.51      117.23      120.53      121.60      120.53      117.23    
  96.175      86.871      75.807      63.725      51.559      40.260      30.583      22.924      17.270      13.255    
  10.343      8.2469      6.7930      5.8179      5.1908      4.8194      4.6470      4.6470      4.8194      5.1908    
  5.8179      6.7930      8.2469      10.343      13.255      17.270      22.924      30.583      40.260      51.559    
  63.725      75.807      86.871      96.175      103.27      108.00      110.34      110.34      108.00      103.27    
  79.056      69.610      59.163      48.509      38.463      29.703      22.622      17.270      13.380      10.507    
  8.3954      6.8994      5.8708      5.1864      4.7553      4.5183      4.4427      4.5183      4.7553      5.1864    
  5.8708      6.8994      8.3954      10.507      13.380      17.270      22.622      29.703      38.463      48.509    
  59.163      69.610      79.056      86.871      92.640      96.153      97.329      96.152      92.640      86.871    
  61.902      53.226      44.248      35.655      28.034      21.749      16.885      13.255      10.507      8.4465    
  6.9552      5.9054      5.1855      4.7105      4.4224      4.2864      4.2864      4.4224      4.7105      5.1855    
  5.9054      6.9552      8.4465      10.507      13.255      16.885      21.749      28.034      35.655      44.248    
  53.226      61.902      69.610      75.807      80.118      82.321      82.321      80.118      75.807      69.610    
  46.368      39.137      32.099      25.746      20.400      16.157      12.890      10.343      8.3954      6.9552    
  5.9174      5.1857      4.6841      4.3587      4.1754      4.1162      4.1754      4.3587      4.6841      5.1857    
  5.9174      6.9552      8.3954      10.343      12.890      16.157      20.400      25.746      32.099      39.137    
  46.368      53.226      59.163      63.725      66.587      67.561      66.587      63.725      59.163      53.226    
  33.610      28.121      23.065      18.713      15.158      12.316      10.030      8.2469      6.8994      5.9054    
  5.1857      4.6754      4.3268      4.1089      4.0039      4.0039      4.1089      4.3268      4.6754      5.1857    
  5.9054      6.8994      8.2469      10.030      12.316      15.158      18.713      23.065      28.121      33.610    
  39.137      44.248      48.509      51.559      53.148      53.148      51.559      48.509      44.248      39.137    
  24.065      20.235      16.845      13.977      11.577      9.5938      8.0137      6.7930      5.8708      5.1855    
  4.6841      4.3268      4.0867      3.9479      3.9025      3.9479      4.0867      4.3268      4.6841      5.1855    
  5.8708      6.7930      8.0137      9.5938      11.577      13.977      16.845      20.235      24.065      28.121    
  32.099      35.655      38.463      40.260      40.879      40.260      38.463      35.655      32.099      28.121    
  17.476      14.942      12.696      10.730      9.0682      7.7154      6.6458      5.8179      5.1864      4.7105    
  4.3587      4.1089      3.9479      3.8688      3.8688      3.9479      4.1089      4.3587      4.7105      5.1864    
  5.8179      6.6458      7.7154      9.0682      10.730      12.696      14.942      17.476      20.235      23.065    
  25.746      28.034      29.703      30.583      30.583      29.703      28.034      25.746      23.065      20.235    
  13.106      11.384      9.8319      8.4915      7.3748      6.4704      5.7527      5.1908      4.7553      4.4224    
  4.1754      4.0039      3.9025      3.8688      3.9025      4.0039      4.1754      4.4224      4.7553      5.1908    
  5.7527      6.4704      7.3748      8.4915      9.8319      11.384      13.106      14.942      16.845      18.713    
  20.400      21.749      22.622      22.924      22.622      21.749      20.400      18.713      16.845      14.942    
  10.112      8.9382      7.9008      7.0155      6.2805      5.6823      5.2018      4.8194      4.5183      4.2864    
  4.1162      4.0039      3.9479      3.9479      4.0039      4.1162      4.2864      4.5183      4.8194      5.2018    
  5.6823      6.2805      7.0155      7.9008      8.9382      10.112      11.384      12.696      13.977      15.158    
  16.157      16.885      17.270      17.270      16.885      16.157      15.158      13.977      12.696      11.384    
  8.0932      7.3277      6.6584      6.0889      5.6140      5.2231      4.9044      4.6470      4.4427      4.2864    
  4.1754      4.1089      4.0867      4.1089      4.1754      4.2864      4.4427      4.6470      4.9044      5.2231    
  5.6140      6.0889      6.6584      7.3278      8.0932      8.9382      9.8319      10.730      11.577      12.316    
  12.890      13.255      13.380      13.255      12.890      12.316      11.577      10.730      9.8319      8.9382    
  6.7961      6.3203      5.9064      5.5540      5.2582      5.0126      4.8106      4.6470      4.5183      4.4224    
  4.3587      4.3268      4.3268      4.3587      4.4224      4.5183      4.6470      4.8106      5.0126      5.2582    
  5.5540      5.9064      6.3203      6.7961      7.3278      7.9008      8.4915      9.0682      9.5938      10.030    
  10.343      10.507      10.507      10.343      10.030      9.5938      9.0682      8.4915      7.9008      7.3277    
  6.0125      5.7410      5.5075      5.3105      5.1468      5.0126      4.9044      4.8194      4.7553      4.7105    
  4.6841      4.6754      4.6841      4.7105      4.7553      4.8194      4.9044      5.0126      5.1468      5.3105    
  5.5075      5.7410      6.0125      6.3203      6.6584      7.0155      7.3748      7.7154      8.0137      8.2469    
  8.3954      8.4465      8.3954      8.2469      8.0137      7.7154      7.3748      7.0155      6.6584      6.3203    
  5.5976      5.4782      5.3830      5.3105      5.2582      5.2232      5.2018      5.1908      5.1864      5.1855    
  5.1857      5.1857      5.1855      5.1864      5.1908      5.2018      5.2231      5.2582      5.3105      5.3830    
  5.4782      5.5976      5.7410      5.9064      6.0889      6.2805      6.4704      6.6458      6.7930      6.8994    
  6.9552      6.9552      6.8994      6.7930      6.6458      6.4704      6.2805      6.0889      5.9064      5.7410    
  5.4682      5.4782      5.5075      5.5540      5.6140      5.6823      5.7527      5.8179      5.8708      5.9054    
  5.9174      5.9054      5.8708      5.8179      5.7527      5.6823      5.6140      5.5540      5.5075      5.4782    
  5.4682      5.4782      5.5075      5.5540      5.6140      5.6823      5.7527      5.8179      5.8708      5.9054    
  5.9174      5.9054      5.8708      5.8179      5.7527      5.6823      5.6140      5.5540      5.5075      5.4782    
  5.5976      5.7410      5.9064      6.0889      6.2805      6.4704      6.6458      6.7930      6.8994      6.9552    
  6.9552      6.8994      6.7930      6.6458      6.4704      6.2805      6.0889      5.9064      5.7410      5.5976    
  5.4782      5.3830      5.3105      5.2582      5.2231      5.2018      5.1908      5.1864      5.1855      5.1857    
  5.1857      5.1855      5.1864      5.1908      5.2018      5.2232      5.2582      5.3105      5.3830      5.4782    
  6.0125      6.3203      6.6584      7.0155      7.3748      7.7154      8.0137      8.2469      8.3954      8.4465    
  8.3954      8.2469      8.0137      7.7154      7.3748      7.0155      6.6584      6.3203      6.0125      5.7410    
  5.5075      5.3105      5.1468      5.0126      4.9044      4.8194      4.7553      4.7105      4.6841      4.6754    
  4.6841      4.7105      4.7553      4.8194      4.9044      5.0126      5.1468      5.3105      5.5075      5.7410    
  6.7961      7.3277      7.9008      8.4915      9.0682      9.5938      10.030      10.343      10.507      10.507    
  10.343      10.030      9.5938      9.0682      8.4915      7.9008      7.3278      6.7961      6.3203      5.9064    
  5.5540      5.2582      5.0126      4.8106      4.6470      4.5183      4.4224      4.3587      4.3268      4.3268    
  4.3587      4.4224      4.5183      4.6470      4.8106      5.0126      5.2582      5.5540      5.9064      6.3203    
  8.0932      8.9382      9.8319      10.730      11.577      12.316      12.890      13.255      13.380      13.255    
  12.890      12.316      11.577      10.730      9.8319      8.9382      8.0932      7.3278      6.6584      6.0889    
  5.6140      5.2231      4.9044      4.6470      4.4427      4.2864      4.1754      4.1089      4.0867      4.1089    
  4.1754      4.2864      4.4427      4.6470      4.9044      5.2231      5.6140      6.0889      6.6584      7.3277    
  10.112      11.384      12.696      13.977      15.158      16.157      16.885      17.270      17.270      16.885    
  16.157      15.158      13.977      12.696      11.384      10.112      8.9382      7.9008      7.0155      6.2805    
  5.6823      5.2018      4.8194      4.5183      4.2864      4.1162      4.0039      3.9479      3.9479      4.0039    
  4.1162      4.2864      4.5183      4.8194      5.2018      5.6823      6.2805      7.0155      7.9008      8.9382    
  13.106      14.942      16.845      18.713      20.400      21.749      22.622      22.924      22.622      21.749    
  20.400      18.713      16.845      14.942      13.106      11.384      9.8319      8.4915      7.3748      6.4704    
  5.7527      5.1908      4.7553      4.4224      4.1754      4.0039      3.9025      3.8688      3.9025      4.0039    
  4.1754      4.4224      4.7553      5.1908      5.7527      6.4704      7.3748      8.4915      9.8319      11.384    
  17.476      20.235      23.065      25.746      28.034      29.703      30.583      30.583      29.703      28.034    
  25.746      23.065      20.235      17.476      14.942      12.696      10.730      9.0682      7.7154      6.6458    
  5.8179      5.1864      4.7105      4.3587      4.1089      3.9479      3.8688      3.8688      3.9479      4.1089    
  4.3587      4.7105      5.1864      5.8179      6.6458      7.7154      9.0682      10.730      12.696      14.942    
  24.065      28.121      32.099      35.655      38.463      40.260      40.879      40.260      38.463      35.655    
  32.099      28.121      24.065      20.235      16.845      13.977      11.577      9.5938      8.0137      6.7930    
  5.8708      5.1855      4.6841      4.3268      4.0867      3.9479      3.9025      3.9479      4.0867      4.3268    
  4.6841      5.1855      5.8708      6.7930      8.0137      9.5938      11.577      13.977      16.845      20.235    
  33.610      39.137      44.248      48.509      51.559      53.148      53.148      51.559      48.509      44.248    
  39.137      33.610      28.121      23.065      18.713      15.158      12.316      10.030      8.2469      6.8994    
  5.9054      5.1857      4.6754      4.3268      4.1089      4.0039      4.0039      4.1089      4.3268      4.6754    
  5.1857      5.9054      6.8994      8.2469      10.030      12.316      15.158      18.713      23.065      28.121    
  46.368      53.226      59.163      63.725      66.587      67.561      66.587      63.725      59.163      53.226    
  46.368      39.137      32.099      25.746      20.400      16.157      12.890      10.343      8.3954      6.9552    
  5.9174      5.1857      4.6841      4.3587      4.1754      4.1162      4.1754      4.3587      4.6841      5.1857    
  5.9174      6.9552      8.3954      10.343      12.890      16.157      20.400      25.746      32.099      39.137    
  61.902      69.610      75.807      80.118      82.321      82.321      80.118      75.807      69.610      61.902    
  53.226      44.248      35.655      28.034      21.749      16.885      13.255      10.507      8.4465      6.9552    
  5.9054      5.1855      4.7105      4.4224      4.2864      4.2864      4.4224      4.7105      5.1855      5.9054    
  6.9552      8.4465      10.507      13.255      16.885      21.749      28.034      35.655      44.248      53.226    
  79.056      86.871      92.640      96.152      97.329      96.153      92.640      86.871      79.056      69.610    
  59.163      48.509      38.463      29.703      22.622      17.270      13.380      10.507      8.3954      6.8994    
  5.8708      5.1864      4.7553      4.5183      4.4427      4.5183      4.7553      5.1864      5.8708      6.8994    
  8.3954      10.507      13.380      17.270      22.622      29.703      38.463      48.509      59.163      69.610    
  96.175      103.27      108.00      110.34      110.34      108.00      103.27      96.175      86.871      75.807    
  63.725      51.559      40.260      30.583      22.924      17.270      13.255      10.343      8.2469      6.7930    
  5.8179      5.1908      4.8194      4.6470      4.6470      4.8194      5.1908      5.8179      6.7930      8.2469    
  10.343      13.255      17.270      22.924      30.583      40.260      51.559      63.725      75.807      86.871    
  111.51      117.23      120.53      121.60      120.53      117.23      111.51      103.27      92.640      80.118    
  66.587      53.148      40.879      30.583      22.622      16.885      12.890      10.030      8.0137      6.6458    
  5.7527      5.2018      4.9044      4.8106      4.9044      5.2018      5.7527      6.6458      8.0137      10.030    
  12.890      16.885      22.622      30.583      40.879      53.148      66.587      80.118      92.640      103.27    
  123.71      127.70      129.56      129.56      127.70      123.71      117.23      108.00      96.153      82.321    
  67.561      53.148      40.260      29.703      21.749      16.157      12.316      9.5938      7.7154      6.4704    
  5.6823      5.2232      5.0126      5.0126      5.2231      5.6823      6.4704      7.7154      9.5938      12.316    
  16.157      21.749      29.703      40.260      53.148      67.561      82.321      96.153      108.00      117.23    
  132.15      134.47      135.17      134.47      132.15      127.70      120.53      110.34      97.329      82.321    
  66.587      51.559      38.463      28.034      20.400      15.158      11.577      9.0682      7.3748      6.2805    
  5.6140      5.2582      5.1468      5.2582      5.6140      6.2805      7.3748      9.0682      11.577      15.158    
  20.400      28.034      38.463      51.559      66.587      82.321      97.329      110.34      120.53      127.70    
  137.06      138.10      138.10      137.06      134.47      129.56      121.60      110.34      96.152      80.118    
  63.725      48.509      35.655      25.746      18.713      13.977      10.730      8.4915      7.0155      6.0889    
  5.5540      5.3105      5.3105      5.5540      6.0889      7.0155      8.4915      10.730      13.977      18.713    
  25.746      35.655      48.509      63.725      80.118      96.153      110.34      121.60      129.56      134.47    
  139.30      139.60      139.30      138.10      135.17      129.56      120.53      108.00      92.640      75.807    
  59.163      44.248      32.099      23.065      16.845      12.696      9.8319      7.9008      6.6584      5.9064    
  5.5075      5.3830      5.5075      5.9064      6.6584      7.9008      9.8319      12.696      16.845      23.065    
  32.099      44.248      59.163      75.807      92.640      108.00      120.53      129.56      135.17      138.10    
  140.03      140.03      139.60      138.10      134.47      127.70      117.23      103.27      86.871      69.610    
  53.226      39.137      28.121      20.235      14.942      11.384      8.9382      7.3277      6.3203      5.7410    
  5.4782      5.4782      5.7410      6.3203      7.3277      8.9382      11.384      14.942      20.235      28.121    
  39.137      53.226      69.610      86.871      103.27      117.23      127.70      134.47      138.10      139.60    
  140.03      139.60      138.10      134.47      127.70      117.23      103.27      86.871      69.610      53.226    
  39.137      28.121      20.235      14.942      11.384      8.9382      7.3277      6.3203      5.7410      5.4782    
  5.4782      5.7410      6.3203      7.3277      8.9382      11.384      14.942      20.235      28.121      39.137    
  53.226      69.610      86.871      103.27      117.23      127.70      134.47      138.10      139.60      140.03    
  139.60      138.50      135.72      130.27      121.38      108.93      93.585      76.688      59.919      44.844    
  32.532      23.356      17.031      12.819      9.9181      7.9619      6.7038      5.9427      5.5392      5.4134    
  5.5392      5.9427      6.7038      7.9619      9.9181      12.819      17.031      23.356      32.532      44.844    
  59.919      76.688      93.585      108.93      121.38      130.27      135.72      138.50      139.60      139.86    
  138.10      135.72      131.06      123.34      112.24      98.089      81.953      65.336      49.816      36.633    
  26.421      19.151      14.259      10.926      8.6291      7.1151      6.1657      5.6183      5.3694      5.3694    
  5.6183      6.1657      7.1151      8.6291      10.926      14.259      19.151      26.421      36.633      49.816    
  65.336      81.953      98.089      112.24      123.34      131.06      135.72      138.10      139.02      139.02    
  134.47      130.27      123.34      113.32      100.34      85.175      69.121      53.653      40.066      29.169    
  21.150      15.639      11.905      9.2971      7.5376      6.4021      5.7119      5.3442      5.2292      5.3442    
  5.7119      6.4021      7.5376      9.2971      11.905      15.639      21.150      29.169      40.066      53.653    
  69.121      85.175      100.34      113.32      123.34      130.27      134.47      136.60      137.24      136.61    
  127.70      121.38      112.24      100.34      86.257      71.062      56.068      42.532      31.344      22.855    
  16.870      12.791      9.9262      7.9489      6.6405      5.8146      5.3348      5.1154      5.1154      5.3348    
  5.8146      6.6405      7.9489      9.9262      12.791      16.870      22.855      31.344      42.532      56.068    
  71.062      86.257      100.34      112.24      121.38      127.70      131.51      133.27      133.27      131.51    
  117.23      108.93      98.089      85.175      71.062      56.891      43.818      32.738      24.099      17.848    
  13.524      10.474      8.3231      6.8669      5.9195      5.3376      5.0246      4.9261      5.0246      5.3376    
  5.9195      6.8669      8.3231      10.474      13.524      17.848      24.099      32.738      43.818      56.891    
  71.062      85.175      98.089      108.93      117.23      122.91      126.17      127.22      126.17      122.91    
  103.27      93.585      81.953      69.121      56.068      43.818      33.218      24.755      18.479      14.051    
  10.899      8.6335      7.0655      6.0183      5.3484      4.9539      4.7716      4.7716      4.9539      5.3484    
  6.0183      7.0655      8.6335      10.899      14.051      18.479      24.755      33.218      43.818      56.068    
  69.121      81.953      93.585      103.27      110.60      115.44      117.83      117.83      115.44      110.60    
  86.871      76.688      65.336      53.653      42.532      32.738      24.755      18.697      14.327      11.169    
  8.8559      7.2208      6.1023      5.3630      4.9006      4.6480      4.5677      4.6480      4.9006      5.3630    
  6.1023      7.2208      8.8559      11.169      14.327      18.697      24.755      32.738      42.532      53.653    
  65.336      76.688      86.871      95.235      101.37      105.10      106.34      105.10      101.37      95.235    
  69.610      59.919      49.816      40.066      31.344      24.099      18.479      14.327      11.261      8.9720    
  7.3198      6.1636      5.3770      4.8626      4.5531      4.4077      4.4077      4.5531      4.8626      5.3770    
  6.1636      7.3198      8.9720      11.261      14.327      18.479      24.099      31.344      40.066      49.816    
  59.919      69.610      78.166      85.012      89.757      92.176      92.176      89.757      85.012      78.166    
  53.226      44.844      36.633      29.169      22.855      17.848      14.051      11.169      8.9720      7.3539    
  6.1959      5.3870      4.8382      4.4857      4.2887      4.2253      4.2887      4.4857      4.8382      5.3870    
  6.1959      7.3539      8.9720      11.169      14.051      17.848      22.855      29.169      36.633      44.844    
  53.226      61.130      67.940      73.155      76.420      77.530      76.420      73.155      67.940      61.130    
  39.137      32.532      26.421      21.150      16.870      13.524      10.899      8.8559      7.3198      6.1959    
  5.3907      4.8263      4.4453      4.2094      4.0965      4.0965      4.2094      4.4453      4.8263      5.3907    
  6.1959      7.3198      8.8559      10.899      13.524      16.870      21.150      26.421      32.532      39.137    
  45.754      51.848      56.911      60.528      62.409      62.409      60.528      56.911      51.848      45.754    
  28.121      23.356      19.151      15.639      12.791      10.474      8.6335      7.2208      6.1636      5.3870    
  4.8263      4.4319      4.1698      4.0195      3.9705      4.0195      4.1698      4.4318      4.8263      5.3870    
  6.1636      7.2208      8.6335      10.474      12.791      15.639      19.151      23.356      28.121      33.161    
  38.091      42.486      45.949      48.162      48.923      48.162      45.949      42.486      38.091      33.161    
  20.235      17.031      14.259      11.905      9.9262      8.3231      7.0655      6.1023      5.3770      4.8382    
  4.4453      4.1698      3.9939      3.9079      3.9079      3.9939      4.1698      4.4453      4.8382      5.3770    
  6.1023      7.0655      8.3231      9.9262      11.905      14.259      17.031      20.235      23.762      27.391    
  30.830      33.762      35.900      37.026      37.026      35.900      33.762      30.830      27.391      23.762    
  14.942      12.819      10.926      9.2971      7.9489      6.8669      6.0183      5.3630      4.8626      4.4857    
  4.2094      4.0195      3.9079      3.8711      3.9079      4.0195      4.2094      4.4857      4.8626      5.3630    
  6.0183      6.8669      7.9489      9.2971      10.926      12.819      14.942      17.282      19.760      22.218    
  24.450      26.239      27.398      27.799      27.398      26.239      24.450      22.218      19.760      17.282    
  11.384      9.9181      8.6291      7.5376      6.6405      5.9195      5.3484      4.9006      4.5531      4.2887    
  4.0965      3.9705      3.9079      3.9079      3.9705      4.0965      4.2887      4.5531      4.9006      5.3484    
  5.9195      6.6405      7.5376      8.6291      9.9181      11.384      12.979      14.638      16.304      17.875    
  19.222      20.210      20.734      20.734      20.210      19.222      17.875      16.304      14.638      12.979    
  8.9382      7.9619      7.1151      6.4021      5.8146      5.3376      4.9539      4.6480      4.4077      4.2253    
  4.0965      4.0195      3.9939      4.0195      4.0965      4.2253      4.4077      4.6480      4.9539      5.3376    
  5.8146      6.4021      7.1151      7.9619      8.9382      10.023      11.175      12.335      13.433      14.399    
  15.163      15.655      15.825      15.655      15.163      14.399      13.433      12.335      11.175      10.023    
  7.3277      6.7038      6.1657      5.7119      5.3348      5.0246      4.7716      4.5677      4.4077      4.2887    
  4.2094      4.1698      4.1698      4.2094      4.2887      4.4077      4.5677      4.7716      5.0246      5.3348    
  5.7119      6.1657      6.7038      7.3278      8.0300      8.7912      9.5793      10.351      11.056      11.641    
  12.062      12.281      12.281      12.062      11.641      11.056      10.351      9.5793      8.7912      8.0300    
  6.3203      5.9427      5.6183      5.3442      5.1154      4.9261      4.7716      4.6480      4.5531      4.4857    
  4.4453      4.4318      4.4453      4.4857      4.5531      4.6480      4.7716      4.9261      5.1154      5.3442    
  5.6183      5.9427      6.3203      6.7493      7.2216      7.7215      8.2256      8.7039      9.1233      9.4512    
  9.6602      9.7320      9.6602      9.4512      9.1232      8.7039      8.2256      7.7215      7.2216      6.7492    
  5.7410      5.5392      5.3694      5.2292      5.1154      5.0246      4.9539      4.9006      4.8626      4.8382    
  4.8263      4.8263      4.8382      4.8626      4.9006      4.9539      5.0246      5.1154      5.2292      5.3694    
  5.5392      5.7410      5.9751      6.2387      6.5251      6.8226      7.1154      7.3844      7.6094      7.7717    
  7.8567      7.8567      7.7717      7.6094      7.3844      7.1154      6.8226      6.5251      6.2387      5.9751    
  5.4782      5.4134      5.3694      5.3442      5.3348      5.3376      5.3484      5.3630      5.3770      5.3870    
  5.3907      5.3870      5.3770      5.3630      5.3484      5.3376      5.3348      5.3442      5.3694      5.4134    
  5.4782      5.5650      5.6730      5.7996      5.9399      6.0861      6.2285      6.3558      6.4568      6.5218    
  6.5443      6.5218      6.4568      6.3558      6.2285      6.0861      5.9399      5.7996      5.6730      5.5650    
  5.4782      5.5392      5.6183      5.7119      5.8146      5.9195      6.0183      6.1023      6.1636      6.1959    
  6.1959      6.1636      6.1023      6.0183      5.9195      5.8146      5.7119      5.6183      5.5392      5.4782    
  5.4371      5.4161      5.4141      5.4289      5.4569      5.4934      5.5328      5.5692      5.5972      5.6124    
  5.6124      5.5972      5.5692      5.5328      5.4934      5.4569      5.4289      5.4141      5.4161      5.4371    
  5.7410      5.9427      6.1657      6.4021      6.6405      6.8669      7.0655      7.2208      7.3198      7.3539    