Pt-fcc                                  
   1.00000000000000     
     0.000000    2.038214    2.038214
     2.038214    0.000000    2.038214
     2.038214    2.038214    0.000000
   Pt
     1
Direct
  0.000000  0.000000  0.000000
 
   40   40   40
 0.14823856182E+03 0.14809899091E+03 0.14728102782E+03 0.14474500361E+03 0.13923126162E+03
 0.12979546854E+03 0.11626121245E+03 0.99412161815E+02 0.80841363317E+02 0.62513801871E+02
 0.46216555889E+02 0.33108119640E+02 0.23517116862E+02 0.17019612140E+02 0.12713406571E+02
 0.97556131758E+01 0.77857934059E+01 0.65298517864E+01 0.57737812065E+01 0.53736294197E+01
 0.52488161790E+01 0.53736294197E+01 0.57737812065E+01 0.65298517864E+01 0.77857934059E+01
 0.97556131758E+01 0.12713406571E+02 0.17019612140E+02 0.23517116862E+02 0.33108119640E+02
 0.46216555889E+02 0.62513801871E+02 0.80841363317E+02 0.99412161815E+02 0.11626121245E+03
 0.12979546854E+03 0.13923126162E+03 0.14474500361E+03 0.14728102782E+03 0.14809899091E+03
 0.14809899091E+03 0.14761748052E+03 0.14592009458E+03 0.14183485836E+03 0.13424263249E+03
 0.12258381090E+03 0.10718725710E+03 0.89286605034E+02 0.70711066351E+02 0.53372447215E+02
 0.38750877727E+02 0.27567046547E+02 0.19730651830E+02 0.14531984099E+02 0.11007579282E+02
 0.86080826366E+01 0.70437852329E+01 0.60704390626E+01 0.55117118708E+01 0.52581165345E+01
 0.52581173994E+01 0.55117140391E+01 0.60704414401E+01 0.70437865922E+01 0.86080822019E+01
 0.11007577154E+02 0.14531981255E+02 0.19730649715E+02 0.27567046355E+02 0.38750879698E+02
 0.53372450239E+02 0.70711068093E+02 0.89286602634E+02 0.10718724815E+03 0.12258379454E+03
 0.13424260996E+03 0.14183483304E+03 0.14592007124E+03 0.14761746403E+03 0.14809898496E+03
 0.14728102782E+03 0.14592009458E+03 0.14262633127E+03 0.13632254598E+03 0.12625157214E+03
 0.11238055223E+03 0.95557395749E+02 0.77348842323E+02 0.59619684666E+02 0.44020051738E+02
 0.31577175303E+02 0.22526356760E+02 0.16401595201E+02 0.12307476832E+02 0.94819145054E+01
 0.75991142378E+01 0.63964253719E+01 0.56705774200E+01 0.52854878186E+01 0.51651938478E+01
 0.52854907030E+01 0.56705817528E+01 0.63964289529E+01 0.75991151551E+01 0.94819120879E+01
 0.12307472067E+02 0.16401590371E+02 0.22526354424E+02 0.31577176965E+02 0.44020056807E+02
 0.59619690172E+02 0.77348843610E+02 0.95557387999E+02 0.11238053230E+03 0.12625154012E+03
 0.13632250574E+03 0.14262628987E+03 0.14592006049E+03 0.14728100856E+03 0.14761746403E+03
 0.14474500361E+03 0.14183485836E+03 0.13632254598E+03 0.12744602634E+03 0.11496139658E+03
 0.99389556288E+02 0.81987968020E+02 0.64449552793E+02 0.48445577523E+02 0.35191497695E+02
 0.25192436901E+02 0.18234234899E+02 0.13580151801E+02 0.10364369996E+02 0.81736351930E+01
 0.67414139837E+01 0.58459897127E+01 0.53292516456E+01 0.50937269920E+01 0.50937288758E+01
 0.53292563658E+01 0.58459949192E+01 0.67414169924E+01 0.81736342878E+01 0.10364365314E+02
 0.13580145421E+02 0.18234229986E+02 0.25192436256E+02 0.35191502242E+02 0.48445585430E+02
 0.64449559620E+02 0.81987968017E+02 0.99389544432E+02 0.11496137063E+03 0.12744598819E+03
 0.13632250166E+03 0.14183481675E+03 0.14474497394E+03 0.14592006049E+03 0.14592007124E+03
 0.13923126162E+03 0.13424263249E+03 0.12625157214E+03 0.11496139658E+03 0.10067543345E+03
 0.84366091610E+02 0.67492327580E+02 0.51630590922E+02 0.38063473953E+02 0.27481538884E+02
 0.19893636242E+02 0.14745935400E+02 0.11201534119E+02 0.87367489146E+01 0.70897038928E+01
 0.60307718317E+01 0.53863723368E+01 0.50418420386E+01 0.49337108828E+01 0.50418454826E+01
 0.53863775457E+01 0.60307762125E+01 0.70897051426E+01 0.87367461378E+01 0.11201528360E+02
 0.14745929323E+02 0.19893633028E+02 0.27481540769E+02 0.38063481007E+02 0.51630600581E+02
 0.67492335252E+02 0.84366092138E+02 0.10067542305E+03 0.11496137446E+03 0.12625154123E+03
 0.13424259897E+03 0.13923123321E+03 0.14183481675E+03 0.14262628987E+03 0.14183483304E+03
 0.12979546854E+03 0.12258381090E+03 0.11238055223E+03 0.99389556288E+02 0.84366091610E+02
 0.68530278352E+02 0.53294778468E+02 0.39909473441E+02 0.29159808161E+02 0.21225089615E+02
 0.15727816454E+02 0.11934354449E+02 0.92520195729E+01 0.74209745065E+01 0.62147739010E+01
 0.54522832340E+01 0.50070930556E+01 0.48023485719E+01 0.48023500152E+01 0.50070967093E+01
 0.54522873599E+01 0.62147764780E+01 0.74209741478E+01 0.92520162172E+01 0.11934349497E+02
 0.15727812294E+02 0.21225088673E+02 0.29159811851E+02 0.39909481457E+02 0.53294788663E+02
 0.68530287408E+02 0.84366096118E+02 0.99389554050E+02 0.11238054315E+03 0.12258379715E+03
 0.12979545400E+03 0.13424259897E+03 0.13632250166E+03 0.13632250574E+03 0.13424260996E+03
 0.11626121245E+03 0.10718725710E+03 0.95557395749E+02 0.81987968020E+02 0.67492327580E+02
 0.53294778468E+02 0.40545899061E+02 0.30047483637E+02 0.22088726805E+02 0.16442782544E+02
 0.12506077670E+02 0.96813371017E+01 0.77121932116E+01 0.63854976901E+01 0.55209400121E+01
 0.49864968263E+01 0.46967242879E+01 0.46050191839E+01 0.46967258463E+01 0.49864992741E+01
 0.55209422839E+01 0.63854987589E+01 0.77121925311E+01 0.96813348768E+01 0.12506074859E+02
 0.16442780564E+02 0.22088727090E+02 0.30047487136E+02 0.40545905956E+02 0.53294788047E+02
 0.67492338538E+02 0.81987978811E+02 0.95557405043E+02 0.10718726415E+03 0.11626121710E+03
 0.12258379715E+03 0.12625154123E+03 0.12744598819E+03 0.12625154012E+03 0.12258379454E+03
 0.99412161815E+02 0.89286605034E+02 0.77348842323E+02 0.64449552793E+02 0.51630590922E+02
 0.39909473441E+02 0.30047483637E+02 0.22388050766E+02 0.16820348539E+02 0.12869775854E+02
 0.99899517566E+01 0.79404507055E+01 0.65294137033E+01 0.55852484918E+01 0.49765889819E+01
 0.46142777683E+01 0.44452530182E+01 0.44452531576E+01 0.46142781801E+01 0.49765896406E+01
 0.55852492947E+01 0.65294144541E+01 0.79404511253E+01 0.99899516013E+01 0.12869775071E+02
 0.16820347422E+02 0.22388050066E+02 0.30047484457E+02 0.39909477084E+02 0.51630598454E+02
 0.64449564695E+02 0.77348858182E+02 0.89286623378E+02 0.99412180341E+02 0.10718726415E+03
 0.11238054315E+03 0.11496137446E+03 0.11496137063E+03 0.11238053230E+03 0.10718724815E+03
 0.80841363317E+02 0.70711066351E+02 0.59619684666E+02 0.48445577523E+02 0.38063473953E+02
 0.29159808161E+02 0.22088726805E+02 0.16820348539E+02 0.12994591256E+02 0.10151404249E+02
 0.80862166603E+01 0.66337959700E+01 0.56378949181E+01 0.49736425056E+01 0.45528037496E+01
 0.43198631240E+01 0.42452662070E+01 0.43198622744E+01 0.45528025852E+01 0.49736418125E+01
 0.56378953085E+01 0.66337975015E+01 0.80862187141E+01 0.10151405719E+02 0.12994591070E+02
 0.16820346201E+02 0.22088722905E+02 0.29159804350E+02 0.38063472659E+02 0.48445581116E+02
 0.59619694582E+02 0.70711082450E+02 0.80841383536E+02 0.89286623378E+02 0.95557405043E+02
 0.99389554050E+02 0.10067542305E+03 0.99389544432E+02 0.95557387999E+02 0.89286602634E+02
 0.62513801871E+02 0.53372447215E+02 0.44020051738E+02 0.35191497695E+02 0.27481538884E+02
 0.21225089615E+02 0.16442782544E+02 0.12869775854E+02 0.10151404249E+02 0.81363500550E+01
 0.66887122370E+01 0.56724507703E+01 0.49740952249E+01 0.45104285344E+01 0.42269057961E+01
 0.40921259232E+01 0.40921250551E+01 0.42269036475E+01 0.45104262619E+01 0.49740941202E+01
 0.56724516073E+01 0.66887148011E+01 0.81363531196E+01 0.10151405968E+02 0.12869774566E+02
 0.16442777489E+02 0.21225081530E+02 0.27481529875E+02 0.35191490713E+02 0.44020049617E+02
 0.53372451515E+02 0.62513812332E+02 0.70711082450E+02 0.77348858182E+02 0.81987978811E+02
 0.84366096118E+02 0.84366092138E+02 0.81987968017E+02 0.77348843610E+02 0.70711068093E+02
 0.46216555889E+02 0.38750877727E+02 0.31577175303E+02 0.25192436901E+02 0.19893636242E+02
 0.15727816454E+02 0.12506077670E+02 0.99899517566E+01 0.80862166603E+01 0.66887122370E+01
 0.56844950013E+01 0.49751111251E+01 0.44856616932E+01 0.41653314983E+01 0.39834628758E+01
 0.39244080543E+01 0.39834609356E+01 0.41653285488E+01 0.44856591823E+01 0.49751103381E+01
 0.56844964462E+01 0.66887152716E+01 0.80862196696E+01 0.99899526358E+01 0.12506074715E+02
 0.15727808962E+02 0.19893625001E+02 0.25192423984E+02 0.31577163384E+02 0.38750869341E+02
 0.46216552412E+02 0.53372451515E+02 0.59619694582E+02 0.64449564695E+02 0.67492338538E+02
 0.68530287408E+02 0.67492335252E+02 0.64449559620E+02 0.59619690172E+02 0.53372450239E+02
 0.33108119640E+02 0.27567046547E+02 0.22526356760E+02 0.18234234899E+02 0.14745935400E+02
 0.11934354449E+02 0.96813371017E+01 0.79404507055E+01 0.66337959700E+01 0.56724507703E+01
 0.49751111251E+01 0.44775211700E+01 0.41346402134E+01 0.39183795135E+01 0.38134687953E+01
 0.38134678276E+01 0.39183770430E+01 0.41346373053E+01 0.44775191288E+01 0.49751108766E+01
 0.56724524897E+01 0.66337988381E+01 0.79404532045E+01 0.96813373891E+01 0.11934351084E+02
 0.14745927757E+02 0.18234223404E+02 0.22526342879E+02 0.27567032135E+02 0.33108106596E+02
 0.38750869341E+02 0.44020049617E+02 0.48445581116E+02 0.51630598454E+02 0.53294788047E+02
 0.53294788663E+02 0.51630600581E+02 0.48445585430E+02 0.44020056807E+02 0.38750879698E+02
 0.23517116862E+02 0.19730651830E+02 0.16401595201E+02 0.13580151801E+02 0.11201534119E+02
 0.92520195729E+01 0.77121932116E+01 0.65294137033E+01 0.56378949181E+01 0.49740952249E+01
 0.44856616932E+01 0.41346402134E+01 0.38966859888E+01 0.37581314031E+01 0.37125513470E+01
 0.37581300690E+01 0.38966838270E+01 0.41346380614E+01 0.44856604278E+01 0.49740954286E+01
 0.56378966656E+01 0.65294164486E+01 0.77121959265E+01 0.92520209734E+01 0.11201532971E+02
 0.13580147353E+02 0.16401587130E+02 0.19730640634E+02 0.23517103501E+02 0.27567032135E+02
 0.31577163384E+02 0.35191490713E+02 0.38063472659E+02 0.39909477084E+02 0.40545905956E+02
 0.39909481457E+02 0.38063481007E+02 0.35191502242E+02 0.31577176965E+02 0.27567046355E+02
 0.17019612140E+02 0.14531984099E+02 0.12307476832E+02 0.10364369996E+02 0.87367489146E+01
 0.74209745065E+01 0.63854976901E+01 0.55852484918E+01 0.49736425056E+01 0.45104285344E+01
 0.41653314983E+01 0.39183795135E+01 0.37581314031E+01 0.36790410073E+01 0.36790406922E+01
 0.37581305420E+01 0.39183783546E+01 0.41653304275E+01 0.45104280341E+01 0.49736430440E+01
 0.55852504024E+01 0.63855010086E+01 0.74209788525E+01 0.87367535141E+01 0.10364373638E+02
 0.12307478320E+02 0.14531982350E+02 0.17019606566E+02 0.19730640634E+02 0.22526342879E+02
 0.25192423984E+02 0.27481529875E+02 0.29159804350E+02 0.30047484457E+02 0.30047487136E+02
 0.29159811851E+02 0.27481540769E+02 0.25192436256E+02 0.22526354424E+02 0.19730649715E+02
 0.12713406571E+02 0.11007579282E+02 0.94819145054E+01 0.81736351930E+01 0.70897038928E+01
 0.62147739010E+01 0.55209400121E+01 0.49765889819E+01 0.45528037496E+01 0.42269057961E+01
 0.39834628758E+01 0.38134687953E+01 0.37125513470E+01 0.36790406922E+01 0.37125515375E+01
 0.38134690131E+01 0.39834629302E+01 0.42269056589E+01 0.45528037247E+01 0.49765897000E+01
 0.55209422839E+01 0.62147783938E+01 0.70897107619E+01 0.81736439283E+01 0.94819238019E+01
 0.11007587369E+02 0.12713411777E+02 0.14531982350E+02 0.16401587130E+02 0.18234223404E+02
 0.19893625001E+02 0.21225081530E+02 0.22088722905E+02 0.22388050066E+02 0.22088727090E+02
 0.21225088673E+02 0.19893633028E+02 0.18234229986E+02 0.16401590371E+02 0.14531981255E+02
 0.97556131758E+01 0.86080826366E+01 0.75991142378E+01 0.67414139837E+01 0.60307718317E+01
 0.54522832340E+01 0.49864968263E+01 0.46142777683E+01 0.43198631240E+01 0.40921259232E+01
 0.39244080543E+01 0.38134678276E+01 0.37581300690E+01 0.37581305420E+01 0.38134690131E+01
 0.39244093631E+01 0.40921267593E+01 0.43198632291E+01 0.46142775081E+01 0.49864971578E+01
 0.54522854450E+01 0.60307770693E+01 0.67414227010E+01 0.75991259648E+01 0.86080959402E+01
 0.97556259688E+01 0.11007587369E+02 0.12307478320E+02 0.13580147353E+02 0.14745927757E+02
 0.15727808962E+02 0.16442777489E+02 0.16820346201E+02 0.16820347422E+02 0.16442780564E+02
 0.15727812294E+02 0.14745929323E+02 0.13580145421E+02 0.12307472067E+02 0.11007577154E+02
 0.77857934059E+01 0.70437852329E+01 0.63964253719E+01 0.58459897127E+01 0.53863723368E+01
 0.50070930556E+01 0.46967242879E+01 0.44452530182E+01 0.42452662070E+01 0.40921250551E+01
 0.39834609356E+01 0.39183770430E+01 0.38966838270E+01 0.39183783546E+01 0.39834629302E+01
 0.40921267593E+01 0.42452667840E+01 0.44452522027E+01 0.46967226351E+01 0.50070918454E+01
 0.53863731565E+01 0.58459939487E+01 0.63964335896E+01 0.70437969428E+01 0.77858071506E+01
 0.86080959402E+01 0.94819238019E+01 0.10364373638E+02 0.11201532971E+02 0.11934351084E+02
 0.12506074715E+02 0.12869774566E+02 0.12994591070E+02 0.12869775071E+02 0.12506074859E+02
 0.11934349497E+02 0.11201528360E+02 0.10364365314E+02 0.94819120879E+01 0.86080822019E+01
 0.65298517864E+01 0.60704390626E+01 0.56705774200E+01 0.53292516456E+01 0.50418420386E+01
 0.48023485719E+01 0.46050191839E+01 0.44452531576E+01 0.43198622744E+01 0.42269036475E+01
 0.41653285488E+01 0.41346373053E+01 0.41346380614E+01 0.41653304275E+01 0.42269056589E+01
 0.43198632291E+01 0.44452522027E+01 0.46050161876E+01 0.48023442877E+01 0.50418379243E+01
 0.53292493696E+01 0.56705783673E+01 0.60704438346E+01 0.65298599752E+01 0.70437969428E+01
 0.75991259648E+01 0.81736439283E+01 0.87367535141E+01 0.92520209734E+01 0.96813373891E+01
 0.99899526358E+01 0.10151405968E+02 0.10151405719E+02 0.99899516013E+01 0.96813348768E+01
 0.92520162172E+01 0.87367461378E+01 0.81736342878E+01 0.75991151551E+01 0.70437865922E+01
 0.57737812065E+01 0.55117118708E+01 0.52854878186E+01 0.50937269920E+01 0.49337108828E+01
 0.48023500152E+01 0.46967258463E+01 0.46142781801E+01 0.45528025852E+01 0.45104262619E+01
 0.44856591823E+01 0.44775191288E+01 0.44856604278E+01 0.45104280341E+01 0.45528037247E+01
 0.46142775081E+01 0.46967226351E+01 0.48023442877E+01 0.49337034516E+01 0.50937192847E+01
 0.52854813965E+01 0.55117080080E+01 0.57737805433E+01 0.60704438346E+01 0.63964335896E+01
 0.67414227010E+01 0.70897107619E+01 0.74209788525E+01 0.77121959265E+01 0.79404532045E+01
 0.80862196696E+01 0.81363531196E+01 0.80862187141E+01 0.79404511253E+01 0.77121925311E+01
 0.74209741478E+01 0.70897051426E+01 0.67414169924E+01 0.63964289529E+01 0.60704414401E+01
 0.53736294197E+01 0.52581165345E+01 0.51651938478E+01 0.50937288758E+01 0.50418454826E+01
 0.50070967093E+01 0.49864992741E+01 0.49765896406E+01 0.49736418125E+01 0.49740941202E+01
 0.49751103381E+01 0.49751108766E+01 0.49740954286E+01 0.49736430440E+01 0.49765897000E+01
 0.49864971578E+01 0.50070918454E+01 0.50418379243E+01 0.50937192847E+01 0.51651833753E+01
 0.52581065053E+01 0.53736210019E+01 0.55117080080E+01 0.56705783673E+01 0.58459939487E+01
 0.60307770693E+01 0.62147783938E+01 0.63855010086E+01 0.65294164486E+01 0.66337988381E+01
 0.66887152716E+01 0.66887148011E+01 0.66337975015E+01 0.65294144541E+01 0.63854987589E+01
 0.62147764780E+01 0.60307762125E+01 0.58459949192E+01 0.56705817528E+01 0.55117140391E+01
 0.52488161790E+01 0.52581173994E+01 0.52854907030E+01 0.53292563658E+01 0.53863775457E+01
 0.54522873599E+01 0.55209422839E+01 0.55852492947E+01 0.56378953085E+01 0.56724516073E+01
 0.56844964462E+01 0.56724524897E+01 0.56378966656E+01 0.55852504024E+01 0.55209422839E+01
 0.54522854450E+01 0.53863731565E+01 0.53292493696E+01 0.52854813965E+01 0.52581065053E+01
 0.52488047193E+01 0.52581065053E+01 0.52854813965E+01 0.53292493696E+01 0.53863731565E+01
 0.54522854450E+01 0.55209422839E+01 0.55852504024E+01 0.56378966656E+01 0.56724524897E+01
 0.56844964462E+01 0.56724516073E+01 0.56378953085E+01 0.55852492947E+01 0.55209422839E+01
 0.54522873599E+01 0.53863775457E+01 0.53292563658E+01 0.52854907030E+01 0.52581173994E+01
 0.53736294197E+01 0.55117140391E+01 0.56705817528E+01 0.58459949192E+01 0.60307762125E+01
 0.62147764780E+01 0.63854987589E+01 0.65294144541E+01 0.66337975015E+01 0.66887148011E+01
 0.66887152716E+01 0.66337988381E+01 0.65294164486E+01 0.63855010086E+01 0.62147783938E+01
 0.60307770693E+01 0.58459939487E+01 0.56705783673E+01 0.55117080080E+01 0.53736210019E+01
 0.52581065053E+01 0.51651833753E+01 0.50937192847E+01 0.50418379243E+01 0.50070918454E+01
 0.49864971578E+01 0.49765897000E+01 0.49736430440E+01 0.49740954286E+01 0.49751108766E+01
 0.49751103381E+01 0.49740941202E+01 0.49736418125E+01 0.49765896406E+01 0.49864992741E+01
 0.50070967093E+01 0.50418454826E+01 0.50937288758E+01 0.51651938478E+01 0.52581165345E+01
 0.57737812065E+01 0.60704414401E+01 0.63964289529E+01 0.67414169924E+01 0.70897051426E+01
 0.74209741478E+01 0.77121925311E+01 0.79404511253E+01 0.80862187141E+01 0.81363531196E+01
 0.80862196696E+01 0.79404532045E+01 0.77121959265E+01 0.74209788525E+01 0.70897107619E+01
 0.67414227010E+01 0.63964335896E+01 0.60704438346E+01 0.57737805433E+01 0.55117080080E+01
 0.52854813965E+01 0.50937192847E+01 0.49337034516E+01 0.48023442877E+01 0.46967226351E+01
 0.46142775081E+01 0.45528037247E+01 0.45104280341E+01 0.44856604278E+01 0.44775191288E+01
 0.44856591823E+01 0.45104262619E+01 0.45528025852E+01 0.46142781801E+01 0.46967258463E+01
 0.48023500152E+01 0.49337108828E+01 0.50937269920E+01 0.52854878186E+01 0.55117118708E+01
 0.65298517864E+01 0.70437865922E+01 0.75991151551E+01 0.81736342878E+01 0.87367461378E+01
 0.92520162172E+01 0.96813348768E+01 0.99899516013E+01 0.10151405719E+02 0.10151405968E+02
 0.99899526358E+01 0.96813373891E+01 0.92520209734E+01 0.87367535141E+01 0.81736439283E+01
 0.75991259648E+01 0.70437969428E+01 0.65298599752E+01 0.60704438346E+01 0.56705783673E+01
 0.53292493696E+01 0.50418379243E+01 0.48023442877E+01 0.46050161876E+01 0.44452522027E+01
 0.43198632291E+01 0.42269056589E+01 0.41653304275E+01 0.41346380614E+01 0.41346373053E+01
 0.41653285488E+01 0.42269036475E+01 0.43198622744E+01 0.44452531576E+01 0.46050191839E+01
 0.48023485719E+01 0.50418420386E+01 0.53292516456E+01 0.56705774200E+01 0.60704390626E+01
 0.77857934059E+01 0.86080822019E+01 0.94819120879E+01 0.10364365314E+02 0.11201528360E+02
 0.11934349497E+02 0.12506074859E+02 0.12869775071E+02 0.12994591070E+02 0.12869774566E+02
 0.12506074715E+02 0.11934351084E+02 0.11201532971E+02 0.10364373638E+02 0.94819238019E+01
 0.86080959402E+01 0.77858071506E+01 0.70437969428E+01 0.63964335896E+01 0.58459939487E+01
 0.53863731565E+01 0.50070918454E+01 0.46967226351E+01 0.44452522027E+01 0.42452667840E+01
 0.40921267593E+01 0.39834629302E+01 0.39183783546E+01 0.38966838270E+01 0.39183770430E+01
 0.39834609356E+01 0.40921250551E+01 0.42452662070E+01 0.44452530182E+01 0.46967242879E+01
 0.50070930556E+01 0.53863723368E+01 0.58459897127E+01 0.63964253719E+01 0.70437852329E+01
 0.97556131758E+01 0.11007577154E+02 0.12307472067E+02 0.13580145421E+02 0.14745929323E+02
 0.15727812294E+02 0.16442780564E+02 0.16820347422E+02 0.16820346201E+02 0.16442777489E+02
 0.15727808962E+02 0.14745927757E+02 0.13580147353E+02 0.12307478320E+02 0.11007587369E+02
 0.97556259688E+01 0.86080959402E+01 0.75991259648E+01 0.67414227010E+01 0.60307770693E+01
 0.54522854450E+01 0.49864971578E+01 0.46142775081E+01 0.43198632291E+01 0.40921267593E+01
 0.39244093631E+01 0.38134690131E+01 0.37581305420E+01 0.37581300690E+01 0.38134678276E+01
 0.39244080543E+01 0.40921259232E+01 0.43198631240E+01 0.46142777683E+01 0.49864968263E+01
 0.54522832340E+01 0.60307718317E+01 0.67414139837E+01 0.75991142378E+01 0.86080826366E+01
 0.12713406571E+02 0.14531981255E+02 0.16401590371E+02 0.18234229986E+02 0.19893633028E+02
 0.21225088673E+02 0.22088727090E+02 0.22388050066E+02 0.22088722905E+02 0.21225081530E+02
 0.19893625001E+02 0.18234223404E+02 0.16401587130E+02 0.14531982350E+02 0.12713411777E+02
 0.11007587369E+02 0.94819238019E+01 0.81736439283E+01 0.70897107619E+01 0.62147783938E+01
 0.55209422839E+01 0.49765897000E+01 0.45528037247E+01 0.42269056589E+01 0.39834629302E+01
 0.38134690131E+01 0.37125515375E+01 0.36790406922E+01 0.37125513470E+01 0.38134687953E+01
 0.39834628758E+01 0.42269057961E+01 0.45528037496E+01 0.49765889819E+01 0.55209400121E+01
 0.62147739010E+01 0.70897038928E+01 0.81736351930E+01 0.94819145054E+01 0.11007579282E+02
 0.17019612140E+02 0.19730649715E+02 0.22526354424E+02 0.25192436256E+02 0.27481540769E+02
 0.29159811851E+02 0.30047487136E+02 0.30047484457E+02 0.29159804350E+02 0.27481529875E+02
 0.25192423984E+02 0.22526342879E+02 0.19730640634E+02 0.17019606566E+02 0.14531982350E+02
 0.12307478320E+02 0.10364373638E+02 0.87367535141E+01 0.74209788525E+01 0.63855010086E+01
 0.55852504024E+01 0.49736430440E+01 0.45104280341E+01 0.41653304275E+01 0.39183783546E+01
 0.37581305420E+01 0.36790406922E+01 0.36790410073E+01 0.37581314031E+01 0.39183795135E+01
 0.41653314983E+01 0.45104285344E+01 0.49736425056E+01 0.55852484918E+01 0.63854976901E+01
 0.74209745065E+01 0.87367489146E+01 0.10364369996E+02 0.12307476832E+02 0.14531984099E+02
 0.23517116862E+02 0.27567046355E+02 0.31577176965E+02 0.35191502242E+02 0.38063481007E+02
 0.39909481457E+02 0.40545905956E+02 0.39909477084E+02 0.38063472659E+02 0.35191490713E+02
 0.31577163384E+02 0.27567032135E+02 0.23517103501E+02 0.19730640634E+02 0.16401587130E+02
 0.13580147353E+02 0.11201532971E+02 0.92520209734E+01 0.77121959265E+01 0.65294164486E+01
 0.56378966656E+01 0.49740954286E+01 0.44856604278E+01 0.41346380614E+01 0.38966838270E+01
 0.37581300690E+01 0.37125513470E+01 0.37581314031E+01 0.38966859888E+01 0.41346402134E+01
 0.44856616932E+01 0.49740952249E+01 0.56378949181E+01 0.65294137033E+01 0.77121932116E+01
 0.92520195729E+01 0.11201534119E+02 0.13580151801E+02 0.16401595201E+02 0.19730651830E+02
 0.33108119640E+02 0.38750879698E+02 0.44020056807E+02 0.48445585430E+02 0.51630600581E+02
 0.53294788663E+02 0.53294788047E+02 0.51630598454E+02 0.48445581116E+02 0.44020049617E+02
 0.38750869341E+02 0.33108106596E+02 0.27567032135E+02 0.22526342879E+02 0.18234223404E+02
 0.14745927757E+02 0.11934351084E+02 0.96813373891E+01 0.79404532045E+01 0.66337988381E+01
 0.56724524897E+01 0.49751108766E+01 0.44775191288E+01 0.41346373053E+01 0.39183770430E+01
 0.38134678276E+01 0.38134687953E+01 0.39183795135E+01 0.41346402134E+01 0.44775211700E+01
 0.49751111251E+01 0.56724507703E+01 0.66337959700E+01 0.79404507055E+01 0.96813371017E+01
 0.11934354449E+02 0.14745935400E+02 0.18234234899E+02 0.22526356760E+02 0.27567046547E+02
 0.46216555889E+02 0.53372450239E+02 0.59619690172E+02 0.64449559620E+02 0.67492335252E+02
 0.68530287408E+02 0.67492338538E+02 0.64449564695E+02 0.59619694582E+02 0.53372451515E+02
 0.46216552412E+02 0.38750869341E+02 0.31577163384E+02 0.25192423984E+02 0.19893625001E+02
 0.15727808962E+02 0.12506074715E+02 0.99899526358E+01 0.80862196696E+01 0.66887152716E+01
 0.56844964462E+01 0.49751103381E+01 0.44856591823E+01 0.41653285488E+01 0.39834609356E+01
 0.39244080543E+01 0.39834628758E+01 0.41653314983E+01 0.44856616932E+01 0.49751111251E+01
 0.56844950013E+01 0.66887122370E+01 0.80862166603E+01 0.99899517566E+01 0.12506077670E+02
 0.15727816454E+02 0.19893636242E+02 0.25192436901E+02 0.31577175303E+02 0.38750877727E+02
 0.62513801871E+02 0.70711068093E+02 0.77348843610E+02 0.81987968017E+02 0.84366092138E+02
 0.84366096118E+02 0.81987978811E+02 0.77348858182E+02 0.70711082450E+02 0.62513812332E+02
 0.53372451515E+02 0.44020049617E+02 0.35191490713E+02 0.27481529875E+02 0.21225081530E+02
 0.16442777489E+02 0.12869774566E+02 0.10151405968E+02 0.81363531196E+01 0.66887148011E+01
 0.56724516073E+01 0.49740941202E+01 0.45104262619E+01 0.42269036475E+01 0.40921250551E+01
 0.40921259232E+01 0.42269057961E+01 0.45104285344E+01 0.49740952249E+01 0.56724507703E+01
 0.66887122370E+01 0.81363500550E+01 0.10151404249E+02 0.12869775854E+02 0.16442782544E+02
 0.21225089615E+02 0.27481538884E+02 0.35191497695E+02 0.44020051738E+02 0.53372447215E+02
 0.80841363317E+02 0.89286602634E+02 0.95557387999E+02 0.99389544432E+02 0.10067542305E+03
 0.99389554050E+02 0.95557405043E+02 0.89286623378E+02 0.80841383536E+02 0.70711082450E+02
 0.59619694582E+02 0.48445581116E+02 0.38063472659E+02 0.29159804350E+02 0.22088722905E+02
 0.16820346201E+02 0.12994591070E+02 0.10151405719E+02 0.80862187141E+01 0.66337975015E+01
 0.56378953085E+01 0.49736418125E+01 0.45528025852E+01 0.43198622744E+01 0.42452662070E+01
 0.43198631240E+01 0.45528037496E+01 0.49736425056E+01 0.56378949181E+01 0.66337959700E+01
 0.80862166603E+01 0.10151404249E+02 0.12994591256E+02 0.16820348539E+02 0.22088726805E+02
 0.29159808161E+02 0.38063473953E+02 0.48445577523E+02 0.59619684666E+02 0.70711066351E+02
 0.99412161815E+02 0.10718724815E+03 0.11238053230E+03 0.11496137063E+03 0.11496137446E+03
 0.11238054315E+03 0.10718726415E+03 0.99412180341E+02 0.89286623378E+02 0.77348858182E+02
 0.64449564695E+02 0.51630598454E+02 0.39909477084E+02 0.30047484457E+02 0.22388050066E+02
 0.16820347422E+02 0.12869775071E+02 0.99899516013E+01 0.79404511253E+01 0.65294144541E+01
 0.55852492947E+01 0.49765896406E+01 0.46142781801E+01 0.44452531576E+01 0.44452530182E+01
 0.46142777683E+01 0.49765889819E+01 0.55852484918E+01 0.65294137033E+01 0.79404507055E+01
 0.99899517566E+01 0.12869775854E+02 0.16820348539E+02 0.22388050766E+02 0.30047483637E+02
 0.39909473441E+02 0.51630590922E+02 0.64449552793E+02 0.77348842323E+02 0.89286605034E+02
 0.11626121245E+03 0.12258379454E+03 0.12625154012E+03 0.12744598819E+03 0.12625154123E+03
 0.12258379715E+03 0.11626121710E+03 0.10718726415E+03 0.95557405043E+02 0.81987978811E+02
 0.67492338538E+02 0.53294788047E+02 0.40545905956E+02 0.30047487136E+02 0.22088727090E+02
 0.16442780564E+02 0.12506074859E+02 0.96813348768E+01 0.77121925311E+01 0.63854987589E+01
 0.55209422839E+01 0.49864992741E+01 0.46967258463E+01 0.46050191839E+01 0.46967242879E+01
 0.49864968263E+01 0.55209400121E+01 0.63854976901E+01 0.77121932116E+01 0.96813371017E+01
 0.12506077670E+02 0.16442782544E+02 0.22088726805E+02 0.30047483637E+02 0.40545899061E+02
 0.53294778468E+02 0.67492327580E+02 0.81987968020E+02 0.95557395749E+02 0.10718725710E+03
 0.12979546854E+03 0.13424260996E+03 0.13632250574E+03 0.13632250166E+03 0.13424259897E+03
 0.12979545400E+03 0.12258379715E+03 0.11238054315E+03 0.99389554050E+02 0.84366096118E+02
 0.68530287408E+02 0.53294788663E+02 0.39909481457E+02 0.29159811851E+02 0.21225088673E+02
 0.15727812294E+02 0.11934349497E+02 0.92520162172E+01 0.74209741478E+01 0.62147764780E+01
 0.54522873599E+01 0.50070967093E+01 0.48023500152E+01 0.48023485719E+01 0.50070930556E+01
 0.54522832340E+01 0.62147739010E+01 0.74209745065E+01 0.92520195729E+01 0.11934354449E+02
 0.15727816454E+02 0.21225089615E+02 0.29159808161E+02 0.39909473441E+02 0.53294778468E+02
 0.68530278352E+02 0.84366091610E+02 0.99389556288E+02 0.11238055223E+03 0.12258381090E+03
 0.13923126162E+03 0.14183483304E+03 0.14262628987E+03 0.14183481675E+03 0.13923123321E+03
 0.13424259897E+03 0.12625154123E+03 0.11496137446E+03 0.10067542305E+03 0.84366092138E+02
 0.67492335252E+02 0.51630600581E+02 0.38063481007E+02 0.27481540769E+02 0.19893633028E+02
 0.14745929323E+02 0.11201528360E+02 0.87367461378E+01 0.70897051426E+01 0.60307762125E+01
 0.53863775457E+01 0.50418454826E+01 0.49337108828E+01 0.50418420386E+01 0.53863723368E+01
 0.60307718317E+01 0.70897038928E+01 0.87367489146E+01 0.11201534119E+02 0.14745935400E+02
 0.19893636242E+02 0.27481538884E+02 0.38063473953E+02 0.51630590922E+02 0.67492327580E+02
 0.84366091610E+02 0.10067543345E+03 0.11496139658E+03 0.12625157214E+03 0.13424263249E+03
 0.14474500361E+03 0.14592007124E+03 0.14592006049E+03 0.14474497394E+03 0.14183481675E+03
 0.13632250166E+03 0.12744598819E+03 0.11496137063E+03 0.99389544432E+02 0.81987968017E+02
 0.64449559620E+02 0.48445585430E+02 0.35191502242E+02 0.25192436256E+02 0.18234229986E+02
 0.13580145421E+02 0.10364365314E+02 0.81736342878E+01 0.67414169924E+01 0.58459949192E+01
 0.53292563658E+01 0.50937288758E+01 0.50937269920E+01 0.53292516456E+01 0.58459897127E+01
 0.67414139837E+01 0.81736351930E+01 0.10364369996E+02 0.13580151801E+02 0.18234234899E+02
 0.25192436901E+02 0.35191497695E+02 0.48445577523E+02 0.64449552793E+02 0.81987968020E+02
 0.99389556288E+02 0.11496139658E+03 0.12744602634E+03 0.13632254598E+03 0.14183485836E+03
 0.14728102782E+03 0.14761746403E+03 0.14728100856E+03 0.14592006049E+03 0.14262628987E+03
 0.13632250574E+03 0.12625154012E+03 0.11238053230E+03 0.95557387999E+02 0.77348843610E+02
 0.59619690172E+02 0.44020056807E+02 0.31577176965E+02 0.22526354424E+02 0.16401590371E+02
 0.12307472067E+02 0.94819120879E+01 0.75991151551E+01 0.63964289529E+01 0.56705817528E+01
 0.52854907030E+01 0.51651938478E+01 0.52854878186E+01 0.56705774200E+01 0.63964253719E+01
 0.75991142378E+01 0.94819145054E+01 0.12307476832E+02 0.16401595201E+02 0.22526356760E+02
 0.31577175303E+02 0.44020051738E+02 0.59619684666E+02 0.77348842323E+02 0.95557395749E+02
 0.11238055223E+03 0.12625157214E+03 0.13632254598E+03 0.14262633127E+03 0.14592009458E+03
 0.14809899091E+03 0.14809898496E+03 0.14761746403E+03 0.14592007124E+03 0.14183483304E+03
 0.13424260996E+03 0.12258379454E+03 0.10718724815E+03 0.89286602634E+02 0.70711068093E+02
 0.53372450239E+02 0.38750879698E+02 0.27567046355E+02 0.19730649715E+02 0.14531981255E+02
 0.11007577154E+02 0.86080822019E+01 0.70437865922E+01 0.60704414401E+01 0.55117140391E+01
 0.52581173994E+01 0.52581165345E+01 0.55117118708E+01 0.60704390626E+01 0.70437852329E+01
 0.86080826366E+01 0.11007579282E+02 0.14531984099E+02 0.19730651830E+02 0.27567046547E+02
 0.38750877727E+02 0.53372447215E+02 0.70711066351E+02 0.89286605034E+02 0.10718725710E+03
 0.12258381090E+03 0.13424263249E+03 0.14183485836E+03 0.14592009458E+03 0.14761748052E+03
 0.14809899091E+03 0.14761748052E+03 0.14592009458E+03 0.14183485836E+03 0.13424263249E+03
 0.12258381090E+03 0.10718725710E+03 0.89286605034E+02 0.70711066351E+02 0.53372447215E+02
 0.38750877727E+02 0.27567046547E+02 0.19730651830E+02 0.14531984099E+02 0.11007579282E+02
 0.86080826366E+01 0.70437852329E+01 0.60704390626E+01 0.55117118708E+01 0.52581165345E+01
 0.52581173994E+01 0.55117140391E+01 0.60704414401E+01 0.70437865922E+01 0.86080822019E+01
 0.11007577154E+02 0.14531981255E+02 0.19730649715E+02 0.27567046355E+02 0.38750879698E+02