Pt-fcc                                  
   1.00000000000000     
     0.000000    2.000596    2.000596
     2.000596    0.000000    2.000596
     2.000596    2.000596    0.000000
   Pt
     1
Direct
  0.000000  0.000000  0.000000
 
   40   40   40
 0.14015340288E+03 0.14002919247E+03 0.13930410386E+03 0.13705564104E+03 0.13215140227E+03
 0.12371230720E+03 0.11151406644E+03 0.96175413863E+02 0.79056294353E+02 0.61901680744E+02
 0.46368048883E+02 0.33609980123E+02 0.24064523153E+02 0.17475851166E+02 0.13105635163E+02
 0.10111751222E+02 0.80931747179E+01 0.67960699895E+01 0.60124825362E+01 0.55975695880E+01
 0.54682237116E+01 0.55975695880E+01 0.60124825362E+01 0.67960699895E+01 0.80931747179E+01
 0.10111751222E+02 0.13105635163E+02 0.17475851166E+02 0.24064523153E+02 0.33609980123E+02
 0.46368048883E+02 0.61901680744E+02 0.79056294353E+02 0.96175413863E+02 0.11151406644E+03
 0.12371230720E+03 0.13215140227E+03 0.13705564104E+03 0.13930410386E+03 0.14002919247E+03
 0.14002919247E+03 0.13960220221E+03 0.13809798711E+03 0.13446979829E+03 0.12769651107E+03
 0.11722575597E+03 0.10327474845E+03 0.86870647611E+02 0.69609696973E+02 0.53226249770E+02
 0.39136539191E+02 0.28120872985E+02 0.20235313074E+02 0.14942352766E+02 0.11384049730E+02
 0.89381919064E+01 0.73277483947E+01 0.63202771330E+01 0.57410307946E+01 0.54782302845E+01
 0.54782310085E+01 0.57410326102E+01 0.63202791199E+01 0.73277495220E+01 0.89381915145E+01
 0.11384047896E+02 0.14942350292E+02 0.20235311167E+02 0.28120872632E+02 0.39136540602E+02
 0.53226252020E+02 0.69609698134E+02 0.86870645299E+02 0.10327474068E+03 0.11722574204E+03
 0.12769649202E+03 0.13446977697E+03 0.13809796749E+03 0.13960218836E+03 0.14002918747E+03
 0.13930410386E+03 0.13809798711E+03 0.13517360939E+03 0.12955558774E+03 0.12052806516E+03
 0.10799553208E+03 0.92639984607E+02 0.75807481723E+02 0.59163339247E+02 0.44247963728E+02
 0.32099130967E+02 0.23065468117E+02 0.16845410612E+02 0.12696232957E+02 0.98319148925E+01
 0.79007746302E+01 0.66583773815E+01 0.59064388705E+01 0.55075420761E+01 0.53830447244E+01
 0.55075444980E+01 0.59064425056E+01 0.66583803758E+01 0.79007753684E+01 0.98319127957E+01
 0.12696228837E+02 0.16845406373E+02 0.23065465898E+02 0.32099132022E+02 0.44247967580E+02
 0.59163343422E+02 0.75807482351E+02 0.92639977667E+02 0.10799551497E+03 0.12052803797E+03
 0.12955555374E+03 0.13517357449E+03 0.13809795840E+03 0.13930408765E+03 0.13960218836E+03
 0.13705564104E+03 0.13446979829E+03 0.12955558774E+03 0.12160173021E+03 0.11033535874E+03
 0.96152509487E+02 0.80117669111E+02 0.63724806868E+02 0.48508898903E+02 0.35655377282E+02
 0.25746200701E+02 0.18712720018E+02 0.13976626243E+02 0.10729810076E+02 0.84914943438E+01
 0.70154506238E+01 0.60888975147E+01 0.55540070367E+01 0.53105312564E+01 0.53105328470E+01
 0.55540110220E+01 0.60889019040E+01 0.70154531423E+01 0.84914935292E+01 0.10729806029E+02
 0.13976620704E+02 0.18712715646E+02 0.25746199861E+02 0.35655380765E+02 0.48508905181E+02
 0.63724812217E+02 0.80117668714E+02 0.96152499126E+02 0.11033533655E+03 0.12160169780E+03
 0.12955555020E+03 0.13446976309E+03 0.13705561596E+03 0.13809795840E+03 0.13809796749E+03
 0.13215140227E+03 0.12769651107E+03 0.12052806516E+03 0.11033535874E+03 0.97328944137E+02
 0.82320670002E+02 0.66586644329E+02 0.51559093019E+02 0.38463316827E+02 0.28033597589E+02
 0.20399606221E+02 0.15157786151E+02 0.11577325688E+02 0.90681723408E+01 0.73748064531E+01
 0.62804840227E+01 0.56139783262E+01 0.52582443954E+01 0.51468003155E+01 0.52582473352E+01
 0.56139827713E+01 0.62804877570E+01 0.73748075042E+01 0.90681699331E+01 0.11577320702E+02
 0.15157780848E+02 0.20399603305E+02 0.28033598973E+02 0.38463322583E+02 0.51559100987E+02
 0.66586650619E+02 0.82320670237E+02 0.97328935114E+02 0.11033533979E+03 0.12052803876E+03
 0.12769648249E+03 0.13215137806E+03 0.13446976309E+03 0.13517357449E+03 0.13446977697E+03
 0.12371230720E+03 0.11722575597E+03 0.10799553208E+03 0.96152509487E+02 0.82320670002E+02
 0.67560871571E+02 0.53147745748E+02 0.40260441838E+02 0.29702578594E+02 0.21748852062E+02
 0.16156845670E+02 0.12315865882E+02 0.95937871403E+01 0.77153721390E+01 0.64704123642E+01
 0.56823343932E+01 0.52231473924E+01 0.50126026917E+01 0.50126039474E+01 0.52231505761E+01
 0.56823379916E+01 0.64704146242E+01 0.77153718477E+01 0.95937842380E+01 0.12315861570E+02
 0.16156842015E+02 0.21748851158E+02 0.29702581674E+02 0.40260448638E+02 0.53147754427E+02
 0.67560879262E+02 0.82320673763E+02 0.96152507434E+02 0.10799552412E+03 0.11722574401E+03
 0.12371229457E+03 0.12769648249E+03 0.12955555020E+03 0.12955555374E+03 0.12769649202E+03
 0.11151406644E+03 0.10327474845E+03 0.92639984607E+02 0.80117669111E+02 0.66586644329E+02
 0.53147745748E+02 0.40878686490E+02 0.30582707706E+02 0.22621724776E+02 0.16885322634E+02
 0.12889999621E+02 0.10030222363E+02 0.80137167640E+01 0.66457939683E+01 0.57526905029E+01
 0.52018452613E+01 0.49044296049E+01 0.48106045928E+01 0.49044310212E+01 0.52018474918E+01
 0.57526925862E+01 0.66457949788E+01 0.80137162059E+01 0.10030220418E+02 0.12889997134E+02
 0.16885320870E+02 0.22621724998E+02 0.30582710755E+02 0.40878692496E+02 0.53147754059E+02
 0.66586653775E+02 0.80117678301E+02 0.92639992394E+02 0.10327475421E+03 0.11151407012E+03
 0.11722574401E+03 0.12052803876E+03 0.12160169780E+03 0.12052803797E+03 0.11722574204E+03
 0.96175413863E+02 0.86870647611E+02 0.75807481723E+02 0.63724806868E+02 0.51559093019E+02
 0.40260441838E+02 0.30582707706E+02 0.22923810117E+02 0.17270110741E+02 0.13254922904E+02
 0.10343126686E+02 0.82468689201E+01 0.67929906687E+01 0.58178959075E+01 0.51907628830E+01
 0.48193874206E+01 0.46470121099E+01 0.46470122787E+01 0.48193879002E+01 0.51907636127E+01
 0.58178967413E+01 0.67929913971E+01 0.82468692805E+01 0.10343126491E+02 0.13254922139E+02
 0.17270109719E+02 0.22923809505E+02 0.30582708475E+02 0.40260445083E+02 0.51559099600E+02
 0.63724817160E+02 0.75807495318E+02 0.86870663237E+02 0.96175429581E+02 0.10327475421E+03
 0.10799552412E+03 0.11033533979E+03 0.11033533655E+03 0.10799551497E+03 0.10327474068E+03
 0.79056294353E+02 0.69609696973E+02 0.59163339247E+02 0.48508898903E+02 0.38463316827E+02
 0.29702578594E+02 0.22621724776E+02 0.17270110741E+02 0.13380284669E+02 0.10506553102E+02
 0.83954452597E+01 0.68993842749E+01 0.58708264406E+01 0.51863685361E+01 0.47552811803E+01
 0.45182794366E+01 0.44427200715E+01 0.45182787647E+01 0.47552802767E+01 0.51863680459E+01
 0.58708268551E+01 0.68993856207E+01 0.83954469889E+01 0.10506554280E+02 0.13380284388E+02
 0.17270108619E+02 0.22621721344E+02 0.29702575293E+02 0.38463315759E+02 0.48508902073E+02
 0.59163347897E+02 0.69609710952E+02 0.79056311860E+02 0.86870663237E+02 0.92639992394E+02
 0.96152507434E+02 0.97328935114E+02 0.96152499126E+02 0.92639977667E+02 0.86870645299E+02
 0.61901680744E+02 0.53226249770E+02 0.44247963728E+02 0.35655377282E+02 0.28033597589E+02
 0.21748852062E+02 0.16885322634E+02 0.13254922904E+02 0.10506553102E+02 0.84464889459E+01
 0.69552359445E+01 0.59053656317E+01 0.51854929090E+01 0.47105389683E+01 0.44224388096E+01
 0.42863879506E+01 0.42863871941E+01 0.44224369456E+01 0.47105369900E+01 0.51854919420E+01
 0.59053663300E+01 0.69552381255E+01 0.84464915232E+01 0.10506554484E+02 0.13254921640E+02
 0.16885318094E+02 0.21748844917E+02 0.28033589689E+02 0.35655371258E+02 0.44247962021E+02
 0.53226253745E+02 0.61901690152E+02 0.69609710952E+02 0.75807495318E+02 0.80117678301E+02
 0.82320673763E+02 0.82320670237E+02 0.80117668714E+02 0.75807482351E+02 0.69609698134E+02
 0.46368048883E+02 0.39136539191E+02 0.32099130967E+02 0.25746200701E+02 0.20399606221E+02
 0.16156845670E+02 0.12889999621E+02 0.10343126686E+02 0.83954452597E+01 0.69552359445E+01
 0.59173680896E+01 0.51857142462E+01 0.46841036072E+01 0.43586680320E+01 0.41754121350E+01
 0.41161995042E+01 0.41754103740E+01 0.43586653423E+01 0.46841012830E+01 0.51857134414E+01
 0.59173692558E+01 0.69552385209E+01 0.83954478104E+01 0.10343127355E+02 0.12889996913E+02
 0.16156838975E+02 0.20399596303E+02 0.25746189383E+02 0.32099120690E+02 0.39136532188E+02
 0.46368046343E+02 0.53226253745E+02 0.59163347897E+02 0.63724817160E+02 0.66586653775E+02
 0.67560879262E+02 0.66586650619E+02 0.63724812217E+02 0.59163343422E+02 0.53226252020E+02
 0.33609980123E+02 0.28120872985E+02 0.23065468117E+02 0.18712720018E+02 0.15157786151E+02
 0.12315865882E+02 0.10030222363E+02 0.82468689201E+01 0.68993842749E+01 0.59053656317E+01
 0.51857142462E+01 0.46753595772E+01 0.43267741916E+01 0.41088853390E+01 0.40038807852E+01
 0.40038798850E+01 0.41088830230E+01 0.43267714482E+01 0.46753575903E+01 0.51857138830E+01
 0.59053670476E+01 0.68993867472E+01 0.82468710753E+01 0.10030222552E+02 0.12315862845E+02
 0.15157779333E+02 0.18712709902E+02 0.23065456026E+02 0.28120860617E+02 0.33609969183E+02
 0.39136532188E+02 0.44247962021E+02 0.48508902073E+02 0.51559099600E+02 0.53147754059E+02
 0.53147754427E+02 0.51559100987E+02 0.48508905181E+02 0.44247967580E+02 0.39136540602E+02
 0.24064523153E+02 0.20235313074E+02 0.16845410612E+02 0.13976626243E+02 0.11577325688E+02
 0.95937871403E+01 0.80137167640E+01 0.67929906687E+01 0.58708264406E+01 0.51854929090E+01
 0.46841036072E+01 0.43267741916E+01 0.40866964338E+01 0.39479225507E+01 0.39024550967E+01
 0.39479212852E+01 0.40866943798E+01 0.43267721297E+01 0.46841023555E+01 0.51854930017E+01
 0.58708279503E+01 0.67929930773E+01 0.80137191558E+01 0.95937883228E+01 0.11577324634E+02
 0.13976622262E+02 0.16845403523E+02 0.20235303388E+02 0.24064511712E+02 0.28120860617E+02
 0.32099120690E+02 0.35655371258E+02 0.38463315759E+02 0.40260445083E+02 0.40878692496E+02
 0.40260448638E+02 0.38463322583E+02 0.35655380765E+02 0.32099132022E+02 0.28120872632E+02
 0.17475851166E+02 0.14942352766E+02 0.12696232957E+02 0.10729810076E+02 0.90681723408E+01
 0.77153721390E+01 0.66457939683E+01 0.58178959075E+01 0.51863685361E+01 0.47105389683E+01
 0.43586680320E+01 0.41088853390E+01 0.39479225507E+01 0.38688440612E+01 0.38688437699E+01
 0.39479217498E+01 0.41088842675E+01 0.43586670452E+01 0.47105385086E+01 0.51863690078E+01
 0.58178976019E+01 0.66457968781E+01 0.77153759405E+01 0.90681763154E+01 0.10729813202E+02
 0.12696234226E+02 0.14942351200E+02 0.17475846361E+02 0.20235303388E+02 0.23065456026E+02
 0.25746189383E+02 0.28033589689E+02 0.29702575293E+02 0.30582708475E+02 0.30582710755E+02
 0.29702581674E+02 0.28033598973E+02 0.25746199861E+02 0.23065465898E+02 0.20235311167E+02
 0.13105635163E+02 0.11384049730E+02 0.98319148925E+01 0.84914943438E+01 0.73748064531E+01
 0.64704123642E+01 0.57526905029E+01 0.51907628830E+01 0.47552811803E+01 0.44224388096E+01
 0.41754121350E+01 0.40038807852E+01 0.39024550967E+01 0.38688437699E+01 0.39024553095E+01
 0.40038810596E+01 0.41754122841E+01 0.44224387874E+01 0.47552812338E+01 0.51907635487E+01
 0.57526924932E+01 0.64704162535E+01 0.73748124028E+01 0.84915019150E+01 0.98319229319E+01
 0.11384056755E+02 0.13105639686E+02 0.14942351200E+02 0.16845403523E+02 0.18712709902E+02
 0.20399596303E+02 0.21748844917E+02 0.22621721344E+02 0.22923809505E+02 0.22621724998E+02
 0.21748851158E+02 0.20399603305E+02 0.18712715646E+02 0.16845406373E+02 0.14942350292E+02
 0.10111751222E+02 0.89381919064E+01 0.79007746302E+01 0.70154506238E+01 0.62804840227E+01
 0.56823343932E+01 0.52018452613E+01 0.48193874206E+01 0.45182794366E+01 0.42863879506E+01
 0.41161995042E+01 0.40038798850E+01 0.39479212852E+01 0.39479217498E+01 0.40038810596E+01
 0.41162008397E+01 0.42863888760E+01 0.45182796818E+01 0.48193872755E+01 0.52018455481E+01
 0.56823362626E+01 0.62804884912E+01 0.70154581257E+01 0.79007847878E+01 0.89382034466E+01
 0.10111762310E+02 0.11384056755E+02 0.12696234226E+02 0.13976622262E+02 0.15157779333E+02
 0.16156838975E+02 0.16885318094E+02 0.17270108619E+02 0.17270109719E+02 0.16885320870E+02
 0.16156842015E+02 0.15157780848E+02 0.13976620704E+02 0.12696228837E+02 0.11384047896E+02
 0.80931747179E+01 0.73277483947E+01 0.66583773815E+01 0.60888975147E+01 0.56139783262E+01
 0.52231473924E+01 0.49044296049E+01 0.46470121099E+01 0.44427200715E+01 0.42863871941E+01
 0.41754103740E+01 0.41088830230E+01 0.40866943798E+01 0.41088842675E+01 0.41754122841E+01
 0.42863888760E+01 0.44427207460E+01 0.46470115038E+01 0.49044281921E+01 0.52231462832E+01
 0.56139789437E+01 0.60889010913E+01 0.66583844317E+01 0.73277585276E+01 0.80931866590E+01
 0.89382034466E+01 0.98319229319E+01 0.10729813202E+02 0.11577324634E+02 0.12315862845E+02
 0.12889996913E+02 0.13254921640E+02 0.13380284388E+02 0.13254922139E+02 0.12889997134E+02
 0.12315861570E+02 0.11577320702E+02 0.10729806029E+02 0.98319127957E+01 0.89381915145E+01
 0.67960699895E+01 0.63202771330E+01 0.59064388705E+01 0.55540070367E+01 0.52582443954E+01
 0.50126026917E+01 0.48106045928E+01 0.46470122787E+01 0.45182787647E+01 0.44224369456E+01
 0.43586653423E+01 0.43267714482E+01 0.43267721297E+01 0.43586670452E+01 0.44224387874E+01
 0.45182796818E+01 0.46470115038E+01 0.48106019927E+01 0.50125989302E+01 0.52582407458E+01
 0.55540049785E+01 0.59064396376E+01 0.63202812403E+01 0.67960770878E+01 0.73277585276E+01
 0.79007847878E+01 0.84915019150E+01 0.90681763154E+01 0.95937883228E+01 0.10030222552E+02
 0.10343127355E+02 0.10506554484E+02 0.10506554280E+02 0.10343126491E+02 0.10030220418E+02
 0.95937842380E+01 0.90681699331E+01 0.84914935292E+01 0.79007753684E+01 0.73277495220E+01
 0.60124825362E+01 0.57410307946E+01 0.55075420761E+01 0.53105312564E+01 0.51468003155E+01
 0.50126039474E+01 0.49044310212E+01 0.48193879002E+01 0.47552802767E+01 0.47105369900E+01
 0.46841012830E+01 0.46753575903E+01 0.46841023555E+01 0.47105385086E+01 0.47552812338E+01
 0.48193872755E+01 0.49044281921E+01 0.50125989302E+01 0.51467938326E+01 0.53105245447E+01
 0.55075364918E+01 0.57410274606E+01 0.60124820040E+01 0.63202812403E+01 0.66583844317E+01
 0.70154581257E+01 0.73748124028E+01 0.77153759405E+01 0.80137191558E+01 0.82468710753E+01
 0.83954478104E+01 0.84464915232E+01 0.83954469889E+01 0.82468692805E+01 0.80137162059E+01
 0.77153718477E+01 0.73748075042E+01 0.70154531423E+01 0.66583803758E+01 0.63202791199E+01
 0.55975695880E+01 0.54782302845E+01 0.53830447244E+01 0.53105328470E+01 0.52582473352E+01
 0.52231505761E+01 0.52018474918E+01 0.51907636127E+01 0.51863680459E+01 0.51854919420E+01
 0.51857134414E+01 0.51857138830E+01 0.51854930017E+01 0.51863690078E+01 0.51907635487E+01
 0.52018455481E+01 0.52231462832E+01 0.52582407458E+01 0.53105245447E+01 0.53830357060E+01
 0.54782216674E+01 0.55975623701E+01 0.57410274606E+01 0.59064396376E+01 0.60889010913E+01
 0.62804884912E+01 0.64704162535E+01 0.66457968781E+01 0.67929930773E+01 0.68993867472E+01
 0.69552385209E+01 0.69552381255E+01 0.68993856207E+01 0.67929913971E+01 0.66457949788E+01
 0.64704146242E+01 0.62804877570E+01 0.60889019040E+01 0.59064425056E+01 0.57410326102E+01
 0.54682237116E+01 0.54782310085E+01 0.55075444980E+01 0.55540110220E+01 0.56139827713E+01
 0.56823379916E+01 0.57526925862E+01 0.58178967413E+01 0.58708268551E+01 0.59053663300E+01
 0.59173692558E+01 0.59053670476E+01 0.58708279503E+01 0.58178976019E+01 0.57526924932E+01
 0.56823362626E+01 0.56139789437E+01 0.55540049785E+01 0.55075364918E+01 0.54782216674E+01
 0.54682139001E+01 0.54782216674E+01 0.55075364918E+01 0.55540049785E+01 0.56139789437E+01
 0.56823362626E+01 0.57526924932E+01 0.58178976019E+01 0.58708279503E+01 0.59053670476E+01
 0.59173692558E+01 0.59053663300E+01 0.58708268551E+01 0.58178967413E+01 0.57526925862E+01
 0.56823379916E+01 0.56139827713E+01 0.55540110220E+01 0.55075444980E+01 0.54782310085E+01
 0.55975695880E+01 0.57410326102E+01 0.59064425056E+01 0.60889019040E+01 0.62804877570E+01
 0.64704146242E+01 0.66457949788E+01 0.67929913971E+01 0.68993856207E+01 0.69552381255E+01
 0.69552385209E+01 0.68993867472E+01 0.67929930773E+01 0.66457968781E+01 0.64704162535E+01
 0.62804884912E+01 0.60889010913E+01 0.59064396376E+01 0.57410274606E+01 0.55975623701E+01
 0.54782216674E+01 0.53830357060E+01 0.53105245447E+01 0.52582407458E+01 0.52231462832E+01
 0.52018455481E+01 0.51907635487E+01 0.51863690078E+01 0.51854930017E+01 0.51857138830E+01
 0.51857134414E+01 0.51854919420E+01 0.51863680459E+01 0.51907636127E+01 0.52018474918E+01
 0.52231505761E+01 0.52582473352E+01 0.53105328470E+01 0.53830447244E+01 0.54782302845E+01
 0.60124825362E+01 0.63202791199E+01 0.66583803758E+01 0.70154531423E+01 0.73748075042E+01
 0.77153718477E+01 0.80137162059E+01 0.82468692805E+01 0.83954469889E+01 0.84464915232E+01
 0.83954478104E+01 0.82468710753E+01 0.80137191558E+01 0.77153759405E+01 0.73748124028E+01
 0.70154581257E+01 0.66583844317E+01 0.63202812403E+01 0.60124820040E+01 0.57410274606E+01
 0.55075364918E+01 0.53105245447E+01 0.51467938326E+01 0.50125989302E+01 0.49044281921E+01
 0.48193872755E+01 0.47552812338E+01 0.47105385086E+01 0.46841023555E+01 0.46753575903E+01
 0.46841012830E+01 0.47105369900E+01 0.47552802767E+01 0.48193879002E+01 0.49044310212E+01
 0.50126039474E+01 0.51468003155E+01 0.53105312564E+01 0.55075420761E+01 0.57410307946E+01
 0.67960699895E+01 0.73277495220E+01 0.79007753684E+01 0.84914935292E+01 0.90681699331E+01
 0.95937842380E+01 0.10030220418E+02 0.10343126491E+02 0.10506554280E+02 0.10506554484E+02
 0.10343127355E+02 0.10030222552E+02 0.95937883228E+01 0.90681763154E+01 0.84915019150E+01
 0.79007847878E+01 0.73277585276E+01 0.67960770878E+01 0.63202812403E+01 0.59064396376E+01
 0.55540049785E+01 0.52582407458E+01 0.50125989302E+01 0.48106019927E+01 0.46470115038E+01
 0.45182796818E+01 0.44224387874E+01 0.43586670452E+01 0.43267721297E+01 0.43267714482E+01
 0.43586653423E+01 0.44224369456E+01 0.45182787647E+01 0.46470122787E+01 0.48106045928E+01
 0.50126026917E+01 0.52582443954E+01 0.55540070367E+01 0.59064388705E+01 0.63202771330E+01
 0.80931747179E+01 0.89381915145E+01 0.98319127957E+01 0.10729806029E+02 0.11577320702E+02
 0.12315861570E+02 0.12889997134E+02 0.13254922139E+02 0.13380284388E+02 0.13254921640E+02
 0.12889996913E+02 0.12315862845E+02 0.11577324634E+02 0.10729813202E+02 0.98319229319E+01
 0.89382034466E+01 0.80931866590E+01 0.73277585276E+01 0.66583844317E+01 0.60889010913E+01
 0.56139789437E+01 0.52231462832E+01 0.49044281921E+01 0.46470115038E+01 0.44427207460E+01
 0.42863888760E+01 0.41754122841E+01 0.41088842675E+01 0.40866943798E+01 0.41088830230E+01
 0.41754103740E+01 0.42863871941E+01 0.44427200715E+01 0.46470121099E+01 0.49044296049E+01
 0.52231473924E+01 0.56139783262E+01 0.60888975147E+01 0.66583773815E+01 0.73277483947E+01
 0.10111751222E+02 0.11384047896E+02 0.12696228837E+02 0.13976620704E+02 0.15157780848E+02
 0.16156842015E+02 0.16885320870E+02 0.17270109719E+02 0.17270108619E+02 0.16885318094E+02
 0.16156838975E+02 0.15157779333E+02 0.13976622262E+02 0.12696234226E+02 0.11384056755E+02
 0.10111762310E+02 0.89382034466E+01 0.79007847878E+01 0.70154581257E+01 0.62804884912E+01
 0.56823362626E+01 0.52018455481E+01 0.48193872755E+01 0.45182796818E+01 0.42863888760E+01
 0.41162008397E+01 0.40038810596E+01 0.39479217498E+01 0.39479212852E+01 0.40038798850E+01
 0.41161995042E+01 0.42863879506E+01 0.45182794366E+01 0.48193874206E+01 0.52018452613E+01
 0.56823343932E+01 0.62804840227E+01 0.70154506238E+01 0.79007746302E+01 0.89381919064E+01
 0.13105635163E+02 0.14942350292E+02 0.16845406373E+02 0.18712715646E+02 0.20399603305E+02
 0.21748851158E+02 0.22621724998E+02 0.22923809505E+02 0.22621721344E+02 0.21748844917E+02
 0.20399596303E+02 0.18712709902E+02 0.16845403523E+02 0.14942351200E+02 0.13105639686E+02
 0.11384056755E+02 0.98319229319E+01 0.84915019150E+01 0.73748124028E+01 0.64704162535E+01
 0.57526924932E+01 0.51907635487E+01 0.47552812338E+01 0.44224387874E+01 0.41754122841E+01
 0.40038810596E+01 0.39024553095E+01 0.38688437699E+01 0.39024550967E+01 0.40038807852E+01
 0.41754121350E+01 0.44224388096E+01 0.47552811803E+01 0.51907628830E+01 0.57526905029E+01
 0.64704123642E+01 0.73748064531E+01 0.84914943438E+01 0.98319148925E+01 0.11384049730E+02
 0.17475851166E+02 0.20235311167E+02 0.23065465898E+02 0.25746199861E+02 0.28033598973E+02
 0.29702581674E+02 0.30582710755E+02 0.30582708475E+02 0.29702575293E+02 0.28033589689E+02
 0.25746189383E+02 0.23065456026E+02 0.20235303388E+02 0.17475846361E+02 0.14942351200E+02
 0.12696234226E+02 0.10729813202E+02 0.90681763154E+01 0.77153759405E+01 0.66457968781E+01
 0.58178976019E+01 0.51863690078E+01 0.47105385086E+01 0.43586670452E+01 0.41088842675E+01
 0.39479217498E+01 0.38688437699E+01 0.38688440612E+01 0.39479225507E+01 0.41088853390E+01
 0.43586680320E+01 0.47105389683E+01 0.51863685361E+01 0.58178959075E+01 0.66457939683E+01
 0.77153721390E+01 0.90681723408E+01 0.10729810076E+02 0.12696232957E+02 0.14942352766E+02
 0.24064523153E+02 0.28120872632E+02 0.32099132022E+02 0.35655380765E+02 0.38463322583E+02
 0.40260448638E+02 0.40878692496E+02 0.40260445083E+02 0.38463315759E+02 0.35655371258E+02
 0.32099120690E+02 0.28120860617E+02 0.24064511712E+02 0.20235303388E+02 0.16845403523E+02
 0.13976622262E+02 0.11577324634E+02 0.95937883228E+01 0.80137191558E+01 0.67929930773E+01
 0.58708279503E+01 0.51854930017E+01 0.46841023555E+01 0.43267721297E+01 0.40866943798E+01
 0.39479212852E+01 0.39024550967E+01 0.39479225507E+01 0.40866964338E+01 0.43267741916E+01
 0.46841036072E+01 0.51854929090E+01 0.58708264406E+01 0.67929906687E+01 0.80137167640E+01
 0.95937871403E+01 0.11577325688E+02 0.13976626243E+02 0.16845410612E+02 0.20235313074E+02
 0.33609980123E+02 0.39136540602E+02 0.44247967580E+02 0.48508905181E+02 0.51559100987E+02
 0.53147754427E+02 0.53147754059E+02 0.51559099600E+02 0.48508902073E+02 0.44247962021E+02
 0.39136532188E+02 0.33609969183E+02 0.28120860617E+02 0.23065456026E+02 0.18712709902E+02
 0.15157779333E+02 0.12315862845E+02 0.10030222552E+02 0.82468710753E+01 0.68993867472E+01
 0.59053670476E+01 0.51857138830E+01 0.46753575903E+01 0.43267714482E+01 0.41088830230E+01
 0.40038798850E+01 0.40038807852E+01 0.41088853390E+01 0.43267741916E+01 0.46753595772E+01
 0.51857142462E+01 0.59053656317E+01 0.68993842749E+01 0.82468689201E+01 0.10030222363E+02
 0.12315865882E+02 0.15157786151E+02 0.18712720018E+02 0.23065468117E+02 0.28120872985E+02
 0.46368048883E+02 0.53226252020E+02 0.59163343422E+02 0.63724812217E+02 0.66586650619E+02
 0.67560879262E+02 0.66586653775E+02 0.63724817160E+02 0.59163347897E+02 0.53226253745E+02
 0.46368046343E+02 0.39136532188E+02 0.32099120690E+02 0.25746189383E+02 0.20399596303E+02
 0.16156838975E+02 0.12889996913E+02 0.10343127355E+02 0.83954478104E+01 0.69552385209E+01
 0.59173692558E+01 0.51857134414E+01 0.46841012830E+01 0.43586653423E+01 0.41754103740E+01
 0.41161995042E+01 0.41754121350E+01 0.43586680320E+01 0.46841036072E+01 0.51857142462E+01
 0.59173680896E+01 0.69552359445E+01 0.83954452597E+01 0.10343126686E+02 0.12889999621E+02
 0.16156845670E+02 0.20399606221E+02 0.25746200701E+02 0.32099130967E+02 0.39136539191E+02
 0.61901680744E+02 0.69609698134E+02 0.75807482351E+02 0.80117668714E+02 0.82320670237E+02
 0.82320673763E+02 0.80117678301E+02 0.75807495318E+02 0.69609710952E+02 0.61901690152E+02
 0.53226253745E+02 0.44247962021E+02 0.35655371258E+02 0.28033589689E+02 0.21748844917E+02
 0.16885318094E+02 0.13254921640E+02 0.10506554484E+02 0.84464915232E+01 0.69552381255E+01
 0.59053663300E+01 0.51854919420E+01 0.47105369900E+01 0.44224369456E+01 0.42863871941E+01
 0.42863879506E+01 0.44224388096E+01 0.47105389683E+01 0.51854929090E+01 0.59053656317E+01
 0.69552359445E+01 0.84464889459E+01 0.10506553102E+02 0.13254922904E+02 0.16885322634E+02
 0.21748852062E+02 0.28033597589E+02 0.35655377282E+02 0.44247963728E+02 0.53226249770E+02
 0.79056294353E+02 0.86870645299E+02 0.92639977667E+02 0.96152499126E+02 0.97328935114E+02
 0.96152507434E+02 0.92639992394E+02 0.86870663237E+02 0.79056311860E+02 0.69609710952E+02
 0.59163347897E+02 0.48508902073E+02 0.38463315759E+02 0.29702575293E+02 0.22621721344E+02
 0.17270108619E+02 0.13380284388E+02 0.10506554280E+02 0.83954469889E+01 0.68993856207E+01
 0.58708268551E+01 0.51863680459E+01 0.47552802767E+01 0.45182787647E+01 0.44427200715E+01
 0.45182794366E+01 0.47552811803E+01 0.51863685361E+01 0.58708264406E+01 0.68993842749E+01
 0.83954452597E+01 0.10506553102E+02 0.13380284669E+02 0.17270110741E+02 0.22621724776E+02
 0.29702578594E+02 0.38463316827E+02 0.48508898903E+02 0.59163339247E+02 0.69609696973E+02
 0.96175413863E+02 0.10327474068E+03 0.10799551497E+03 0.11033533655E+03 0.11033533979E+03
 0.10799552412E+03 0.10327475421E+03 0.96175429581E+02 0.86870663237E+02 0.75807495318E+02
 0.63724817160E+02 0.51559099600E+02 0.40260445083E+02 0.30582708475E+02 0.22923809505E+02
 0.17270109719E+02 0.13254922139E+02 0.10343126491E+02 0.82468692805E+01 0.67929913971E+01
 0.58178967413E+01 0.51907636127E+01 0.48193879002E+01 0.46470122787E+01 0.46470121099E+01
 0.48193874206E+01 0.51907628830E+01 0.58178959075E+01 0.67929906687E+01 0.82468689201E+01
 0.10343126686E+02 0.13254922904E+02 0.17270110741E+02 0.22923810117E+02 0.30582707706E+02
 0.40260441838E+02 0.51559093019E+02 0.63724806868E+02 0.75807481723E+02 0.86870647611E+02
 0.11151406644E+03 0.11722574204E+03 0.12052803797E+03 0.12160169780E+03 0.12052803876E+03
 0.11722574401E+03 0.11151407012E+03 0.10327475421E+03 0.92639992394E+02 0.80117678301E+02
 0.66586653775E+02 0.53147754059E+02 0.40878692496E+02 0.30582710755E+02 0.22621724998E+02
 0.16885320870E+02 0.12889997134E+02 0.10030220418E+02 0.80137162059E+01 0.66457949788E+01
 0.57526925862E+01 0.52018474918E+01 0.49044310212E+01 0.48106045928E+01 0.49044296049E+01
 0.52018452613E+01 0.57526905029E+01 0.66457939683E+01 0.80137167640E+01 0.10030222363E+02
 0.12889999621E+02 0.16885322634E+02 0.22621724776E+02 0.30582707706E+02 0.40878686490E+02
 0.53147745748E+02 0.66586644329E+02 0.80117669111E+02 0.92639984607E+02 0.10327474845E+03
 0.12371230720E+03 0.12769649202E+03 0.12955555374E+03 0.12955555020E+03 0.12769648249E+03
 0.12371229457E+03 0.11722574401E+03 0.10799552412E+03 0.96152507434E+02 0.82320673763E+02
 0.67560879262E+02 0.53147754427E+02 0.40260448638E+02 0.29702581674E+02 0.21748851158E+02
 0.16156842015E+02 0.12315861570E+02 0.95937842380E+01 0.77153718477E+01 0.64704146242E+01
 0.56823379916E+01 0.52231505761E+01 0.50126039474E+01 0.50126026917E+01 0.52231473924E+01
 0.56823343932E+01 0.64704123642E+01 0.77153721390E+01 0.95937871403E+01 0.12315865882E+02
 0.16156845670E+02 0.21748852062E+02 0.29702578594E+02 0.40260441838E+02 0.53147745748E+02
 0.67560871571E+02 0.82320670002E+02 0.96152509487E+02 0.10799553208E+03 0.11722575597E+03
 0.13215140227E+03 0.13446977697E+03 0.13517357449E+03 0.13446976309E+03 0.13215137806E+03
 0.12769648249E+03 0.12052803876E+03 0.11033533979E+03 0.97328935114E+02 0.82320670237E+02
 0.66586650619E+02 0.51559100987E+02 0.38463322583E+02 0.28033598973E+02 0.20399603305E+02
 0.15157780848E+02 0.11577320702E+02 0.90681699331E+01 0.73748075042E+01 0.62804877570E+01
 0.56139827713E+01 0.52582473352E+01 0.51468003155E+01 0.52582443954E+01 0.56139783262E+01
 0.62804840227E+01 0.73748064531E+01 0.90681723408E+01 0.11577325688E+02 0.15157786151E+02
 0.20399606221E+02 0.28033597589E+02 0.38463316827E+02 0.51559093019E+02 0.66586644329E+02
 0.82320670002E+02 0.97328944137E+02 0.11033535874E+03 0.12052806516E+03 0.12769651107E+03
 0.13705564104E+03 0.13809796749E+03 0.13809795840E+03 0.13705561596E+03 0.13446976309E+03
 0.12955555020E+03 0.12160169780E+03 0.11033533655E+03 0.96152499126E+02 0.80117668714E+02
 0.63724812217E+02 0.48508905181E+02 0.35655380765E+02 0.25746199861E+02 0.18712715646E+02
 0.13976620704E+02 0.10729806029E+02 0.84914935292E+01 0.70154531423E+01 0.60889019040E+01
 0.55540110220E+01 0.53105328470E+01 0.53105312564E+01 0.55540070367E+01 0.60888975147E+01
 0.70154506238E+01 0.84914943438E+01 0.10729810076E+02 0.13976626243E+02 0.18712720018E+02
 0.25746200701E+02 0.35655377282E+02 0.48508898903E+02 0.63724806868E+02 0.80117669111E+02
 0.96152509487E+02 0.11033535874E+03 0.12160173021E+03 0.12955558774E+03 0.13446979829E+03
 0.13930410386E+03 0.13960218836E+03 0.13930408765E+03 0.13809795840E+03 0.13517357449E+03
 0.12955555374E+03 0.12052803797E+03 0.10799551497E+03 0.92639977667E+02 0.75807482351E+02
 0.59163343422E+02 0.44247967580E+02 0.32099132022E+02 0.23065465898E+02 0.16845406373E+02
 0.12696228837E+02 0.98319127957E+01 0.79007753684E+01 0.66583803758E+01 0.59064425056E+01
 0.55075444980E+01 0.53830447244E+01 0.55075420761E+01 0.59064388705E+01 0.66583773815E+01
 0.79007746302E+01 0.98319148925E+01 0.12696232957E+02 0.16845410612E+02 0.23065468117E+02
 0.32099130967E+02 0.44247963728E+02 0.59163339247E+02 0.75807481723E+02 0.92639984607E+02
 0.10799553208E+03 0.12052806516E+03 0.12955558774E+03 0.13517360939E+03 0.13809798711E+03
 0.14002919247E+03 0.14002918747E+03 0.13960218836E+03 0.13809796749E+03 0.13446977697E+03
 0.12769649202E+03 0.11722574204E+03 0.10327474068E+03 0.86870645299E+02 0.69609698134E+02
 0.53226252020E+02 0.39136540602E+02 0.28120872632E+02 0.20235311167E+02 0.14942350292E+02
 0.11384047896E+02 0.89381915145E+01 0.73277495220E+01 0.63202791199E+01 0.57410326102E+01
 0.54782310085E+01 0.54782302845E+01 0.57410307946E+01 0.63202771330E+01 0.73277483947E+01
 0.89381919064E+01 0.11384049730E+02 0.14942352766E+02 0.20235313074E+02 0.28120872985E+02
 0.39136539191E+02 0.53226249770E+02 0.69609696973E+02 0.86870647611E+02 0.10327474845E+03
 0.11722575597E+03 0.12769651107E+03 0.13446979829E+03 0.13809798711E+03 0.13960220221E+03
 0.14002919247E+03 0.13960220221E+03 0.13809798711E+03 0.13446979829E+03 0.12769651107E+03
 0.11722575597E+03 0.10327474845E+03 0.86870647611E+02 0.69609696973E+02 0.53226249770E+02
 0.39136539191E+02 0.28120872985E+02 0.20235313074E+02 0.14942352766E+02 0.11384049730E+02
 0.89381919064E+01 0.73277483947E+01 0.63202771330E+01 0.57410307946E+01 0.54782302845E+01
 0.54782310085E+01 0.57410326102E+01 0.63202791199E+01 0.73277495220E+01 0.89381915145E+01
 0.11384047896E+02 0.14942350292E+02 0.20235311167E+02 0.28120872632E+02 0.39136540602E+02