   1   1   1   0
  0.1601431E+02  0.2829270E-09  0.2829270E-09  0.2829270E-09  0.5000000E-15
  1.000000000000000E-004
  CAR 
 Pt-fcc                                  
     67.08728256    -46.99857994  301     10.92764791      1.00000000
    -46.999  0.0000E+00  0.0000E+00
    -46.618  0.0000E+00  0.0000E+00
    -46.238  0.0000E+00  0.0000E+00
    -45.858  0.0000E+00  0.0000E+00
    -45.477  0.0000E+00  0.0000E+00
    -45.097  0.0000E+00  0.0000E+00
    -44.717  0.0000E+00  0.0000E+00
    -44.337  0.0000E+00  0.0000E+00
    -43.956  0.0000E+00  0.0000E+00
    -43.576  0.0000E+00  0.0000E+00
    -43.196  0.0000E+00  0.0000E+00
    -42.815  0.0000E+00  0.0000E+00
    -42.435  0.0000E+00  0.0000E+00
    -42.055  0.1821E-14  0.6925E-15
    -41.675  0.4469E-01  0.1699E-01
    -41.294  0.1109E+00  0.6000E-01
    -40.914  0.0000E+00  0.6000E-01
    -40.534  0.0000E+00  0.6000E-01
    -40.153  0.0000E+00  0.6000E-01
    -39.773  0.0000E+00  0.6000E-01
    -39.393  0.0000E+00  0.6000E-01
    -39.013  0.0000E+00  0.6000E-01
    -38.632  0.0000E+00  0.6000E-01
    -38.252  0.0000E+00  0.6000E-01
    -37.872  0.0000E+00  0.6000E-01
    -37.491  0.0000E+00  0.6000E-01
    -37.111  0.0000E+00  0.6000E-01
    -36.731  0.0000E+00  0.6000E-01
    -36.351  0.0000E+00  0.6000E-01
    -35.970  0.0000E+00  0.6000E-01
    -35.590  0.0000E+00  0.6000E-01
    -35.210  0.0000E+00  0.6000E-01
    -34.829  0.0000E+00  0.6000E-01
    -34.449  0.0000E+00  0.6000E-01
    -34.069  0.0000E+00  0.6000E-01
    -33.689  0.0000E+00  0.6000E-01
    -33.308  0.0000E+00  0.6000E-01
    -32.928  0.0000E+00  0.6000E-01
    -32.548  0.0000E+00  0.6000E-01
    -32.167  0.0000E+00  0.6000E-01
    -31.787  0.0000E+00  0.6000E-01
    -31.407  0.0000E+00  0.6000E-01
    -31.027  0.0000E+00  0.6000E-01
    -30.646  0.0000E+00  0.6000E-01
    -30.266  0.0000E+00  0.6000E-01
    -29.886  0.0000E+00  0.6000E-01
    -29.505  0.0000E+00  0.6000E-01
    -29.125  0.0000E+00  0.6000E-01
    -28.745  0.0000E+00  0.6000E-01
    -28.365  0.0000E+00  0.6000E-01
    -27.984  0.0000E+00  0.6000E-01
    -27.604  0.0000E+00  0.6000E-01
    -27.224  0.0000E+00  0.6000E-01
    -26.843  0.0000E+00  0.6000E-01
    -26.463  0.0000E+00  0.6000E-01
    -26.083  0.0000E+00  0.6000E-01
    -25.703  0.0000E+00  0.6000E-01
    -25.322  0.0000E+00  0.6000E-01
    -24.942  0.0000E+00  0.6000E-01
    -24.562  0.0000E+00  0.6000E-01
    -24.181  0.0000E+00  0.6000E-01
    -23.801  0.0000E+00  0.6000E-01
    -23.421  0.0000E+00  0.6000E-01
    -23.041  0.0000E+00  0.6000E-01
    -22.660  0.0000E+00  0.6000E-01
    -22.280  0.0000E+00  0.6000E-01
    -21.900  0.0000E+00  0.6000E-01
    -21.519  0.0000E+00  0.6000E-01
    -21.139  0.0000E+00  0.6000E-01
    -20.759  0.0000E+00  0.6000E-01
    -20.379  0.0000E+00  0.6000E-01
    -19.998  0.0000E+00  0.6000E-01
    -19.618  0.0000E+00  0.6000E-01
    -19.238  0.0000E+00  0.6000E-01
    -18.857  0.0000E+00  0.6000E-01
    -18.477  0.0000E+00  0.6000E-01
    -18.097  0.0000E+00  0.6000E-01
    -17.717  0.0000E+00  0.6000E-01
    -17.336  0.0000E+00  0.6000E-01
    -16.956  0.0000E+00  0.6000E-01
    -16.576  0.0000E+00  0.6000E-01
    -16.195  0.0000E+00  0.6000E-01
    -15.815  0.0000E+00  0.6000E-01
    -15.435  0.0000E+00  0.6000E-01
    -15.055  0.0000E+00  0.6000E-01
    -14.674  0.0000E+00  0.6000E-01
    -14.294  0.0000E+00  0.6000E-01
    -13.914  0.0000E+00  0.6000E-01
    -13.533  0.0000E+00  0.6000E-01
    -13.153  0.0000E+00  0.6000E-01
    -12.773  0.0000E+00  0.6000E-01
    -12.393  0.0000E+00  0.6000E-01
    -12.012  0.0000E+00  0.6000E-01
    -11.632  0.0000E+00  0.6000E-01
    -11.252  0.0000E+00  0.6000E-01
    -10.871  0.0000E+00  0.6000E-01
    -10.491  0.0000E+00  0.6000E-01
    -10.111  0.0000E+00  0.6000E-01
     -9.731  0.0000E+00  0.6000E-01
     -9.350  0.0000E+00  0.6000E-01
     -8.970  0.0000E+00  0.6000E-01
     -8.590  0.0000E+00  0.6000E-01
     -8.209  0.0000E+00  0.6000E-01
     -7.829  0.0000E+00  0.6000E-01
     -7.449  0.0000E+00  0.6000E-01
     -7.069  0.0000E+00  0.6000E-01
     -6.688  0.0000E+00  0.6000E-01
     -6.308  0.0000E+00  0.6000E-01
     -5.928  0.0000E+00  0.6000E-01
     -5.547  0.0000E+00  0.6000E-01
     -5.167  0.0000E+00  0.6000E-01
     -4.787  0.0000E+00  0.6000E-01
     -4.407  0.0000E+00  0.6000E-01
     -4.026  0.0000E+00  0.6000E-01
     -3.646  0.0000E+00  0.6000E-01
     -3.266  0.0000E+00  0.6000E-01
     -2.885  0.0000E+00  0.6000E-01
     -2.505  0.0000E+00  0.6000E-01
     -2.125  0.0000E+00  0.6000E-01
     -1.745  0.0000E+00  0.6000E-01
     -1.364  0.0000E+00  0.6000E-01
     -0.984  0.0000E+00  0.6000E-01
     -0.604  0.0000E+00  0.6000E-01
     -0.223  0.0000E+00  0.6000E-01
      0.157  0.0000E+00  0.6000E-01
      0.537  0.0000E+00  0.6000E-01
      0.917  0.0000E+00  0.6000E-01
      1.298  0.5876E-07  0.6000E-01
      1.678  0.3094E-03  0.6012E-01
      2.058  0.4294E-03  0.6028E-01
      2.439  0.1023E-02  0.6067E-01
      2.819  0.5919E-03  0.6091E-01
      3.199  0.1442E-02  0.6145E-01
      3.579  0.1542E-02  0.6204E-01
      3.960  0.2047E-02  0.6283E-01
      4.340  0.3962E-02  0.6436E-01
      4.720  0.7878E-02  0.6736E-01
      5.101  0.1169E-01  0.7193E-01
      5.481  0.1474E-01  0.7767E-01
      5.861  0.1174E-01  0.8223E-01
      6.241  0.1023E-01  0.8620E-01
      6.622  0.1425E-01  0.9168E-01
      7.002  0.1462E-01  0.9736E-01
      7.382  0.1747E-01  0.1041E+00
      7.763  0.2161E-01  0.1124E+00
      8.143  0.1899E-01  0.1199E+00
      8.523  0.1288E-01  0.1249E+00
      8.903  0.1335E-01  0.1300E+00
      9.284  0.1689E-01  0.1366E+00
      9.664  0.1429E-01  0.1422E+00
     10.044  0.9056E-02  0.1458E+00
     10.425  0.1287E-01  0.1508E+00
     10.805  0.1774E-01  0.1577E+00
     11.185  0.1780E-01  0.1646E+00
     11.565  0.4530E-02  0.1664E+00
     11.946  0.3913E-02  0.1678E+00
     12.326  0.2564E-02  0.1688E+00
     12.706  0.2512E-02  0.1698E+00
     13.087  0.2961E-02  0.1709E+00
     13.467  0.3369E-02  0.1722E+00
     13.847  0.2721E-02  0.1732E+00
     14.227  0.2803E-02  0.1743E+00
     14.608  0.2186E-02  0.1752E+00
     14.988  0.2174E-02  0.1760E+00
     15.368  0.2299E-02  0.1769E+00
     15.749  0.2634E-02  0.1779E+00
     16.129  0.2122E-02  0.1788E+00
     16.509  0.4798E-02  0.1806E+00
     16.890  0.1880E-02  0.1813E+00
     17.270  0.4770E-02  0.1832E+00
     17.650  0.2711E-02  0.1842E+00
     18.030  0.2907E-02  0.1853E+00
     18.411  0.4029E-02  0.1869E+00
     18.791  0.1710E-02  0.1876E+00
     19.171  0.3840E-02  0.1890E+00
     19.552  0.4352E-02  0.1907E+00
     19.932  0.1185E-02  0.1912E+00
     20.312  0.2357E-02  0.1921E+00
     20.692  0.4650E-02  0.1939E+00
     21.073  0.4560E-02  0.1956E+00
     21.453  0.1677E-02  0.1963E+00
     21.833  0.4453E-02  0.1980E+00
     22.214  0.2965E-02  0.1992E+00
     22.594  0.4784E-02  0.2010E+00
     22.974  0.5552E-02  0.2032E+00
     23.354  0.4161E-02  0.2048E+00
     23.735  0.4918E-02  0.2067E+00
     24.115  0.4512E-02  0.2084E+00
     24.495  0.6411E-02  0.2109E+00
     24.876  0.3390E-02  0.2122E+00
     25.256  0.6773E-02  0.2148E+00
     25.636  0.3715E-02  0.2162E+00
     26.016  0.9638E-02  0.2200E+00
     26.397  0.7969E-02  0.2231E+00
     26.777  0.5079E-02  0.2251E+00
     27.157  0.5964E-02  0.2274E+00
     27.538  0.7568E-02  0.2303E+00
     27.918  0.6969E-02  0.2330E+00
     28.298  0.3869E-02  0.2345E+00
     28.678  0.3096E-02  0.2357E+00
     29.059  0.3867E-02  0.2372E+00
     29.439  0.6112E-02  0.2395E+00
     29.819  0.5797E-02  0.2417E+00
     30.200  0.6987E-02  0.2444E+00
     30.580  0.9275E-02  0.2480E+00
     30.960  0.5921E-02  0.2503E+00
     31.340  0.9044E-02  0.2537E+00
     31.721  0.5247E-02  0.2558E+00
     32.101  0.4410E-02  0.2575E+00
     32.481  0.4400E-02  0.2592E+00
     32.862  0.3344E-02  0.2605E+00
     33.242  0.2974E-02  0.2616E+00
     33.622  0.6039E-02  0.2639E+00
     34.002  0.3935E-02  0.2654E+00
     34.383  0.3099E-02  0.2667E+00
     34.763  0.5561E-02  0.2688E+00
     35.143  0.6057E-02  0.2711E+00
     35.524  0.7198E-02  0.2740E+00
     35.904  0.2202E-02  0.2749E+00
     36.284  0.5890E-02  0.2771E+00
     36.664  0.4977E-02  0.2790E+00
     37.045  0.1038E-01  0.2830E+00
     37.425  0.6021E-02  0.2853E+00
     37.805  0.9880E-02  0.2891E+00
     38.186  0.1389E-01  0.2945E+00
     38.566  0.1089E-01  0.2986E+00
     38.946  0.9779E-02  0.3024E+00
     39.326  0.9346E-02  0.3061E+00
     39.707  0.7282E-02  0.3090E+00
     40.087  0.4393E-02  0.3106E+00
     40.467  0.4908E-02  0.3125E+00
     40.848  0.8784E-02  0.3159E+00
     41.228  0.1037E-01  0.3199E+00
     41.608  0.7600E-02  0.3228E+00
     41.988  0.8521E-02  0.3261E+00
     42.369  0.5323E-02  0.3283E+00
     42.749  0.6635E-02  0.3308E+00
     43.129  0.9049E-02  0.3343E+00
     43.510  0.3679E-02  0.3357E+00
     43.890  0.4599E-02  0.3375E+00
     44.270  0.7191E-02  0.3402E+00
     44.650  0.6514E-02  0.3427E+00
     45.031  0.8146E-02  0.3459E+00
     45.411  0.7553E-02  0.3488E+00
     45.791  0.9342E-02  0.3524E+00
     46.172  0.1191E-01  0.3569E+00
     46.552  0.1312E-01  0.3619E+00
     46.932  0.9227E-02  0.3655E+00
     47.312  0.9664E-02  0.3692E+00
     47.693  0.1211E-01  0.3739E+00
     48.073  0.9219E-02  0.3774E+00
     48.453  0.7732E-02  0.3803E+00
     48.834  0.7663E-02  0.3833E+00
     49.214  0.6827E-02  0.3860E+00
     49.594  0.6900E-02  0.3888E+00
     49.974  0.6300E-02  0.3912E+00
     50.355  0.9495E-02  0.3949E+00
     50.735  0.8529E-02  0.3983E+00
     51.115  0.7937E-02  0.4014E+00
     51.496  0.5990E-02  0.4038E+00
     51.876  0.6191E-01  0.4274E+00
     52.256  0.8115E-02  0.4312E+00
     52.636  0.1033E-01  0.4351E+00
     53.017  0.4459E-02  0.4369E+00
     53.397  0.9205E-02  0.4405E+00
     53.777  0.8577E-02  0.4438E+00
     54.158  0.8197E-02  0.4469E+00
     54.538  0.1017E-01  0.4508E+00
     54.918  0.9033E-02  0.4543E+00
     55.298  0.6413E-02  0.4569E+00
     55.679  0.9190E-02  0.4604E+00
     56.059  0.7354E-02  0.4633E+00
     56.439  0.8263E-02  0.4665E+00
     56.820  0.6014E-02  0.4688E+00
     57.200  0.7644E-02  0.4717E+00
     57.580  0.6421E-02  0.4742E+00
     57.960  0.3359E-02  0.4755E+00
     58.341  0.1748E-02  0.4762E+00
     58.721  0.2187E-02  0.4771E+00
     59.101  0.2508E-02  0.4780E+00
     59.482  0.2208E-02  0.4789E+00
     59.862  0.6895E-03  0.4792E+00
     60.242  0.1259E-02  0.4796E+00
     60.622  0.0000E+00  0.4796E+00
     61.003  0.2782E-03  0.4797E+00
     61.383  0.3529E-03  0.4799E+00
     61.763  0.1448E-07  0.4799E+00
     62.144  0.3155E-03  0.4800E+00
     62.524  0.0000E+00  0.4800E+00
     62.904  0.0000E+00  0.4800E+00
     63.284  0.0000E+00  0.4800E+00
     63.665  0.0000E+00  0.4800E+00
     64.045  0.0000E+00  0.4800E+00
     64.425  0.0000E+00  0.4800E+00
     64.806  0.0000E+00  0.4800E+00
     65.186  0.0000E+00  0.4800E+00
     65.566  0.0000E+00  0.4800E+00
     65.946  0.0000E+00  0.4800E+00
     66.327  0.0000E+00  0.4800E+00
     66.707  0.0000E+00  0.4800E+00
     67.087  0.0000E+00  0.4800E+00
     67.08728256    -46.99857994  301     10.92764791      1.00000000
    -46.999  0.0000E+00  0.0000E+00  0.0000E+00  0.0000E+00  0.0000E+00  0.0000E+00  0.0000E+00  0.0000E+00  0.0000E+00
    -46.618  0.0000E+00  0.0000E+00  0.0000E+00  0.0000E+00  0.0000E+00  0.0000E+00  0.0000E+00  0.0000E+00  0.0000E+00
    -46.238  0.0000E+00  0.0000E+00  0.0000E+00  0.0000E+00  0.0000E+00  0.0000E+00  0.0000E+00  0.0000E+00  0.0000E+00
    -45.858  0.0000E+00  0.0000E+00  0.0000E+00  0.0000E+00  0.0000E+00  0.0000E+00  0.0000E+00  0.0000E+00  0.0000E+00
    -45.477  0.0000E+00  0.0000E+00  0.0000E+00  0.0000E+00  0.0000E+00  0.0000E+00  0.0000E+00  0.0000E+00  0.0000E+00
    -45.097  0.0000E+00  0.0000E+00  0.0000E+00  0.0000E+00  0.0000E+00  0.0000E+00  0.0000E+00  0.0000E+00  0.0000E+00
    -44.717  0.0000E+00  0.0000E+00  0.0000E+00  0.0000E+00  0.0000E+00  0.0000E+00  0.0000E+00  0.0000E+00  0.0000E+00
    -44.337  0.0000E+00  0.0000E+00  0.0000E+00  0.0000E+00  0.0000E+00  0.0000E+00  0.0000E+00  0.0000E+00  0.0000E+00
    -43.956  0.0000E+00  0.0000E+00  0.0000E+00  0.0000E+00  0.0000E+00  0.0000E+00  0.0000E+00  0.0000E+00  0.0000E+00
    -43.576  0.0000E+00  0.0000E+00  0.0000E+00  0.0000E+00  0.0000E+00  0.0000E+00  0.0000E+00  0.0000E+00  0.0000E+00
    -43.196  0.0000E+00  0.0000E+00  0.0000E+00  0.0000E+00  0.0000E+00  0.0000E+00  0.0000E+00  0.0000E+00  0.0000E+00
    -42.815  0.0000E+00  0.0000E+00  0.0000E+00  0.0000E+00  0.0000E+00  0.0000E+00  0.0000E+00  0.0000E+00  0.0000E+00
    -42.435  0.0000E+00  0.0000E+00  0.0000E+00  0.0000E+00  0.0000E+00  0.0000E+00  0.0000E+00  0.0000E+00  0.0000E+00
    -42.055  0.3173E-18  0.5968E-13  0.5968E-13  0.5968E-13  0.1735E-18  0.1735E-18  0.1280E-18  0.1735E-18  0.1280E-18
    -41.675  0.9227E-04  0.1468E+01  0.1468E+01  0.1468E+01  0.2778E-04  0.2778E-04  0.1185E-04  0.2778E-04  0.1185E-04
    -41.294  0.8266E-04  0.3668E+01  0.3668E+01  0.3668E+01  0.6778E-04  0.6778E-04  0.3850E-04  0.6778E-04  0.3850E-04
    -40.914  0.0000E+00  0.0000E+00  0.0000E+00  0.0000E+00  0.0000E+00  0.0000E+00  0.0000E+00  0.0000E+00  0.0000E+00
    -40.534  0.0000E+00  0.0000E+00  0.0000E+00  0.0000E+00  0.0000E+00  0.0000E+00  0.0000E+00  0.0000E+00  0.0000E+00
    -40.153  0.0000E+00  0.0000E+00  0.0000E+00  0.0000E+00  0.0000E+00  0.0000E+00  0.0000E+00  0.0000E+00  0.0000E+00
    -39.773  0.0000E+00  0.0000E+00  0.0000E+00  0.0000E+00  0.0000E+00  0.0000E+00  0.0000E+00  0.0000E+00  0.0000E+00
    -39.393  0.0000E+00  0.0000E+00  0.0000E+00  0.0000E+00  0.0000E+00  0.0000E+00  0.0000E+00  0.0000E+00  0.0000E+00
    -39.013  0.0000E+00  0.0000E+00  0.0000E+00  0.0000E+00  0.0000E+00  0.0000E+00  0.0000E+00  0.0000E+00  0.0000E+00
    -38.632  0.0000E+00  0.0000E+00  0.0000E+00  0.0000E+00  0.0000E+00  0.0000E+00  0.0000E+00  0.0000E+00  0.0000E+00
    -38.252  0.0000E+00  0.0000E+00  0.0000E+00  0.0000E+00  0.0000E+00  0.0000E+00  0.0000E+00  0.0000E+00  0.0000E+00
    -37.872  0.0000E+00  0.0000E+00  0.0000E+00  0.0000E+00  0.0000E+00  0.0000E+00  0.0000E+00  0.0000E+00  0.0000E+00
    -37.491  0.0000E+00  0.0000E+00  0.0000E+00  0.0000E+00  0.0000E+00  0.0000E+00  0.0000E+00  0.0000E+00  0.0000E+00
    -37.111  0.0000E+00  0.0000E+00  0.0000E+00  0.0000E+00  0.0000E+00  0.0000E+00  0.0000E+00  0.0000E+00  0.0000E+00
    -36.731  0.0000E+00  0.0000E+00  0.0000E+00  0.0000E+00  0.0000E+00  0.0000E+00  0.0000E+00  0.0000E+00  0.0000E+00
    -36.351  0.0000E+00  0.0000E+00  0.0000E+00  0.0000E+00  0.0000E+00  0.0000E+00  0.0000E+00  0.0000E+00  0.0000E+00
    -35.970  0.0000E+00  0.0000E+00  0.0000E+00  0.0000E+00  0.0000E+00  0.0000E+00  0.0000E+00  0.0000E+00  0.0000E+00
    -35.590  0.0000E+00  0.0000E+00  0.0000E+00  0.0000E+00  0.0000E+00  0.0000E+00  0.0000E+00  0.0000E+00  0.0000E+00
    -35.210  0.0000E+00  0.0000E+00  0.0000E+00  0.0000E+00  0.0000E+00  0.0000E+00  0.0000E+00  0.0000E+00  0.0000E+00
    -34.829  0.0000E+00  0.0000E+00  0.0000E+00  0.0000E+00  0.0000E+00  0.0000E+00  0.0000E+00  0.0000E+00  0.0000E+00
    -34.449  0.0000E+00  0.0000E+00  0.0000E+00  0.0000E+00  0.0000E+00  0.0000E+00  0.0000E+00  0.0000E+00  0.0000E+00
    -34.069  0.0000E+00  0.0000E+00  0.0000E+00  0.0000E+00  0.0000E+00  0.0000E+00  0.0000E+00  0.0000E+00  0.0000E+00
    -33.689  0.0000E+00  0.0000E+00  0.0000E+00  0.0000E+00  0.0000E+00  0.0000E+00  0.0000E+00  0.0000E+00  0.0000E+00
    -33.308  0.0000E+00  0.0000E+00  0.0000E+00  0.0000E+00  0.0000E+00  0.0000E+00  0.0000E+00  0.0000E+00  0.0000E+00
    -32.928  0.0000E+00  0.0000E+00  0.0000E+00  0.0000E+00  0.0000E+00  0.0000E+00  0.0000E+00  0.0000E+00  0.0000E+00
    -32.548  0.0000E+00  0.0000E+00  0.0000E+00  0.0000E+00  0.0000E+00  0.0000E+00  0.0000E+00  0.0000E+00  0.0000E+00
    -32.167  0.0000E+00  0.0000E+00  0.0000E+00  0.0000E+00  0.0000E+00  0.0000E+00  0.0000E+00  0.0000E+00  0.0000E+00
    -31.787  0.0000E+00  0.0000E+00  0.0000E+00  0.0000E+00  0.0000E+00  0.0000E+00  0.0000E+00  0.0000E+00  0.0000E+00
    -31.407  0.0000E+00  0.0000E+00  0.0000E+00  0.0000E+00  0.0000E+00  0.0000E+00  0.0000E+00  0.0000E+00  0.0000E+00
    -31.027  0.0000E+00  0.0000E+00  0.0000E+00  0.0000E+00  0.0000E+00  0.0000E+00  0.0000E+00  0.0000E+00  0.0000E+00
    -30.646  0.0000E+00  0.0000E+00  0.0000E+00  0.0000E+00  0.0000E+00  0.0000E+00  0.0000E+00  0.0000E+00  0.0000E+00
    -30.266  0.0000E+00  0.0000E+00  0.0000E+00  0.0000E+00  0.0000E+00  0.0000E+00  0.0000E+00  0.0000E+00  0.0000E+00
    -29.886  0.0000E+00  0.0000E+00  0.0000E+00  0.0000E+00  0.0000E+00  0.0000E+00  0.0000E+00  0.0000E+00  0.0000E+00
    -29.505  0.0000E+00  0.0000E+00  0.0000E+00  0.0000E+00  0.0000E+00  0.0000E+00  0.0000E+00  0.0000E+00  0.0000E+00
    -29.125  0.0000E+00  0.0000E+00  0.0000E+00  0.0000E+00  0.0000E+00  0.0000E+00  0.0000E+00  0.0000E+00  0.0000E+00
    -28.745  0.0000E+00  0.0000E+00  0.0000E+00  0.0000E+00  0.0000E+00  0.0000E+00  0.0000E+00  0.0000E+00  0.0000E+00
    -28.365  0.0000E+00  0.0000E+00  0.0000E+00  0.0000E+00  0.0000E+00  0.0000E+00  0.0000E+00  0.0000E+00  0.0000E+00
    -27.984  0.0000E+00  0.0000E+00  0.0000E+00  0.0000E+00  0.0000E+00  0.0000E+00  0.0000E+00  0.0000E+00  0.0000E+00
    -27.604  0.0000E+00  0.0000E+00  0.0000E+00  0.0000E+00  0.0000E+00  0.0000E+00  0.0000E+00  0.0000E+00  0.0000E+00
    -27.224  0.0000E+00  0.0000E+00  0.0000E+00  0.0000E+00  0.0000E+00  0.0000E+00  0.0000E+00  0.0000E+00  0.0000E+00
    -26.843  0.0000E+00  0.0000E+00  0.0000E+00  0.0000E+00  0.0000E+00  0.0000E+00  0.0000E+00  0.0000E+00  0.0000E+00
    -26.463  0.0000E+00  0.0000E+00  0.0000E+00  0.0000E+00  0.0000E+00  0.0000E+00  0.0000E+00  0.0000E+00  0.0000E+00
    -26.083  0.0000E+00  0.0000E+00  0.0000E+00  0.0000E+00  0.0000E+00  0.0000E+00  0.0000E+00  0.0000E+00  0.0000E+00
    -25.703  0.0000E+00  0.0000E+00  0.0000E+00  0.0000E+00  0.0000E+00  0.0000E+00  0.0000E+00  0.0000E+00  0.0000E+00
    -25.322  0.0000E+00  0.0000E+00  0.0000E+00  0.0000E+00  0.0000E+00  0.0000E+00  0.0000E+00  0.0000E+00  0.0000E+00
    -24.942  0.0000E+00  0.0000E+00  0.0000E+00  0.0000E+00  0.0000E+00  0.0000E+00  0.0000E+00  0.0000E+00  0.0000E+00
    -24.562  0.0000E+00  0.0000E+00  0.0000E+00  0.0000E+00  0.0000E+00  0.0000E+00  0.0000E+00  0.0000E+00  0.0000E+00
    -24.181  0.0000E+00  0.0000E+00  0.0000E+00  0.0000E+00  0.0000E+00  0.0000E+00  0.0000E+00  0.0000E+00  0.0000E+00
    -23.801  0.0000E+00  0.0000E+00  0.0000E+00  0.0000E+00  0.0000E+00  0.0000E+00  0.0000E+00  0.0000E+00  0.0000E+00
    -23.421  0.0000E+00  0.0000E+00  0.0000E+00  0.0000E+00  0.0000E+00  0.0000E+00  0.0000E+00  0.0000E+00  0.0000E+00
    -23.041  0.0000E+00  0.0000E+00  0.0000E+00  0.0000E+00  0.0000E+00  0.0000E+00  0.0000E+00  0.0000E+00  0.0000E+00
    -22.660  0.0000E+00  0.0000E+00  0.0000E+00  0.0000E+00  0.0000E+00  0.0000E+00  0.0000E+00  0.0000E+00  0.0000E+00
    -22.280  0.0000E+00  0.0000E+00  0.0000E+00  0.0000E+00  0.0000E+00  0.0000E+00  0.0000E+00  0.0000E+00  0.0000E+00
    -21.900  0.0000E+00  0.0000E+00  0.0000E+00  0.0000E+00  0.0000E+00  0.0000E+00  0.0000E+00  0.0000E+00  0.0000E+00
    -21.519  0.0000E+00  0.0000E+00  0.0000E+00  0.0000E+00  0.0000E+00  0.0000E+00  0.0000E+00  0.0000E+00  0.0000E+00
    -21.139  0.0000E+00  0.0000E+00  0.0000E+00  0.0000E+00  0.0000E+00  0.0000E+00  0.0000E+00  0.0000E+00  0.0000E+00
    -20.759  0.0000E+00  0.0000E+00  0.0000E+00  0.0000E+00  0.0000E+00  0.0000E+00  0.0000E+00  0.0000E+00  0.0000E+00
    -20.379  0.0000E+00  0.0000E+00  0.0000E+00  0.0000E+00  0.0000E+00  0.0000E+00  0.0000E+00  0.0000E+00  0.0000E+00
    -19.998  0.0000E+00  0.0000E+00  0.0000E+00  0.0000E+00  0.0000E+00  0.0000E+00  0.0000E+00  0.0000E+00  0.0000E+00
    -19.618  0.0000E+00  0.0000E+00  0.0000E+00  0.0000E+00  0.0000E+00  0.0000E+00  0.0000E+00  0.0000E+00  0.0000E+00
    -19.238  0.0000E+00  0.0000E+00  0.0000E+00  0.0000E+00  0.0000E+00  0.0000E+00  0.0000E+00  0.0000E+00  0.0000E+00
    -18.857  0.0000E+00  0.0000E+00  0.0000E+00  0.0000E+00  0.0000E+00  0.0000E+00  0.0000E+00  0.0000E+00  0.0000E+00
    -18.477  0.0000E+00  0.0000E+00  0.0000E+00  0.0000E+00  0.0000E+00  0.0000E+00  0.0000E+00  0.0000E+00  0.0000E+00
    -18.097  0.0000E+00  0.0000E+00  0.0000E+00  0.0000E+00  0.0000E+00  0.0000E+00  0.0000E+00  0.0000E+00  0.0000E+00
    -17.717  0.0000E+00  0.0000E+00  0.0000E+00  0.0000E+00  0.0000E+00  0.0000E+00  0.0000E+00  0.0000E+00  0.0000E+00
    -17.336  0.0000E+00  0.0000E+00  0.0000E+00  0.0000E+00  0.0000E+00  0.0000E+00  0.0000E+00  0.0000E+00  0.0000E+00
    -16.956  0.0000E+00  0.0000E+00  0.0000E+00  0.0000E+00  0.0000E+00  0.0000E+00  0.0000E+00  0.0000E+00  0.0000E+00
    -16.576  0.0000E+00  0.0000E+00  0.0000E+00  0.0000E+00  0.0000E+00  0.0000E+00  0.0000E+00  0.0000E+00  0.0000E+00
    -16.195  0.0000E+00  0.0000E+00  0.0000E+00  0.0000E+00  0.0000E+00  0.0000E+00  0.0000E+00  0.0000E+00  0.0000E+00
    -15.815  0.0000E+00  0.0000E+00  0.0000E+00  0.0000E+00  0.0000E+00  0.0000E+00  0.0000E+00  0.0000E+00  0.0000E+00
    -15.435  0.0000E+00  0.0000E+00  0.0000E+00  0.0000E+00  0.0000E+00  0.0000E+00  0.0000E+00  0.0000E+00  0.0000E+00
    -15.055  0.0000E+00  0.0000E+00  0.0000E+00  0.0000E+00  0.0000E+00  0.0000E+00  0.0000E+00  0.0000E+00  0.0000E+00
    -14.674  0.0000E+00  0.0000E+00  0.0000E+00  0.0000E+00  0.0000E+00  0.0000E+00  0.0000E+00  0.0000E+00  0.0000E+00
    -14.294  0.0000E+00  0.0000E+00  0.0000E+00  0.0000E+00  0.0000E+00  0.0000E+00  0.0000E+00  0.0000E+00  0.0000E+00
    -13.914  0.0000E+00  0.0000E+00  0.0000E+00  0.0000E+00  0.0000E+00  0.0000E+00  0.0000E+00  0.0000E+00  0.0000E+00
    -13.533  0.0000E+00  0.0000E+00  0.0000E+00  0.0000E+00  0.0000E+00  0.0000E+00  0.0000E+00  0.0000E+00  0.0000E+00
    -13.153  0.0000E+00  0.0000E+00  0.0000E+00  0.0000E+00  0.0000E+00  0.0000E+00  0.0000E+00  0.0000E+00  0.0000E+00
    -12.773  0.0000E+00  0.0000E+00  0.0000E+00  0.0000E+00  0.0000E+00  0.0000E+00  0.0000E+00  0.0000E+00  0.0000E+00
    -12.393  0.0000E+00  0.0000E+00  0.0000E+00  0.0000E+00  0.0000E+00  0.0000E+00  0.0000E+00  0.0000E+00  0.0000E+00
    -12.012  0.0000E+00  0.0000E+00  0.0000E+00  0.0000E+00  0.0000E+00  0.0000E+00  0.0000E+00  0.0000E+00  0.0000E+00
    -11.632  0.0000E+00  0.0000E+00  0.0000E+00  0.0000E+00  0.0000E+00  0.0000E+00  0.0000E+00  0.0000E+00  0.0000E+00
    -11.252  0.0000E+00  0.0000E+00  0.0000E+00  0.0000E+00  0.0000E+00  0.0000E+00  0.0000E+00  0.0000E+00  0.0000E+00
    -10.871  0.0000E+00  0.0000E+00  0.0000E+00  0.0000E+00  0.0000E+00  0.0000E+00  0.0000E+00  0.0000E+00  0.0000E+00
    -10.491  0.0000E+00  0.0000E+00  0.0000E+00  0.0000E+00  0.0000E+00  0.0000E+00  0.0000E+00  0.0000E+00  0.0000E+00
    -10.111  0.0000E+00  0.0000E+00  0.0000E+00  0.0000E+00  0.0000E+00  0.0000E+00  0.0000E+00  0.0000E+00  0.0000E+00
     -9.731  0.0000E+00  0.0000E+00  0.0000E+00  0.0000E+00  0.0000E+00  0.0000E+00  0.0000E+00  0.0000E+00  0.0000E+00
     -9.350  0.0000E+00  0.0000E+00  0.0000E+00  0.0000E+00  0.0000E+00  0.0000E+00  0.0000E+00  0.0000E+00  0.0000E+00
     -8.970  0.0000E+00  0.0000E+00  0.0000E+00  0.0000E+00  0.0000E+00  0.0000E+00  0.0000E+00  0.0000E+00  0.0000E+00
     -8.590  0.0000E+00  0.0000E+00  0.0000E+00  0.0000E+00  0.0000E+00  0.0000E+00  0.0000E+00  0.0000E+00  0.0000E+00
     -8.209  0.0000E+00  0.0000E+00  0.0000E+00  0.0000E+00  0.0000E+00  0.0000E+00  0.0000E+00  0.0000E+00  0.0000E+00
     -7.829  0.0000E+00  0.0000E+00  0.0000E+00  0.0000E+00  0.0000E+00  0.0000E+00  0.0000E+00  0.0000E+00  0.0000E+00
     -7.449  0.0000E+00  0.0000E+00  0.0000E+00  0.0000E+00  0.0000E+00  0.0000E+00  0.0000E+00  0.0000E+00  0.0000E+00
     -7.069  0.0000E+00  0.0000E+00  0.0000E+00  0.0000E+00  0.0000E+00  0.0000E+00  0.0000E+00  0.0000E+00  0.0000E+00
     -6.688  0.0000E+00  0.0000E+00  0.0000E+00  0.0000E+00  0.0000E+00  0.0000E+00  0.0000E+00  0.0000E+00  0.0000E+00
     -6.308  0.0000E+00  0.0000E+00  0.0000E+00  0.0000E+00  0.0000E+00  0.0000E+00  0.0000E+00  0.0000E+00  0.0000E+00
     -5.928  0.0000E+00  0.0000E+00  0.0000E+00  0.0000E+00  0.0000E+00  0.0000E+00  0.0000E+00  0.0000E+00  0.0000E+00
     -5.547  0.0000E+00  0.0000E+00  0.0000E+00  0.0000E+00  0.0000E+00  0.0000E+00  0.0000E+00  0.0000E+00  0.0000E+00
     -5.167  0.0000E+00  0.0000E+00  0.0000E+00  0.0000E+00  0.0000E+00  0.0000E+00  0.0000E+00  0.0000E+00  0.0000E+00
     -4.787  0.0000E+00  0.0000E+00  0.0000E+00  0.0000E+00  0.0000E+00  0.0000E+00  0.0000E+00  0.0000E+00  0.0000E+00
     -4.407  0.0000E+00  0.0000E+00  0.0000E+00  0.0000E+00  0.0000E+00  0.0000E+00  0.0000E+00  0.0000E+00  0.0000E+00
     -4.026  0.0000E+00  0.0000E+00  0.0000E+00  0.0000E+00  0.0000E+00  0.0000E+00  0.0000E+00  0.0000E+00  0.0000E+00
     -3.646  0.0000E+00  0.0000E+00  0.0000E+00  0.0000E+00  0.0000E+00  0.0000E+00  0.0000E+00  0.0000E+00  0.0000E+00
     -3.266  0.0000E+00  0.0000E+00  0.0000E+00  0.0000E+00  0.0000E+00  0.0000E+00  0.0000E+00  0.0000E+00  0.0000E+00
     -2.885  0.0000E+00  0.0000E+00  0.0000E+00  0.0000E+00  0.0000E+00  0.0000E+00  0.0000E+00  0.0000E+00  0.0000E+00
     -2.505  0.0000E+00  0.0000E+00  0.0000E+00  0.0000E+00  0.0000E+00  0.0000E+00  0.0000E+00  0.0000E+00  0.0000E+00
     -2.125  0.0000E+00  0.0000E+00  0.0000E+00  0.0000E+00  0.0000E+00  0.0000E+00  0.0000E+00  0.0000E+00  0.0000E+00
     -1.745  0.0000E+00  0.0000E+00  0.0000E+00  0.0000E+00  0.0000E+00  0.0000E+00  0.0000E+00  0.0000E+00  0.0000E+00
     -1.364  0.0000E+00  0.0000E+00  0.0000E+00  0.0000E+00  0.0000E+00  0.0000E+00  0.0000E+00  0.0000E+00  0.0000E+00
     -0.984  0.0000E+00  0.0000E+00  0.0000E+00  0.0000E+00  0.0000E+00  0.0000E+00  0.0000E+00  0.0000E+00  0.0000E+00
     -0.604  0.0000E+00  0.0000E+00  0.0000E+00  0.0000E+00  0.0000E+00  0.0000E+00  0.0000E+00  0.0000E+00  0.0000E+00
     -0.223  0.0000E+00  0.0000E+00  0.0000E+00  0.0000E+00  0.0000E+00  0.0000E+00  0.0000E+00  0.0000E+00  0.0000E+00
      0.157  0.0000E+00  0.0000E+00  0.0000E+00  0.0000E+00  0.0000E+00  0.0000E+00  0.0000E+00  0.0000E+00  0.0000E+00
      0.537  0.0000E+00  0.0000E+00  0.0000E+00  0.0000E+00  0.0000E+00  0.0000E+00  0.0000E+00  0.0000E+00  0.0000E+00
      0.917  0.0000E+00  0.0000E+00  0.0000E+00  0.0000E+00  0.0000E+00  0.0000E+00  0.0000E+00  0.0000E+00  0.0000E+00
      1.298  0.2222E-05  0.2371E-08  0.2371E-08  0.2371E-08  0.1427E-09  0.1427E-09  0.1934E-23  0.1427E-09  0.1934E-23
      1.678  0.1159E-01  0.3400E-04  0.3400E-04  0.3400E-04  0.3479E-05  0.3479E-05  0.2693E-05  0.3479E-05  0.2693E-05
      2.058  0.1582E-01  0.9362E-04  0.9362E-04  0.9362E-04  0.2925E-04  0.2925E-04  0.5327E-05  0.2925E-04  0.5327E-05
      2.439  0.3654E-01  0.4024E-03  0.4024E-03  0.4024E-03  0.1807E-03  0.1807E-03  0.1029E-03  0.1807E-03  0.1029E-03
      2.819  0.2037E-01  0.3177E-03  0.3177E-03  0.3177E-03  0.3130E-03  0.3130E-03  0.1034E-03  0.3130E-03  0.1034E-03
      3.199  0.4809E-01  0.9278E-03  0.9278E-03  0.9278E-03  0.1008E-02  0.1008E-02  0.6016E-03  0.1008E-02  0.6016E-03
      3.579  0.4803E-01  0.1134E-02  0.1134E-02  0.1134E-02  0.2959E-02  0.2959E-02  0.5206E-03  0.2959E-02  0.5206E-03
      3.960  0.5795E-01  0.1651E-02  0.1651E-02  0.1651E-02  0.5579E-02  0.5579E-02  0.2897E-02  0.5579E-02  0.2897E-02
      4.340  0.8543E-01  0.2148E-02  0.2148E-02  0.2148E-02  0.3357E-01  0.3357E-01  0.3624E-02  0.3357E-01  0.3624E-02
      4.720  0.1197E+00  0.3573E-02  0.3573E-02  0.3573E-02  0.6736E-01  0.6736E-01  0.5446E-01  0.6736E-01  0.5446E-01
      5.101  0.1133E+00  0.4536E-02  0.4536E-02  0.4536E-02  0.1108E+00  0.1108E+00  0.1273E+00  0.1108E+00  0.1273E+00
      5.481  0.8395E-01  0.4909E-02  0.4909E-02  0.4909E-02  0.2005E+00  0.2005E+00  0.1363E+00  0.2005E+00  0.1363E+00
      5.861  0.4313E-01  0.4790E-02  0.4790E-02  0.4790E-02  0.1691E+00  0.1691E+00  0.1153E+00  0.1691E+00  0.1153E+00
      6.241  0.1355E-01  0.5194E-02  0.5194E-02  0.5194E-02  0.1586E+00  0.1586E+00  0.1024E+00  0.1586E+00  0.1024E+00
      6.622  0.9061E-02  0.8444E-02  0.8444E-02  0.8444E-02  0.1859E+00  0.1859E+00  0.2019E+00  0.1859E+00  0.2019E+00
      7.002  0.1312E-01  0.7021E-02  0.7021E-02  0.7021E-02  0.2272E+00  0.2272E+00  0.1751E+00  0.2272E+00  0.1751E+00
      7.382  0.2063E-01  0.9426E-02  0.9426E-02  0.9426E-02  0.2800E+00  0.2800E+00  0.2013E+00  0.2800E+00  0.2013E+00
      7.763  0.2803E-01  0.1316E-01  0.1316E-01  0.1316E-01  0.3365E+00  0.3365E+00  0.2693E+00  0.3365E+00  0.2693E+00
      8.143  0.1998E-01  0.7509E-02  0.7509E-02  0.7509E-02  0.3208E+00  0.3208E+00  0.2472E+00  0.3208E+00  0.2472E+00
      8.523  0.1190E-01  0.8494E-02  0.8494E-02  0.8494E-02  0.1935E+00  0.1935E+00  0.1861E+00  0.1935E+00  0.1861E+00
      8.903  0.1229E-01  0.6578E-02  0.6578E-02  0.6578E-02  0.1486E+00  0.1486E+00  0.2957E+00  0.1486E+00  0.2957E+00
      9.284  0.1161E-01  0.6905E-02  0.6905E-02  0.6905E-02  0.1456E+00  0.1456E+00  0.4608E+00  0.1456E+00  0.4608E+00
      9.664  0.1186E-01  0.4489E-02  0.4489E-02  0.4489E-02  0.1519E+00  0.1519E+00  0.3676E+00  0.1519E+00  0.3676E+00
     10.044  0.1888E-02  0.3046E-02  0.3046E-02  0.3046E-02  0.1116E+00  0.1116E+00  0.2189E+00  0.1116E+00  0.2189E+00
     10.425  0.8928E-02  0.3259E-02  0.3259E-02  0.3259E-02  0.1815E+00  0.1815E+00  0.2864E+00  0.1815E+00  0.2864E+00
     10.805  0.6849E-02  0.2163E-02  0.2163E-02  0.2163E-02  0.3307E+00  0.3307E+00  0.3095E+00  0.3307E+00  0.3095E+00
     11.185  0.1287E-01  0.2858E-02  0.2858E-02  0.2858E-02  0.3959E+00  0.3959E+00  0.2147E+00  0.3959E+00  0.2147E+00
     11.565  0.6735E-02  0.1082E-02  0.1082E-02  0.1082E-02  0.1148E+00  0.1148E+00  0.3006E-01  0.1148E+00  0.3006E-01
     11.946  0.2141E-01  0.4393E-02  0.4393E-02  0.4393E-02  0.5710E-01  0.5710E-01  0.5177E-01  0.5710E-01  0.5177E-01
     12.326  0.1553E-01  0.4379E-02  0.4379E-02  0.4379E-02  0.3506E-01  0.3506E-01  0.2562E-01  0.3506E-01  0.2562E-01