   1   1   1   0
  0.1693477E+02  0.2882470E-09  0.2882470E-09  0.2882470E-09  0.5000000E-15
  1.000000000000000E-004
  CAR 
 Pt-fcc                                  
     64.37929235    -47.68164885  301      9.91433064      1.00000000
    -47.682  0.0000E+00  0.0000E+00
    -47.308  0.0000E+00  0.0000E+00
    -46.935  0.0000E+00  0.0000E+00
    -46.561  0.0000E+00  0.0000E+00
    -46.188  0.0000E+00  0.0000E+00
    -45.814  0.0000E+00  0.0000E+00
    -45.440  0.0000E+00  0.0000E+00
    -45.067  0.0000E+00  0.0000E+00
    -44.693  0.0000E+00  0.0000E+00
    -44.320  0.0000E+00  0.0000E+00
    -43.946  0.0000E+00  0.0000E+00
    -43.573  0.0000E+00  0.0000E+00
    -43.199  0.0000E+00  0.0000E+00
    -42.826  0.5624E-14  0.2101E-14
    -42.452  0.5513E-01  0.2059E-01
    -42.079  0.1042E+00  0.6000E-01
    -41.705  0.0000E+00  0.6000E-01
    -41.332  0.0000E+00  0.6000E-01
    -40.958  0.0000E+00  0.6000E-01
    -40.584  0.0000E+00  0.6000E-01
    -40.211  0.0000E+00  0.6000E-01
    -39.837  0.0000E+00  0.6000E-01
    -39.464  0.0000E+00  0.6000E-01
    -39.090  0.0000E+00  0.6000E-01
    -38.717  0.0000E+00  0.6000E-01
    -38.343  0.0000E+00  0.6000E-01
    -37.970  0.0000E+00  0.6000E-01
    -37.596  0.0000E+00  0.6000E-01
    -37.223  0.0000E+00  0.6000E-01
    -36.849  0.0000E+00  0.6000E-01
    -36.476  0.0000E+00  0.6000E-01
    -36.102  0.0000E+00  0.6000E-01
    -35.728  0.0000E+00  0.6000E-01
    -35.355  0.0000E+00  0.6000E-01
    -34.981  0.0000E+00  0.6000E-01
    -34.608  0.0000E+00  0.6000E-01
    -34.234  0.0000E+00  0.6000E-01
    -33.861  0.0000E+00  0.6000E-01
    -33.487  0.0000E+00  0.6000E-01
    -33.114  0.0000E+00  0.6000E-01
    -32.740  0.0000E+00  0.6000E-01
    -32.367  0.0000E+00  0.6000E-01
    -31.993  0.0000E+00  0.6000E-01
    -31.620  0.0000E+00  0.6000E-01
    -31.246  0.0000E+00  0.6000E-01
    -30.873  0.0000E+00  0.6000E-01
    -30.499  0.0000E+00  0.6000E-01
    -30.125  0.0000E+00  0.6000E-01
    -29.752  0.0000E+00  0.6000E-01
    -29.378  0.0000E+00  0.6000E-01
    -29.005  0.0000E+00  0.6000E-01
    -28.631  0.0000E+00  0.6000E-01
    -28.258  0.0000E+00  0.6000E-01
    -27.884  0.0000E+00  0.6000E-01
    -27.511  0.0000E+00  0.6000E-01
    -27.137  0.0000E+00  0.6000E-01
    -26.764  0.0000E+00  0.6000E-01
    -26.390  0.0000E+00  0.6000E-01
    -26.017  0.0000E+00  0.6000E-01
    -25.643  0.0000E+00  0.6000E-01
    -25.269  0.0000E+00  0.6000E-01
    -24.896  0.0000E+00  0.6000E-01
    -24.522  0.0000E+00  0.6000E-01
    -24.149  0.0000E+00  0.6000E-01
    -23.775  0.0000E+00  0.6000E-01
    -23.402  0.0000E+00  0.6000E-01
    -23.028  0.0000E+00  0.6000E-01
    -22.655  0.0000E+00  0.6000E-01
    -22.281  0.0000E+00  0.6000E-01
    -21.908  0.0000E+00  0.6000E-01
    -21.534  0.0000E+00  0.6000E-01
    -21.161  0.0000E+00  0.6000E-01
    -20.787  0.0000E+00  0.6000E-01
    -20.413  0.0000E+00  0.6000E-01
    -20.040  0.0000E+00  0.6000E-01
    -19.666  0.0000E+00  0.6000E-01
    -19.293  0.0000E+00  0.6000E-01
    -18.919  0.0000E+00  0.6000E-01
    -18.546  0.0000E+00  0.6000E-01
    -18.172  0.0000E+00  0.6000E-01
    -17.799  0.0000E+00  0.6000E-01
    -17.425  0.0000E+00  0.6000E-01
    -17.052  0.0000E+00  0.6000E-01
    -16.678  0.0000E+00  0.6000E-01
    -16.305  0.0000E+00  0.6000E-01
    -15.931  0.0000E+00  0.6000E-01
    -15.558  0.0000E+00  0.6000E-01
    -15.184  0.0000E+00  0.6000E-01
    -14.810  0.0000E+00  0.6000E-01
    -14.437  0.0000E+00  0.6000E-01
    -14.063  0.0000E+00  0.6000E-01
    -13.690  0.0000E+00  0.6000E-01
    -13.316  0.0000E+00  0.6000E-01
    -12.943  0.0000E+00  0.6000E-01
    -12.569  0.0000E+00  0.6000E-01
    -12.196  0.0000E+00  0.6000E-01
    -11.822  0.0000E+00  0.6000E-01
    -11.449  0.0000E+00  0.6000E-01
    -11.075  0.0000E+00  0.6000E-01
    -10.702  0.0000E+00  0.6000E-01
    -10.328  0.0000E+00  0.6000E-01
     -9.954  0.0000E+00  0.6000E-01
     -9.581  0.0000E+00  0.6000E-01
     -9.207  0.0000E+00  0.6000E-01
     -8.834  0.0000E+00  0.6000E-01
     -8.460  0.0000E+00  0.6000E-01
     -8.087  0.0000E+00  0.6000E-01
     -7.713  0.0000E+00  0.6000E-01
     -7.340  0.0000E+00  0.6000E-01
     -6.966  0.0000E+00  0.6000E-01
     -6.593  0.0000E+00  0.6000E-01
     -6.219  0.0000E+00  0.6000E-01
     -5.846  0.0000E+00  0.6000E-01
     -5.472  0.0000E+00  0.6000E-01
     -5.098  0.0000E+00  0.6000E-01
     -4.725  0.0000E+00  0.6000E-01
     -4.351  0.0000E+00  0.6000E-01
     -3.978  0.0000E+00  0.6000E-01
     -3.604  0.0000E+00  0.6000E-01
     -3.231  0.0000E+00  0.6000E-01
     -2.857  0.0000E+00  0.6000E-01
     -2.484  0.0000E+00  0.6000E-01
     -2.110  0.0000E+00  0.6000E-01
     -1.737  0.0000E+00  0.6000E-01
     -1.363  0.0000E+00  0.6000E-01
     -0.990  0.0000E+00  0.6000E-01
     -0.616  0.0000E+00  0.6000E-01
     -0.243  0.0000E+00  0.6000E-01
      0.131  0.0000E+00  0.6000E-01
      0.505  0.0000E+00  0.6000E-01
      0.878  0.2049E-06  0.6000E-01
      1.252  0.3711E-03  0.6014E-01
      1.625  0.3499E-03  0.6029E-01
      1.999  0.1042E-02  0.6068E-01
      2.372  0.9016E-03  0.6102E-01
      2.746  0.1291E-02  0.6152E-01
      3.119  0.1614E-02  0.6213E-01
      3.493  0.2310E-02  0.6300E-01
      3.866  0.4079E-02  0.6453E-01
      4.240  0.8711E-02  0.6779E-01
      4.613  0.1272E-01  0.7258E-01
      4.987  0.1579E-01  0.7855E-01
      5.361  0.1340E-01  0.8365E-01
      5.734  0.1062E-01  0.8770E-01
      6.108  0.1670E-01  0.9399E-01
      6.481  0.1661E-01  0.1003E+00
      6.855  0.1837E-01  0.1073E+00
      7.228  0.2725E-01  0.1175E+00
      7.602  0.1565E-01  0.1234E+00
      7.975  0.1330E-01  0.1284E+00
      8.349  0.1711E-01  0.1349E+00
      8.722  0.1614E-01  0.1411E+00
      9.096  0.1159E-01  0.1455E+00
      9.469  0.1418E-01  0.1509E+00
      9.843  0.2026E-01  0.1585E+00
     10.217  0.1817E-01  0.1654E+00
     10.590  0.2573E-02  0.1664E+00
     10.964  0.5024E-02  0.1683E+00
     11.337  0.1780E-02  0.1690E+00
     11.711  0.3253E-02  0.1702E+00
     12.084  0.2516E-02  0.1712E+00
     12.458  0.3872E-02  0.1727E+00
     12.831  0.1631E-02  0.1733E+00
     13.205  0.3792E-02  0.1747E+00
     13.578  0.2380E-02  0.1756E+00
     13.952  0.3113E-02  0.1768E+00
     14.325  0.2127E-02  0.1777E+00
     14.699  0.1292E-02  0.1782E+00
     15.072  0.5413E-02  0.1802E+00
     15.446  0.2181E-02  0.1811E+00
     15.820  0.4153E-02  0.1826E+00
     16.193  0.1606E-02  0.1833E+00
     16.567  0.3583E-02  0.1846E+00
     16.940  0.3624E-02  0.1860E+00
     17.314  0.3773E-02  0.1874E+00
     17.687  0.3365E-02  0.1886E+00
     18.061  0.3930E-02  0.1901E+00
     18.434  0.1362E-02  0.1908E+00
     18.808  0.3000E-02  0.1919E+00
     19.181  0.3291E-02  0.1931E+00
     19.555  0.5727E-02  0.1953E+00
     19.928  0.7944E-03  0.1957E+00
     20.302  0.4706E-02  0.1975E+00
     20.676  0.3291E-02  0.1987E+00
     21.049  0.3717E-02  0.2001E+00
     21.423  0.6551E-02  0.2026E+00
     21.796  0.4602E-02  0.2043E+00
     22.170  0.4808E-02  0.2061E+00
     22.543  0.3438E-02  0.2075E+00
     22.917  0.6613E-02  0.2100E+00
     23.290  0.5481E-02  0.2120E+00
     23.664  0.3713E-02  0.2135E+00
     24.037  0.5338E-02  0.2154E+00
     24.411  0.5924E-02  0.2177E+00
     24.784  0.8026E-02  0.2207E+00
     25.158  0.7006E-02  0.2233E+00
     25.531  0.7241E-02  0.2260E+00
     25.905  0.3960E-02  0.2276E+00
     26.279  0.9666E-02  0.2312E+00
     26.652  0.5171E-02  0.2331E+00
     27.026  0.4094E-02  0.2347E+00
     27.399  0.3254E-02  0.2359E+00
     27.773  0.5716E-02  0.2381E+00
     28.146  0.6202E-02  0.2405E+00
     28.520  0.6771E-02  0.2431E+00
     28.893  0.8408E-02  0.2463E+00
     29.267  0.8027E-02  0.2493E+00
     29.640  0.7047E-02  0.2520E+00
     30.014  0.6837E-02  0.2546E+00
     30.387  0.4632E-02  0.2563E+00
     30.761  0.6618E-02  0.2588E+00
     31.135  0.2489E-02  0.2598E+00
     31.508  0.3717E-02  0.2612E+00
     31.882  0.5108E-02  0.2631E+00
     32.255  0.4211E-02  0.2648E+00
     32.629  0.3818E-02  0.2662E+00
     33.002  0.3932E-02  0.2677E+00
     33.376  0.7858E-02  0.2707E+00
     33.749  0.4028E-02  0.2722E+00
     34.123  0.6169E-02  0.2745E+00
     34.496  0.4014E-02  0.2761E+00
     34.870  0.5303E-02  0.2781E+00
     35.243  0.7003E-02  0.2808E+00
     35.617  0.9094E-02  0.2842E+00
     35.991  0.8895E-02  0.2875E+00
     36.364  0.1027E-01  0.2915E+00
     36.738  0.1556E-01  0.2973E+00
     37.111  0.9567E-02  0.3009E+00
     37.485  0.9670E-02  0.3046E+00
     37.858  0.9291E-02  0.3081E+00
     38.232  0.4578E-02  0.3098E+00
     38.605  0.7121E-02  0.3125E+00
     38.979  0.6164E-02  0.3148E+00
     39.352  0.1405E-01  0.3201E+00
     39.726  0.6100E-02  0.3224E+00
     40.099  0.7967E-02  0.3254E+00
     40.473  0.6262E-02  0.3278E+00
     40.846  0.5944E-02  0.3301E+00
     41.220  0.9406E-02  0.3336E+00
     41.594  0.6170E-02  0.3359E+00
     41.967  0.4143E-02  0.3375E+00
     42.341  0.5565E-02  0.3396E+00
     42.714  0.8236E-02  0.3427E+00
     43.088  0.7438E-02  0.3455E+00
     43.461  0.1060E-01  0.3494E+00
     43.835  0.8621E-02  0.3527E+00
     44.208  0.1270E-01  0.3575E+00
     44.582  0.1146E-01  0.3618E+00
     44.955  0.1026E-01  0.3657E+00
     45.329  0.1093E-01  0.3699E+00
     45.702  0.1030E-01  0.3738E+00
     46.076  0.1186E-01  0.3782E+00
     46.450  0.5960E-02  0.3805E+00
     46.823  0.5981E-02  0.3827E+00
     47.197  0.1086E-01  0.3868E+00
     47.570  0.7135E-02  0.3895E+00
     47.944  0.5523E-02  0.3916E+00
     48.317  0.9149E-02  0.3950E+00
     48.691  0.1078E-01  0.3991E+00
     49.064  0.8052E-02  0.4021E+00
     49.438  0.6693E-02  0.4047E+00
     49.811  0.1230E-01  0.4094E+00
     50.185  0.7970E-02  0.4125E+00
     50.558  0.1039E-01  0.4164E+00
     50.932  0.6015E-02  0.4186E+00
     51.306  0.6180E-01  0.4418E+00
     51.679  0.7187E-02  0.4445E+00
     52.053  0.1168E-01  0.4489E+00
     52.426  0.7541E-02  0.4518E+00
     52.800  0.9172E-02  0.4553E+00
     53.173  0.8601E-02  0.4585E+00
     53.547  0.6810E-02  0.4611E+00
     53.920  0.8566E-02  0.4643E+00
     54.294  0.8450E-02  0.4675E+00
     54.667  0.7308E-02  0.4703E+00
     55.041  0.7027E-02  0.4729E+00
     55.414  0.4668E-02  0.4747E+00
     55.788  0.3298E-02  0.4760E+00
     56.161  0.2043E-02  0.4767E+00
     56.535  0.3076E-02  0.4779E+00
     56.909  0.1082E-02  0.4783E+00
     57.282  0.2206E-02  0.4792E+00
     57.656  0.1284E-02  0.4796E+00
     58.029  0.0000E+00  0.4796E+00
     58.403  0.5501E-04  0.4797E+00
     58.776  0.5875E-03  0.4799E+00
     59.150  0.1961E-07  0.4799E+00
     59.523  0.3212E-03  0.4800E+00
     59.897  0.0000E+00  0.4800E+00
     60.270  0.0000E+00  0.4800E+00
     60.644  0.0000E+00  0.4800E+00
     61.017  0.0000E+00  0.4800E+00
     61.391  0.0000E+00  0.4800E+00
     61.765  0.0000E+00  0.4800E+00
     62.138  0.0000E+00  0.4800E+00
     62.512  0.0000E+00  0.4800E+00
     62.885  0.0000E+00  0.4800E+00
     63.259  0.0000E+00  0.4800E+00
     63.632  0.0000E+00  0.4800E+00
     64.006  0.0000E+00  0.4800E+00
     64.379  0.0000E+00  0.4800E+00
     64.37929235    -47.68164885  301      9.91433064      1.00000000
    -47.682  0.0000E+00  0.0000E+00  0.0000E+00  0.0000E+00  0.0000E+00  0.0000E+00  0.0000E+00  0.0000E+00  0.0000E+00
    -47.308  0.0000E+00  0.0000E+00  0.0000E+00  0.0000E+00  0.0000E+00  0.0000E+00  0.0000E+00  0.0000E+00  0.0000E+00
    -46.935  0.0000E+00  0.0000E+00  0.0000E+00  0.0000E+00  0.0000E+00  0.0000E+00  0.0000E+00  0.0000E+00  0.0000E+00
    -46.561  0.0000E+00  0.0000E+00  0.0000E+00  0.0000E+00  0.0000E+00  0.0000E+00  0.0000E+00  0.0000E+00  0.0000E+00
    -46.188  0.0000E+00  0.0000E+00  0.0000E+00  0.0000E+00  0.0000E+00  0.0000E+00  0.0000E+00  0.0000E+00  0.0000E+00
    -45.814  0.0000E+00  0.0000E+00  0.0000E+00  0.0000E+00  0.0000E+00  0.0000E+00  0.0000E+00  0.0000E+00  0.0000E+00
    -45.440  0.0000E+00  0.0000E+00  0.0000E+00  0.0000E+00  0.0000E+00  0.0000E+00  0.0000E+00  0.0000E+00  0.0000E+00
    -45.067  0.0000E+00  0.0000E+00  0.0000E+00  0.0000E+00  0.0000E+00  0.0000E+00  0.0000E+00  0.0000E+00  0.0000E+00
    -44.693  0.0000E+00  0.0000E+00  0.0000E+00  0.0000E+00  0.0000E+00  0.0000E+00  0.0000E+00  0.0000E+00  0.0000E+00
    -44.320  0.0000E+00  0.0000E+00  0.0000E+00  0.0000E+00  0.0000E+00  0.0000E+00  0.0000E+00  0.0000E+00  0.0000E+00
    -43.946  0.0000E+00  0.0000E+00  0.0000E+00  0.0000E+00  0.0000E+00  0.0000E+00  0.0000E+00  0.0000E+00  0.0000E+00
    -43.573  0.0000E+00  0.0000E+00  0.0000E+00  0.0000E+00  0.0000E+00  0.0000E+00  0.0000E+00  0.0000E+00  0.0000E+00
    -43.199  0.0000E+00  0.0000E+00  0.0000E+00  0.0000E+00  0.0000E+00  0.0000E+00  0.0000E+00  0.0000E+00  0.0000E+00
    -42.826  0.8539E-18  0.1846E-12  0.1846E-12  0.1846E-12  0.4612E-18  0.4612E-18  0.3380E-18  0.4612E-18  0.3380E-18
    -42.452  0.7437E-04  0.1814E+01  0.1814E+01  0.1814E+01  0.2397E-04  0.2397E-04  0.9540E-05  0.2397E-04  0.9540E-05
    -42.079  0.4190E-04  0.3448E+01  0.3448E+01  0.3448E+01  0.3780E-04  0.3780E-04  0.2299E-04  0.3780E-04  0.2299E-04
    -41.705  0.0000E+00  0.0000E+00  0.0000E+00  0.0000E+00  0.0000E+00  0.0000E+00  0.0000E+00  0.0000E+00  0.0000E+00
    -41.332  0.0000E+00  0.0000E+00  0.0000E+00  0.0000E+00  0.0000E+00  0.0000E+00  0.0000E+00  0.0000E+00  0.0000E+00
    -40.958  0.0000E+00  0.0000E+00  0.0000E+00  0.0000E+00  0.0000E+00  0.0000E+00  0.0000E+00  0.0000E+00  0.0000E+00
    -40.584  0.0000E+00  0.0000E+00  0.0000E+00  0.0000E+00  0.0000E+00  0.0000E+00  0.0000E+00  0.0000E+00  0.0000E+00
    -40.211  0.0000E+00  0.0000E+00  0.0000E+00  0.0000E+00  0.0000E+00  0.0000E+00  0.0000E+00  0.0000E+00  0.0000E+00
    -39.837  0.0000E+00  0.0000E+00  0.0000E+00  0.0000E+00  0.0000E+00  0.0000E+00  0.0000E+00  0.0000E+00  0.0000E+00
    -39.464  0.0000E+00  0.0000E+00  0.0000E+00  0.0000E+00  0.0000E+00  0.0000E+00  0.0000E+00  0.0000E+00  0.0000E+00
    -39.090  0.0000E+00  0.0000E+00  0.0000E+00  0.0000E+00  0.0000E+00  0.0000E+00  0.0000E+00  0.0000E+00  0.0000E+00
    -38.717  0.0000E+00  0.0000E+00  0.0000E+00  0.0000E+00  0.0000E+00  0.0000E+00  0.0000E+00  0.0000E+00  0.0000E+00
    -38.343  0.0000E+00  0.0000E+00  0.0000E+00  0.0000E+00  0.0000E+00  0.0000E+00  0.0000E+00  0.0000E+00  0.0000E+00
    -37.970  0.0000E+00  0.0000E+00  0.0000E+00  0.0000E+00  0.0000E+00  0.0000E+00  0.0000E+00  0.0000E+00  0.0000E+00
    -37.596  0.0000E+00  0.0000E+00  0.0000E+00  0.0000E+00  0.0000E+00  0.0000E+00  0.0000E+00  0.0000E+00  0.0000E+00
    -37.223  0.0000E+00  0.0000E+00  0.0000E+00  0.0000E+00  0.0000E+00  0.0000E+00  0.0000E+00  0.0000E+00  0.0000E+00
    -36.849  0.0000E+00  0.0000E+00  0.0000E+00  0.0000E+00  0.0000E+00  0.0000E+00  0.0000E+00  0.0000E+00  0.0000E+00
    -36.476  0.0000E+00  0.0000E+00  0.0000E+00  0.0000E+00  0.0000E+00  0.0000E+00  0.0000E+00  0.0000E+00  0.0000E+00
    -36.102  0.0000E+00  0.0000E+00  0.0000E+00  0.0000E+00  0.0000E+00  0.0000E+00  0.0000E+00  0.0000E+00  0.0000E+00
    -35.728  0.0000E+00  0.0000E+00  0.0000E+00  0.0000E+00  0.0000E+00  0.0000E+00  0.0000E+00  0.0000E+00  0.0000E+00
    -35.355  0.0000E+00  0.0000E+00  0.0000E+00  0.0000E+00  0.0000E+00  0.0000E+00  0.0000E+00  0.0000E+00  0.0000E+00
    -34.981  0.0000E+00  0.0000E+00  0.0000E+00  0.0000E+00  0.0000E+00  0.0000E+00  0.0000E+00  0.0000E+00  0.0000E+00
    -34.608  0.0000E+00  0.0000E+00  0.0000E+00  0.0000E+00  0.0000E+00  0.0000E+00  0.0000E+00  0.0000E+00  0.0000E+00
    -34.234  0.0000E+00  0.0000E+00  0.0000E+00  0.0000E+00  0.0000E+00  0.0000E+00  0.0000E+00  0.0000E+00  0.0000E+00
    -33.861  0.0000E+00  0.0000E+00  0.0000E+00  0.0000E+00  0.0000E+00  0.0000E+00  0.0000E+00  0.0000E+00  0.0000E+00
    -33.487  0.0000E+00  0.0000E+00  0.0000E+00  0.0000E+00  0.0000E+00  0.0000E+00  0.0000E+00  0.0000E+00  0.0000E+00
    -33.114  0.0000E+00  0.0000E+00  0.0000E+00  0.0000E+00  0.0000E+00  0.0000E+00  0.0000E+00  0.0000E+00  0.0000E+00
    -32.740  0.0000E+00  0.0000E+00  0.0000E+00  0.0000E+00  0.0000E+00  0.0000E+00  0.0000E+00  0.0000E+00  0.0000E+00
    -32.367  0.0000E+00  0.0000E+00  0.0000E+00  0.0000E+00  0.0000E+00  0.0000E+00  0.0000E+00  0.0000E+00  0.0000E+00
    -31.993  0.0000E+00  0.0000E+00  0.0000E+00  0.0000E+00  0.0000E+00  0.0000E+00  0.0000E+00  0.0000E+00  0.0000E+00
    -31.620  0.0000E+00  0.0000E+00  0.0000E+00  0.0000E+00  0.0000E+00  0.0000E+00  0.0000E+00  0.0000E+00  0.0000E+00
    -31.246  0.0000E+00  0.0000E+00  0.0000E+00  0.0000E+00  0.0000E+00  0.0000E+00  0.0000E+00  0.0000E+00  0.0000E+00
    -30.873  0.0000E+00  0.0000E+00  0.0000E+00  0.0000E+00  0.0000E+00  0.0000E+00  0.0000E+00  0.0000E+00  0.0000E+00
    -30.499  0.0000E+00  0.0000E+00  0.0000E+00  0.0000E+00  0.0000E+00  0.0000E+00  0.0000E+00  0.0000E+00  0.0000E+00
    -30.125  0.0000E+00  0.0000E+00  0.0000E+00  0.0000E+00  0.0000E+00  0.0000E+00  0.0000E+00  0.0000E+00  0.0000E+00
    -29.752  0.0000E+00  0.0000E+00  0.0000E+00  0.0000E+00  0.0000E+00  0.0000E+00  0.0000E+00  0.0000E+00  0.0000E+00
    -29.378  0.0000E+00  0.0000E+00  0.0000E+00  0.0000E+00  0.0000E+00  0.0000E+00  0.0000E+00  0.0000E+00  0.0000E+00
    -29.005  0.0000E+00  0.0000E+00  0.0000E+00  0.0000E+00  0.0000E+00  0.0000E+00  0.0000E+00  0.0000E+00  0.0000E+00
    -28.631  0.0000E+00  0.0000E+00  0.0000E+00  0.0000E+00  0.0000E+00  0.0000E+00  0.0000E+00  0.0000E+00  0.0000E+00
    -28.258  0.0000E+00  0.0000E+00  0.0000E+00  0.0000E+00  0.0000E+00  0.0000E+00  0.0000E+00  0.0000E+00  0.0000E+00
    -27.884  0.0000E+00  0.0000E+00  0.0000E+00  0.0000E+00  0.0000E+00  0.0000E+00  0.0000E+00  0.0000E+00  0.0000E+00
    -27.511  0.0000E+00  0.0000E+00  0.0000E+00  0.0000E+00  0.0000E+00  0.0000E+00  0.0000E+00  0.0000E+00  0.0000E+00
    -27.137  0.0000E+00  0.0000E+00  0.0000E+00  0.0000E+00  0.0000E+00  0.0000E+00  0.0000E+00  0.0000E+00  0.0000E+00
    -26.764  0.0000E+00  0.0000E+00  0.0000E+00  0.0000E+00  0.0000E+00  0.0000E+00  0.0000E+00  0.0000E+00  0.0000E+00
    -26.390  0.0000E+00  0.0000E+00  0.0000E+00  0.0000E+00  0.0000E+00  0.0000E+00  0.0000E+00  0.0000E+00  0.0000E+00
    -26.017  0.0000E+00  0.0000E+00  0.0000E+00  0.0000E+00  0.0000E+00  0.0000E+00  0.0000E+00  0.0000E+00  0.0000E+00
    -25.643  0.0000E+00  0.0000E+00  0.0000E+00  0.0000E+00  0.0000E+00  0.0000E+00  0.0000E+00  0.0000E+00  0.0000E+00
    -25.269  0.0000E+00  0.0000E+00  0.0000E+00  0.0000E+00  0.0000E+00  0.0000E+00  0.0000E+00  0.0000E+00  0.0000E+00
    -24.896  0.0000E+00  0.0000E+00  0.0000E+00  0.0000E+00  0.0000E+00  0.0000E+00  0.0000E+00  0.0000E+00  0.0000E+00
    -24.522  0.0000E+00  0.0000E+00  0.0000E+00  0.0000E+00  0.0000E+00  0.0000E+00  0.0000E+00  0.0000E+00  0.0000E+00
    -24.149  0.0000E+00  0.0000E+00  0.0000E+00  0.0000E+00  0.0000E+00  0.0000E+00  0.0000E+00  0.0000E+00  0.0000E+00
    -23.775  0.0000E+00  0.0000E+00  0.0000E+00  0.0000E+00  0.0000E+00  0.0000E+00  0.0000E+00  0.0000E+00  0.0000E+00
    -23.402  0.0000E+00  0.0000E+00  0.0000E+00  0.0000E+00  0.0000E+00  0.0000E+00  0.0000E+00  0.0000E+00  0.0000E+00
    -23.028  0.0000E+00  0.0000E+00  0.0000E+00  0.0000E+00  0.0000E+00  0.0000E+00  0.0000E+00  0.0000E+00  0.0000E+00
    -22.655  0.0000E+00  0.0000E+00  0.0000E+00  0.0000E+00  0.0000E+00  0.0000E+00  0.0000E+00  0.0000E+00  0.0000E+00
    -22.281  0.0000E+00  0.0000E+00  0.0000E+00  0.0000E+00  0.0000E+00  0.0000E+00  0.0000E+00  0.0000E+00  0.0000E+00
    -21.908  0.0000E+00  0.0000E+00  0.0000E+00  0.0000E+00  0.0000E+00  0.0000E+00  0.0000E+00  0.0000E+00  0.0000E+00
    -21.534  0.0000E+00  0.0000E+00  0.0000E+00  0.0000E+00  0.0000E+00  0.0000E+00  0.0000E+00  0.0000E+00  0.0000E+00
    -21.161  0.0000E+00  0.0000E+00  0.0000E+00  0.0000E+00  0.0000E+00  0.0000E+00  0.0000E+00  0.0000E+00  0.0000E+00
    -20.787  0.0000E+00  0.0000E+00  0.0000E+00  0.0000E+00  0.0000E+00  0.0000E+00  0.0000E+00  0.0000E+00  0.0000E+00
    -20.413  0.0000E+00  0.0000E+00  0.0000E+00  0.0000E+00  0.0000E+00  0.0000E+00  0.0000E+00  0.0000E+00  0.0000E+00
    -20.040  0.0000E+00  0.0000E+00  0.0000E+00  0.0000E+00  0.0000E+00  0.0000E+00  0.0000E+00  0.0000E+00  0.0000E+00
    -19.666  0.0000E+00  0.0000E+00  0.0000E+00  0.0000E+00  0.0000E+00  0.0000E+00  0.0000E+00  0.0000E+00  0.0000E+00
    -19.293  0.0000E+00  0.0000E+00  0.0000E+00  0.0000E+00  0.0000E+00  0.0000E+00  0.0000E+00  0.0000E+00  0.0000E+00
    -18.919  0.0000E+00  0.0000E+00  0.0000E+00  0.0000E+00  0.0000E+00  0.0000E+00  0.0000E+00  0.0000E+00  0.0000E+00
    -18.546  0.0000E+00  0.0000E+00  0.0000E+00  0.0000E+00  0.0000E+00  0.0000E+00  0.0000E+00  0.0000E+00  0.0000E+00
    -18.172  0.0000E+00  0.0000E+00  0.0000E+00  0.0000E+00  0.0000E+00  0.0000E+00  0.0000E+00  0.0000E+00  0.0000E+00
    -17.799  0.0000E+00  0.0000E+00  0.0000E+00  0.0000E+00  0.0000E+00  0.0000E+00  0.0000E+00  0.0000E+00  0.0000E+00
    -17.425  0.0000E+00  0.0000E+00  0.0000E+00  0.0000E+00  0.0000E+00  0.0000E+00  0.0000E+00  0.0000E+00  0.0000E+00
    -17.052  0.0000E+00  0.0000E+00  0.0000E+00  0.0000E+00  0.0000E+00  0.0000E+00  0.0000E+00  0.0000E+00  0.0000E+00
    -16.678  0.0000E+00  0.0000E+00  0.0000E+00  0.0000E+00  0.0000E+00  0.0000E+00  0.0000E+00  0.0000E+00  0.0000E+00
    -16.305  0.0000E+00  0.0000E+00  0.0000E+00  0.0000E+00  0.0000E+00  0.0000E+00  0.0000E+00  0.0000E+00  0.0000E+00
    -15.931  0.0000E+00  0.0000E+00  0.0000E+00  0.0000E+00  0.0000E+00  0.0000E+00  0.0000E+00  0.0000E+00  0.0000E+00
    -15.558  0.0000E+00  0.0000E+00  0.0000E+00  0.0000E+00  0.0000E+00  0.0000E+00  0.0000E+00  0.0000E+00  0.0000E+00
    -15.184  0.0000E+00  0.0000E+00  0.0000E+00  0.0000E+00  0.0000E+00  0.0000E+00  0.0000E+00  0.0000E+00  0.0000E+00
    -14.810  0.0000E+00  0.0000E+00  0.0000E+00  0.0000E+00  0.0000E+00  0.0000E+00  0.0000E+00  0.0000E+00  0.0000E+00
    -14.437  0.0000E+00  0.0000E+00  0.0000E+00  0.0000E+00  0.0000E+00  0.0000E+00  0.0000E+00  0.0000E+00  0.0000E+00
    -14.063  0.0000E+00  0.0000E+00  0.0000E+00  0.0000E+00  0.0000E+00  0.0000E+00  0.0000E+00  0.0000E+00  0.0000E+00
    -13.690  0.0000E+00  0.0000E+00  0.0000E+00  0.0000E+00  0.0000E+00  0.0000E+00  0.0000E+00  0.0000E+00  0.0000E+00
    -13.316  0.0000E+00  0.0000E+00  0.0000E+00  0.0000E+00  0.0000E+00  0.0000E+00  0.0000E+00  0.0000E+00  0.0000E+00
    -12.943  0.0000E+00  0.0000E+00  0.0000E+00  0.0000E+00  0.0000E+00  0.0000E+00  0.0000E+00  0.0000E+00  0.0000E+00
    -12.569  0.0000E+00  0.0000E+00  0.0000E+00  0.0000E+00  0.0000E+00  0.0000E+00  0.0000E+00  0.0000E+00  0.0000E+00
    -12.196  0.0000E+00  0.0000E+00  0.0000E+00  0.0000E+00  0.0000E+00  0.0000E+00  0.0000E+00  0.0000E+00  0.0000E+00
    -11.822  0.0000E+00  0.0000E+00  0.0000E+00  0.0000E+00  0.0000E+00  0.0000E+00  0.0000E+00  0.0000E+00  0.0000E+00
    -11.449  0.0000E+00  0.0000E+00  0.0000E+00  0.0000E+00  0.0000E+00  0.0000E+00  0.0000E+00  0.0000E+00  0.0000E+00
    -11.075  0.0000E+00  0.0000E+00  0.0000E+00  0.0000E+00  0.0000E+00  0.0000E+00  0.0000E+00  0.0000E+00  0.0000E+00
    -10.702  0.0000E+00  0.0000E+00  0.0000E+00  0.0000E+00  0.0000E+00  0.0000E+00  0.0000E+00  0.0000E+00  0.0000E+00
    -10.328  0.0000E+00  0.0000E+00  0.0000E+00  0.0000E+00  0.0000E+00  0.0000E+00  0.0000E+00  0.0000E+00  0.0000E+00
     -9.954  0.0000E+00  0.0000E+00  0.0000E+00  0.0000E+00  0.0000E+00  0.0000E+00  0.0000E+00  0.0000E+00  0.0000E+00
     -9.581  0.0000E+00  0.0000E+00  0.0000E+00  0.0000E+00  0.0000E+00  0.0000E+00  0.0000E+00  0.0000E+00  0.0000E+00
     -9.207  0.0000E+00  0.0000E+00  0.0000E+00  0.0000E+00  0.0000E+00  0.0000E+00  0.0000E+00  0.0000E+00  0.0000E+00
     -8.834  0.0000E+00  0.0000E+00  0.0000E+00  0.0000E+00  0.0000E+00  0.0000E+00  0.0000E+00  0.0000E+00  0.0000E+00
     -8.460  0.0000E+00  0.0000E+00  0.0000E+00  0.0000E+00  0.0000E+00  0.0000E+00  0.0000E+00  0.0000E+00  0.0000E+00
     -8.087  0.0000E+00  0.0000E+00  0.0000E+00  0.0000E+00  0.0000E+00  0.0000E+00  0.0000E+00  0.0000E+00  0.0000E+00
     -7.713  0.0000E+00  0.0000E+00  0.0000E+00  0.0000E+00  0.0000E+00  0.0000E+00  0.0000E+00  0.0000E+00  0.0000E+00
     -7.340  0.0000E+00  0.0000E+00  0.0000E+00  0.0000E+00  0.0000E+00  0.0000E+00  0.0000E+00  0.0000E+00  0.0000E+00
     -6.966  0.0000E+00  0.0000E+00  0.0000E+00  0.0000E+00  0.0000E+00  0.0000E+00  0.0000E+00  0.0000E+00  0.0000E+00
     -6.593  0.0000E+00  0.0000E+00  0.0000E+00  0.0000E+00  0.0000E+00  0.0000E+00  0.0000E+00  0.0000E+00  0.0000E+00
     -6.219  0.0000E+00  0.0000E+00  0.0000E+00  0.0000E+00  0.0000E+00  0.0000E+00  0.0000E+00  0.0000E+00  0.0000E+00
     -5.846  0.0000E+00  0.0000E+00  0.0000E+00  0.0000E+00  0.0000E+00  0.0000E+00  0.0000E+00  0.0000E+00  0.0000E+00
     -5.472  0.0000E+00  0.0000E+00  0.0000E+00  0.0000E+00  0.0000E+00  0.0000E+00  0.0000E+00  0.0000E+00  0.0000E+00
     -5.098  0.0000E+00  0.0000E+00  0.0000E+00  0.0000E+00  0.0000E+00  0.0000E+00  0.0000E+00  0.0000E+00  0.0000E+00
     -4.725  0.0000E+00  0.0000E+00  0.0000E+00  0.0000E+00  0.0000E+00  0.0000E+00  0.0000E+00  0.0000E+00  0.0000E+00
     -4.351  0.0000E+00  0.0000E+00  0.0000E+00  0.0000E+00  0.0000E+00  0.0000E+00  0.0000E+00  0.0000E+00  0.0000E+00
     -3.978  0.0000E+00  0.0000E+00  0.0000E+00  0.0000E+00  0.0000E+00  0.0000E+00  0.0000E+00  0.0000E+00  0.0000E+00
     -3.604  0.0000E+00  0.0000E+00  0.0000E+00  0.0000E+00  0.0000E+00  0.0000E+00  0.0000E+00  0.0000E+00  0.0000E+00
     -3.231  0.0000E+00  0.0000E+00  0.0000E+00  0.0000E+00  0.0000E+00  0.0000E+00  0.0000E+00  0.0000E+00  0.0000E+00
     -2.857  0.0000E+00  0.0000E+00  0.0000E+00  0.0000E+00  0.0000E+00  0.0000E+00  0.0000E+00  0.0000E+00  0.0000E+00
     -2.484  0.0000E+00  0.0000E+00  0.0000E+00  0.0000E+00  0.0000E+00  0.0000E+00  0.0000E+00  0.0000E+00  0.0000E+00
     -2.110  0.0000E+00  0.0000E+00  0.0000E+00  0.0000E+00  0.0000E+00  0.0000E+00  0.0000E+00  0.0000E+00  0.0000E+00
     -1.737  0.0000E+00  0.0000E+00  0.0000E+00  0.0000E+00  0.0000E+00  0.0000E+00  0.0000E+00  0.0000E+00  0.0000E+00
     -1.363  0.0000E+00  0.0000E+00  0.0000E+00  0.0000E+00  0.0000E+00  0.0000E+00  0.0000E+00  0.0000E+00  0.0000E+00
     -0.990  0.0000E+00  0.0000E+00  0.0000E+00  0.0000E+00  0.0000E+00  0.0000E+00  0.0000E+00  0.0000E+00  0.0000E+00
     -0.616  0.0000E+00  0.0000E+00  0.0000E+00  0.0000E+00  0.0000E+00  0.0000E+00  0.0000E+00  0.0000E+00  0.0000E+00
     -0.243  0.0000E+00  0.0000E+00  0.0000E+00  0.0000E+00  0.0000E+00  0.0000E+00  0.0000E+00  0.0000E+00  0.0000E+00
      0.131  0.0000E+00  0.0000E+00  0.0000E+00  0.0000E+00  0.0000E+00  0.0000E+00  0.0000E+00  0.0000E+00  0.0000E+00
      0.505  0.0000E+00  0.0000E+00  0.0000E+00  0.0000E+00  0.0000E+00  0.0000E+00  0.0000E+00  0.0000E+00  0.0000E+00
      0.878  0.7384E-05  0.7430E-08  0.7430E-08  0.7430E-08  0.4630E-09  0.4630E-09  0.7385E-23  0.4630E-09  0.7385E-23
      1.252  0.1324E-01  0.3848E-04  0.3848E-04  0.3848E-04  0.4125E-05  0.4125E-05  0.3269E-05  0.4125E-05  0.3269E-05
      1.625  0.1225E-01  0.7897E-04  0.7897E-04  0.7897E-04  0.2914E-04  0.2914E-04  0.5769E-05  0.2914E-04  0.5769E-05
      1.999  0.3558E-01  0.3721E-03  0.3721E-03  0.3721E-03  0.1754E-03  0.1754E-03  0.9893E-04  0.1754E-03  0.9893E-04
      2.372  0.2962E-01  0.4566E-03  0.4566E-03  0.4566E-03  0.3871E-03  0.3871E-03  0.2269E-03  0.3871E-03  0.2269E-03
      2.746  0.4085E-01  0.7723E-03  0.7723E-03  0.7723E-03  0.1107E-02  0.1107E-02  0.4849E-03  0.1107E-02  0.4849E-03
      3.119  0.4794E-01  0.1120E-02  0.1120E-02  0.1120E-02  0.2727E-02  0.2727E-02  0.9818E-03  0.2727E-02  0.9818E-03
      3.493  0.6208E-01  0.1662E-02  0.1662E-02  0.1662E-02  0.7442E-02  0.7442E-02  0.2409E-02  0.7442E-02  0.2409E-02
      3.866  0.8259E-01  0.2020E-02  0.2020E-02  0.2020E-02  0.3464E-01  0.3464E-01  0.4726E-02  0.3464E-01  0.4726E-02
      4.240  0.1286E+00  0.3800E-02  0.3800E-02  0.3800E-02  0.7327E-01  0.7327E-01  0.5835E-01  0.7327E-01  0.5835E-01
      4.613  0.1117E+00  0.4371E-02  0.4371E-02  0.4371E-02  0.1215E+00  0.1215E+00  0.1429E+00  0.1215E+00  0.1429E+00
      4.987  0.8246E-01  0.4709E-02  0.4709E-02  0.4709E-02  0.2192E+00  0.2192E+00  0.1425E+00  0.2192E+00  0.1425E+00
      5.361  0.3869E-01  0.5115E-02  0.5115E-02  0.5115E-02  0.1962E+00  0.1962E+00  0.1336E+00  0.1962E+00  0.1336E+00
      5.734  0.7166E-02  0.5344E-02  0.5344E-02  0.5344E-02  0.1566E+00  0.1566E+00  0.1214E+00  0.1566E+00  0.1214E+00
      6.108  0.9848E-02  0.8179E-02  0.8179E-02  0.8179E-02  0.2357E+00  0.2357E+00  0.2205E+00  0.2357E+00  0.2205E+00
      6.481  0.1633E-01  0.7417E-02  0.7417E-02  0.7417E-02  0.2574E+00  0.2574E+00  0.2022E+00  0.2574E+00  0.2022E+00
      6.855  0.2228E-01  0.8328E-02  0.8328E-02  0.8328E-02  0.2712E+00  0.2712E+00  0.2556E+00  0.2712E+00  0.2556E+00
      7.228  0.2815E-01  0.1264E-01  0.1264E-01  0.1264E-01  0.4701E+00  0.4701E+00  0.3051E+00  0.4701E+00  0.3051E+00
      7.602  0.1474E-01  0.7871E-02  0.7871E-02  0.7871E-02  0.2417E+00  0.2417E+00  0.2235E+00  0.2417E+00  0.2235E+00
      7.975  0.1490E-01  0.7257E-02  0.7257E-02  0.7257E-02  0.1688E+00  0.1688E+00  0.2464E+00  0.1688E+00  0.2464E+00
      8.349  0.8163E-02  0.4468E-02  0.4468E-02  0.4468E-02  0.1567E+00  0.1567E+00  0.4681E+00  0.1567E+00  0.4681E+00
      8.722  0.1313E-01  0.5782E-02  0.5782E-02  0.5782E-02  0.1496E+00  0.1496E+00  0.4323E+00  0.1496E+00  0.4323E+00
      9.096  0.4822E-02  0.3007E-02  0.3007E-02  0.3007E-02  0.1320E+00  0.1320E+00  0.2955E+00  0.1320E+00  0.2955E+00
      9.469  0.8639E-02  0.2882E-02  0.2882E-02  0.2882E-02  0.2050E+00  0.2050E+00  0.3096E+00  0.2050E+00  0.3096E+00
      9.843  0.7161E-02  0.2060E-02  0.2060E-02  0.2060E-02  0.3787E+00  0.3787E+00  0.3511E+00  0.3787E+00  0.3511E+00
     10.217  0.1659E-01  0.2999E-02  0.2999E-02  0.2999E-02  0.4164E+00  0.4164E+00  0.1931E+00  0.4164E+00  0.1931E+00
     10.590  0.4288E-02  0.6921E-03  0.6921E-03  0.6921E-03  0.6397E-01  0.6397E-01  0.1694E-01  0.6397E-01  0.1694E-01