    1    1  100    1
  0.1693477E+02  0.2882470E-09  0.2882470E-09  0.2882470E-09  0.5000000E-15
  1.000000000000000E-004
  CAR 
 Pt-fcc                                  
     16    110     24
 
  0.5000000E-01  0.5000000E-01  0.5000000E-01  0.2000000E-02
      1        -42.295931   1.000000
      2        -42.289305   1.000000
      3        -42.289305   1.000000
      4          0.980342   1.000000
      5          6.723604   1.000000
      6          6.794801   1.000000
      7          6.794801   1.000000
      8          8.532934   1.000000
      9          8.532934   1.000000
     10         24.875338   0.000000
     11         28.523834   0.000000
     12         29.197898   0.000000
     13         29.197898   0.000000
     14         34.572470   0.000000
     15         38.184936   0.000000
     16         38.874357   0.000000
     17         38.874357   0.000000
     18         41.510655   0.000000
     19         41.510655   0.000000
     20         42.370575   0.000000
     21         48.413608   0.000000
     22         48.413608   0.000000
     23         50.987424   0.000000
     24         53.995128   0.000000
 
  0.1500000E+00  0.5000000E-01  0.5000000E-01  0.6000000E-02
      1        -42.331373   1.000000
      2        -42.300087   1.000000
      3        -42.292463   1.000000
      4          1.449583   1.000000
      5          6.535134   1.000000
      6          6.948628   1.000000
      7          6.981252   1.000000
      8          8.353023   1.000000
      9          8.583942   1.000000
     10         25.460476   0.000000
     11         26.810873   0.000000
     12         29.149273   0.000000
     13         30.189145   0.000000
     14         34.412882   0.000000
     15         36.695492   0.000000
     16         37.615165   0.000000
     17         38.020385   0.000000
     18         40.111637   0.000000
     19         42.890309   0.000000
     20         44.946832   0.000000
     21         47.500342   0.000000
     22         49.578998   0.000000
     23         50.992607   0.000000
     24         56.107950   0.000000
 
  0.2500000E+00  0.5000000E-01  0.5000000E-01  0.6000000E-02
      1        -42.410254   1.000000
      2        -42.314426   1.000000
      3        -42.303424   1.000000
      4          2.470989   1.000000
      5          6.352846   1.000000
      6          7.111605   1.000000
      7          7.143905   1.000000
      8          8.347696   1.000000
      9          8.810558   1.000000
     10         23.673656   0.000000
     11         26.202516   0.000000
     12         29.823779   0.000000
     13         31.727940   0.000000
     14         31.930108   0.000000
     15         34.547327   0.000000
     16         34.990235   0.000000
     17         40.647316   0.000000
     18         41.224212   0.000000
     19         43.676071   0.000000
     20         45.767589   0.000000
     21         48.385114   0.000000
     22         50.364928   0.000000
     23         51.002964   0.000000
     24         56.980663   0.000000
 
  0.3500000E+00  0.5000000E-01  0.5000000E-01  0.6000000E-02
      1        -42.501850   1.000000
      2        -42.328694   1.000000
      3        -42.317982   1.000000
      4          3.441388   1.000000
      5          6.832766   1.000000
      6          6.995791   1.000000
      7          7.014824   1.000000
      8          8.896967   1.000000
      9          9.432802   1.000000
     10         20.033029   0.000000
     11         25.512767   0.000000
     12         29.013298   0.000000
     13         31.132126   0.000000
     14         32.794278   0.000000
     15         34.286513   0.000000
     16         35.073721   0.000000
     17         41.205457   0.000000
     18         43.089803   0.000000
     19         45.349682   0.000000
     20         47.170845   0.000000
     21         49.400483   0.000000
     22         50.999315   0.000000
     23         51.139513   0.000000
     24         55.825339   0.000000
 
  0.4500000E+00  0.5000000E-01  0.5000000E-01  0.6000000E-02
      1        -42.569468   1.000000
      2        -42.337861   1.000000
      3        -42.329890   1.000000
      4          3.738964   1.000000
      5          6.743145   1.000000
      6          6.825569   1.000000
      7          8.430303   1.000000
      8          9.591823   1.000000
      9         10.208870   0.000000
     10         16.460406   0.000000
     11         24.643096   0.000000
     12         27.836559   0.000000
     13         28.844892   0.000000
     14         35.201107   0.000000
     15         35.931319   0.000000
     16         36.735368   0.000000
     17         42.066428   0.000000
     18         43.172681   0.000000
     19         44.742060   0.000000
     20         49.201232   0.000000
     21         50.999271   0.000000
     22         51.881517   0.000000
     23         52.129473   0.000000
     24         53.005356   0.000000
 
 -0.4500000E+00  0.5000000E-01  0.5000000E-01  0.6000000E-02
      1        -42.587970   1.000000
      2        -42.337968   1.000000
      3        -42.335137   1.000000
      4          3.757851   1.000000
      5          6.668269   1.000000
      6          6.781290   1.000000
      7          9.056507   1.000000
      8          9.928859   0.340569
      9         10.721001   0.000000
     10         14.955720   0.000000
     11         24.405155   0.000000
     12         27.797307   0.000000
     13         27.873142   0.000000
     14         36.134775   0.000000
     15         36.299730   0.000000
     16         37.702944   0.000000
     17         42.411587   0.000000
     18         43.334863   0.000000
     19         43.735414   0.000000
     20         50.316983   0.000000
     21         50.967557   0.000000
     22         51.004698   0.000000
     23         52.160273   0.000000
     24         53.217896   0.000000
 
 -0.3500000E+00  0.5000000E-01  0.5000000E-01  0.6000000E-02
      1        -42.551329   1.000000
      2        -42.332074   1.000000
      3        -42.329922   1.000000
      4          3.696002   1.000000
      5          6.778135   1.000000
      6          6.904924   1.000000
      7          7.833139   1.000000
      8          9.674135   1.000000
      9          9.690169   1.000000
     10         17.567283   0.000000
     11         24.884308   0.000000
     12         28.371524   0.000000
     13         29.159910   0.000000
     14         35.050879   0.000000
     15         35.167768   0.000000
     16         35.940551   0.000000
     17         41.225262   0.000000
     18         44.090722   0.000000
     19         44.839799   0.000000
     20         49.016757   0.000000
     21         50.494642   0.000000
     22         51.001646   0.000000
     23         51.974469   0.000000
     24         53.538128   0.000000
 
 -0.2500000E+00  0.5000000E-01  0.5000000E-01  0.6000000E-02
      1        -42.472602   1.000000
      2        -42.321419   1.000000
      3        -42.316015   1.000000
      4          3.182185   1.000000
      5          6.542792   1.000000
      6          7.018462   1.000000
      7          7.098866   1.000000
      8          8.774112   1.000000
      9          9.108261   1.000000
     10         21.285955   0.000000
     11         25.877319   0.000000
     12         29.632094   0.000000
     13         31.203991   0.000000
     14         32.736384   0.000000
     15         33.951505   0.000000
     16         34.422740   0.000000
     17         40.672597   0.000000
     18         44.064529   0.000000
     19         44.097010   0.000000
     20         46.673612   0.000000
     21         48.238351   0.000000
     22         50.999434   0.000000
     23         51.314821   0.000000
     24         56.519853   0.000000
 
 -0.1500000E+00  0.5000000E-01  0.5000000E-01  0.6000000E-02
      1        -42.380012   1.000000
      2        -42.307097   1.000000
      3        -42.301468   1.000000
      4          2.093451   1.000000
      5          6.365279   1.000000
      6          7.105197   1.000000
      7          7.121906   1.000000
      8          8.299317   1.000000
      9          8.679612   1.000000
     10         24.777785   0.000000
     11         26.142828   0.000000
     12         29.738720   0.000000
     13         30.830602   0.000000
     14         32.838856   0.000000
     15         34.901691   0.000000
     16         35.931246   0.000000
     17         39.855101   0.000000
     18         40.585845   0.000000
     19         43.907418   0.000000
     20         45.393289   0.000000
     21         47.581274   0.000000
     22         50.333484   0.000000
     23         51.006356   0.000000
     24         56.947695   0.000000
 
 -0.5000000E-01  0.5000000E-01  0.5000000E-01  0.6000000E-02
      1        -42.311992   1.000000
      2        -42.295108   1.000000
      3        -42.293078   1.000000
      4          1.218953   1.000000
      5          6.595171   1.000000
      6          6.898989   1.000000
      7          6.905122   1.000000
      8          8.382966   1.000000
      9          8.597474   1.000000
     10         25.200022   0.000000
     11         27.758259   0.000000
     12         29.143055   0.000000
     13         29.419379   0.000000
     14         35.467119   0.000000
     15         37.082470   0.000000
     16         37.165597   0.000000
     17         38.843278   0.000000
     18         39.816955   0.000000
     19         43.380794   0.000000
     20         43.792639   0.000000
     21         47.410120   0.000000
     22         49.310357   0.000000
     23         50.988751   0.000000
     24         55.234166   0.000000
 
  0.1500000E+00  0.1500000E+00  0.5000000E-01  0.6000000E-02
      1        -42.338597   1.000000
      2        -42.305538   1.000000
      3        -42.303452   1.000000
      4          1.682254   1.000000
      5          6.342430   1.000000
      6          7.118733   1.000000
      7          7.124002   1.000000
      8          8.119359   1.000000
      9          8.721925   1.000000
     10         25.801594   0.000000
     11         27.018036   0.000000
     12         28.854796   0.000000
     13         29.287618   0.000000
     14         34.808871   0.000000
     15         35.818610   0.000000
     16         36.910791   0.000000
     17         38.302716   0.000000
     18         39.616314   0.000000
     19         45.012016   0.000000
     20         45.374362   0.000000
     21         46.101982   0.000000
     22         49.945657   0.000000
     23         50.997750   0.000000
     24         57.023707   0.000000
 
  0.2500000E+00  0.1500000E+00  0.5000000E-01  0.1200000E-01
      1        -42.394647   1.000000
      2        -42.325629   1.000000
      3        -42.311558   1.000000
      4          2.527722   1.000000
      5          6.048038   1.000000
      6          7.223101   1.000000
      7          7.433002   1.000000
      8          8.031944   1.000000
      9          8.962066   1.000000
     10         25.044232   0.000000
     11         26.446038   0.000000
     12         28.358571   0.000000
     13         29.598287   0.000000
     14         32.800228   0.000000
     15         35.063490   0.000000
     16         35.898925   0.000000
     17         39.222959   0.000000
     18         41.479281   0.000000
     19         44.527648   0.000000
     20         45.187574   0.000000
     21         48.108408   0.000000
     22         50.998715   0.000000
     23         51.269332   0.000000
     24         57.012666   0.000000
 
  0.3500000E+00  0.1500000E+00  0.5000000E-01  0.1200000E-01
      1        -42.474335   1.000000
      2        -42.343901   1.000000
      3        -42.325149   1.000000
      4          3.604600   1.000000
      5          6.074588   1.000000
      6          6.875556   1.000000
      7          7.445228   1.000000
      8          8.745351   1.000000
      9          9.575843   1.000000
     10         21.504928   0.000000
     11         26.056892   0.000000
     12         27.491253   0.000000
     13         29.721538   0.000000
     14         33.305583   0.000000
     15         34.512900   0.000000
     16         36.376860   0.000000
     17         38.673290   0.000000
     18         44.274680   0.000000
     19         45.131952   0.000000
     20         46.362854   0.000000
     21         48.619009   0.000000
     22         51.002528   0.000000
     23         52.977893   0.000000
     24         55.046347   0.000000
 
  0.4500000E+00  0.1500000E+00  0.5000000E-01  0.1200000E-01
      1        -42.543311   1.000000
      2        -42.357718   1.000000
      3        -42.338928   1.000000
      4          4.100936   1.000000
      5          6.526781   1.000000
      6          6.986793   1.000000
      7          7.270432   1.000000
      8          9.640356   1.000000
      9         10.654697   0.000000
     10         17.697863   0.000000
     11         25.240022   0.000000
     12         26.476128   0.000000
     13         28.555621   0.000000
     14         34.636679   0.000000
     15         36.351791   0.000000
     16         37.464600   0.000000
     17         38.893600   0.000000
     18         45.064922   0.000000
     19         45.972220   0.000000
     20         46.824424   0.000000
     21         50.917282   0.000000
     22         51.004961   0.000000
     23         52.087336   0.000000
     24         53.697619   0.000000
 
 -0.4500000E+00  0.1500000E+00  0.5000000E-01  0.1200000E-01
      1        -42.575030   1.000000
      2        -42.366276   1.000000
      3        -42.343565   1.000000
      4          4.155286   1.000000
      5          6.383622   1.000000
      6          7.111055   1.000000
      7          7.925229   1.000000
      8          9.869506   0.897570
      9         12.256722   0.000000
     10         14.873600   0.000000
     11         24.768663   0.000000
     12         26.169703   0.000000
     13         27.524776   0.000000
     14         35.736635   0.000000
     15         36.548525   0.000000
     16         38.941547   0.000000
     17         41.096269   0.000000
     18         43.391942   0.000000
     19         44.837155   0.000000
     20         48.301223   0.000000
     21         49.595223   0.000000
     22         51.004982   0.000000
     23         52.868719   0.000000
     24         54.556648   0.000000
 
 -0.3500000E+00  0.1500000E+00  0.5000000E-01  0.1200000E-01
      1        -42.557452   1.000000
      2        -42.367102   1.000000
      3        -42.336403   1.000000
      4          4.157628   1.000000
      5          6.478267   1.000000
      6          7.135973   1.000000
      7          7.527434   1.000000
      8          9.484193   1.000000
      9         11.330017   0.000000
     10         16.623280   0.000000
     11         24.805922   0.000000
     12         26.161454   0.000000
     13         28.638298   0.000000
     14         34.491950   0.000000
     15         36.405520   0.000000
     16         38.503324   0.000000
     17         40.491936   0.000000
     18         43.882236   0.000000
     19         45.465218   0.000000
     20         46.831847   0.000000
     21         51.006240   0.000000
     22         51.069087   0.000000
     23         53.042131   0.000000
     24         53.806445   0.000000
 
 -0.2500000E+00  0.1500000E+00  0.5000000E-01  0.1200000E-01
      1        -42.498607   1.000000
      2        -42.357460   1.000000
      3        -42.322004   1.000000
      4          3.885897   1.000000
      5          6.360199   1.000000
      6          6.788277   1.000000
      7          7.347822   1.000000
      8          8.676471   1.000000
      9         10.126700   0.000000
     10         20.242373   0.000000
     11         25.311808   0.000000
     12         27.105478   0.000000
     13         30.603700   0.000000
     14         32.474985   0.000000
     15         35.425373   0.000000
     16         37.466891   0.000000
     17         38.724580   0.000000
     18         43.340566   0.000000
     19         44.785435   0.000000
     20         48.067464   0.000000
     21         49.754852   0.000000
     22         51.004216   0.000000
     23         52.896961   0.000000
     24         54.158280   0.000000
 
 -0.1500000E+00  0.1500000E+00  0.5000000E-01  0.1200000E-01
      1        -42.421777   1.000000
      2        -42.336979   1.000000
      3        -42.307233   1.000000
      4          2.897655   1.000000
      5          6.083787   1.000000
      6          7.096433   1.000000
      7          7.462135   1.000000
      8          8.036278   1.000000
      9          9.233619   1.000000
     10         23.792607   0.000000
     11         25.946537   0.000000
     12         28.685426   0.000000
     13         29.670085   0.000000
     14         33.228021   0.000000
     15         34.833176   0.000000
     16         36.569461   0.000000
     17         38.328881   0.000000
     18         42.200958   0.000000
     19         43.475056   0.000000
     20         45.819903   0.000000
     21         49.803015   0.000000
     22         51.005678   0.000000
     23         51.778075   0.000000
     24         55.941594   0.000000
 
 -0.5000000E-01  0.1500000E+00  0.5000000E-01  0.1200000E-01
      1        -42.359491   1.000000
      2        -42.310796   1.000000
      3        -42.298638   1.000000
      4          1.897083   1.000000
      5          6.338747   1.000000
      6          7.119727   1.000000
      7          7.135286   1.000000
      8          8.165294   1.000000
      9          8.725235   1.000000
     10         25.739693   0.000000
     11         26.096159   0.000000
     12         28.892577   0.000000
     13         30.512948   0.000000
     14         33.163677   0.000000
     15         35.887515   0.000000
     16         37.093784   0.000000
     17         39.068206   0.000000
     18         39.311743   0.000000
     19         43.813859   0.000000
     20         45.961515   0.000000
     21         47.003359   0.000000
     22         50.469349   0.000000
     23         51.000753   0.000000
     24         56.759957   0.000000
 
  0.2500000E+00  0.2500000E+00  0.5000000E-01  0.6000000E-02
      1        -42.417319   1.000000
      2        -42.337095   1.000000
      3        -42.336413   1.000000
      4          3.097396   1.000000
      5          5.648800   1.000000
      6          7.361873   1.000000
      7          7.856309   1.000000
      8          8.052205   1.000000
      9          9.109389   1.000000
     10         25.623457   0.000000
     11         26.807600   0.000000
     12         27.305848   0.000000
     13         28.049957   0.000000
     14         30.469815   0.000000
     15         35.600592   0.000000
     16         35.735223   0.000000
     17         40.712933   0.000000
     18         42.534387   0.000000
     19         43.467677   0.000000
     20         47.631628   0.000000
     21         48.220259   0.000000
     22         50.135307   0.000000
     23         50.999228   0.000000
     24         59.285613   0.000000
 
  0.3500000E+00  0.2500000E+00  0.5000000E-01  0.1200000E-01
      1        -42.470094   1.000000
      2        -42.362077   1.000000
      3        -42.348502   1.000000
      4          3.958821   1.000000
      5          5.387586   1.000000
      6          7.029655   1.000000
      7          8.244663   1.000000
      8          8.761858   1.000000
      9          9.608199   1.000000
     10         23.105549   0.000000
     11         25.009755   0.000000
     12         26.387676   0.000000
     13         28.889011   0.000000
     14         30.389369   0.000000
     15         35.830121   0.000000
     16         36.998888   0.000000
     17         40.865135   0.000000
     18         41.906284   0.000000
     19         45.478708   0.000000
     20         48.066615   0.000000
     21         49.734076   0.000000
     22         50.869472   0.000000
     23         51.004654   0.000000
     24         57.552978   0.000000
 
  0.4500000E+00  0.2500000E+00  0.5000000E-01  0.1200000E-01
      1        -42.521325   1.000000
      2        -42.386785   1.000000
      3        -42.360771   1.000000
      4          4.555391   1.000000
      5          5.619564   1.000000
      6          6.719776   1.000000
      7          8.097156   1.000000
      8          9.748506   0.999999
      9         10.920964   0.000000
     10         19.152959   0.000000
     11         24.339644   0.000000
     12         24.793452   0.000000
     13         28.489757   0.000000
     14         33.280839   0.000000
     15         36.115959   0.000000
     16         37.832683   0.000000
     17         40.535901   0.000000
     18         43.321870   0.000000
     19         45.930262   0.000000
     20         47.921709   0.000000
     21         51.007474   0.000000
     22         51.300478   0.000000
     23         51.803788   0.000000
     24         55.521981   0.000000
 
 -0.4500000E+00  0.2500000E+00  0.5000000E-01  0.1200000E-01
      1        -42.547309   1.000000
      2        -42.412170   1.000000
      3        -42.362821   1.000000
      4          4.730241   1.000000
      5          5.927706   1.000000
      6          6.914830   1.000000
      7          7.873286   1.000000
      8          9.906645   0.586042
      9         13.287432   0.000000
     10         15.674708   0.000000
     11         23.175548   0.000000
     12         24.822344   0.000000
     13         27.834174   0.000000
     14         35.392047   0.000000
     15         37.095857   0.000000
     16         37.713983   0.000000
     17         41.069230   0.000000
     18         44.386392   0.000000
     19         45.853252   0.000000
     20         47.117839   0.000000
     21         50.447356   0.000000
     22         51.008665   0.000000
     23         52.677635   0.000000
     24         55.236038   0.000000
 
 -0.3500000E+00  0.2500000E+00  0.5000000E-01  0.1200000E-01
      1        -42.540003   1.000000
      2        -42.426521   1.000000
      3        -42.353192   1.000000
      4          4.907040   1.000000
      5          6.014169   1.000000
      6          6.921371   1.000000
      7          7.758958   1.000000
      8          9.433459   1.000000
      9         13.092835   0.000000
     10         16.329244   0.000000
     11         22.125215   0.000000
     12         25.916799   0.000000
     13         28.000131   0.000000
     14         34.525739   0.000000
     15         36.571266   0.000000
     16         39.163810   0.000000
     17         42.055430   0.000000
     18         43.873399   0.000000
     19         45.289472   0.000000
     20         47.335732   0.000000
     21         49.132056   0.000000
     22         51.004747   0.000000
     23         52.498935   0.000000
     24         54.571304   0.000000
 
 -0.2500000E+00  0.2500000E+00  0.5000000E-01  0.1200000E-01
      1        -42.510719   1.000000
      2        -42.414163   1.000000
      3        -42.336410   1.000000
      4          4.908894   1.000000
      5          6.091639   1.000000
      6          6.356718   1.000000
      7          7.844557   1.000000
      8          8.635903   1.000000
      9         11.511751   0.000000
     10         19.511438   0.000000
     11         22.161354   0.000000
     12         26.735845   0.000000
     13         29.871102   0.000000
     14         32.083873   0.000000
     15         36.563681   0.000000
     16         39.135722   0.000000
     17         40.658854   0.000000
     18         42.719684   0.000000
     19         44.200436   0.000000
     20         48.393982   0.000000
     21         51.005169   0.000000
     22         51.753079   0.000000
     23         52.599818   0.000000
     24         53.074062   0.000000
 
 -0.1500000E+00  0.2500000E+00  0.5000000E-01  0.1200000E-01
      1        -42.477380   1.000000
      2        -42.372481   1.000000
      3        -42.319974   1.000000
      4          4.010222   1.000000
      5          5.971248   1.000000
      6          6.766943   1.000000
      7          7.714731   1.000000
      8          8.182107   1.000000
      9         10.229629   0.000000
     10         21.549392   0.000000
     11         24.304081   0.000000
     12         27.483285   0.000000
     13         30.269580   0.000000
     14         32.292512   0.000000
     15         35.952523   0.000000
     16         37.282041   0.000000
     17         38.981373   0.000000
     18         42.437179   0.000000
     19         43.617299   0.000000
     20         48.379447   0.000000
     21         51.006753   0.000000
     22         51.189526   0.000000
     23         52.815215   0.000000
     24         54.028855   0.000000
 
 -0.5000000E-01  0.2500000E+00  0.5000000E-01  0.1200000E-01
      1        -42.443176   1.000000
      2        -42.327513   1.000000
      3        -42.310934   1.000000
      4          2.995739   1.000000
      5          6.247243   1.000000
      6          7.070694   1.000000
      7          7.249978   1.000000
      8          8.398031   1.000000
      9          9.156233   1.000000
     10         22.598196   0.000000
     11         26.203261   0.000000
     12         28.904536   0.000000
     13         30.714071   0.000000
     14         33.109828   0.000000
     15         33.824421   0.000000
     16         35.594492   0.000000
     17         39.407267   0.000000
     18         42.925054   0.000000
     19         44.637949   0.000000
     20         45.713564   0.000000
     21         48.459849   0.000000
     22         51.000767   0.000000
     23         51.816083   0.000000
     24         56.367733   0.000000
 
  0.3500000E+00  0.3500000E+00  0.5000000E-01  0.6000000E-02
      1        -42.500324   1.000000
      2        -42.373610   1.000000
      3        -42.371367   1.000000
      4          4.174490   1.000000
      5          4.971228   1.000000
      6          7.828918   1.000000
      7          8.853618   1.000000
      8          9.222292   1.000000
      9          9.580926   1.000000
     10         23.025836   0.000000
     11         23.861459   0.000000
     12         24.408395   0.000000
     13         28.046317   0.000000
     14         29.776516   0.000000
     15         37.765098   0.000000
     16         38.107284   0.000000
     17         40.132186   0.000000
     18         42.730915   0.000000
     19         45.450744   0.000000
     20         50.003675   0.000000
     21         50.158891   0.000000
     22         51.006550   0.000000
     23         51.306473   0.000000
     24         56.287403   0.000000
 
  0.4500000E+00  0.3500000E+00  0.5000000E-01  0.1200000E-01
      1        -42.533377   1.000000
      2        -42.396717   1.000000
      3        -42.383525   1.000000
      4          4.387044   1.000000
      5          4.844513   1.000000
      6          7.946499   1.000000
      7          9.186696   1.000000
      8          9.762665   0.999991
      9         10.895371   0.000000
     10         20.267216   0.000000
     11         22.320108   0.000000
     12         22.957185   0.000000
     13         29.077128   0.000000
     14         30.884497   0.000000
     15         37.365086   0.000000
     16         39.750956   0.000000
     17         41.164645   0.000000
     18         43.727813   0.000000
     19         44.881180   0.000000
     20         48.850819   0.000000
     21         51.005420   0.000000
     22         51.135529   0.000000
     23         53.080284   0.000000
     24         53.969814   0.000000
 
 -0.4500000E+00  0.3500000E+00  0.5000000E-01  0.1200000E-01
      1        -42.540910   1.000000
      2        -42.433580   1.000000
      3        -42.385004   1.000000
      4          4.612121   1.000000
      5          5.162595   1.000000
      6          7.587393   1.000000
      7          8.851168   1.000000
      8         10.017691   0.001731
      9         13.481111   0.000000
     10         17.033151   0.000000
     11         20.917347   0.000000
     12         22.923888   0.000000
     13         29.205251   0.000000
     14         33.399701   0.000000
     15         36.522462   0.000000
     16         39.240278   0.000000
     17         43.085369   0.000000
     18         44.303694   0.000000
     19         45.164835   0.000000
     20         48.436751   0.000000
     21         49.983787   0.000000
     22         51.005101   0.000000
     23         52.541930   0.000000
     24         53.792120   0.000000
 
 -0.3500000E+00  0.3500000E+00  0.5000000E-01  0.1200000E-01
      1        -42.513456   1.000000
      2        -42.477134   1.000000
      3        -42.373863   1.000000
      4          4.947498   1.000000
      5          5.688579   1.000000
      6          7.011848   1.000000
      7          8.475341   1.000000
      8          9.631665   1.000000
      9         14.506700   0.000000
     10         16.747081   0.000000
     11         19.291011   0.000000
     12         24.340706   0.000000
     13         28.729350   0.000000
     14         35.434113   0.000000
     15         36.510485   0.000000
     16         37.402076   0.000000
     17         42.979046   0.000000
     18         44.705941   0.000000
     19         47.002678   0.000000
     20         48.380303   0.000000
     21         48.699325   0.000000
     22         51.007198   0.000000
     23         51.507577   0.000000
     24         54.230484   0.000000
 
 -0.2500000E+00  0.3500000E+00  0.5000000E-01  0.1200000E-01
      1        -42.514816   1.000000
      2        -42.456849   1.000000
      3        -42.354897   1.000000
      4          5.227484   1.000000
      5          6.009330   1.000000
      6          6.462398   1.000000
      7          8.066530   1.000000