       N       E                     dE             d eps       ncg     rms          rms(c)
DAV:   1     0.188173087174E+02    0.18817E+02   -0.11615E+04  5856   0.577E+02
DAV:   2    -0.633739949628E+01   -0.25155E+02   -0.24971E+02  7032   0.925E+01
DAV:   3    -0.637823736746E+01   -0.40838E-01   -0.40836E-01  6624   0.420E+00
DAV:   4    -0.637827863495E+01   -0.41267E-04   -0.41269E-04  8664   0.934E-02
DAV:   5    -0.637827863660E+01   -0.16494E-08   -0.13922E-08  6624   0.402E-04    0.117E+01
DAV:   6    -0.602822303907E+01    0.35006E+00   -0.14818E+00  5832   0.519E+00    0.301E+00
DAV:   7    -0.601575055004E+01    0.12472E-01   -0.46010E-02  7968   0.737E-01    0.111E+00
DAV:   8    -0.601450528931E+01    0.12453E-02   -0.37820E-03  6072   0.462E-01    0.660E-02
DAV:   9    -0.601447402026E+01    0.31269E-04   -0.27755E-05  7392   0.345E-02    0.161E-02
DAV:  10    -0.601448139739E+01   -0.73771E-05   -0.67986E-06  7176   0.145E-02    0.547E-03
DAV:  11    -0.601448130258E+01    0.94812E-07   -0.75277E-09  3912   0.548E-04
   1 F= -.60144813E+01 E0= -.60129829E+01  d E =-.601448E+01
