 vasp.6.3.2 27Jun22 (build Aug 12 2022 00:53:59) complex                        
  
 executed on               tv2STD date 2024.12.03  02:20:25
 running   24 mpi-ranks, with    1 threads/rank
 distrk:  each k-point on   24 cores,    1 groups
 distr:  one band on NCORE=   1 cores,   24 groups


--------------------------------------------------------------------------------------------------------


 INCAR:
   SYSTEM = Pt-fcc
   NWRITE = 2    write-flag
   ISTART = 0    job   : 0-new, 1-cont, 2-samecut
   ICHARG = 2    charge: 0-wave, 1-file, 2-atom, >10-const
   INIWAV = 1    electr: 0-lowe 1-rand  2-diag
   ENCUT = 425.0     energy cutoff in eV
   PREC = accurate      normal | accurate
   ADDGRID = .FALSE.  (use fine grid)
   NELM = 100     number of ELM steps
   EDIFF = 1E-06    energy stopping-criterion for ELM
   LREAL = .FALSE.      real-space projection (.FALSE., .TRUE., On, Auto)
   ALGO = Normal     Normal, Fast, Very_Fast
   LWAVE = .TRUE.
   LCHARG = .TRUE.
   NSW = 100       max number of geometry steps
   IBRION = 2     ionic relax: 0-MD, 1-quasi-Newton, 2-CG, 3-Damped MD
   EDIFFG = -0.02  force (eV/A) stopping-criterion for geometry steps
   ISIF = 2     (1:force\=y stress\=trace only ions\=y shape\=n volume\=n)
   ISYM = 1     (1-use symmetry, 0-no symmetry)
   ISMEAR = 0     (-1-Fermi, 1-Methfessel/Paxton)
   SIGMA = 0.05   broadening in eV
   LORBIT = 11

 POTCAR:    PAW_PBE Pt_pv 12Dec2005               
 POTCAR:    PAW_PBE Pt_pv 12Dec2005               
   SHA256 =  e5abf7e8cd8db70d0153315afc5ad66b6e3eeee29cc2d5b91b16730957c1d208 Pt_pv/POTCAR          
   COPYR  = (c) Copyright 12Dec2005 Georg Kresse                                                    
   COPYR  = This file is part of the software VASP. Any use, copying, and all other rights are regul
   COPYR  = If you do not have a valid VASP license, you may not use, copy or distribute this file. 
   VRHFIN =Pt: 5ps1d9                                                                               
   LEXCH  = PE                                                                                      
   EATOM  =  2428.2504 eV,  178.4714 Ry                                                             
                                                                                                    
   TITEL  = PAW_PBE Pt_pv 12Dec2005                                                                 
   LULTRA =        F    use ultrasoft PP ?                                                          
   IUNSCR =        1    unscreen: 0-lin 1-nonlin 2-no                                               
   RPACOR =    2.000    partial core radius                                                         
   POMASS =  195.080; ZVAL   =   16.000    mass and valenz                                          
   RCORE  =    2.200    outmost cutoff radius                                                       
   RWIGS  =    2.200; RWIGS  =    1.164    wigner-seitz radius (au A)                               
   ENMAX  =  294.607; ENMIN  =  220.955 eV                                                          
   ICORE  =        3    local potential                                                             
   LCOR   =        T    correct aug charges                                                         
   LPAW   =        T    paw PP                                                                      
   EAUG   =  527.014                                                                                
   DEXC   =    0.000                                                                                
   RMAX   =    2.247    core radius for proj-oper                                                   
   RAUG   =    1.300    factor for augmentation sphere                                              
   RDEP   =    2.279    radius for radial grids                                                     
   RDEPT  =    1.878    core radius for aug-charge                                                  
                                                                                                    
   Atomic configuration                                                                             
   16 entries                                                                                       
     n  l   j            E        occ.                                                              
     1  0  0.50    -78401.1885   2.0000                                                             
     2  0  0.50    -13770.7750   2.0000                                                             
     2  1  1.50    -11931.0468   6.0000                                                             
     3  0  0.50     -3234.7234   2.0000                                                             
     3  1  1.50     -2699.2216   6.0000                                                             
     3  2  2.50     -2119.5714  10.0000                                                             
     4  0  0.50      -695.1528   2.0000                                                             
     4  1  1.50      -519.6034   6.0000                                                             
     4  2  2.50      -306.6786  10.0000                                                             
     4  3  3.50       -70.1041  14.0000                                                             
     5  0  0.50      -101.7747   2.0000                                                             
     5  1  1.50       -55.9873   6.0000                                                             
     6  1  1.50        -6.8029   0.0000                                                             
     5  2  2.50        -6.1423   9.0000                                                             
     6  0  0.50        -5.6573   1.0000                                                             
     5  3  2.50        -1.3606   0.0000                                                             
   Description                                                                                      
     l       E           TYP  RCUT    TYP  RCUT                                                     
     1    -55.9873477     23  2.000                                                                 
     1     27.2116520     23  2.000                                                                 
     2     -6.1423404     23  2.200                                                                 
     2     -4.6754623     23  2.200                                                                 
     0     -5.6573207     23  2.200                                                                 
     0     47.6203910     23  2.200                                                                 
     3      6.8029130     23  2.200                                                                 
  local pseudopotential read in
  partial core-charges read in
  partial kinetic energy density read in
  atomic valenz-charges read in
  non local Contribution for L=           1  read in
    real space projection operators read in
  non local Contribution for L=           1  read in
    real space projection operators read in
  non local Contribution for L=           2  read in
    real space projection operators read in
  non local Contribution for L=           2  read in
    real space projection operators read in
  non local Contribution for L=           0  read in
    real space projection operators read in
  non local Contribution for L=           0  read in
    real space projection operators read in
    PAW grid and wavefunctions read in
 
   number of l-projection  operators is LMAX  =           6
   number of lm-projection operators is LMMAX =          18
 
  PAW_PBE Pt_pv 12Dec2005               :
 energy of atom  1       EATOM=-2428.2504
 kinetic energy error for atom=    0.0554 (will be added to EATOM!!)
 
 
 POSCAR: Pt
  positions in cartesian coordinates
  No initial velocities read in
 exchange correlation table for  LEXCH =        8
   RHO(1)=    0.500       N(1)  =     2000
   RHO(2)=  100.500       N(2)  =     4000
 


--------------------------------------------------------------------------------------------------------


 ion  position               nearest neighbor table
   1  0.000  0.000  0.000-
 
  LATTYP: Found a face centered cubic cell.
 ALAT       =     4.0764281766
  
  Lattice vectors:
  
 A1 = (   0.0000000000,   2.0382140883,   2.0382140883)
 A2 = (   2.0382140883,   0.0000000000,   2.0382140883)
 A3 = (   2.0382140883,   2.0382140883,   0.0000000000)


Analysis of symmetry for initial positions (statically):
=====================================================================
 Subroutine PRICEL returns:
 Original cell was already a primitive cell.
 

 Routine SETGRP: Setting up the symmetry group for a 
 face centered cubic supercell.


 Subroutine GETGRP returns: Found 48 space group operations
 (whereof 48 operations were pure point group operations)
 out of a pool of 48 trial point group operations.


The static configuration has the point symmetry O_h .


Analysis of symmetry for dynamics (positions and initial velocities):
=====================================================================
 Subroutine PRICEL returns:
 Original cell was already a primitive cell.
 

 Routine SETGRP: Setting up the symmetry group for a 
 face centered cubic supercell.


 Subroutine GETGRP returns: Found 48 space group operations
 (whereof 48 operations were pure point group operations)
 out of a pool of 48 trial point group operations.


The dynamic configuration has the point symmetry O_h .


 Subroutine INISYM returns: Found 48 space group operations
 (whereof 48 operations are pure point group operations),
 and found     1 'primitive' translations


----------------------------------------------------------------------------------------

                                     Primitive cell                                     

  volume of cell :      16.9348

  direct lattice vectors                    reciprocal lattice vectors
     0.000000000  2.038214088  2.038214088    -0.245312798  0.245312798  0.245312798
     2.038214088  0.000000000  2.038214088     0.245312798 -0.245312798  0.245312798
     2.038214088  2.038214088  0.000000000     0.245312798  0.245312798 -0.245312798

  length of vectors
     2.882470007  2.882470007  2.882470007     0.424894229  0.424894229  0.424894229

  position of ions in fractional coordinates (direct lattice)
     0.000000000  0.000000000  0.000000000

  ion indices of the primitive-cell ions
   primitive index   ion index
                 1           1

----------------------------------------------------------------------------------------

 
 
 KPOINTS: Automatic mesh                          

Automatic generation of k-mesh.
 Grid dimensions read from file:
 generate k-points for:   10   10   10

 Generating k-lattice:

  Cartesian coordinates                     Fractional coordinates (reciprocal lattice)
    -0.024531280  0.024531280  0.024531280     0.100000000 -0.000000000 -0.000000000
     0.024531280 -0.024531280  0.024531280     0.000000000  0.100000000  0.000000000
     0.024531280  0.024531280 -0.024531280     0.000000000  0.000000000  0.100000000

  Length of vectors
     0.042489423  0.042489423  0.042489423

  Shift w.r.t. Gamma in fractional coordinates (k-lattice)
     0.500000000  0.500000000  0.500000000

 
 Subroutine IBZKPT returns following result:
 ===========================================
 
 Found    110 irreducible k-points:
 
 Following reciprocal coordinates:
            Coordinates               Weight
  0.050000  0.050000  0.050000      8.000000
  0.150000  0.050000  0.050000     24.000000
  0.250000  0.050000  0.050000     24.000000
  0.350000  0.050000  0.050000     24.000000
  0.450000  0.050000  0.050000     24.000000
 -0.450000  0.050000  0.050000     24.000000
 -0.350000  0.050000  0.050000     24.000000
 -0.250000  0.050000  0.050000     24.000000
 -0.150000  0.050000  0.050000     24.000000
 -0.050000  0.050000  0.050000     24.000000
  0.150000  0.150000  0.050000     24.000000
  0.250000  0.150000  0.050000     48.000000
  0.350000  0.150000  0.050000     48.000000
  0.450000  0.150000  0.050000     48.000000
 -0.450000  0.150000  0.050000     48.000000
 -0.350000  0.150000  0.050000     48.000000
 -0.250000  0.150000  0.050000     48.000000
 -0.150000  0.150000  0.050000     48.000000
 -0.050000  0.150000  0.050000     48.000000
  0.250000  0.250000  0.050000     24.000000
  0.350000  0.250000  0.050000     48.000000
  0.450000  0.250000  0.050000     48.000000
 -0.450000  0.250000  0.050000     48.000000
 -0.350000  0.250000  0.050000     48.000000
 -0.250000  0.250000  0.050000     48.000000
 -0.150000  0.250000  0.050000     48.000000
 -0.050000  0.250000  0.050000     48.000000
  0.350000  0.350000  0.050000     24.000000
  0.450000  0.350000  0.050000     48.000000
 -0.450000  0.350000  0.050000     48.000000
 -0.350000  0.350000  0.050000     48.000000
 -0.250000  0.350000  0.050000     48.000000
 -0.150000  0.350000  0.050000     48.000000
 -0.050000  0.350000  0.050000     48.000000
  0.450000  0.450000  0.050000     24.000000
 -0.450000  0.450000  0.050000     48.000000
 -0.350000  0.450000  0.050000     48.000000
 -0.250000  0.450000  0.050000     48.000000
 -0.150000  0.450000  0.050000     48.000000
 -0.050000  0.450000  0.050000     48.000000
 -0.450000 -0.450000  0.050000     24.000000
 -0.350000 -0.450000  0.050000     48.000000
 -0.250000 -0.450000  0.050000     48.000000
 -0.150000 -0.450000  0.050000     48.000000
 -0.350000 -0.350000  0.050000     24.000000
 -0.250000 -0.350000  0.050000     48.000000
 -0.150000 -0.350000  0.050000     48.000000
 -0.250000 -0.250000  0.050000     24.000000
 -0.150000 -0.250000  0.050000     48.000000
 -0.150000 -0.150000  0.050000     24.000000
  0.150000  0.150000  0.150000      8.000000
  0.250000  0.150000  0.150000     24.000000
  0.350000  0.150000  0.150000     24.000000
  0.450000  0.150000  0.150000     24.000000
 -0.450000  0.150000  0.150000     24.000000
 -0.350000  0.150000  0.150000     24.000000
 -0.250000  0.150000  0.150000     24.000000
 -0.150000  0.150000  0.150000     24.000000
  0.250000  0.250000  0.150000     24.000000
  0.350000  0.250000  0.150000     48.000000
  0.450000  0.250000  0.150000     48.000000
 -0.450000  0.250000  0.150000     48.000000
 -0.350000  0.250000  0.150000     48.000000
 -0.250000  0.250000  0.150000     48.000000
 -0.150000  0.250000  0.150000     48.000000
  0.350000  0.350000  0.150000     24.000000
  0.450000  0.350000  0.150000     48.000000
 -0.450000  0.350000  0.150000     48.000000
 -0.350000  0.350000  0.150000     48.000000
 -0.250000  0.350000  0.150000     48.000000
 -0.150000  0.350000  0.150000     48.000000
  0.450000  0.450000  0.150000     24.000000
 -0.450000  0.450000  0.150000     48.000000
 -0.350000  0.450000  0.150000     48.000000
 -0.250000  0.450000  0.150000     48.000000
 -0.150000  0.450000  0.150000     48.000000
 -0.450000 -0.450000  0.150000     24.000000
 -0.350000 -0.450000  0.150000     48.000000
 -0.250000 -0.450000  0.150000     48.000000
 -0.350000 -0.350000  0.150000     24.000000
 -0.250000 -0.350000  0.150000     48.000000
 -0.250000 -0.250000  0.150000     24.000000
  0.250000  0.250000  0.250000      8.000000
  0.350000  0.250000  0.250000     24.000000
  0.450000  0.250000  0.250000     24.000000
 -0.450000  0.250000  0.250000     24.000000
 -0.350000  0.250000  0.250000     24.000000
 -0.250000  0.250000  0.250000     24.000000
  0.350000  0.350000  0.250000     24.000000
  0.450000  0.350000  0.250000     48.000000
 -0.450000  0.350000  0.250000     48.000000
 -0.350000  0.350000  0.250000     48.000000
 -0.250000  0.350000  0.250000     48.000000
  0.450000  0.450000  0.250000     24.000000
 -0.450000  0.450000  0.250000     48.000000
 -0.350000  0.450000  0.250000     48.000000
 -0.250000  0.450000  0.250000     48.000000
 -0.450000 -0.450000  0.250000     24.000000
 -0.350000 -0.450000  0.250000     48.000000
 -0.350000 -0.350000  0.250000     24.000000
  0.350000  0.350000  0.350000      8.000000
  0.450000  0.350000  0.350000     24.000000
 -0.450000  0.350000  0.350000     24.000000
 -0.350000  0.350000  0.350000     24.000000
  0.450000  0.450000  0.350000     24.000000
 -0.450000  0.450000  0.350000     48.000000
 -0.350000  0.450000  0.350000     48.000000
 -0.450000 -0.450000  0.350000     24.000000
  0.450000  0.450000  0.450000      8.000000
 -0.450000  0.450000  0.450000     24.000000
 
 Following cartesian coordinates:
            Coordinates               Weight
  0.012266  0.012266  0.012266      8.000000
 -0.012266  0.036797  0.036797     24.000000
 -0.036797  0.061328  0.061328     24.000000
 -0.061328  0.085859  0.085859     24.000000
 -0.085859  0.110391  0.110391     24.000000
  0.134922 -0.110391 -0.110391     24.000000
  0.110391 -0.085859 -0.085859     24.000000
  0.085859 -0.061328 -0.061328     24.000000
  0.061328 -0.036797 -0.036797     24.000000
  0.036797 -0.012266 -0.012266     24.000000
  0.012266  0.012266  0.061328     24.000000
 -0.012266  0.036797  0.085859     48.000000
 -0.036797  0.061328  0.110391     48.000000
 -0.061328  0.085859  0.134922     48.000000
  0.159453 -0.134922 -0.085859     48.000000
  0.134922 -0.110391 -0.061328     48.000000
  0.110391 -0.085859 -0.036797     48.000000
  0.085859 -0.061328 -0.012266     48.000000
  0.061328 -0.036797  0.012266     48.000000
  0.012266  0.012266  0.110391     24.000000
 -0.012266  0.036797  0.134922     48.000000
 -0.036797  0.061328  0.159453     48.000000
  0.183985 -0.159453 -0.061328     48.000000
  0.159453 -0.134922 -0.036797     48.000000
  0.134922 -0.110391 -0.012266     48.000000
  0.110391 -0.085859  0.012266     48.000000
  0.085859 -0.061328  0.036797     48.000000
  0.012266  0.012266  0.159453     24.000000
 -0.012266  0.036797  0.183985     48.000000
  0.208516 -0.183985 -0.036797     48.000000
  0.183985 -0.159453 -0.012266     48.000000
  0.159453 -0.134922  0.012266     48.000000
  0.134922 -0.110391  0.036797     48.000000
  0.110391 -0.085859  0.061328     48.000000
  0.012266  0.012266  0.208516     24.000000
  0.233047 -0.208516 -0.012266     48.000000
  0.208516 -0.183985  0.012266     48.000000
  0.183985 -0.159453  0.036797     48.000000
  0.159453 -0.134922  0.061328     48.000000
  0.134922 -0.110391  0.085859     48.000000
  0.012266  0.012266 -0.233047     24.000000
 -0.012266  0.036797 -0.208516     48.000000
 -0.036797  0.061328 -0.183985     48.000000
 -0.061328  0.085859 -0.159453     48.000000
  0.012266  0.012266 -0.183985     24.000000
 -0.012266  0.036797 -0.159453     48.000000
 -0.036797  0.061328 -0.134922     48.000000
  0.012266  0.012266 -0.134922     24.000000
 -0.012266  0.036797 -0.110391     48.000000
  0.012266  0.012266 -0.085859     24.000000
  0.036797  0.036797  0.036797      8.000000
  0.012266  0.061328  0.061328     24.000000
 -0.012266  0.085859  0.085859     24.000000
 -0.036797  0.110391  0.110391     24.000000
  0.183985 -0.110391 -0.110391     24.000000
  0.159453 -0.085859 -0.085859     24.000000
  0.134922 -0.061328 -0.061328     24.000000
  0.110391 -0.036797 -0.036797     24.000000
  0.036797  0.036797  0.085859     24.000000
  0.012266  0.061328  0.110391     48.000000
 -0.012266  0.085859  0.134922     48.000000
  0.208516 -0.134922 -0.085859     48.000000
  0.183985 -0.110391 -0.061328     48.000000
  0.159453 -0.085859 -0.036797     48.000000
  0.134922 -0.061328 -0.012266     48.000000
  0.036797  0.036797  0.134922     24.000000
  0.012266  0.061328  0.159453     48.000000
  0.233047 -0.159453 -0.061328     48.000000
  0.208516 -0.134922 -0.036797     48.000000
  0.183985 -0.110391 -0.012266     48.000000
  0.159453 -0.085859  0.012266     48.000000
  0.036797  0.036797  0.183985     24.000000
  0.257578 -0.183985 -0.036797     48.000000
  0.233047 -0.159453 -0.012266     48.000000
  0.208516 -0.134922  0.012266     48.000000
  0.183985 -0.110391  0.036797     48.000000
  0.036797  0.036797 -0.257578     24.000000
  0.012266  0.061328 -0.233047     48.000000
 -0.012266  0.085859 -0.208516     48.000000
  0.036797  0.036797 -0.208516     24.000000
  0.012266  0.061328 -0.183985     48.000000
  0.036797  0.036797 -0.159453     24.000000
  0.061328  0.061328  0.061328      8.000000
  0.036797  0.085859  0.085859     24.000000
  0.012266  0.110391  0.110391     24.000000
  0.233047 -0.110391 -0.110391     24.000000
  0.208516 -0.085859 -0.085859     24.000000
  0.183985 -0.061328 -0.061328     24.000000
  0.061328  0.061328  0.110391     24.000000
  0.036797  0.085859  0.134922     48.000000
  0.257578 -0.134922 -0.085859     48.000000
  0.233047 -0.110391 -0.061328     48.000000
  0.208516 -0.085859 -0.036797     48.000000
  0.061328  0.061328  0.159453     24.000000
  0.282110 -0.159453 -0.061328     48.000000
  0.257578 -0.134922 -0.036797     48.000000
  0.233047 -0.110391 -0.012266     48.000000
  0.061328  0.061328 -0.282110     24.000000
  0.036797  0.085859 -0.257578     48.000000
  0.061328  0.061328 -0.233047     24.000000
  0.085859  0.085859  0.085859      8.000000
  0.061328  0.110391  0.110391     24.000000
  0.282110 -0.110391 -0.110391     24.000000
  0.257578 -0.085859 -0.085859     24.000000
  0.085859  0.085859  0.134922     24.000000
  0.306641 -0.134922 -0.085859     48.000000
  0.282110 -0.110391 -0.061328     48.000000
  0.085859  0.085859 -0.306641     24.000000
  0.110391  0.110391  0.110391      8.000000
  0.331172 -0.110391 -0.110391     24.000000
 


--------------------------------------------------------------------------------------------------------




 Dimension of arrays:
   k-points           NKPTS =    110   k-points in BZ     NKDIM =    110   number of bands    NBANDS=     24
   number of dos      NEDOS =    301   number of ions     NIONS =      1
   non local maximal  LDIM  =      6   non local SUM 2l+1 LMDIM =     18
   total plane-waves  NPLWV =   8000
   max r-space proj   IRMAX =      1   max aug-charges    IRDMAX=  16282
   dimension x,y,z NGX =    20 NGY =   20 NGZ =   20
   dimension x,y,z NGXF=    40 NGYF=   40 NGZF=   40
   support grid    NGXF=    40 NGYF=   40 NGZF=   40
   ions per type =               1
   NGX,Y,Z   is equivalent  to a cutoff of  11.53, 11.53, 11.53 a.u.
   NGXF,Y,Z  is equivalent  to a cutoff of  23.07, 23.07, 23.07 a.u.

 SYSTEM =  Pt-fcc                                  
 POSCAR =  Pt                                      

 Startparameter for this run:
   NWRITE =      2    write-flag & timer
   PREC   = accura    normal or accurate (medium, high low for compatibility)
   ISTART =      0    job   : 0-new  1-cont  2-samecut
   ICHARG =      2    charge: 1-file 2-atom 10-const
   ISPIN  =      1    spin polarized calculation?
   LNONCOLLINEAR =      F non collinear calculations
   LSORBIT =      F    spin-orbit coupling
   INIWAV =      1    electr: 0-lowe 1-rand  2-diag
   LASPH  =      F    aspherical Exc in radial PAW
 Electronic Relaxation 1
   ENCUT  =  425.0 eV  31.24 Ry    5.59 a.u.   4.85  4.85  4.85*2*pi/ulx,y,z
   ENINI  =  425.0     initial cutoff
   ENAUG  =  527.0 eV  augmentation charge cutoff
   NELM   =    100;   NELMIN=  2; NELMDL= -5     # of ELM steps 
   EDIFF  = 0.1E-05   stopping-criterion for ELM
   LREAL  =      F    real-space projection
   NLSPLINE    = F    spline interpolate recip. space projectors
   LCOMPAT=      F    compatible to vasp.4.4
   GGA_COMPAT  = T    GGA compatible to vasp.4.4-vasp.4.6
   LMAXPAW     = -100 max onsite density
   LMAXMIX     =    2 max onsite mixed and CHGCAR
   VOSKOWN=      0    Vosko Wilk Nusair interpolation
   ROPT   =    0.00000
 Ionic relaxation
   EDIFFG = -.2E-01   stopping-criterion for IOM
   NSW    =    100    number of steps for IOM
   NBLOCK =      1;   KBLOCK =    100    inner block; outer block 
   IBRION =      2    ionic relax: 0-MD 1-quasi-New 2-CG
   NFREE  =      1    steps in history (QN), initial steepest desc. (CG)
   ISIF   =      2    stress and relaxation
   IWAVPR =     11    prediction:  0-non 1-charg 2-wave 3-comb
   ISYM   =      1    0-nonsym 1-usesym 2-fastsym
   LCORR  =      T    Harris-Foulkes like correction to forces

   POTIM  = 0.5000    time-step for ionic-motion
   TEIN   =    0.0    initial temperature
   TEBEG  =    0.0;   TEEND  =   0.0 temperature during run
   SMASS  =  -3.00    Nose mass-parameter (am)
   estimated Nose-frequenzy (Omega)   =  0.10E-29 period in steps = 0.13E+47 mass=  -0.190E-27a.u.
   SCALEE = 1.0000    scale energy and forces
   NPACO  =    256;   APACO  = 10.0  distance and # of slots for P.C.
   PSTRESS=    0.0 pullay stress

  Mass of Ions in am
   POMASS = 195.08
  Ionic Valenz
   ZVAL   =  16.00
  Atomic Wigner-Seitz radii
   RWIGS  =  -1.00
  virtual crystal weights 
   VCA    =   1.00
   NELECT =      16.0000    total number of electrons
   NUPDOWN=      -1.0000    fix difference up-down

 DOS related values:
   EMIN   =  10.00;   EMAX   =-10.00  energy-range for DOS
   EFERMI =   0.00
   ISMEAR =     0;   SIGMA  =   0.05  broadening in eV -4-tet -1-fermi 0-gaus

 Electronic relaxation 2 (details)
   IALGO  =     38    algorithm
   LDIAG  =      T    sub-space diagonalisation (order eigenvalues)
   LSUBROT=      F    optimize rotation matrix (better conditioning)
   TURBO    =      0    0=normal 1=particle mesh
   IRESTART =      0    0=no restart 2=restart with 2 vectors
   NREBOOT  =      0    no. of reboots
   NMIN     =      0    reboot dimension
   EREF     =   0.00    reference energy to select bands
   IMIX   =      4    mixing-type and parameters
     AMIX     =   0.40;   BMIX     =  1.00
     AMIX_MAG =   1.60;   BMIX_MAG =  1.00
     AMIN     =   0.10
     WC   =   100.;   INIMIX=   1;  MIXPRE=   1;  MAXMIX= -45

 Intra band minimization:
   WEIMIN = 0.0010     energy-eigenvalue tresh-hold
   EBREAK =  0.10E-07  absolut break condition
   DEPER  =   0.30     relativ break condition  

   TIME   =   0.40     timestep for ELM

  volume/ion in A,a.u.               =      16.93       114.28
  Fermi-wavevector in a.u.,A,eV,Ry     =   1.606405  3.035665 35.110335  2.580537
  Thomas-Fermi vector in A             =   2.702598
 
 Write flags
   LWAVE        =      T    write WAVECAR
   LDOWNSAMPLE  =      F    k-point downsampling of WAVECAR
   LCHARG       =      T    write CHGCAR
   LVTOT        =      F    write LOCPOT, total local potential
   LVHAR        =      F    write LOCPOT, Hartree potential only
   LELF         =      F    write electronic localiz. function (ELF)
   LORBIT       =     11    0 simple, 1 ext, 2 COOP (PROOUT), +10 PAW based schemes


 Dipole corrections
   LMONO  =      F    monopole corrections only (constant potential shift)
   LDIPOL =      F    correct potential (dipole corrections)
   IDIPOL =      0    1-x, 2-y, 3-z, 4-all directions 
   EPSILON=  1.0000000 bulk dielectric constant

 Exchange correlation treatment:
   GGA     =    --    GGA type
   LEXCH   =     8    internal setting for exchange type
   LIBXC   =     F    Libxc                    
   VOSKOWN =     0    Vosko Wilk Nusair interpolation
   LHFCALC =     F    Hartree Fock is set to
   LHFONE  =     F    Hartree Fock one center treatment
   AEXX    =    0.0000 exact exchange contribution

 Linear response parameters
   LEPSILON=     F    determine dielectric tensor
   LRPA    =     F    only Hartree local field effects (RPA)
   LNABLA  =     F    use nabla operator in PAW spheres
   LVEL    =     F    velocity operator in full k-point grid
   CSHIFT  =0.1000    complex shift for real part using Kramers Kronig
   OMEGAMAX=  -1.0    maximum frequency
   DEG_THRESHOLD= 0.2000000E-02 threshold for treating states as degnerate
   RTIME   =   -0.100 relaxation time in fs
  (WPLASMAI=    0.000 imaginary part of plasma frequency in eV, 0.658/RTIME)
   DFIELD  = 0.0000000 0.0000000 0.0000000 field for delta impulse in time
 
  Optional k-point grid parameters
   LKPOINTS_OPT  =     F    use optional k-point grid
   KPOINTS_OPT_MODE=     1    mode for optional k-point grid
 
 Orbital magnetization related:
   ORBITALMAG=     F  switch on orbital magnetization
   LCHIMAG   =     F  perturbation theory with respect to B field
   DQ        =  0.001000  dq finite difference perturbation B field
   LLRAUG    =     F  two centre corrections for induced B field



--------------------------------------------------------------------------------------------------------


 conjugate gradient relaxation of ions
 charge density and potential will be updated during run
 non-spin polarized calculation
 Variant of blocked Davidson
 Davidson routine will perform the subspace rotation
 perform sub-space diagonalisation
    after iterative eigenvector-optimisation
 modified Broyden-mixing scheme, WC =      100.0
 initial mixing is a Kerker type mixing with AMIX =  0.4000 and BMIX =      1.0000
 Hartree-type preconditioning will be used
 using additional bands           16
 reciprocal scheme for non local part
 use partial core corrections
 calculate Harris-corrections to forces 
   (improved forces if not selfconsistent)
 use gradient corrections 
 use of overlap-Matrix (Vanderbilt PP)
 Gauss-broadening in eV      SIGMA  =   0.05


--------------------------------------------------------------------------------------------------------


  energy-cutoff  :      425.00
  volume of cell :       16.93
      direct lattice vectors                 reciprocal lattice vectors
     0.000000000  2.038214088  2.038214088    -0.245312798  0.245312798  0.245312798
     2.038214088  0.000000000  2.038214088     0.245312798 -0.245312798  0.245312798
     2.038214088  2.038214088  0.000000000     0.245312798  0.245312798 -0.245312798

  length of vectors
     2.882470007  2.882470007  2.882470007     0.424894229  0.424894229  0.424894229


 
 k-points in units of 2pi/SCALE and weight: Automatic mesh                          
   0.01226564  0.01226564  0.01226564       0.002
  -0.01226564  0.03679692  0.03679692       0.006
  -0.03679692  0.06132820  0.06132820       0.006
  -0.06132820  0.08585948  0.08585948       0.006
  -0.08585948  0.11039076  0.11039076       0.006
   0.13492204 -0.11039076 -0.11039076       0.006
   0.11039076 -0.08585948 -0.08585948       0.006
   0.08585948 -0.06132820 -0.06132820       0.006
   0.06132820 -0.03679692 -0.03679692       0.006
   0.03679692 -0.01226564 -0.01226564       0.006
   0.01226564  0.01226564  0.06132820       0.006
  -0.01226564  0.03679692  0.08585948       0.012
  -0.03679692  0.06132820  0.11039076       0.012
  -0.06132820  0.08585948  0.13492204       0.012
   0.15945332 -0.13492204 -0.08585948       0.012
   0.13492204 -0.11039076 -0.06132820       0.012
   0.11039076 -0.08585948 -0.03679692       0.012
   0.08585948 -0.06132820 -0.01226564       0.012
   0.06132820 -0.03679692  0.01226564       0.012
   0.01226564  0.01226564  0.11039076       0.006
  -0.01226564  0.03679692  0.13492204       0.012
  -0.03679692  0.06132820  0.15945332       0.012
   0.18398460 -0.15945332 -0.06132820       0.012
   0.15945332 -0.13492204 -0.03679692       0.012
   0.13492204 -0.11039076 -0.01226564       0.012
   0.11039076 -0.08585948  0.01226564       0.012
   0.08585948 -0.06132820  0.03679692       0.012
   0.01226564  0.01226564  0.15945332       0.006
  -0.01226564  0.03679692  0.18398460       0.012
   0.20851588 -0.18398460 -0.03679692       0.012
   0.18398460 -0.15945332 -0.01226564       0.012
   0.15945332 -0.13492204  0.01226564       0.012
   0.13492204 -0.11039076  0.03679692       0.012
   0.11039076 -0.08585948  0.06132820       0.012
   0.01226564  0.01226564  0.20851588       0.006
   0.23304716 -0.20851588 -0.01226564       0.012
   0.20851588 -0.18398460  0.01226564       0.012
   0.18398460 -0.15945332  0.03679692       0.012
   0.15945332 -0.13492204  0.06132820       0.012
   0.13492204 -0.11039076  0.08585948       0.012
   0.01226564  0.01226564 -0.23304716       0.006
  -0.01226564  0.03679692 -0.20851588       0.012
  -0.03679692  0.06132820 -0.18398460       0.012
  -0.06132820  0.08585948 -0.15945332       0.012
   0.01226564  0.01226564 -0.18398460       0.006
  -0.01226564  0.03679692 -0.15945332       0.012
  -0.03679692  0.06132820 -0.13492204       0.012
   0.01226564  0.01226564 -0.13492204       0.006
  -0.01226564  0.03679692 -0.11039076       0.012
   0.01226564  0.01226564 -0.08585948       0.006
   0.03679692  0.03679692  0.03679692       0.002
   0.01226564  0.06132820  0.06132820       0.006
  -0.01226564  0.08585948  0.08585948       0.006
  -0.03679692  0.11039076  0.11039076       0.006
   0.18398460 -0.11039076 -0.11039076       0.006
   0.15945332 -0.08585948 -0.08585948       0.006
   0.13492204 -0.06132820 -0.06132820       0.006
   0.11039076 -0.03679692 -0.03679692       0.006
   0.03679692  0.03679692  0.08585948       0.006
   0.01226564  0.06132820  0.11039076       0.012
  -0.01226564  0.08585948  0.13492204       0.012
   0.20851588 -0.13492204 -0.08585948       0.012
   0.18398460 -0.11039076 -0.06132820       0.012
   0.15945332 -0.08585948 -0.03679692       0.012
   0.13492204 -0.06132820 -0.01226564       0.012
   0.03679692  0.03679692  0.13492204       0.006
   0.01226564  0.06132820  0.15945332       0.012
   0.23304716 -0.15945332 -0.06132820       0.012
   0.20851588 -0.13492204 -0.03679692       0.012
   0.18398460 -0.11039076 -0.01226564       0.012
   0.15945332 -0.08585948  0.01226564       0.012
   0.03679692  0.03679692  0.18398460       0.006
   0.25757844 -0.18398460 -0.03679692       0.012
   0.23304716 -0.15945332 -0.01226564       0.012
   0.20851588 -0.13492204  0.01226564       0.012
   0.18398460 -0.11039076  0.03679692       0.012
   0.03679692  0.03679692 -0.25757844       0.006
   0.01226564  0.06132820 -0.23304716       0.012
  -0.01226564  0.08585948 -0.20851588       0.012
   0.03679692  0.03679692 -0.20851588       0.006
   0.01226564  0.06132820 -0.18398460       0.012
   0.03679692  0.03679692 -0.15945332       0.006
   0.06132820  0.06132820  0.06132820       0.002
   0.03679692  0.08585948  0.08585948       0.006
   0.01226564  0.11039076  0.11039076       0.006
   0.23304716 -0.11039076 -0.11039076       0.006
   0.20851588 -0.08585948 -0.08585948       0.006
   0.18398460 -0.06132820 -0.06132820       0.006
   0.06132820  0.06132820  0.11039076       0.006
   0.03679692  0.08585948  0.13492204       0.012
   0.25757844 -0.13492204 -0.08585948       0.012
   0.23304716 -0.11039076 -0.06132820       0.012
   0.20851588 -0.08585948 -0.03679692       0.012
   0.06132820  0.06132820  0.15945332       0.006
   0.28210972 -0.15945332 -0.06132820       0.012
   0.25757844 -0.13492204 -0.03679692       0.012
   0.23304716 -0.11039076 -0.01226564       0.012
   0.06132820  0.06132820 -0.28210972       0.006
   0.03679692  0.08585948 -0.25757844       0.012
   0.06132820  0.06132820 -0.23304716       0.006
   0.08585948  0.08585948  0.08585948       0.002
   0.06132820  0.11039076  0.11039076       0.006
   0.28210972 -0.11039076 -0.11039076       0.006
   0.25757844 -0.08585948 -0.08585948       0.006
   0.08585948  0.08585948  0.13492204       0.006
   0.30664100 -0.13492204 -0.08585948       0.012
   0.28210972 -0.11039076 -0.06132820       0.012
   0.08585948  0.08585948 -0.30664100       0.006
   0.11039076  0.11039076  0.11039076       0.002
   0.33117228 -0.11039076 -0.11039076       0.006
 
 k-points in reciprocal lattice and weights: Automatic mesh                          
   0.05000000  0.05000000  0.05000000       0.002
   0.15000000  0.05000000  0.05000000       0.006
   0.25000000  0.05000000  0.05000000       0.006
   0.35000000  0.05000000  0.05000000       0.006
   0.45000000  0.05000000  0.05000000       0.006
  -0.45000000  0.05000000  0.05000000       0.006
  -0.35000000  0.05000000  0.05000000       0.006
  -0.25000000  0.05000000  0.05000000       0.006
  -0.15000000  0.05000000  0.05000000       0.006
  -0.05000000  0.05000000  0.05000000       0.006
   0.15000000  0.15000000  0.05000000       0.006
   0.25000000  0.15000000  0.05000000       0.012
   0.35000000  0.15000000  0.05000000       0.012
   0.45000000  0.15000000  0.05000000       0.012
  -0.45000000  0.15000000  0.05000000       0.012
  -0.35000000  0.15000000  0.05000000       0.012
  -0.25000000  0.15000000  0.05000000       0.012
  -0.15000000  0.15000000  0.05000000       0.012
  -0.05000000  0.15000000  0.05000000       0.012
   0.25000000  0.25000000  0.05000000       0.006
   0.35000000  0.25000000  0.05000000       0.012
   0.45000000  0.25000000  0.05000000       0.012
  -0.45000000  0.25000000  0.05000000       0.012
  -0.35000000  0.25000000  0.05000000       0.012
  -0.25000000  0.25000000  0.05000000       0.012
  -0.15000000  0.25000000  0.05000000       0.012
  -0.05000000  0.25000000  0.05000000       0.012
   0.35000000  0.35000000  0.05000000       0.006
   0.45000000  0.35000000  0.05000000       0.012
  -0.45000000  0.35000000  0.05000000       0.012
  -0.35000000  0.35000000  0.05000000       0.012
  -0.25000000  0.35000000  0.05000000       0.012
  -0.15000000  0.35000000  0.05000000       0.012
  -0.05000000  0.35000000  0.05000000       0.012
   0.45000000  0.45000000  0.05000000       0.006
  -0.45000000  0.45000000  0.05000000       0.012
  -0.35000000  0.45000000  0.05000000       0.012
  -0.25000000  0.45000000  0.05000000       0.012
  -0.15000000  0.45000000  0.05000000       0.012
  -0.05000000  0.45000000  0.05000000       0.012
  -0.45000000 -0.45000000  0.05000000       0.006
  -0.35000000 -0.45000000  0.05000000       0.012
  -0.25000000 -0.45000000  0.05000000       0.012
  -0.15000000 -0.45000000  0.05000000       0.012
  -0.35000000 -0.35000000  0.05000000       0.006
  -0.25000000 -0.35000000  0.05000000       0.012
  -0.15000000 -0.35000000  0.05000000       0.012
  -0.25000000 -0.25000000  0.05000000       0.006
  -0.15000000 -0.25000000  0.05000000       0.012
  -0.15000000 -0.15000000  0.05000000       0.006
   0.15000000  0.15000000  0.15000000       0.002
   0.25000000  0.15000000  0.15000000       0.006
   0.35000000  0.15000000  0.15000000       0.006
   0.45000000  0.15000000  0.15000000       0.006
  -0.45000000  0.15000000  0.15000000       0.006
  -0.35000000  0.15000000  0.15000000       0.006
  -0.25000000  0.15000000  0.15000000       0.006
  -0.15000000  0.15000000  0.15000000       0.006
   0.25000000  0.25000000  0.15000000       0.006
   0.35000000  0.25000000  0.15000000       0.012
   0.45000000  0.25000000  0.15000000       0.012
  -0.45000000  0.25000000  0.15000000       0.012
  -0.35000000  0.25000000  0.15000000       0.012
  -0.25000000  0.25000000  0.15000000       0.012
  -0.15000000  0.25000000  0.15000000       0.012
   0.35000000  0.35000000  0.15000000       0.006
   0.45000000  0.35000000  0.15000000       0.012
  -0.45000000  0.35000000  0.15000000       0.012
  -0.35000000  0.35000000  0.15000000       0.012
  -0.25000000  0.35000000  0.15000000       0.012
  -0.15000000  0.35000000  0.15000000       0.012
   0.45000000  0.45000000  0.15000000       0.006
  -0.45000000  0.45000000  0.15000000       0.012
  -0.35000000  0.45000000  0.15000000       0.012
  -0.25000000  0.45000000  0.15000000       0.012
  -0.15000000  0.45000000  0.15000000       0.012
  -0.45000000 -0.45000000  0.15000000       0.006
  -0.35000000 -0.45000000  0.15000000       0.012
  -0.25000000 -0.45000000  0.15000000       0.012
  -0.35000000 -0.35000000  0.15000000       0.006
  -0.25000000 -0.35000000  0.15000000       0.012
  -0.25000000 -0.25000000  0.15000000       0.006
   0.25000000  0.25000000  0.25000000       0.002
   0.35000000  0.25000000  0.25000000       0.006
   0.45000000  0.25000000  0.25000000       0.006
  -0.45000000  0.25000000  0.25000000       0.006
  -0.35000000  0.25000000  0.25000000       0.006
  -0.25000000  0.25000000  0.25000000       0.006
   0.35000000  0.35000000  0.25000000       0.006
   0.45000000  0.35000000  0.25000000       0.012
  -0.45000000  0.35000000  0.25000000       0.012
  -0.35000000  0.35000000  0.25000000       0.012
  -0.25000000  0.35000000  0.25000000       0.012
   0.45000000  0.45000000  0.25000000       0.006
  -0.45000000  0.45000000  0.25000000       0.012
  -0.35000000  0.45000000  0.25000000       0.012
  -0.25000000  0.45000000  0.25000000       0.012
  -0.45000000 -0.45000000  0.25000000       0.006
  -0.35000000 -0.45000000  0.25000000       0.012
  -0.35000000 -0.35000000  0.25000000       0.006
   0.35000000  0.35000000  0.35000000       0.002
   0.45000000  0.35000000  0.35000000       0.006
  -0.45000000  0.35000000  0.35000000       0.006
  -0.35000000  0.35000000  0.35000000       0.006
   0.45000000  0.45000000  0.35000000       0.006
  -0.45000000  0.45000000  0.35000000       0.012
  -0.35000000  0.45000000  0.35000000       0.012
  -0.45000000 -0.45000000  0.35000000       0.006
   0.45000000  0.45000000  0.45000000       0.002
  -0.45000000  0.45000000  0.45000000       0.006
 
 position of ions in fractional coordinates (direct lattice) 
   0.00000000  0.00000000  0.00000000
 
 position of ions in cartesian coordinates  (Angst):
   0.00000000  0.00000000  0.00000000
 


--------------------------------------------------------------------------------------------------------


 k-point   1 :   0.0500 0.0500 0.0500  plane waves:     332
 k-point   2 :   0.1500 0.0500 0.0500  plane waves:     333
 k-point   3 :   0.2500 0.0500 0.0500  plane waves:     333
 k-point   4 :   0.3500 0.0500 0.0500  plane waves:     340
 k-point   5 :   0.4500 0.0500 0.0500  plane waves:     342
 k-point   6 :  -0.4500 0.0500 0.0500  plane waves:     338
 k-point   7 :  -0.3500 0.0500 0.0500  plane waves:     340
 k-point   8 :  -0.2500 0.0500 0.0500  plane waves:     339
 k-point   9 :  -0.1500 0.0500 0.0500  plane waves:     328
 k-point  10 :  -0.0500 0.0500 0.0500  plane waves:     334
 k-point  11 :   0.1500 0.1500 0.0500  plane waves:     332
 k-point  12 :   0.2500 0.1500 0.0500  plane waves:     334
 k-point  13 :   0.3500 0.1500 0.0500  plane waves:     335
 k-point  14 :   0.4500 0.1500 0.0500  plane waves:     338
 k-point  15 :  -0.4500 0.1500 0.0500  plane waves:     340
 k-point  16 :  -0.3500 0.1500 0.0500  plane waves:     337
 k-point  17 :  -0.2500 0.1500 0.0500  plane waves:     336
 k-point  18 :  -0.1500 0.1500 0.0500  plane waves:     331
 k-point  19 :  -0.0500 0.1500 0.0500  plane waves:     331
 k-point  20 :   0.2500 0.2500 0.0500  plane waves:     337
 k-point  21 :   0.3500 0.2500 0.0500  plane waves:     333
 k-point  22 :   0.4500 0.2500 0.0500  plane waves:     333
 k-point  23 :  -0.4500 0.2500 0.0500  plane waves:     339
 k-point  24 :  -0.3500 0.2500 0.0500  plane waves:     342
 k-point  25 :  -0.2500 0.2500 0.0500  plane waves:     338
 k-point  26 :  -0.1500 0.2500 0.0500  plane waves:     333
 k-point  27 :  -0.0500 0.2500 0.0500  plane waves:     336
 k-point  28 :   0.3500 0.3500 0.0500  plane waves:     331
 k-point  29 :   0.4500 0.3500 0.0500  plane waves:     334
 k-point  30 :  -0.4500 0.3500 0.0500  plane waves:     340
 k-point  31 :  -0.3500 0.3500 0.0500  plane waves:     341
 k-point  32 :  -0.2500 0.3500 0.0500  plane waves:     338
 k-point  33 :  -0.1500 0.3500 0.0500  plane waves:     339
 k-point  34 :  -0.0500 0.3500 0.0500  plane waves:     337
 k-point  35 :   0.4500 0.4500 0.0500  plane waves:     333
 k-point  36 :  -0.4500 0.4500 0.0500  plane waves:     339
 k-point  37 :  -0.3500 0.4500 0.0500  plane waves:     340
 k-point  38 :  -0.2500 0.4500 0.0500  plane waves:     341
 k-point  39 :  -0.1500 0.4500 0.0500  plane waves:     342
 k-point  40 :  -0.0500 0.4500 0.0500  plane waves:     341
 k-point  41 :  -0.4500-0.4500 0.0500  plane waves:     340
 k-point  42 :  -0.3500-0.4500 0.0500  plane waves:     335
 k-point  43 :  -0.2500-0.4500 0.0500  plane waves:     338
 k-point  44 :  -0.1500-0.4500 0.0500  plane waves:     336
 k-point  45 :  -0.3500-0.3500 0.0500  plane waves:     327
 k-point  46 :  -0.2500-0.3500 0.0500  plane waves:     332
 k-point  47 :  -0.1500-0.3500 0.0500  plane waves:     333
 k-point  48 :  -0.2500-0.2500 0.0500  plane waves:     337
 k-point  49 :  -0.1500-0.2500 0.0500  plane waves:     334
 k-point  50 :  -0.1500-0.1500 0.0500  plane waves:     334
 k-point  51 :   0.1500 0.1500 0.1500  plane waves:     332
 k-point  52 :   0.2500 0.1500 0.1500  plane waves:     329
 k-point  53 :   0.3500 0.1500 0.1500  plane waves:     333
 k-point  54 :   0.4500 0.1500 0.1500  plane waves:     336
 k-point  55 :  -0.4500 0.1500 0.1500  plane waves:     339
 k-point  56 :  -0.3500 0.1500 0.1500  plane waves:     335
 k-point  57 :  -0.2500 0.1500 0.1500  plane waves:     334
 k-point  58 :  -0.1500 0.1500 0.1500  plane waves:     333
 k-point  59 :   0.2500 0.2500 0.1500  plane waves:     335
 k-point  60 :   0.3500 0.2500 0.1500  plane waves:     334
 k-point  61 :   0.4500 0.2500 0.1500  plane waves:     334
 k-point  62 :  -0.4500 0.2500 0.1500  plane waves:     339
 k-point  63 :  -0.3500 0.2500 0.1500  plane waves:     341
 k-point  64 :  -0.2500 0.2500 0.1500  plane waves:     334
 k-point  65 :  -0.1500 0.2500 0.1500  plane waves:     333
 k-point  66 :   0.3500 0.3500 0.1500  plane waves:     331
 k-point  67 :   0.4500 0.3500 0.1500  plane waves:     335
 k-point  68 :  -0.4500 0.3500 0.1500  plane waves:     339
 k-point  69 :  -0.3500 0.3500 0.1500  plane waves:     340
 k-point  70 :  -0.2500 0.3500 0.1500  plane waves:     340
 k-point  71 :  -0.1500 0.3500 0.1500  plane waves:     337
 k-point  72 :   0.4500 0.4500 0.1500  plane waves:     333
 k-point  73 :  -0.4500 0.4500 0.1500  plane waves:     339
 k-point  74 :  -0.3500 0.4500 0.1500  plane waves:     340
 k-point  75 :  -0.2500 0.4500 0.1500  plane waves:     340
 k-point  76 :  -0.1500 0.4500 0.1500  plane waves:     337
 k-point  77 :  -0.4500-0.4500 0.1500  plane waves:     338
 k-point  78 :  -0.3500-0.4500 0.1500  plane waves:     340
 k-point  79 :  -0.2500-0.4500 0.1500  plane waves:     342
 k-point  80 :  -0.3500-0.3500 0.1500  plane waves:     334
 k-point  81 :  -0.2500-0.3500 0.1500  plane waves:     336
 k-point  82 :  -0.2500-0.2500 0.1500  plane waves:     335
 k-point  83 :   0.2500 0.2500 0.2500  plane waves:     332
 k-point  84 :   0.3500 0.2500 0.2500  plane waves:     335
 k-point  85 :   0.4500 0.2500 0.2500  plane waves:     333
 k-point  86 :  -0.4500 0.2500 0.2500  plane waves:     337
 k-point  87 :  -0.3500 0.2500 0.2500  plane waves:     341
 k-point  88 :  -0.2500 0.2500 0.2500  plane waves:     338
 k-point  89 :   0.3500 0.3500 0.2500  plane waves:     334
 k-point  90 :   0.4500 0.3500 0.2500  plane waves:     333
 k-point  91 :  -0.4500 0.3500 0.2500  plane waves:     339
 k-point  92 :  -0.3500 0.3500 0.2500  plane waves:     340
 k-point  93 :  -0.2500 0.3500 0.2500  plane waves:     341
 k-point  94 :   0.4500 0.4500 0.2500  plane waves:     333
 k-point  95 :  -0.4500 0.4500 0.2500  plane waves:     336
 k-point  96 :  -0.3500 0.4500 0.2500  plane waves:     338
 k-point  97 :  -0.2500 0.4500 0.2500  plane waves:     340
 k-point  98 :  -0.4500-0.4500 0.2500  plane waves:     341
 k-point  99 :  -0.3500-0.4500 0.2500  plane waves:     341
 k-point 100 :  -0.3500-0.3500 0.2500  plane waves:     341
 k-point 101 :   0.3500 0.3500 0.3500  plane waves:     344
 k-point 102 :   0.4500 0.3500 0.3500  plane waves:     340
 k-point 103 :  -0.4500 0.3500 0.3500  plane waves:     341
 k-point 104 :  -0.3500 0.3500 0.3500  plane waves:     344
 k-point 105 :   0.4500 0.4500 0.3500  plane waves:     339
 k-point 106 :  -0.4500 0.4500 0.3500  plane waves:     340
 k-point 107 :  -0.3500 0.4500 0.3500  plane waves:     341
 k-point 108 :  -0.4500-0.4500 0.3500  plane waves:     342
 k-point 109 :   0.4500 0.4500 0.4500  plane waves:     338
 k-point 110 :  -0.4500 0.4500 0.4500  plane waves:     339

 maximum and minimum number of plane-waves per node :       344      327

 maximum number of plane-waves:       344
 maximum index in each direction: 
   IXMAX=    5   IYMAX=    5   IZMAX=    4
   IXMIN=   -5   IYMIN=   -5   IZMIN=   -5


 serial   3D FFT for wavefunctions
 parallel 3D FFT for charge:
    minimum data exchange during FFTs selected (reduces bandwidth)


 total amount of memory used by VASP MPI-rank0    37030. kBytes
=======================================================================

   base      :      30000. kBytes
   nonl-proj :       5708. kBytes
   fftplans  :        147. kBytes
   grid      :        485. kBytes
   one-center:         15. kBytes
   wavefun   :        675. kBytes
 
     INWAV:  cpu time      0.0000: real time      0.0001
 Broyden mixing: mesh for mixing (old mesh)
   NGX =  9   NGY =  9   NGZ =  9
  (NGX  = 40   NGY  = 40   NGZ  = 40)
  gives a total of    729 points

 initial charge density was supplied:
 charge density of overlapping atoms calculated
 number of electron      16.0000000 magnetization 
 keeping initial charge density in first step


--------------------------------------------------------------------------------------------------------


 Maximum index for augmentation-charges          754 (set IRDMAX)


--------------------------------------------------------------------------------------------------------


 First call to EWALD:  gamma=   0.690
 Maximum number of real-space cells 3x 3x 3
 Maximum number of reciprocal cells 3x 3x 3

    FEWALD:  cpu time      0.0015: real time      0.0015


--------------------------------------- Iteration      1(   1)  ---------------------------------------


    POTLOK:  cpu time      0.0035: real time      0.0036
    SETDIJ:  cpu time      0.0022: real time      0.0022
     EDDAV:  cpu time      0.5073: real time      0.5098
       DOS:  cpu time      0.0010: real time      0.0010
    --------------------------------------------
      LOOP:  cpu time      0.5140: real time      0.5166

 eigenvalue-minimisations  :  5856
 total energy-change (2. order) : 0.1881731E+02  (-0.1161537E+04)
 number of electron      16.0000000 magnetization 
 augmentation part       16.0000000 magnetization 

 Free energy of the ion-electron system (eV)
  ---------------------------------------------------
  alpha Z        PSCENC =       141.67999094
  Ewald energy   TEWEN  =     -2073.06310914
  -Hartree energ DENC   =      -431.92900599
  -exchange      EXHF   =         0.00000000
  -V(xc)+E(xc)   XCENC  =        63.33309642
  PAW double counting   =      2065.75261637    -2030.83594803
  entropy T*S    EENTRO =        -0.00145922
  eigenvalues    EBANDS =      -144.31388328
  atomic energy  EATOM  =      2428.19501064
  Solvation  Ediel_sol  =         0.00000000
  ---------------------------------------------------
  free energy    TOTEN  =        18.81730872 eV

  energy without entropy =       18.81876794  energy(sigma->0) =       18.81803833


--------------------------------------------------------------------------------------------------------




--------------------------------------- Iteration      1(   2)  ---------------------------------------


     EDDAV:  cpu time      0.6796: real time      0.6837
       DOS:  cpu time      0.0005: real time      0.0005
    --------------------------------------------
      LOOP:  cpu time      0.6801: real time      0.6842

 eigenvalue-minimisations  :  7032
 total energy-change (2. order) :-0.2515471E+02  (-0.2497112E+02)
 number of electron      16.0000000 magnetization 
 augmentation part       16.0000000 magnetization 

 Free energy of the ion-electron system (eV)
  ---------------------------------------------------
  alpha Z        PSCENC =       141.67999094
  Ewald energy   TEWEN  =     -2073.06310914
  -Hartree energ DENC   =      -431.92900599
  -exchange      EXHF   =         0.00000000
  -V(xc)+E(xc)   XCENC  =        63.33309642
  PAW double counting   =      2065.75261637    -2030.83594803
  entropy T*S    EENTRO =        -0.00225136
  eigenvalues    EBANDS =      -169.46779936
  atomic energy  EATOM  =      2428.19501064
  Solvation  Ediel_sol  =         0.00000000
  ---------------------------------------------------
  free energy    TOTEN  =        -6.33739950 eV

  energy without entropy =       -6.33514814  energy(sigma->0) =       -6.33627382


--------------------------------------------------------------------------------------------------------




--------------------------------------- Iteration      1(   3)  ---------------------------------------


     EDDAV:  cpu time      0.6562: real time      0.6596
       DOS:  cpu time      0.0005: real time      0.0005
    --------------------------------------------
      LOOP:  cpu time      0.6567: real time      0.6601

 eigenvalue-minimisations  :  6624
 total energy-change (2. order) :-0.4083787E-01  (-0.4083610E-01)
 number of electron      16.0000000 magnetization 
 augmentation part       16.0000000 magnetization 

 Free energy of the ion-electron system (eV)
  ---------------------------------------------------
  alpha Z        PSCENC =       141.67999094
  Ewald energy   TEWEN  =     -2073.06310914
  -Hartree energ DENC   =      -431.92900599
  -exchange      EXHF   =         0.00000000
  -V(xc)+E(xc)   XCENC  =        63.33309642
  PAW double counting   =      2065.75261637    -2030.83594803
  entropy T*S    EENTRO =        -0.00222121
  eigenvalues    EBANDS =      -169.50866738
  atomic energy  EATOM  =      2428.19501064
  Solvation  Ediel_sol  =         0.00000000
  ---------------------------------------------------
  free energy    TOTEN  =        -6.37823737 eV

  energy without entropy =       -6.37601616  energy(sigma->0) =       -6.37712676


--------------------------------------------------------------------------------------------------------




--------------------------------------- Iteration      1(   4)  ---------------------------------------


     EDDAV:  cpu time      1.0041: real time      1.0091
       DOS:  cpu time      0.0005: real time      0.0005
    --------------------------------------------
      LOOP:  cpu time      1.0046: real time      1.0096

 eigenvalue-minimisations  :  8664
 total energy-change (2. order) :-0.4126749E-04  (-0.4126885E-04)
 number of electron      16.0000000 magnetization 
 augmentation part       16.0000000 magnetization 

 Free energy of the ion-electron system (eV)
  ---------------------------------------------------
  alpha Z        PSCENC =       141.67999094
  Ewald energy   TEWEN  =     -2073.06310914
  -Hartree energ DENC   =      -431.92900599
  -exchange      EXHF   =         0.00000000
  -V(xc)+E(xc)   XCENC  =        63.33309642
  PAW double counting   =      2065.75261637    -2030.83594803
  entropy T*S    EENTRO =        -0.00222118
  eigenvalues    EBANDS =      -169.50870868
  atomic energy  EATOM  =      2428.19501064
  Solvation  Ediel_sol  =         0.00000000
  ---------------------------------------------------
  free energy    TOTEN  =        -6.37827863 eV

  energy without entropy =       -6.37605746  energy(sigma->0) =       -6.37716805


--------------------------------------------------------------------------------------------------------




--------------------------------------- Iteration      1(   5)  ---------------------------------------


     EDDAV:  cpu time      0.6590: real time      0.6622
       DOS:  cpu time      0.0005: real time      0.0005
    CHARGE:  cpu time      0.0184: real time      0.0187
    MIXING:  cpu time      0.0002: real time      0.0002
    --------------------------------------------
      LOOP:  cpu time      0.6782: real time      0.6817

 eigenvalue-minimisations  :  6624
 total energy-change (2. order) :-0.1649369E-08  (-0.1392181E-08)
 number of electron      15.9999994 magnetization 
 augmentation part        3.9704989 magnetization 

 Broyden mixing:
  rms(total) = 0.11682E+01    rms(broyden)= 0.11680E+01
  rms(prec ) = 0.18291E+01
  weight for this iteration     100.00

 Free energy of the ion-electron system (eV)
  ---------------------------------------------------
  alpha Z        PSCENC =       141.67999094
  Ewald energy   TEWEN  =     -2073.06310914
  -Hartree energ DENC   =      -431.92900599
  -exchange      EXHF   =         0.00000000
  -V(xc)+E(xc)   XCENC  =        63.33309642
  PAW double counting   =      2065.75261637    -2030.83594803
  entropy T*S    EENTRO =        -0.00222118
  eigenvalues    EBANDS =      -169.50870868
  atomic energy  EATOM  =      2428.19501064
  Solvation  Ediel_sol  =         0.00000000
  ---------------------------------------------------
  free energy    TOTEN  =        -6.37827864 eV

  energy without entropy =       -6.37605746  energy(sigma->0) =       -6.37716805


--------------------------------------------------------------------------------------------------------




--------------------------------------- Iteration      1(   6)  ---------------------------------------


    POTLOK:  cpu time      0.0026: real time      0.0028
    SETDIJ:  cpu time      0.0021: real time      0.0021
     EDDAV:  cpu time      0.5087: real time      0.5113
       DOS:  cpu time      0.0005: real time      0.0005
    CHARGE:  cpu time      0.0177: real time      0.0177
    MIXING:  cpu time      0.0002: real time      0.0002
    --------------------------------------------
      LOOP:  cpu time      0.5319: real time      0.5346

 eigenvalue-minimisations  :  5832
 total energy-change (2. order) : 0.3500556E+00  (-0.1481764E+00)
 number of electron      15.9999994 magnetization 
 augmentation part        4.0963968 magnetization 

 Broyden mixing:
  rms(total) = 0.30119E+00    rms(broyden)= 0.30117E+00
  rms(prec ) = 0.42116E+00
  weight for this iteration     100.00

 eigenvalues of (default mixing * dielectric matrix)
  average eigenvalue GAMMA=   1.3074
  1.3074

 Free energy of the ion-electron system (eV)
  ---------------------------------------------------
  alpha Z        PSCENC =       141.67999094
  Ewald energy   TEWEN  =     -2073.06310914
  -Hartree energ DENC   =      -415.51321497
  -exchange      EXHF   =         0.00000000
  -V(xc)+E(xc)   XCENC  =        62.63403065
  PAW double counting   =      2178.96868809    -2146.00290298
  entropy T*S    EENTRO =        -0.00287579
  eigenvalues    EBANDS =      -182.92384049
  atomic energy  EATOM  =      2428.19501064
  Solvation  Ediel_sol  =         0.00000000
  ---------------------------------------------------
  free energy    TOTEN  =        -6.02822304 eV

  energy without entropy =       -6.02534725  energy(sigma->0) =       -6.02678515


--------------------------------------------------------------------------------------------------------




--------------------------------------- Iteration      1(   7)  ---------------------------------------


    POTLOK:  cpu time      0.0023: real time      0.0024
    SETDIJ:  cpu time      0.0020: real time      0.0020
     EDDAV:  cpu time      0.8341: real time      0.8382
       DOS:  cpu time      0.0005: real time      0.0005
    CHARGE:  cpu time      0.0175: real time      0.0176
    MIXING:  cpu time      0.0002: real time      0.0002
    --------------------------------------------
      LOOP:  cpu time      0.8566: real time      0.8609

 eigenvalue-minimisations  :  7968
 total energy-change (2. order) : 0.1247249E-01  (-0.4600975E-02)
 number of electron      15.9999994 magnetization 
 augmentation part        4.1164703 magnetization 

 Broyden mixing:
  rms(total) = 0.11129E+00    rms(broyden)= 0.11129E+00
  rms(prec ) = 0.15512E+00
  weight for this iteration     100.00

 eigenvalues of (default mixing * dielectric matrix)
  average eigenvalue GAMMA=   1.9030
  1.1338  2.6723

 Free energy of the ion-electron system (eV)
  ---------------------------------------------------
  alpha Z        PSCENC =       141.67999094
  Ewald energy   TEWEN  =     -2073.06310914
  -Hartree energ DENC   =      -412.48799864
  -exchange      EXHF   =         0.00000000
  -V(xc)+E(xc)   XCENC  =        62.49461580
  PAW double counting   =      2207.32978145    -2174.68368111
  entropy T*S    EENTRO =        -0.00296979
  eigenvalues    EBANDS =      -185.47739071
  atomic energy  EATOM  =      2428.19501064
  Solvation  Ediel_sol  =         0.00000000
  ---------------------------------------------------
  free energy    TOTEN  =        -6.01575055 eV

  energy without entropy =       -6.01278076  energy(sigma->0) =       -6.01426565


--------------------------------------------------------------------------------------------------------




--------------------------------------- Iteration      1(   8)  ---------------------------------------


    POTLOK:  cpu time      0.0022: real time      0.0024
    SETDIJ:  cpu time      0.0019: real time      0.0019
     EDDAV:  cpu time      0.5460: real time      0.5489
       DOS:  cpu time      0.0005: real time      0.0005
    CHARGE:  cpu time      0.0176: real time      0.0176
    MIXING:  cpu time      0.0003: real time      0.0003
    --------------------------------------------
      LOOP:  cpu time      0.5685: real time      0.5716

 eigenvalue-minimisations  :  6072
 total energy-change (2. order) : 0.1245261E-02  (-0.3782004E-03)
 number of electron      15.9999994 magnetization 
 augmentation part        4.1139177 magnetization 

 Broyden mixing:
  rms(total) = 0.65997E-02    rms(broyden)= 0.65733E-02
  rms(prec ) = 0.10489E-01
  weight for this iteration     100.00

 eigenvalues of (default mixing * dielectric matrix)
  average eigenvalue GAMMA=   1.5614
  1.0836  1.1737  2.4268

 Free energy of the ion-electron system (eV)
  ---------------------------------------------------
  alpha Z        PSCENC =       141.67999094
  Ewald energy   TEWEN  =     -2073.06310914
  -Hartree energ DENC   =      -412.22306896
  -exchange      EXHF   =         0.00000000
  -V(xc)+E(xc)   XCENC  =        62.46948968
  PAW double counting   =      2224.02263496    -2191.32797367
  entropy T*S    EENTRO =        -0.00300150
  eigenvalues    EBANDS =      -185.76447824
  atomic energy  EATOM  =      2428.19501064
  Solvation  Ediel_sol  =         0.00000000
  ---------------------------------------------------
  free energy    TOTEN  =        -6.01450529 eV

  energy without entropy =       -6.01150378  energy(sigma->0) =       -6.01300454


--------------------------------------------------------------------------------------------------------




--------------------------------------- Iteration      1(   9)  ---------------------------------------


    POTLOK:  cpu time      0.0023: real time      0.0024
    SETDIJ:  cpu time      0.0018: real time      0.0018
     EDDAV:  cpu time      0.7759: real time      0.7798
       DOS:  cpu time      0.0005: real time      0.0005
    CHARGE:  cpu time      0.0174: real time      0.0175
    MIXING:  cpu time      0.0002: real time      0.0002
    --------------------------------------------
      LOOP:  cpu time      0.7982: real time      0.8022

 eigenvalue-minimisations  :  7392
 total energy-change (2. order) : 0.3126905E-04  (-0.2775494E-05)
 number of electron      15.9999994 magnetization 
 augmentation part        4.1140310 magnetization 

 Broyden mixing:
  rms(total) = 0.16103E-02    rms(broyden)= 0.16075E-02
  rms(prec ) = 0.32545E-02
  weight for this iteration     100.00

 eigenvalues of (default mixing * dielectric matrix)
  average eigenvalue GAMMA=   1.8218
  1.0188  1.1447  2.7725  2.3511

 Free energy of the ion-electron system (eV)
  ---------------------------------------------------
  alpha Z        PSCENC =       141.67999094
  Ewald energy   TEWEN  =     -2073.06310914
  -Hartree energ DENC   =      -412.26950339
  -exchange      EXHF   =         0.00000000
  -V(xc)+E(xc)   XCENC  =        62.47218483
  PAW double counting   =      2224.12494415    -2191.41243561
  entropy T*S    EENTRO =        -0.00299788
  eigenvalues    EBANDS =      -185.73855857
  atomic energy  EATOM  =      2428.19501064
  Solvation  Ediel_sol  =         0.00000000
  ---------------------------------------------------
  free energy    TOTEN  =        -6.01447402 eV

  energy without entropy =       -6.01147614  energy(sigma->0) =       -6.01297508


--------------------------------------------------------------------------------------------------------




--------------------------------------- Iteration      1(  10)  ---------------------------------------


    POTLOK:  cpu time      0.0023: real time      0.0024
    SETDIJ:  cpu time      0.0018: real time      0.0018
     EDDAV:  cpu time      0.7307: real time      0.7341
       DOS:  cpu time      0.0005: real time      0.0005
    CHARGE:  cpu time      0.0177: real time      0.0178
    MIXING:  cpu time      0.0004: real time      0.0004
    --------------------------------------------
      LOOP:  cpu time      0.7534: real time      0.7571

 eigenvalue-minimisations  :  7176
 total energy-change (2. order) :-0.7377131E-05  (-0.6798636E-06)
 number of electron      15.9999994 magnetization 
 augmentation part        4.1140837 magnetization 

 Broyden mixing:
  rms(total) = 0.54689E-03    rms(broyden)= 0.54645E-03
  rms(prec ) = 0.56022E-03
  weight for this iteration     100.00

 eigenvalues of (default mixing * dielectric matrix)
  average eigenvalue GAMMA=   1.7597
  2.6808  2.3576  0.9941  1.1481  1.6178

 Free energy of the ion-electron system (eV)
  ---------------------------------------------------
  alpha Z        PSCENC =       141.67999094
  Ewald energy   TEWEN  =     -2073.06310914
  -Hartree energ DENC   =      -412.29601882
  -exchange      EXHF   =         0.00000000
  -V(xc)+E(xc)   XCENC  =        62.47316845
  PAW double counting   =      2225.64380720    -2192.90356213
  entropy T*S    EENTRO =        -0.00299674
  eigenvalues    EBANDS =      -185.74077181
  atomic energy  EATOM  =      2428.19501064
  Solvation  Ediel_sol  =         0.00000000
  ---------------------------------------------------
  free energy    TOTEN  =        -6.01448140 eV

  energy without entropy =       -6.01148466  energy(sigma->0) =       -6.01298303


--------------------------------------------------------------------------------------------------------




--------------------------------------- Iteration      1(  11)  ---------------------------------------


    POTLOK:  cpu time      0.0023: real time      0.0025
    SETDIJ:  cpu time      0.0019: real time      0.0019
     EDDAV:  cpu time      0.3455: real time      0.3474
       DOS:  cpu time      0.0005: real time      0.0005
    --------------------------------------------
      LOOP:  cpu time      0.3503: real time      0.3523

 eigenvalue-minimisations  :  3912
 total energy-change (2. order) : 0.9481164E-07  (-0.7527731E-09)
 number of electron      15.9999994 magnetization 
 augmentation part        4.1140837 magnetization 

 Free energy of the ion-electron system (eV)
  ---------------------------------------------------
  alpha Z        PSCENC =       141.67999094
  Ewald energy   TEWEN  =     -2073.06310914
  -Hartree energ DENC   =      -412.29511235
  -exchange      EXHF   =         0.00000000
  -V(xc)+E(xc)   XCENC  =        62.47313461
  PAW double counting   =      2225.44814058    -2192.70885912
  entropy T*S    EENTRO =        -0.00299672
  eigenvalues    EBANDS =      -185.74068075
  atomic energy  EATOM  =      2428.19501064
  Solvation  Ediel_sol  =         0.00000000
  ---------------------------------------------------
  free energy    TOTEN  =        -6.01448130 eV

  energy without entropy =       -6.01148458  energy(sigma->0) =       -6.01298294


--------------------------------------------------------------------------------------------------------




 average (electrostatic) potential at core
  the test charge radii are     0.9952
  (the norm of the test charge is              1.0000)
       1 -90.5285
 
 
 
 E-fermi :   9.9143     XC(G=0): -13.2627     alpha+bet :-15.4905

 Fermi energy:         9.9143306406

 k-point     1 :       0.0500    0.0500    0.0500
  band No.  band energies     occupation 
      1     -42.2959      2.00000
      2     -42.2893      2.00000
      3     -42.2893      2.00000
      4       0.9803      2.00000
      5       6.7236      2.00000
      6       6.7948      2.00000
      7       6.7948      2.00000
      8       8.5329      2.00000
      9       8.5329      2.00000
     10      24.8753      0.00000
     11      28.5238      0.00000
     12      29.1979      0.00000
     13      29.1979      0.00000
     14      34.5725      0.00000
     15      38.1849      0.00000
     16      38.8744      0.00000
     17      38.8744      0.00000
     18      41.5107      0.00000
     19      41.5107      0.00000
     20      42.3706      0.00000
     21      48.4136      0.00000
     22      48.4136      0.00000
     23      50.9874      0.00000
     24      53.9951      0.00000

 k-point     2 :       0.1500    0.0500    0.0500
  band No.  band energies     occupation 
      1     -42.3314      2.00000
      2     -42.3001      2.00000
      3     -42.2925      2.00000
      4       1.4496      2.00000
      5       6.5351      2.00000
      6       6.9486      2.00000
      7       6.9813      2.00000
      8       8.3530      2.00000
      9       8.5839      2.00000
     10      25.4605      0.00000
     11      26.8109      0.00000
     12      29.1493      0.00000
     13      30.1891      0.00000
     14      34.4129      0.00000
     15      36.6955      0.00000
     16      37.6152      0.00000
     17      38.0204      0.00000
     18      40.1116      0.00000
     19      42.8903      0.00000
     20      44.9468      0.00000
     21      47.5003      0.00000
     22      49.5790      0.00000
     23      50.9926      0.00000
     24      56.1079      0.00000

 k-point     3 :       0.2500    0.0500    0.0500
  band No.  band energies     occupation 
      1     -42.4103      2.00000
      2     -42.3144      2.00000
      3     -42.3034      2.00000
      4       2.4710      2.00000
      5       6.3528      2.00000
      6       7.1116      2.00000
      7       7.1439      2.00000
      8       8.3477      2.00000
      9       8.8106      2.00000
     10      23.6737      0.00000
     11      26.2025      0.00000
     12      29.8238      0.00000
     13      31.7279      0.00000
     14      31.9301      0.00000
     15      34.5473      0.00000
     16      34.9902      0.00000
     17      40.6473      0.00000
     18      41.2242      0.00000
     19      43.6761      0.00000
     20      45.7676      0.00000
     21      48.3851      0.00000
     22      50.3649      0.00000
     23      51.0030      0.00000
     24      56.9807      0.00000

 k-point     4 :       0.3500    0.0500    0.0500
  band No.  band energies     occupation 
      1     -42.5018      2.00000
      2     -42.3287      2.00000
      3     -42.3180      2.00000
      4       3.4414      2.00000
      5       6.8328      2.00000
      6       6.9958      2.00000
      7       7.0148      2.00000
      8       8.8970      2.00000
      9       9.4328      2.00000
     10      20.0330      0.00000
     11      25.5128      0.00000
     12      29.0133      0.00000
     13      31.1321      0.00000
     14      32.7943      0.00000
     15      34.2865      0.00000
     16      35.0737      0.00000
     17      41.2055      0.00000
     18      43.0898      0.00000
     19      45.3497      0.00000
     20      47.1708      0.00000
     21      49.4005      0.00000
     22      50.9993      0.00000
     23      51.1395      0.00000
     24      55.8253      0.00000

 k-point     5 :       0.4500    0.0500    0.0500
  band No.  band energies     occupation 
      1     -42.5695      2.00000
      2     -42.3379      2.00000
      3     -42.3299      2.00000
      4       3.7390      2.00000
      5       6.7431      2.00000
      6       6.8256      2.00000
      7       8.4303      2.00000
      8       9.5918      2.00000
      9      10.2089      0.00000
     10      16.4604      0.00000
     11      24.6431      0.00000
     12      27.8366      0.00000
     13      28.8449      0.00000
     14      35.2011      0.00000
     15      35.9313      0.00000
     16      36.7354      0.00000
     17      42.0664      0.00000
     18      43.1727      0.00000
     19      44.7421      0.00000
     20      49.2012      0.00000
     21      50.9993      0.00000
     22      51.8815      0.00000
     23      52.1295      0.00000
     24      53.0054      0.00000

 k-point     6 :      -0.4500    0.0500    0.0500
  band No.  band energies     occupation 
      1     -42.5880      2.00000
      2     -42.3380      2.00000
      3     -42.3351      2.00000
      4       3.7579      2.00000
      5       6.6683      2.00000
      6       6.7813      2.00000
      7       9.0565      2.00000
      8       9.9289      0.68114
      9      10.7210      0.00000
     10      14.9557      0.00000
     11      24.4052      0.00000
     12      27.7973      0.00000
     13      27.8731      0.00000
     14      36.1348      0.00000
     15      36.2997      0.00000
     16      37.7029      0.00000
     17      42.4116      0.00000
     18      43.3349      0.00000
     19      43.7354      0.00000
     20      50.3170      0.00000
     21      50.9676      0.00000
     22      51.0047      0.00000
     23      52.1603      0.00000
     24      53.2179      0.00000

 k-point     7 :      -0.3500    0.0500    0.0500
  band No.  band energies     occupation 
      1     -42.5513      2.00000
      2     -42.3321      2.00000
      3     -42.3299      2.00000
      4       3.6960      2.00000
      5       6.7781      2.00000
      6       6.9049      2.00000
      7       7.8331      2.00000
      8       9.6741      2.00000
      9       9.6902      2.00000
     10      17.5673      0.00000
     11      24.8843      0.00000
     12      28.3715      0.00000
     13      29.1599      0.00000
     14      35.0509      0.00000
     15      35.1678      0.00000
     16      35.9406      0.00000
     17      41.2253      0.00000
     18      44.0907      0.00000
     19      44.8398      0.00000
     20      49.0168      0.00000
     21      50.4946      0.00000
     22      51.0016      0.00000
     23      51.9745      0.00000
     24      53.5381      0.00000

 k-point     8 :      -0.2500    0.0500    0.0500
  band No.  band energies     occupation 
      1     -42.4726      2.00000
      2     -42.3214      2.00000
      3     -42.3160      2.00000
      4       3.1822      2.00000
      5       6.5428      2.00000
      6       7.0185      2.00000
      7       7.0989      2.00000
      8       8.7741      2.00000
      9       9.1083      2.00000
     10      21.2860      0.00000
     11      25.8773      0.00000
     12      29.6321      0.00000
     13      31.2040      0.00000
     14      32.7364      0.00000
     15      33.9515      0.00000
     16      34.4227      0.00000
     17      40.6726      0.00000
     18      44.0645      0.00000
     19      44.0970      0.00000
     20      46.6736      0.00000
     21      48.2384      0.00000
     22      50.9994      0.00000
     23      51.3148      0.00000
     24      56.5199      0.00000

 k-point     9 :      -0.1500    0.0500    0.0500
  band No.  band energies     occupation 
      1     -42.3800      2.00000
      2     -42.3071      2.00000
      3     -42.3015      2.00000
      4       2.0935      2.00000
      5       6.3653      2.00000
      6       7.1052      2.00000
      7       7.1219      2.00000
      8       8.2993      2.00000
      9       8.6796      2.00000
     10      24.7778      0.00000
     11      26.1428      0.00000
     12      29.7387      0.00000
     13      30.8306      0.00000
     14      32.8389      0.00000
     15      34.9017      0.00000
     16      35.9312      0.00000
     17      39.8551      0.00000
     18      40.5858      0.00000
     19      43.9074      0.00000
     20      45.3933      0.00000
     21      47.5813      0.00000
     22      50.3335      0.00000
     23      51.0064      0.00000
     24      56.9477      0.00000

 k-point    10 :      -0.0500    0.0500    0.0500
  band No.  band energies     occupation 
      1     -42.3120      2.00000
      2     -42.2951      2.00000
      3     -42.2931      2.00000
      4       1.2190      2.00000
      5       6.5952      2.00000
      6       6.8990      2.00000
      7       6.9051      2.00000
      8       8.3830      2.00000
      9       8.5975      2.00000
     10      25.2000      0.00000
     11      27.7583      0.00000
     12      29.1431      0.00000
     13      29.4194      0.00000
     14      35.4671      0.00000
     15      37.0825      0.00000
     16      37.1656      0.00000
     17      38.8433      0.00000
     18      39.8170      0.00000
     19      43.3808      0.00000
     20      43.7926      0.00000
     21      47.4101      0.00000
     22      49.3104      0.00000
     23      50.9888      0.00000
     24      55.2342      0.00000

 k-point    11 :       0.1500    0.1500    0.0500
  band No.  band energies     occupation 
      1     -42.3386      2.00000
      2     -42.3055      2.00000
      3     -42.3035      2.00000
      4       1.6823      2.00000
      5       6.3424      2.00000
      6       7.1187      2.00000
      7       7.1240      2.00000
      8       8.1194      2.00000
      9       8.7219      2.00000
     10      25.8016      0.00000
     11      27.0180      0.00000
     12      28.8548      0.00000
     13      29.2876      0.00000
     14      34.8089      0.00000
     15      35.8186      0.00000
     16      36.9108      0.00000
     17      38.3027      0.00000
     18      39.6163      0.00000
     19      45.0120      0.00000
     20      45.3744      0.00000
     21      46.1020      0.00000
     22      49.9457      0.00000
     23      50.9978      0.00000
     24      57.0237      0.00000

 k-point    12 :       0.2500    0.1500    0.0500
  band No.  band energies     occupation 
      1     -42.3946      2.00000
      2     -42.3256      2.00000
      3     -42.3116      2.00000
      4       2.5277      2.00000
      5       6.0480      2.00000
      6       7.2231      2.00000
      7       7.4330      2.00000
      8       8.0319      2.00000
      9       8.9621      2.00000
     10      25.0442      0.00000
     11      26.4460      0.00000
     12      28.3586      0.00000
     13      29.5983      0.00000
     14      32.8002      0.00000
     15      35.0635      0.00000
     16      35.8989      0.00000
     17      39.2230      0.00000
     18      41.4793      0.00000
     19      44.5276      0.00000
     20      45.1876      0.00000
     21      48.1084      0.00000
     22      50.9987      0.00000
     23      51.2693      0.00000
     24      57.0127      0.00000

 k-point    13 :       0.3500    0.1500    0.0500
  band No.  band energies     occupation 
      1     -42.4743      2.00000
      2     -42.3439      2.00000
      3     -42.3251      2.00000
      4       3.6046      2.00000
      5       6.0746      2.00000
      6       6.8756      2.00000
      7       7.4452      2.00000
      8       8.7454      2.00000
      9       9.5758      2.00000
     10      21.5049      0.00000
     11      26.0569      0.00000
     12      27.4913      0.00000
     13      29.7215      0.00000
     14      33.3056      0.00000
     15      34.5129      0.00000
     16      36.3769      0.00000
     17      38.6733      0.00000
     18      44.2747      0.00000
     19      45.1320      0.00000
     20      46.3629      0.00000
     21      48.6190      0.00000
     22      51.0025      0.00000
     23      52.9779      0.00000
     24      55.0463      0.00000

[...]
     13      30.1248      0.00000
     14      34.8047      0.00000
     15      35.5144      0.00000
     16      39.2911      0.00000
     17      41.9559      0.00000
     18      44.0116      0.00000
     19      46.9058      0.00000
     20      48.3610      0.00000
     21      49.6512      0.00000
     22      51.0069      0.00000
     23      53.3193      0.00000
     24      53.8938      0.00000

 k-point   100 :      -0.3500   -0.3500    0.2500
  band No.  band energies     occupation 
      1     -42.5291      2.00000
      2     -42.4639      2.00000
      3     -42.3802      2.00000
      4       4.6967      2.00000
      5       5.3753      2.00000
      6       7.5343      2.00000
      7       8.7873      2.00000
      8       9.7841      1.99977
      9      15.1658      0.00000
     10      15.8785      0.00000
     11      19.3772      0.00000
     12      23.7718      0.00000
     13      28.7123      0.00000
     14      34.9071      0.00000
     15      36.4846      0.00000
     16      37.7298      0.00000
     17      44.1859      0.00000
     18      45.3886      0.00000
     19      45.6920      0.00000
     20      48.2703      0.00000
     21      48.8107      0.00000
     22      51.0066      0.00000
     23      52.3935      0.00000
     24      53.6214      0.00000

 k-point   101 :       0.3500    0.3500    0.3500
  band No.  band energies     occupation 
      1     -42.5298      2.00000
      2     -42.3247      2.00000
      3     -42.3247      2.00000
      4       3.5304      2.00000
      5       6.9014      2.00000
      6       6.9014      2.00000
      7       7.4795      2.00000
      8       9.3346      2.00000
      9       9.3346      2.00000
     10      18.7495      0.00000
     11      25.0929      0.00000
     12      29.6518      0.00000
     13      29.6518      0.00000
     14      34.3249      0.00000
     15      34.6160      0.00000
     16      34.6160      0.00000
     17      42.8068      0.00000
     18      42.8068      0.00000
     19      44.4050      0.00000
     20      49.2727      0.00000
     21      50.1922      0.00000
     22      50.1922      0.00000
     23      50.9958      0.00000
     24      55.7472      0.00000

 k-point   102 :       0.4500    0.3500    0.3500
  band No.  band energies     occupation 
      1     -42.5462      2.00000
      2     -42.3527      2.00000
      3     -42.3278      2.00000
      4       3.9215      2.00000
      5       6.6814      2.00000
      6       7.0239      2.00000
      7       7.4717      2.00000
      8       9.2036      2.00000
      9      10.5423      0.00000
     10      17.6775      0.00000
     11      25.0117      0.00000
     12      26.9275      0.00000
     13      29.6368      0.00000
     14      33.7760      0.00000
     15      35.9313      0.00000
     16      37.3954      0.00000
     17      40.8288      0.00000
     18      42.9644      0.00000
     19      46.3054      0.00000
     20      47.0761      0.00000
     21      51.0021      0.00000
     22      51.6744      0.00000
     23      52.1194      0.00000
     24      53.3532      0.00000

 k-point   103 :      -0.4500    0.3500    0.3500
  band No.  band energies     occupation 
      1     -42.5399      2.00000
      2     -42.4095      2.00000
      3     -42.3421      2.00000
      4       4.7071      2.00000
      5       6.2203      2.00000
      6       6.9699      2.00000
      7       7.5309      2.00000
      8       9.1733      2.00000
      9      12.1950      0.00000
     10      17.1305      0.00000
     11      22.8260      0.00000
     12      26.6322      0.00000
     13      28.1899      0.00000
     14      33.9094      0.00000
     15      36.2391      0.00000
     16      39.5450      0.00000
     17      41.9887      0.00000
     18      43.3749      0.00000
     19      44.8987      0.00000
     20      46.5758      0.00000
     21      50.0417      0.00000
     22      51.0043      0.00000
     23      53.4293      0.00000
     24      54.2243      0.00000

 k-point   104 :      -0.3500    0.3500    0.3500
  band No.  band energies     occupation 
      1     -42.5111      2.00000
      2     -42.4745      2.00000
      3     -42.3624      2.00000
      4       5.0606      2.00000
      5       5.9343      2.00000
      6       6.7655      2.00000
      7       8.2324      2.00000
      8       9.3415      2.00000
      9      13.6403      0.00000
     10      17.4965      0.00000
     11      19.5512      0.00000
     12      25.9338      0.00000
     13      27.7601      0.00000
     14      35.2956      0.00000
     15      36.1676      0.00000
     16      37.8129      0.00000
     17      43.9458      0.00000
     18      44.8212      0.00000
     19      45.3871      0.00000
     20      48.4094      0.00000
     21      48.6712      0.00000
     22      50.2697      0.00000
     23      51.0043      0.00000
     24      55.3507      0.00000

 k-point   105 :       0.4500    0.4500    0.3500
  band No.  band energies     occupation 
      1     -42.5642      2.00000
      2     -42.3454      2.00000
      3     -42.3402      2.00000
      4       3.9411      2.00000
      5       6.5769      2.00000
      6       7.0244      2.00000
      7       7.7453      2.00000
      8       9.9116      1.06068
      9      10.6694      0.00000
     10      16.4817      0.00000
     11      24.9011      0.00000
     12      27.3664      0.00000
     13      27.9374      0.00000
     14      35.4958      0.00000
     15      36.3865      0.00000
     16      37.2458      0.00000
     17      39.8622      0.00000
     18      45.0227      0.00000
     19      45.0967      0.00000
     20      47.8531      0.00000
     21      51.0020      0.00000
     22      51.4129      0.00000
     23      52.0141      0.00000
     24      53.0503      0.00000

 k-point   106 :      -0.4500    0.4500    0.3500
  band No.  band energies     occupation 
      1     -42.5594      2.00000
      2     -42.3869      2.00000
      3     -42.3483      2.00000
      4       4.4583      2.00000
      5       6.2098      2.00000
      6       7.2572      2.00000
      7       7.4603      2.00000
      8       9.7257      2.00000
      9      12.4525      0.00000
     10      15.6819      0.00000
     11      24.5496      0.00000
     12      25.1640      0.00000
     13      28.0273      0.00000
     14      34.9245      0.00000
     15      36.9249      0.00000
     16      39.3272      0.00000
     17      40.1542      0.00000
     18      43.8500      0.00000
     19      45.5797      0.00000
     20      46.9531      0.00000
     21      50.0461      0.00000
     22      51.0061      0.00000
     23      53.2735      0.00000
     24      54.5318      0.00000

 k-point   107 :      -0.3500    0.4500    0.3500
  band No.  band energies     occupation 
      1     -42.5334      2.00000
      2     -42.4425      2.00000
      3     -42.3674      2.00000
      4       5.1347      2.00000
      5       5.7797      2.00000
      6       6.7493      2.00000
      7       8.0466      2.00000
      8       9.6679      2.00000
      9      14.2388      0.00000
     10      15.6515      0.00000
     11      21.5392      0.00000
     12      24.2293      0.00000
     13      28.9871      0.00000
     14      34.4495      0.00000
     15      37.7547      0.00000
     16      38.5521      0.00000
     17      40.8980      0.00000
     18      43.2371      0.00000
     19      47.3149      0.00000
     20      48.3098      0.00000
     21      49.0301      0.00000
     22      51.0078      0.00000
     23      51.7987      0.00000
     24      54.2771      0.00000

 k-point   108 :      -0.4500   -0.4500    0.3500
  band No.  band energies     occupation 
      1     -42.5576      2.00000
      2     -42.4024      2.00000
      3     -42.3547      2.00000
      4       4.5951      2.00000
      5       6.0869      2.00000
      6       7.2299      2.00000
      7       7.5652      2.00000
      8       9.8456      1.94800
      9      13.5766      0.00000
     10      14.7735      0.00000
     11      23.4764      0.00000
     12      26.2301      0.00000
     13      26.7827      0.00000
     14      36.0839      0.00000
     15      36.2749      0.00000
     16      38.5452      0.00000
     17      41.2063      0.00000
     18      44.3995      0.00000
     19      45.3899      0.00000
     20      47.1949      0.00000
     21      49.5765      0.00000
     22      51.0055      0.00000
     23      52.5725      0.00000
     24      55.2231      0.00000

 k-point   109 :       0.4500    0.4500    0.4500
  band No.  band energies     occupation 
      1     -42.5838      2.00000
      2     -42.3323      2.00000
      3     -42.3323      2.00000
      4       3.6818      2.00000
      5       6.7433      2.00000
      6       6.7433      2.00000
      7       9.4023      2.00000
      8       9.8483      1.93816
      9       9.8483      1.93816
     10      15.5279      0.00000
     11      24.3804      0.00000
     12      28.2252      0.00000
     13      28.2252      0.00000
     14      36.0229      0.00000
     15      36.0229      0.00000
     16      36.9861      0.00000
     17      42.9537      0.00000
     18      42.9537      0.00000
     19      43.8573      0.00000
     20      51.0014      0.00000
     21      51.2127      0.00000
     22      51.2127      0.00000
     23      52.0639      0.00000
     24      53.0188      0.00000

 k-point   110 :      -0.4500    0.4500    0.4500
  band No.  band energies     occupation 
      1     -42.5812      2.00000
      2     -42.3542      2.00000
      3     -42.3378      2.00000
      4       3.9650      2.00000
      5       6.5288      2.00000
      6       6.9365      2.00000
      7       8.3791      2.00000
      8       9.8201      1.99232
      9      11.6628      0.00000
     10      14.9286      0.00000
     11      24.6355      0.00000
     12      26.8020      0.00000
     13      27.8025      0.00000
     14      35.9539      0.00000
     15      36.2193      0.00000
     16      38.4512      0.00000
     17      42.4597      0.00000
     18      43.1669      0.00000
     19      43.7194      0.00000
     20      49.1688      0.00000
     21      49.7652      0.00000
     22      51.0048      0.00000
     23      53.0717      0.00000
     24      53.8025      0.00000


--------------------------------------------------------------------------------------------------------


 soft charge-density along one line, spin component           1
         0         1         2         3         4         5         6         7         8         9
 total charge-density along one line
 
 pseudopotential strength for first ion, spin component:           1
-32.037  -0.000  -0.000  11.091   0.000   0.000  -0.000  -0.000
 -0.000 -32.037  -0.000   0.000  11.091   0.000  -0.000  -0.000
 -0.000  -0.000 -32.037   0.000   0.000  11.091  -0.000  -0.000
 11.091   0.000   0.000  16.106  -0.000  -0.000  -0.000   0.000
  0.000  11.091   0.000  -0.000  16.106  -0.000   0.000   0.000
  0.000   0.000  11.091  -0.000  -0.000  16.106   0.000   0.000
 -0.000  -0.000  -0.000  -0.000   0.000   0.000  -3.953   0.000
 -0.000  -0.000  -0.000   0.000   0.000   0.000   0.000  -3.953
  0.000  -0.000   0.000  -0.000   0.000   0.000   0.000  -0.000
 -0.000  -0.000  -0.000   0.000   0.000   0.000   0.000   0.000
  0.000   0.000   0.000  -0.000  -0.000  -0.000  -0.000   0.000
 -0.000  -0.000  -0.000  -0.000   0.000   0.000  -4.212   0.000
 -0.000  -0.000   0.000   0.000   0.000   0.000   0.000  -4.212
  0.000  -0.000  -0.000  -0.000   0.000   0.000   0.000  -0.000
  0.000  -0.000  -0.000   0.000   0.000   0.000   0.000   0.000
  0.000   0.000   0.000   0.000  -0.000  -0.000  -0.000   0.000
  0.000   0.000   0.000   0.000   0.000   0.000   0.000   0.000
 -0.000   0.000   0.000  -0.000   0.000  -0.000  -0.000  -0.000
 total augmentation occupancy for first ion, spin component:           1
  2.002   0.000  -0.000  -0.019   0.000   0.000   0.000   0.000   0.000   0.000   0.000   0.000   0.000   0.000   0.000   0.000
  0.000   2.002   0.000   0.000  -0.019  -0.000   0.000   0.000   0.000   0.000   0.000   0.000   0.000   0.000   0.000   0.000
  0.000  -0.000   2.002   0.000  -0.000  -0.019   0.000   0.000   0.000   0.000   0.000   0.000   0.000   0.000   0.000   0.000
 -0.019   0.000   0.000   0.040   0.000   0.000   0.000   0.000   0.000   0.000   0.000   0.000   0.000   0.000   0.000   0.000
  0.000  -0.019  -0.000  -0.000   0.040   0.000   0.000   0.000   0.000   0.000   0.000   0.000   0.000   0.000   0.000   0.000
 -0.000  -0.000  -0.019   0.000  -0.000   0.040   0.000   0.000   0.000   0.000   0.000   0.000   0.000   0.000   0.000   0.000
  0.000   0.000   0.000   0.000   0.000   0.000   4.255   0.000  -0.000  -0.000   0.000  -2.159   0.000   0.000   0.000  -0.000
  0.000   0.000   0.000   0.000   0.000   0.000   0.000   4.255   0.000  -0.000  -0.000  -0.000  -2.159  -0.000   0.000   0.000
  0.000   0.000   0.000   0.000   0.000   0.000  -0.000   0.000   3.506   0.000   0.000   0.000  -0.000  -1.667   0.000  -0.000
  0.000   0.000   0.000   0.000   0.000   0.000  -0.000  -0.000  -0.000   4.255   0.000   0.000   0.000  -0.000  -2.159   0.000
  0.000   0.000   0.000   0.000   0.000   0.000   0.000  -0.000   0.000  -0.000   3.506  -0.000   0.000  -0.000   0.000  -1.667
  0.000   0.000   0.000   0.000   0.000   0.000  -2.159   0.000   0.000   0.000   0.000   1.769  -0.000  -0.000  -0.000  -0.000
  0.000   0.000   0.000   0.000   0.000   0.000   0.000  -2.159  -0.000   0.000   0.000   0.000   1.769  -0.000  -0.000   0.000
  0.000   0.000   0.000   0.000   0.000   0.000   0.000  -0.000  -1.667   0.000  -0.000   0.000  -0.000   1.659   0.000   0.000
  0.000   0.000   0.000   0.000   0.000   0.000   0.000   0.000  -0.000  -2.159   0.000  -0.000  -0.000  -0.000   1.769   0.000
  0.000   0.000   0.000   0.000   0.000   0.000  -0.000   0.000  -0.000   0.000  -1.667  -0.000   0.000   0.000  -0.000   1.659
  0.000   0.000   0.000   0.000   0.000   0.000   0.000  -0.000  -0.000  -0.000  -0.000  -0.000  -0.000   0.000   0.000  -0.000
  0.000   0.000   0.000   0.000   0.000   0.000   0.000  -0.000  -0.000  -0.000   0.000   0.000   0.000   0.000  -0.000  -0.000


------------------------ aborting loop because EDIFF is reached ----------------------------------------





 total charge

# of ion       s       p       d       tot
------------------------------------------
    1        0.319   6.058   7.051  13.427
 
    CHARGE:  cpu time      0.0174: real time      0.0175
    FORLOC:  cpu time      0.0001: real time      0.0001
    FORNL :  cpu time      0.0067: real time      0.0068
    STRESS:  cpu time      0.1304: real time      0.1309
    FORCOR:  cpu time      0.0019: real time      0.0019
    FORHAR:  cpu time      0.0004: real time      0.0004
    MIXING:  cpu time      0.0002: real time      0.0002
    OFIELD:  cpu time      0.0000: real time      0.0000

  FORCE on cell =-STRESS in cart. coord.  units (eV):
  Direction    XX          YY          ZZ          XY          YZ          ZX
  --------------------------------------------------------------------------------------
  Alpha Z   141.67999   141.67999   141.67999
  Ewald    -691.02106  -691.02106  -691.02106     0.00000     0.00000    -0.00000
  Hartree   137.43115   137.43115   137.43115     0.00000     0.00000     0.00000
  E(xc)     -85.14706   -85.14706   -85.14706     0.00000     0.00000     0.00000
  Local     105.57767   105.57767   105.57767    -0.00001    -0.00001    -0.00001
  n-local   -31.90757   -29.56289   -34.66272     3.16855    -2.94913     0.16967
  augment    73.34366    73.34366    73.34366     0.00002     0.00002     0.00002
  Kinetic   347.60610   352.23262   344.96583     4.13018    -3.37437    -0.49172
  Fock        0.00000     0.00000     0.00000     0.00000     0.00000     0.00000
  -------------------------------------------------------------------------------------
  Total      -1.91186    -1.91186    -1.91186     0.00000     0.00000     0.00000
  in kB    -180.87885  -180.87885  -180.87885     0.00000     0.00000     0.00000
  external pressure =     -180.88 kB  Pullay stress =        0.00 kB


 VOLUME and BASIS-vectors are now :
 -----------------------------------------------------------------------------
  energy-cutoff  :      425.00
  volume of cell :       16.93
      direct lattice vectors                 reciprocal lattice vectors
     0.000000000  2.038214088  2.038214088    -0.245312798  0.245312798  0.245312798
     2.038214088  0.000000000  2.038214088     0.245312798 -0.245312798  0.245312798
     2.038214088  2.038214088  0.000000000     0.245312798  0.245312798 -0.245312798

  length of vectors
     2.882470007  2.882470007  2.882470007     0.424894229  0.424894229  0.424894229


 FORCES acting on ions
    electron-ion (+dipol)            ewald-force                    non-local-force                 convergence-correction
 -----------------------------------------------------------------------------------------------
   -.586E-14 -.625E-14 -.294E-15   0.244E-14 0.177E-14 -.232E-15   0.000E+00 0.000E+00 0.000E+00   -.710E-14 -.980E-13 -.420E-13
 -----------------------------------------------------------------------------------------------
   -.586E-14 -.625E-14 -.294E-15   0.244E-14 0.177E-14 -.232E-15   0.000E+00 0.000E+00 0.000E+00   -.710E-14 -.980E-13 -.420E-13
 
 
 POSITION                                       TOTAL-FORCE (eV/Angst)
 -----------------------------------------------------------------------------------
      0.00000      0.00000      0.00000        -0.000000      0.000000      0.000000
 -----------------------------------------------------------------------------------
    total drift:                               -0.000000     -0.000000     -0.000000


--------------------------------------------------------------------------------------------------------



  FREE ENERGIE OF THE ION-ELECTRON SYSTEM (eV)
  ---------------------------------------------------
  free  energy   TOTEN  =        -6.01448130 eV

  energy  without entropy=       -6.01148458  energy(sigma->0) =       -6.01298294
 


--------------------------------------------------------------------------------------------------------


    POTLOK:  cpu time      0.0043: real time      0.0044


--------------------------------------------------------------------------------------------------------




--------------------------------------------------------------------------------------------------------


  
 reached required accuracy - stopping structural energy minimisation
 writing wavefunctions
     LOOP+:  cpu time      7.6527: real time      7.7145
    4ORBIT:  cpu time      0.0000: real time      0.0000



 total charge

# of ion       s       p       d       tot
------------------------------------------
    1        0.319   6.058   7.051  13.427
 

 total amount of memory used by VASP MPI-rank0    37030. kBytes
=======================================================================

   base      :      30000. kBytes
   nonl-proj :       5708. kBytes
   fftplans  :        147. kBytes
   grid      :        485. kBytes
   one-center:         15. kBytes
   wavefun   :        675. kBytes
 
  
  
 General timing and accounting informations for this job:
 ========================================================
  
                  Total CPU time used (sec):        8.809
                            User time (sec):        8.293
                          System time (sec):        0.516
                         Elapsed time (sec):       10.381
  
                   Maximum memory used (kb):      225424.
                   Average memory used (kb):          N/A
  
                          Minor page faults:        26809
                          Major page faults:           49
                 Voluntary context switches:         2103
