PROCAR lm decomposed
# of k-points:  110         # of bands:   24         # of ions:    1

 k-point     1 :    0.05000000 0.05000000 0.05000000     weight = 0.00200000

band     1 # energy  -41.45150116 # occ.  2.00000000
 
ion      s     py     pz     px    dxy    dyz    dz2    dxz  x2-y2    tot
    1  0.000  0.332  0.332  0.332  0.000  0.000  0.000  0.000  0.000  0.996
 
band     2 # energy  -41.44348935 # occ.  2.00000000
 
ion      s     py     pz     px    dxy    dyz    dz2    dxz  x2-y2    tot
    1  0.000  0.030  0.506  0.459  0.000  0.000  0.000  0.000  0.000  0.996
 
band     3 # energy  -41.44348935 # occ.  2.00000000
 
ion      s     py     pz     px    dxy    dyz    dz2    dxz  x2-y2    tot
    1  0.000  0.633  0.158  0.205  0.000  0.000  0.000  0.000  0.000  0.996
 
band     4 # energy    1.41299827 # occ.  2.00000000
 
ion      s     py     pz     px    dxy    dyz    dz2    dxz  x2-y2    tot
    1  0.378  0.000  0.000  0.000  0.000  0.000  0.000  0.000  0.000  0.379
 
band     5 # energy    7.42541558 # occ.  2.00000000
 
ion      s     py     pz     px    dxy    dyz    dz2    dxz  x2-y2    tot
    1  0.000  0.000  0.000  0.000  0.279  0.279  0.000  0.279  0.000  0.837
 
band     6 # energy    7.50359405 # occ.  2.00000000
 
ion      s     py     pz     px    dxy    dyz    dz2    dxz  x2-y2    tot
    1  0.000  0.000  0.000  0.000  0.561  0.139  0.000  0.142  0.000  0.842
 
band     7 # energy    7.50359405 # occ.  2.00000000
 
ion      s     py     pz     px    dxy    dyz    dz2    dxz  x2-y2    tot
    1  0.000  0.000  0.000  0.000  0.000  0.422  0.000  0.419  0.000  0.842
 
band     8 # energy    9.41007573 # occ.  2.00000000
 
ion      s     py     pz     px    dxy    dyz    dz2    dxz  x2-y2    tot
    1  0.000  0.000  0.000  0.000  0.000  0.000  0.906  0.000  0.000  0.906
 
band     9 # energy    9.41007573 # occ.  2.00000000
 
ion      s     py     pz     px    dxy    dyz    dz2    dxz  x2-y2    tot
    1  0.000  0.000  0.000  0.000  0.000  0.000  0.000  0.000  0.906  0.906
 
band    10 # energy   25.80375120 # occ.  0.00000000
 
ion      s     py     pz     px    dxy    dyz    dz2    dxz  x2-y2    tot
    1  0.000  0.000  0.000  0.000  0.002  0.002  0.000  0.002  0.000  0.007
 
band    11 # energy   29.74361674 # occ.  0.00000000
 
ion      s     py     pz     px    dxy    dyz    dz2    dxz  x2-y2    tot
    1  0.010  0.023  0.023  0.023  0.002  0.002  0.000  0.002  0.000  0.084
 
band    12 # energy   30.43241560 # occ.  0.00000000
 
ion      s     py     pz     px    dxy    dyz    dz2    dxz  x2-y2    tot
    1  0.000  0.013  0.050  0.012  0.001  0.000  0.003  0.000  0.000  0.080
 
band    13 # energy   30.43241560 # occ.  0.00000000
 
ion      s     py     pz     px    dxy    dyz    dz2    dxz  x2-y2    tot
    1  0.000  0.037  0.000  0.038  0.000  0.001  0.000  0.001  0.003  0.080
 
band    14 # energy   36.01786239 # occ.  0.00000000
 
ion      s     py     pz     px    dxy    dyz    dz2    dxz  x2-y2    tot
    1  0.048  0.006  0.006  0.006  0.001  0.001  0.000  0.001  0.000  0.068
 
band    15 # energy   40.25750554 # occ.  0.00000000
 
ion      s     py     pz     px    dxy    dyz    dz2    dxz  x2-y2    tot
    1  0.009  0.053  0.053  0.053  0.095  0.095  0.000  0.095  0.000  0.452
 
band    16 # energy   40.97818196 # occ.  0.00000000
 
ion      s     py     pz     px    dxy    dyz    dz2    dxz  x2-y2    tot
    1  0.000  0.018  0.060  0.012  0.246  0.050  0.002  0.074  0.000  0.463
 
band    17 # energy   40.97818196 # occ.  0.00000000
 
ion      s     py     pz     px    dxy    dyz    dz2    dxz  x2-y2    tot
    1  0.000  0.042  0.000  0.048  0.001  0.197  0.000  0.173  0.002  0.463
 
band    18 # energy   43.92539191 # occ.  0.00000000
 
ion      s     py     pz     px    dxy    dyz    dz2    dxz  x2-y2    tot
    1  0.000  0.097  0.336  0.072  0.059  0.012  0.014  0.017  0.000  0.607
 
band    19 # energy   43.92539191 # occ.  0.00000000
 
ion      s     py     pz     px    dxy    dyz    dz2    dxz  x2-y2    tot
    1  0.000  0.239  0.001  0.265  0.000  0.046  0.000  0.042  0.014  0.607
 
band    20 # energy   44.81962641 # occ.  0.00000000
 
ion      s     py     pz     px    dxy    dyz    dz2    dxz  x2-y2    tot
    1  0.026  0.136  0.136  0.136  0.059  0.059  0.000  0.059  0.000  0.612
 
band    21 # energy   50.76872822 # occ.  0.00000000
 
ion      s     py     pz     px    dxy    dyz    dz2    dxz  x2-y2    tot
    1  0.000  0.006  0.015  0.002  0.000  0.000  0.423  0.000  0.009  0.455
 
band    22 # energy   50.76872822 # occ.  0.00000000
 
ion      s     py     pz     px    dxy    dyz    dz2    dxz  x2-y2    tot
    1  0.000  0.009  0.000  0.013  0.000  0.000  0.009  0.000  0.423  0.455
 
band    23 # energy   51.78312564 # occ.  0.00000000
 
ion      s     py     pz     px    dxy    dyz    dz2    dxz  x2-y2    tot
    1  6.294  0.000  0.000  0.000  0.000  0.000  0.000  0.000  0.000  6.294
 
band    24 # energy   57.20160106 # occ.  0.00000000
 
ion      s     py     pz     px    dxy    dyz    dz2    dxz  x2-y2    tot
    1  0.451  0.015  0.015  0.015  0.000  0.000  0.000  0.000  0.000  0.497
 

 k-point     2 :    0.15000000 0.05000000 0.05000000     weight = 0.00600000

band     1 # energy  -41.49428523 # occ.  2.00000000
 
ion      s     py     pz     px    dxy    dyz    dz2    dxz  x2-y2    tot
    1  0.000  0.455  0.455  0.083  0.000  0.000  0.000  0.000  0.000  0.994
 
band     2 # energy  -41.45631260 # occ.  2.00000000
 
ion      s     py     pz     px    dxy    dyz    dz2    dxz  x2-y2    tot
    1  0.000  0.042  0.042  0.912  0.000  0.000  0.000  0.000  0.000  0.995
 
band     3 # energy  -41.44689503 # occ.  2.00000000
 
ion      s     py     pz     px    dxy    dyz    dz2    dxz  x2-y2    tot
    1  0.000  0.498  0.498  0.000  0.000  0.000  0.000  0.000  0.000  0.996
 
band     4 # energy    1.90744491 # occ.  2.00000000
 
ion      s     py     pz     px    dxy    dyz    dz2    dxz  x2-y2    tot
    1  0.367  0.003  0.003  0.000  0.000  0.002  0.000  0.000  0.000  0.377
 
band     5 # energy    7.21709511 # occ.  2.00000000
 
ion      s     py     pz     px    dxy    dyz    dz2    dxz  x2-y2    tot
    1  0.000  0.000  0.000  0.002  0.393  0.028  0.000  0.393  0.000  0.817
 
band     6 # energy    7.67075832 # occ.  2.00000000
 
ion      s     py     pz     px    dxy    dyz    dz2    dxz  x2-y2    tot
    1  0.000  0.000  0.000  0.000  0.421  0.000  0.003  0.421  0.001  0.846
 
band     7 # energy    7.70688766 # occ.  2.00000000
 
ion      s     py     pz     px    dxy    dyz    dz2    dxz  x2-y2    tot
    1  0.000  0.001  0.001  0.000  0.015  0.786  0.006  0.015  0.018  0.841
 
band     8 # energy    9.20914262 # occ.  2.00000000
 
ion      s     py     pz     px    dxy    dyz    dz2    dxz  x2-y2    tot
    1  0.000  0.000  0.000  0.000  0.002  0.000  0.666  0.002  0.222  0.893
 
band     9 # energy    9.46468518 # occ.  2.00000000
 
ion      s     py     pz     px    dxy    dyz    dz2    dxz  x2-y2    tot
    1  0.000  0.000  0.000  0.000  0.001  0.024  0.220  0.001  0.659  0.904
 
band    10 # energy   26.47325287 # occ.  0.00000000
 
ion      s     py     pz     px    dxy    dyz    dz2    dxz  x2-y2    tot
    1  0.000  0.000  0.000  0.002  0.022  0.003  0.000  0.022  0.000  0.048
 
band    11 # energy   28.03360067 # occ.  0.00000000
 
ion      s     py     pz     px    dxy    dyz    dz2    dxz  x2-y2    tot
    1  0.035  0.028  0.028  0.008  0.003  0.018  0.001  0.003  0.004  0.127
 
band    12 # energy   30.47214340 # occ.  0.00000000
 
ion      s     py     pz     px    dxy    dyz    dz2    dxz  x2-y2    tot
    1  0.000  0.003  0.003  0.096  0.012  0.003  0.001  0.012  0.003  0.133
 
band    13 # energy   31.48740745 # occ.  0.00000000
 
ion      s     py     pz     px    dxy    dyz    dz2    dxz  x2-y2    tot
    1  0.000  0.036  0.036  0.000  0.001  0.000  0.020  0.001  0.007  0.100
 
band    14 # energy   36.21909311 # occ.  0.00000000
 
ion      s     py     pz     px    dxy    dyz    dz2    dxz  x2-y2    tot
    1  0.005  0.101  0.101  0.008  0.005  0.108  0.001  0.005  0.002  0.333
 
band    15 # energy   38.57023319 # occ.  0.00000000
 
ion      s     py     pz     px    dxy    dyz    dz2    dxz  x2-y2    tot
    1  0.004  0.004  0.004  0.148  0.071  0.033  0.002  0.071  0.006  0.344
 
band    16 # energy   39.22892441 # occ.  0.00000000
 
ion      s     py     pz     px    dxy    dyz    dz2    dxz  x2-y2    tot
    1  0.065  0.003  0.003  0.018  0.013  0.010  0.001  0.013  0.003  0.127
 
band    17 # energy   40.08487952 # occ.  0.00000000
 
ion      s     py     pz     px    dxy    dyz    dz2    dxz  x2-y2    tot
    1  0.000  0.085  0.085  0.000  0.125  0.000  0.017  0.125  0.006  0.444
 
band    18 # energy   42.38915804 # occ.  0.00000000
 
ion      s     py     pz     px    dxy    dyz    dz2    dxz  x2-y2    tot
    1  0.000  0.168  0.168  0.000  0.082  0.000  0.038  0.082  0.013  0.550
 
band    19 # energy   45.32997695 # occ.  0.00000000
 
ion      s     py     pz     px    dxy    dyz    dz2    dxz  x2-y2    tot
    1  0.074  0.107  0.107  0.028  0.000  0.249  0.006  0.000  0.017  0.586
 
band    20 # energy   47.49351728 # occ.  0.00000000
 
ion      s     py     pz     px    dxy    dyz    dz2    dxz  x2-y2    tot
    1  0.032  0.003  0.003  0.320  0.124  0.003  0.005  0.124  0.016  0.631
 
band    21 # energy   49.71901613 # occ.  0.00000000
 
ion      s     py     pz     px    dxy    dyz    dz2    dxz  x2-y2    tot
    1  0.007  0.006  0.006  0.051  0.003  0.008  0.068  0.003  0.204  0.357
 
band    22 # energy   51.79785855 # occ.  0.00000000
 
ion      s     py     pz     px    dxy    dyz    dz2    dxz  x2-y2    tot
    1  6.291  0.000  0.000  0.000  0.000  0.000  0.000  0.000  0.000  6.291
 
band    23 # energy   51.93693720 # occ.  0.00000000
 
ion      s     py     pz     px    dxy    dyz    dz2    dxz  x2-y2    tot
    1  0.000  0.053  0.053  0.000  0.001  0.000  0.231  0.001  0.077  0.414
 
band    24 # energy   58.92228533 # occ.  0.00000000
 
ion      s     py     pz     px    dxy    dyz    dz2    dxz  x2-y2    tot
    1  0.000  0.000  0.000  0.000  0.005  0.000  0.029  0.005  0.010  0.048
 

 k-point     3 :    0.25000000 0.05000000 0.05000000     weight = 0.00600000

band     1 # energy  -41.59296418 # occ.  2.00000000
 
ion      s     py     pz     px    dxy    dyz    dz2    dxz  x2-y2    tot
    1  0.000  0.389  0.389  0.212  0.000  0.000  0.000  0.000  0.000  0.991
 
band     2 # energy  -41.47342014 # occ.  2.00000000
 
ion      s     py     pz     px    dxy    dyz    dz2    dxz  x2-y2    tot
    1  0.000  0.106  0.106  0.782  0.000  0.000  0.000  0.000  0.000  0.995
 
band     3 # energy  -41.45959816 # occ.  2.00000000
 
ion      s     py     pz     px    dxy    dyz    dz2    dxz  x2-y2    tot
    1  0.000  0.498  0.498  0.000  0.000  0.000  0.000  0.000  0.000  0.995
 
band     4 # energy    2.97458452 # occ.  2.00000000
 
ion      s     py     pz     px    dxy    dyz    dz2    dxz  x2-y2    tot
    1  0.330  0.008  0.008  0.002  0.011  0.020  0.000  0.011  0.001  0.391
 
band     5 # energy    7.01444488 # occ.  2.00000000
 
ion      s     py     pz     px    dxy    dyz    dz2    dxz  x2-y2    tot
    1  0.009  0.003  0.003  0.006  0.337  0.064  0.000  0.337  0.000  0.758
 
band     6 # energy    7.84690150 # occ.  2.00000000
 
ion      s     py     pz     px    dxy    dyz    dz2    dxz  x2-y2    tot
    1  0.001  0.001  0.001  0.000  0.034  0.572  0.049  0.034  0.146  0.837
 
band     7 # energy    7.88269735 # occ.  2.00000000
 
ion      s     py     pz     px    dxy    dyz    dz2    dxz  x2-y2    tot
    1  0.000  0.000  0.000  0.000  0.346  0.000  0.117  0.346  0.039  0.848
 
band     8 # energy    9.19932473 # occ.  2.00000000
 
ion      s     py     pz     px    dxy    dyz    dz2    dxz  x2-y2    tot
    1  0.000  0.000  0.000  0.000  0.082  0.000  0.539  0.082  0.180  0.883
 
band     9 # energy    9.71063093 # occ.  2.00000000
 
ion      s     py     pz     px    dxy    dyz    dz2    dxz  x2-y2    tot
    1  0.002  0.001  0.001  0.000  0.011  0.180  0.174  0.011  0.521  0.900
 
band    10 # energy   25.02582245 # occ.  0.00000000
 
ion      s     py     pz     px    dxy    dyz    dz2    dxz  x2-y2    tot
    1  0.086  0.032  0.032  0.029  0.032  0.045  0.001  0.032  0.003  0.292
 
band    11 # energy   27.31250890 # occ.  0.00000000
 
ion      s     py     pz     px    dxy    dyz    dz2    dxz  x2-y2    tot
    1  0.000  0.001  0.001  0.008  0.041  0.008  0.000  0.041  0.001  0.100
 
band    12 # energy   31.35788446 # occ.  0.00000000
 
ion      s     py     pz     px    dxy    dyz    dz2    dxz  x2-y2    tot
    1  0.002  0.018  0.018  0.127  0.016  0.032  0.005  0.016  0.014  0.248
 
band    13 # energy   33.24996545 # occ.  0.00000000
 
ion      s     py     pz     px    dxy    dyz    dz2    dxz  x2-y2    tot
    1  0.034  0.071  0.071  0.004  0.000  0.030  0.003  0.000  0.008  0.222
 
band    14 # energy   33.40835270 # occ.  0.00000000
 
ion      s     py     pz     px    dxy    dyz    dz2    dxz  x2-y2    tot
    1  0.000  0.042  0.042  0.000  0.011  0.000  0.048  0.011  0.016  0.170
 
band    15 # energy   36.36314141 # occ.  0.00000000
 
ion      s     py     pz     px    dxy    dyz    dz2    dxz  x2-y2    tot
    1  0.000  0.102  0.102  0.000  0.049  0.000  0.038  0.049  0.013  0.354
 
band    16 # energy   36.56228975 # occ.  0.00000000
 
ion      s     py     pz     px    dxy    dyz    dz2    dxz  x2-y2    tot
    1  0.003  0.000  0.000  0.102  0.018  0.011  0.008  0.018  0.024  0.185
 
band    17 # energy   42.87585653 # occ.  0.00000000
 
ion      s     py     pz     px    dxy    dyz    dz2    dxz  x2-y2    tot
    1  0.000  0.114  0.114  0.000  0.113  0.000  0.041  0.113  0.014  0.508
 
band    18 # energy   43.02871097 # occ.  0.00000000
 
ion      s     py     pz     px    dxy    dyz    dz2    dxz  x2-y2    tot
    1  0.095  0.000  0.000  0.000  0.000  0.015  0.003  0.000  0.008  0.121
 
band    19 # energy   46.02000737 # occ.  0.00000000
 
ion      s     py     pz     px    dxy    dyz    dz2    dxz  x2-y2    tot
    1  0.046  0.059  0.059  0.083  0.002  0.225  0.012  0.002  0.037  0.524
 
band    20 # energy   48.13259134 # occ.  0.00000000
 
ion      s     py     pz     px    dxy    dyz    dz2    dxz  x2-y2    tot
    1  0.106  0.004  0.004  0.030  0.102  0.001  0.025  0.102  0.074  0.449
 
band    21 # energy   50.72452314 # occ.  0.00000000
 
ion      s     py     pz     px    dxy    dyz    dz2    dxz  x2-y2    tot
    1  0.019  0.012  0.012  0.211  0.042  0.033  0.014  0.042  0.042  0.426
 
band    22 # energy   51.80534455 # occ.  0.00000000
 
ion      s     py     pz     px    dxy    dyz    dz2    dxz  x2-y2    tot
    1  6.282  0.000  0.000  0.000  0.000  0.000  0.000  0.000  0.000  6.282
 
band    23 # energy   52.65022360 # occ.  0.00000000
 
ion      s     py     pz     px    dxy    dyz    dz2    dxz  x2-y2    tot
    1  0.000  0.075  0.075  0.000  0.006  0.000  0.122  0.006  0.041  0.325
 
band    24 # energy   59.21407784 # occ.  0.00000000
 
ion      s     py     pz     px    dxy    dyz    dz2    dxz  x2-y2    tot
    1  0.000  0.000  0.000  0.000  0.001  0.000  0.039  0.001  0.013  0.054
 

 k-point     4 :    0.35000000 0.05000000 0.05000000     weight = 0.00600000

band     1 # energy  -41.70555138 # occ.  2.00000000
 
ion      s     py     pz     px    dxy    dyz    dz2    dxz  x2-y2    tot
    1  0.000  0.359  0.359  0.268  0.000  0.000  0.000  0.000  0.000  0.987
 
band     2 # energy  -41.49091412 # occ.  2.00000000
 
ion      s     py     pz     px    dxy    dyz    dz2    dxz  x2-y2    tot
    1  0.000  0.135  0.135  0.725  0.000  0.000  0.000  0.000  0.000  0.994
 
band     3 # energy  -41.47641182 # occ.  2.00000000
 
ion      s     py     pz     px    dxy    dyz    dz2    dxz  x2-y2    tot
    1  0.000  0.497  0.497  0.000  0.000  0.000  0.000  0.000  0.000  0.995
 
band     4 # energy    3.95709621 # occ.  2.00000000
 
ion      s     py     pz     px    dxy    dyz    dz2    dxz  x2-y2    tot
    1  0.234  0.006  0.006  0.002  0.078  0.090  0.000  0.078  0.001  0.495
 
band     5 # energy    7.53728469 # occ.  2.00000000
 
ion      s     py     pz     px    dxy    dyz    dz2    dxz  x2-y2    tot
    1  0.040  0.009  0.009  0.015  0.269  0.010  0.011  0.269  0.034  0.665
 
band     6 # energy    7.71274321 # occ.  2.00000000
 
ion      s     py     pz     px    dxy    dyz    dz2    dxz  x2-y2    tot
    1  0.014  0.007  0.007  0.003  0.001  0.367  0.089  0.001  0.267  0.755
 
band     7 # energy    7.73955126 # occ.  2.00000000
 
ion      s     py     pz     px    dxy    dyz    dz2    dxz  x2-y2    tot
    1  0.000  0.000  0.000  0.000  0.216  0.000  0.305  0.216  0.102  0.839
 
band     8 # energy    9.80404249 # occ.  2.00000000
 
ion      s     py     pz     px    dxy    dyz    dz2    dxz  x2-y2    tot
    1  0.000  0.000  0.000  0.000  0.220  0.000  0.344  0.220  0.115  0.899
 
band     9 # energy   10.39357905 # occ.  2.00000000
 
ion      s     py     pz     px    dxy    dyz    dz2    dxz  x2-y2    tot
    1  0.007  0.002  0.002  0.000  0.026  0.364  0.119  0.026  0.357  0.904
 
band    10 # energy   21.44688718 # occ.  0.00000000
 
ion      s     py     pz     px    dxy    dyz    dz2    dxz  x2-y2    tot
    1  0.171  0.032  0.032  0.034  0.065  0.069  0.001  0.065  0.002  0.472
 
band    11 # energy   26.57649243 # occ.  0.00000000
 
ion      s     py     pz     px    dxy    dyz    dz2    dxz  x2-y2    tot
    1  0.002  0.004  0.004  0.011  0.025  0.004  0.001  0.025  0.003  0.079
 
band    12 # energy   30.62952184 # occ.  0.00000000
 
ion      s     py     pz     px    dxy    dyz    dz2    dxz  x2-y2    tot
    1  0.010  0.048  0.048  0.136  0.026  0.031  0.000  0.026  0.001  0.326
 
band    13 # energy   32.80847872 # occ.  0.00000000
 
ion      s     py     pz     px    dxy    dyz    dz2    dxz  x2-y2    tot
    1  0.000  0.121  0.121  0.000  0.029  0.000  0.013  0.029  0.004  0.317
 
band    14 # energy   34.24112982 # occ.  0.00000000
 
ion      s     py     pz     px    dxy    dyz    dz2    dxz  x2-y2    tot
    1  0.019  0.007  0.007  0.036  0.002  0.018  0.013  0.002  0.040  0.142
 
band    15 # energy   35.89532507 # occ.  0.00000000
 
ion      s     py     pz     px    dxy    dyz    dz2    dxz  x2-y2    tot
    1  0.000  0.009  0.009  0.000  0.016  0.000  0.127  0.016  0.042  0.219
 
band    16 # energy   36.58913094 # occ.  0.00000000
 
ion      s     py     pz     px    dxy    dyz    dz2    dxz  x2-y2    tot
    1  0.023  0.005  0.005  0.024  0.004  0.000  0.017  0.004  0.052  0.135
 
band    17 # energy   43.37075121 # occ.  0.00000000
 
ion      s     py     pz     px    dxy    dyz    dz2    dxz  x2-y2    tot
    1  0.000  0.119  0.119  0.000  0.086  0.000  0.030  0.086  0.010  0.450
 
band    18 # energy   45.43166084 # occ.  0.00000000
 
ion      s     py     pz     px    dxy    dyz    dz2    dxz  x2-y2    tot
    1  0.144  0.013  0.013  0.074  0.000  0.177  0.014  0.000  0.042  0.477
 
band    19 # energy   47.64825519 # occ.  0.00000000
 
ion      s     py     pz     px    dxy    dyz    dz2    dxz  x2-y2    tot
    1  0.085  0.029  0.029  0.055  0.071  0.007  0.013  0.071  0.038  0.396
 
band    20 # energy   49.13871097 # occ.  0.00000000
 
ion      s     py     pz     px    dxy    dyz    dz2    dxz  x2-y2    tot
    1  0.016  0.019  0.019  0.021  0.028  0.002  0.006  0.028  0.017  0.155
 
band    21 # energy   51.58984863 # occ.  0.00000000
 
ion      s     py     pz     px    dxy    dyz    dz2    dxz  x2-y2    tot
    1  0.030  0.021  0.021  0.112  0.017  0.069  0.003  0.017  0.008  0.297
 
band    22 # energy   51.81326008 # occ.  0.00000000
 
ion      s     py     pz     px    dxy    dyz    dz2    dxz  x2-y2    tot
    1  6.265  0.000  0.000  0.000  0.000  0.000  0.000  0.000  0.000  6.266
 
band    23 # energy   53.38364228 # occ.  0.00000000
 
ion      s     py     pz     px    dxy    dyz    dz2    dxz  x2-y2    tot
    1  0.000  0.081  0.081  0.000  0.014  0.000  0.057  0.014  0.019  0.265
 
band    24 # energy   58.13950324 # occ.  0.00000000
 
ion      s     py     pz     px    dxy    dyz    dz2    dxz  x2-y2    tot
    1  0.000  0.002  0.002  0.000  0.044  0.000  0.067  0.044  0.022  0.182
 

 k-point     5 :    0.45000000 0.05000000 0.05000000     weight = 0.00600000

band     1 # energy  -41.78958486 # occ.  2.00000000
 
ion      s     py     pz     px    dxy    dyz    dz2    dxz  x2-y2    tot
    1  0.000  0.340  0.340  0.304  0.000  0.000  0.000  0.000  0.000  0.984
 
band     2 # energy  -41.50206359 # occ.  2.00000000
 
ion      s     py     pz     px    dxy    dyz    dz2    dxz  x2-y2    tot
    1  0.000  0.154  0.154  0.687  0.000  0.000  0.000  0.000  0.000  0.994
 
band     3 # energy  -41.49188450 # occ.  2.00000000
 
ion      s     py     pz     px    dxy    dyz    dz2    dxz  x2-y2    tot
    1  0.000  0.497  0.497  0.000  0.000  0.000  0.000  0.000  0.000  0.994
 
band     4 # energy    4.23420713 # occ.  2.00000000
 
ion      s     py     pz     px    dxy    dyz    dz2    dxz  x2-y2    tot
    1  0.147  0.002  0.002  0.000  0.150  0.155  0.000  0.150  0.000  0.604
 
band     5 # energy    7.44098847 # occ.  2.00000000
 
ion      s     py     pz     px    dxy    dyz    dz2    dxz  x2-y2    tot
    1  0.000  0.000  0.000  0.000  0.055  0.245  0.117  0.055  0.351  0.824
 
band     6 # energy    7.53167109 # occ.  2.00000000
 
ion      s     py     pz     px    dxy    dyz    dz2    dxz  x2-y2    tot
    1  0.000  0.000  0.000  0.000  0.173  0.000  0.364  0.173  0.121  0.830
 
band     7 # energy    9.21931363 # occ.  2.00000000
 
ion      s     py     pz     px    dxy    dyz    dz2    dxz  x2-y2    tot
    1  0.045  0.032  0.032  0.033  0.113  0.009  0.017  0.113  0.051  0.445
 
band     8 # energy   10.57196431 # occ.  2.00000000
 
ion      s     py     pz     px    dxy    dyz    dz2    dxz  x2-y2    tot
    1  0.000  0.000  0.000  0.000  0.274  0.000  0.284  0.274  0.095  0.928
 
band     9 # energy   11.21929588 # occ.  0.00000000
 
ion      s     py     pz     px    dxy    dyz    dz2    dxz  x2-y2    tot
    1  0.020  0.010  0.010  0.006  0.023  0.406  0.083  0.023  0.250  0.831
 
band    10 # energy   17.84526036 # occ.  0.00000000
 
ion      s     py     pz     px    dxy    dyz    dz2    dxz  x2-y2    tot
    1  0.281  0.016  0.016  0.020  0.109  0.094  0.001  0.109  0.002  0.646
 
band    11 # energy   25.61346730 # occ.  0.00000000
 
ion      s     py     pz     px    dxy    dyz    dz2    dxz  x2-y2    tot
    1  0.000  0.003  0.003  0.006  0.007  0.000  0.001  0.007  0.004  0.031
 
band    12 # energy   29.31452302 # occ.  0.00000000
 
ion      s     py     pz     px    dxy    dyz    dz2    dxz  x2-y2    tot
    1  0.006  0.039  0.039  0.143  0.014  0.003  0.000  0.014  0.001  0.260
 
band    13 # energy   30.33663417 # occ.  0.00000000
 
ion      s     py     pz     px    dxy    dyz    dz2    dxz  x2-y2    tot
    1  0.000  0.111  0.111  0.000  0.006  0.000  0.011  0.006  0.004  0.247
 
band    14 # energy   36.90069439 # occ.  0.00000000
 
ion      s     py     pz     px    dxy    dyz    dz2    dxz  x2-y2    tot
    1  0.009  0.000  0.000  0.017  0.000  0.070  0.040  0.000  0.119  0.256
 
band    15 # energy   37.78572685 # occ.  0.00000000
 
ion      s     py     pz     px    dxy    dyz    dz2    dxz  x2-y2    tot
    1  0.000  0.003  0.003  0.000  0.048  0.000  0.185  0.048  0.062  0.348
 
band    16 # energy   38.50265710 # occ.  0.00000000
 
ion      s     py     pz     px    dxy    dyz    dz2    dxz  x2-y2    tot
    1  0.077  0.006  0.006  0.011  0.051  0.009  0.010  0.051  0.030  0.251
 
band    17 # energy   44.13345612 # occ.  0.00000000
 
ion      s     py     pz     px    dxy    dyz    dz2    dxz  x2-y2    tot
    1  0.000  0.146  0.146  0.000  0.027  0.000  0.003  0.027  0.001  0.351
 
band    18 # energy   45.37290594 # occ.  0.00000000
 
ion      s     py     pz     px    dxy    dyz    dz2    dxz  x2-y2    tot
    1  0.080  0.010  0.010  0.156  0.000  0.095  0.012  0.000  0.035  0.399
 
band    19 # energy   46.83304642 # occ.  0.00000000
 
ion      s     py     pz     px    dxy    dyz    dz2    dxz  x2-y2    tot
    1  0.039  0.062  0.062  0.023  0.038  0.007  0.004  0.038  0.013  0.286
 
band    20 # energy   51.29842067 # occ.  0.00000000
 
ion      s     py     pz     px    dxy    dyz    dz2    dxz  x2-y2    tot
    1  0.007  0.027  0.027  0.057  0.011  0.062  0.002  0.011  0.005  0.209
 
band    21 # energy   51.80535429 # occ.  0.00000000
 
ion      s     py     pz     px    dxy    dyz    dz2    dxz  x2-y2    tot
    1  6.291  0.000  0.000  0.000  0.000  0.000  0.000  0.000  0.000  6.291
 
band    22 # energy   54.03658437 # occ.  0.00000000
 
ion      s     py     pz     px    dxy    dyz    dz2    dxz  x2-y2    tot
    1  0.000  0.065  0.065  0.000  0.001  0.000  0.022  0.001  0.007  0.161
 
band    23 # energy   54.28017323 # occ.  0.00000000
 
ion      s     py     pz     px    dxy    dyz    dz2    dxz  x2-y2    tot
    1  0.063  0.001  0.001  0.003  0.001  0.001  0.000  0.001  0.000  0.073
 
band    24 # energy   55.27349665 # occ.  0.00000000
 
ion      s     py     pz     px    dxy    dyz    dz2    dxz  x2-y2    tot
    1  0.000  0.010  0.010  0.000  0.111  0.000  0.007  0.111  0.002  0.252
 

 k-point     6 :   -0.45000000 0.05000000 0.05000000     weight = 0.00600000

band     1 # energy  -41.81285892 # occ.  2.00000000
 
ion      s     py     pz     px    dxy    dyz    dz2    dxz  x2-y2    tot
    1  0.000  0.324  0.324  0.336  0.000  0.000  0.000  0.000  0.000  0.983
 
band     2 # energy  -41.50222594 # occ.  2.00000000
 
ion      s     py     pz     px    dxy    dyz    dz2    dxz  x2-y2    tot
    1  0.000  0.170  0.170  0.655  0.000  0.000  0.000  0.000  0.000  0.994
 
band     3 # energy  -41.49921357 # occ.  2.00000000
 
ion      s     py     pz     px    dxy    dyz    dz2    dxz  x2-y2    tot
    1  0.000  0.497  0.497  0.000  0.000  0.000  0.000  0.000  0.000  0.994
 
band     4 # energy    4.24628923 # occ.  2.00000000
 
ion      s     py     pz     px    dxy    dyz    dz2    dxz  x2-y2    tot
    1  0.129  0.000  0.000  0.001  0.162  0.172  0.000  0.162  0.000  0.626
 
band     5 # energy    7.35840591 # occ.  2.00000000
 
ion      s     py     pz     px    dxy    dyz    dz2    dxz  x2-y2    tot
    1  0.000  0.000  0.000  0.000  0.058  0.208  0.124  0.058  0.372  0.820
 
band     6 # energy    7.48309347 # occ.  2.00000000
 
ion      s     py     pz     px    dxy    dyz    dz2    dxz  x2-y2    tot
    1  0.000  0.000  0.000  0.000  0.169  0.000  0.367  0.169  0.122  0.828
 
band     7 # energy    9.89725252 # occ.  2.00000000
 
ion      s     py     pz     px    dxy    dyz    dz2    dxz  x2-y2    tot
    1  0.002  0.031  0.031  0.029  0.033  0.221  0.036  0.033  0.107  0.522
 
band     8 # energy   10.94724654 # occ.  0.57935095
 
ion      s     py     pz     px    dxy    dyz    dz2    dxz  x2-y2    tot
    1  0.000  0.000  0.000  0.000  0.283  0.000  0.285  0.283  0.095  0.946
 
band     9 # energy   11.68900675 # occ.  0.00000000
 
ion      s     py     pz     px    dxy    dyz    dz2    dxz  x2-y2    tot
    1  0.003  0.026  0.026  0.030  0.069  0.161  0.057  0.069  0.170  0.610
 
band    10 # energy   16.34362778 # occ.  0.00000000
 
ion      s     py     pz     px    dxy    dyz    dz2    dxz  x2-y2    tot
    1  0.365  0.002  0.002  0.000  0.134  0.140  0.000  0.134  0.000  0.777
 
band    11 # energy   25.35249632 # occ.  0.00000000
 
ion      s     py     pz     px    dxy    dyz    dz2    dxz  x2-y2    tot
    1  0.000  0.003  0.003  0.005  0.000  0.004  0.001  0.000  0.004  0.020
 
band    12 # energy   29.24285391 # occ.  0.00000000
 
ion      s     py     pz     px    dxy    dyz    dz2    dxz  x2-y2    tot
    1  0.005  0.036  0.036  0.142  0.003  0.005  0.002  0.003  0.006  0.239
 
band    13 # energy   29.30514076 # occ.  0.00000000
 
ion      s     py     pz     px    dxy    dyz    dz2    dxz  x2-y2    tot
    1  0.000  0.110  0.110  0.000  0.001  0.000  0.004  0.001  0.001  0.228
 
band    14 # energy   37.99969244 # occ.  0.00000000
 
ion      s     py     pz     px    dxy    dyz    dz2    dxz  x2-y2    tot
    1  0.000  0.001  0.001  0.000  0.051  0.000  0.187  0.051  0.062  0.352
 
band    15 # energy   38.19167720 # occ.  0.00000000
 
ion      s     py     pz     px    dxy    dyz    dz2    dxz  x2-y2    tot
    1  0.000  0.000  0.000  0.001  0.013  0.080  0.065  0.013  0.194  0.367
 
band    16 # energy   39.65652742 # occ.  0.00000000
 
ion      s     py     pz     px    dxy    dyz    dz2    dxz  x2-y2    tot
    1  0.132  0.002  0.002  0.000  0.071  0.064  0.000  0.071  0.000  0.343
 
band    17 # energy   44.44380528 # occ.  0.00000000
 
ion      s     py     pz     px    dxy    dyz    dz2    dxz  x2-y2    tot
    1  0.022  0.072  0.072  0.131  0.002  0.001  0.001  0.002  0.003  0.305
 
band    18 # energy   45.43889413 # occ.  0.00000000
 
ion      s     py     pz     px    dxy    dyz    dz2    dxz  x2-y2    tot
    1  0.000  0.159  0.159  0.000  0.002  0.000  0.016  0.002  0.005  0.342
 
band    19 # energy   45.55910803 # occ.  0.00000000
 
ion      s     py     pz     px    dxy    dyz    dz2    dxz  x2-y2    tot
    1  0.001  0.009  0.009  0.098  0.006  0.000  0.001  0.006  0.003  0.134
 
band    20 # energy   51.80388138 # occ.  0.00000000
 
ion      s     py     pz     px    dxy    dyz    dz2    dxz  x2-y2    tot
    1  6.300  0.000  0.000  0.000  0.000  0.000  0.000  0.000  0.000  6.300
 
band    21 # energy   52.41162704 # occ.  0.00000000
 
ion      s     py     pz     px    dxy    dyz    dz2    dxz  x2-y2    tot
    1  0.000  0.036  0.036  0.000  0.052  0.000  0.000  0.052  0.000  0.175
 
band    22 # energy   53.04658952 # occ.  0.00000000
 
ion      s     py     pz     px    dxy    dyz    dz2    dxz  x2-y2    tot
    1  0.006  0.009  0.009  0.036  0.009  0.049  0.001  0.009  0.002  0.131
 