PROCAR lm decomposed
# of k-points:  110         # of bands:   24         # of ions:    1

 k-point     1 :    0.05000000 0.05000000 0.05000000     weight = 0.00200000

band     1 # energy  -42.29593103 # occ.  2.00000000
 
ion      s     py     pz     px    dxy    dyz    dz2    dxz  x2-y2    tot
    1  0.000  0.332  0.332  0.332  0.000  0.000  0.000  0.000  0.000  0.995
 
band     2 # energy  -42.28930513 # occ.  2.00000000
 
ion      s     py     pz     px    dxy    dyz    dz2    dxz  x2-y2    tot
    1  0.000  0.301  0.083  0.611  0.000  0.000  0.000  0.000  0.000  0.995
 
band     3 # energy  -42.28930513 # occ.  2.00000000
 
ion      s     py     pz     px    dxy    dyz    dz2    dxz  x2-y2    tot
    1  0.000  0.363  0.580  0.052  0.000  0.000  0.000  0.000  0.000  0.995
 
band     4 # energy    0.98034190 # occ.  2.00000000
 
ion      s     py     pz     px    dxy    dyz    dz2    dxz  x2-y2    tot
    1  0.360  0.000  0.000  0.000  0.000  0.000  0.000  0.000  0.000  0.362
 
band     5 # energy    6.72360440 # occ.  2.00000000
 
ion      s     py     pz     px    dxy    dyz    dz2    dxz  x2-y2    tot
    1  0.000  0.000  0.000  0.000  0.277  0.277  0.000  0.277  0.000  0.832
 
band     6 # energy    6.79480074 # occ.  2.00000000
 
ion      s     py     pz     px    dxy    dyz    dz2    dxz  x2-y2    tot
    1  0.000  0.000  0.000  0.000  0.558  0.140  0.000  0.139  0.000  0.837
 
band     7 # energy    6.79480074 # occ.  2.00000000
 
ion      s     py     pz     px    dxy    dyz    dz2    dxz  x2-y2    tot
    1  0.000  0.000  0.000  0.000  0.000  0.418  0.000  0.419  0.000  0.837
 
band     8 # energy    8.53293366 # occ.  2.00000000
 
ion      s     py     pz     px    dxy    dyz    dz2    dxz  x2-y2    tot
    1  0.000  0.000  0.000  0.000  0.000  0.000  0.900  0.000  0.000  0.901
 
band     9 # energy    8.53293366 # occ.  2.00000000
 
ion      s     py     pz     px    dxy    dyz    dz2    dxz  x2-y2    tot
    1  0.000  0.000  0.000  0.000  0.000  0.000  0.000  0.000  0.900  0.901
 
band    10 # energy   24.87533810 # occ.  0.00000000
 
ion      s     py     pz     px    dxy    dyz    dz2    dxz  x2-y2    tot
    1  0.000  0.000  0.000  0.000  0.002  0.002  0.000  0.002  0.000  0.007
 
band    11 # energy   28.52383371 # occ.  0.00000000
 
ion      s     py     pz     px    dxy    dyz    dz2    dxz  x2-y2    tot
    1  0.010  0.025  0.025  0.025  0.002  0.002  0.000  0.002  0.000  0.091
 
band    12 # energy   29.19789775 # occ.  0.00000000
 
ion      s     py     pz     px    dxy    dyz    dz2    dxz  x2-y2    tot
    1  0.000  0.010  0.053  0.017  0.001  0.000  0.003  0.000  0.000  0.085
 
band    13 # energy   29.19789775 # occ.  0.00000000
 
ion      s     py     pz     px    dxy    dyz    dz2    dxz  x2-y2    tot
    1  0.000  0.044  0.000  0.036  0.000  0.001  0.000  0.001  0.003  0.085
 
band    14 # energy   34.57247026 # occ.  0.00000000
 
ion      s     py     pz     px    dxy    dyz    dz2    dxz  x2-y2    tot
    1  0.050  0.007  0.007  0.007  0.001  0.001  0.000  0.001  0.000  0.073
 
band    15 # energy   38.18493571 # occ.  0.00000000
 
ion      s     py     pz     px    dxy    dyz    dz2    dxz  x2-y2    tot
    1  0.011  0.050  0.050  0.050  0.085  0.085  0.000  0.085  0.000  0.416
 
band    16 # energy   38.87435744 # occ.  0.00000000
 
ion      s     py     pz     px    dxy    dyz    dz2    dxz  x2-y2    tot
    1  0.000  0.011  0.061  0.021  0.223  0.076  0.002  0.038  0.000  0.432
 
band    17 # energy   38.87435744 # occ.  0.00000000
 
ion      s     py     pz     px    dxy    dyz    dz2    dxz  x2-y2    tot
    1  0.000  0.051  0.001  0.041  0.002  0.149  0.000  0.187  0.002  0.432
 
band    18 # energy   41.51065540 # occ.  0.00000000
 
ion      s     py     pz     px    dxy    dyz    dz2    dxz  x2-y2    tot
    1  0.000  0.067  0.305  0.087  0.061  0.017  0.012  0.013  0.000  0.563
 
band    19 # energy   41.51065540 # occ.  0.00000000
 
ion      s     py     pz     px    dxy    dyz    dz2    dxz  x2-y2    tot
    1  0.000  0.239  0.001  0.219  0.000  0.044  0.000  0.047  0.012  0.563
 
band    20 # energy   42.37057522 # occ.  0.00000000
 
ion      s     py     pz     px    dxy    dyz    dz2    dxz  x2-y2    tot
    1  0.026  0.123  0.123  0.123  0.058  0.058  0.000  0.058  0.000  0.568
 
band    21 # energy   48.41360837 # occ.  0.00000000
 
ion      s     py     pz     px    dxy    dyz    dz2    dxz  x2-y2    tot
    1  0.000  0.003  0.013  0.004  0.000  0.000  0.408  0.000  0.001  0.428
 
band    22 # energy   48.41360837 # occ.  0.00000000
 
ion      s     py     pz     px    dxy    dyz    dz2    dxz  x2-y2    tot
    1  0.000  0.010  0.000  0.009  0.000  0.000  0.001  0.000  0.408  0.428
 
band    23 # energy   50.98742369 # occ.  0.00000000
 
ion      s     py     pz     px    dxy    dyz    dz2    dxz  x2-y2    tot
    1  6.309  0.000  0.000  0.000  0.000  0.000  0.000  0.000  0.000  6.309
 
band    24 # energy   53.99512825 # occ.  0.00000000
 
ion      s     py     pz     px    dxy    dyz    dz2    dxz  x2-y2    tot
    1  0.448  0.014  0.014  0.014  0.000  0.000  0.000  0.000  0.000  0.492
 

 k-point     2 :    0.15000000 0.05000000 0.05000000     weight = 0.00600000

band     1 # energy  -42.33137282 # occ.  2.00000000
 
ion      s     py     pz     px    dxy    dyz    dz2    dxz  x2-y2    tot
    1  0.000  0.454  0.454  0.085  0.000  0.000  0.000  0.000  0.000  0.994
 
band     2 # energy  -42.30008717 # occ.  2.00000000
 
ion      s     py     pz     px    dxy    dyz    dz2    dxz  x2-y2    tot
    1  0.000  0.043  0.043  0.910  0.000  0.000  0.000  0.000  0.000  0.995
 
band     3 # energy  -42.29246259 # occ.  2.00000000
 
ion      s     py     pz     px    dxy    dyz    dz2    dxz  x2-y2    tot
    1  0.000  0.498  0.498  0.000  0.000  0.000  0.000  0.000  0.000  0.995
 
band     4 # energy    1.44958268 # occ.  2.00000000
 
ion      s     py     pz     px    dxy    dyz    dz2    dxz  x2-y2    tot
    1  0.350  0.003  0.003  0.000  0.000  0.002  0.000  0.000  0.000  0.360
 
band     5 # energy    6.53513440 # occ.  2.00000000
 
ion      s     py     pz     px    dxy    dyz    dz2    dxz  x2-y2    tot
    1  0.000  0.000  0.000  0.001  0.392  0.028  0.000  0.392  0.000  0.813
 
band     6 # energy    6.94862768 # occ.  2.00000000
 
ion      s     py     pz     px    dxy    dyz    dz2    dxz  x2-y2    tot
    1  0.000  0.000  0.000  0.000  0.418  0.000  0.003  0.418  0.001  0.841
 
band     7 # energy    6.98125178 # occ.  2.00000000
 
ion      s     py     pz     px    dxy    dyz    dz2    dxz  x2-y2    tot
    1  0.000  0.001  0.001  0.000  0.015  0.782  0.006  0.015  0.018  0.837
 
band     8 # energy    8.35302290 # occ.  2.00000000
 
ion      s     py     pz     px    dxy    dyz    dz2    dxz  x2-y2    tot
    1  0.000  0.000  0.000  0.000  0.002  0.000  0.663  0.002  0.221  0.888
 
band     9 # energy    8.58394227 # occ.  2.00000000
 
ion      s     py     pz     px    dxy    dyz    dz2    dxz  x2-y2    tot
    1  0.000  0.000  0.000  0.000  0.001  0.024  0.218  0.001  0.655  0.899
 
band    10 # energy   25.46047641 # occ.  0.00000000
 
ion      s     py     pz     px    dxy    dyz    dz2    dxz  x2-y2    tot
    1  0.000  0.000  0.000  0.002  0.023  0.003  0.000  0.023  0.000  0.052
 
band    11 # energy   26.81087316 # occ.  0.00000000
 
ion      s     py     pz     px    dxy    dyz    dz2    dxz  x2-y2    tot
    1  0.037  0.030  0.030  0.008  0.002  0.018  0.001  0.002  0.003  0.134
 
band    12 # energy   29.14927264 # occ.  0.00000000
 
ion      s     py     pz     px    dxy    dyz    dz2    dxz  x2-y2    tot
    1  0.000  0.004  0.004  0.102  0.012  0.003  0.001  0.012  0.003  0.141
 
band    13 # energy   30.18914544 # occ.  0.00000000
 
ion      s     py     pz     px    dxy    dyz    dz2    dxz  x2-y2    tot
    1  0.000  0.039  0.039  0.000  0.001  0.000  0.019  0.001  0.006  0.104
 
band    14 # energy   34.41288177 # occ.  0.00000000
 
ion      s     py     pz     px    dxy    dyz    dz2    dxz  x2-y2    tot
    1  0.005  0.097  0.097  0.007  0.004  0.100  0.001  0.004  0.002  0.315
 
band    15 # energy   36.69549199 # occ.  0.00000000
 
ion      s     py     pz     px    dxy    dyz    dz2    dxz  x2-y2    tot
    1  0.002  0.003  0.003  0.144  0.068  0.025  0.002  0.068  0.005  0.319
 
band    16 # energy   37.61516466 # occ.  0.00000000
 
ion      s     py     pz     px    dxy    dyz    dz2    dxz  x2-y2    tot
    1  0.070  0.002  0.002  0.008  0.006  0.008  0.001  0.006  0.003  0.106
 
band    17 # energy   38.02038514 # occ.  0.00000000
 
ion      s     py     pz     px    dxy    dyz    dz2    dxz  x2-y2    tot
    1  0.000  0.092  0.092  0.000  0.107  0.000  0.018  0.107  0.006  0.422
 
band    18 # energy   40.11163724 # occ.  0.00000000
 
ion      s     py     pz     px    dxy    dyz    dz2    dxz  x2-y2    tot
    1  0.000  0.145  0.145  0.000  0.087  0.000  0.032  0.087  0.011  0.507
 
band    19 # energy   42.89030882 # occ.  0.00000000
 
ion      s     py     pz     px    dxy    dyz    dz2    dxz  x2-y2    tot
    1  0.071  0.096  0.096  0.025  0.000  0.239  0.005  0.000  0.014  0.548
 
band    20 # energy   44.94683185 # occ.  0.00000000
 
ion      s     py     pz     px    dxy    dyz    dz2    dxz  x2-y2    tot
    1  0.030  0.003  0.003  0.302  0.118  0.003  0.004  0.118  0.011  0.592
 
band    21 # energy   47.50034196 # occ.  0.00000000
 
ion      s     py     pz     px    dxy    dyz    dz2    dxz  x2-y2    tot
    1  0.009  0.005  0.005  0.038  0.002  0.006  0.067  0.002  0.202  0.336
 
band    22 # energy   49.57899823 # occ.  0.00000000
 
ion      s     py     pz     px    dxy    dyz    dz2    dxz  x2-y2    tot
    1  0.000  0.047  0.047  0.000  0.000  0.000  0.224  0.000  0.075  0.392
 
band    23 # energy   50.99260718 # occ.  0.00000000
 
ion      s     py     pz     px    dxy    dyz    dz2    dxz  x2-y2    tot
    1  6.296  0.000  0.000  0.000  0.000  0.000  0.000  0.000  0.000  6.296
 
band    24 # energy   56.10794985 # occ.  0.00000000
 
ion      s     py     pz     px    dxy    dyz    dz2    dxz  x2-y2    tot
    1  0.297  0.087  0.087  0.013  0.003  0.000  0.002  0.003  0.007  0.499
 

 k-point     3 :    0.25000000 0.05000000 0.05000000     weight = 0.00600000

band     1 # energy  -42.41025422 # occ.  2.00000000
 
ion      s     py     pz     px    dxy    dyz    dz2    dxz  x2-y2    tot
    1  0.000  0.390  0.390  0.211  0.000  0.000  0.000  0.000  0.000  0.991
 
band     2 # energy  -42.31442614 # occ.  2.00000000
 
ion      s     py     pz     px    dxy    dyz    dz2    dxz  x2-y2    tot
    1  0.000  0.106  0.106  0.783  0.000  0.000  0.000  0.000  0.000  0.994
 
band     3 # energy  -42.30342369 # occ.  2.00000000
 
ion      s     py     pz     px    dxy    dyz    dz2    dxz  x2-y2    tot
    1  0.000  0.497  0.497  0.000  0.000  0.000  0.000  0.000  0.000  0.995
 
band     4 # energy    2.47098851 # occ.  2.00000000
 
ion      s     py     pz     px    dxy    dyz    dz2    dxz  x2-y2    tot
    1  0.317  0.007  0.007  0.002  0.010  0.019  0.000  0.010  0.001  0.373
 
band     5 # energy    6.35284598 # occ.  2.00000000
 
ion      s     py     pz     px    dxy    dyz    dz2    dxz  x2-y2    tot
    1  0.008  0.003  0.003  0.005  0.337  0.064  0.000  0.337  0.000  0.757
 
band     6 # energy    7.11160529 # occ.  2.00000000
 
ion      s     py     pz     px    dxy    dyz    dz2    dxz  x2-y2    tot
    1  0.001  0.001  0.001  0.000  0.034  0.570  0.048  0.034  0.145  0.833
 
band     7 # energy    7.14390530 # occ.  2.00000000
 
ion      s     py     pz     px    dxy    dyz    dz2    dxz  x2-y2    tot
    1  0.000  0.000  0.000  0.000  0.344  0.000  0.116  0.344  0.039  0.844
 
band     8 # energy    8.34769633 # occ.  2.00000000
 
ion      s     py     pz     px    dxy    dyz    dz2    dxz  x2-y2    tot
    1  0.000  0.000  0.000  0.000  0.081  0.000  0.538  0.081  0.179  0.880
 
band     9 # energy    8.81055814 # occ.  2.00000000
 
ion      s     py     pz     px    dxy    dyz    dz2    dxz  x2-y2    tot
    1  0.002  0.000  0.000  0.000  0.011  0.179  0.173  0.011  0.519  0.896
 
band    10 # energy   23.67365633 # occ.  0.00000000
 
ion      s     py     pz     px    dxy    dyz    dz2    dxz  x2-y2    tot
    1  0.089  0.034  0.034  0.031  0.035  0.047  0.001  0.035  0.002  0.308
 
band    11 # energy   26.20251637 # occ.  0.00000000
 
ion      s     py     pz     px    dxy    dyz    dz2    dxz  x2-y2    tot
    1  0.000  0.000  0.000  0.008  0.037  0.005  0.000  0.037  0.001  0.088
 
band    12 # energy   29.82377851 # occ.  0.00000000
 
ion      s     py     pz     px    dxy    dyz    dz2    dxz  x2-y2    tot
    1  0.002  0.022  0.022  0.128  0.015  0.036  0.004  0.015  0.011  0.256
 
band    13 # energy   31.72793969 # occ.  0.00000000
 
ion      s     py     pz     px    dxy    dyz    dz2    dxz  x2-y2    tot
    1  0.031  0.062  0.062  0.006  0.000  0.021  0.003  0.000  0.009  0.194
 
band    14 # energy   31.93010784 # occ.  0.00000000
 
ion      s     py     pz     px    dxy    dyz    dz2    dxz  x2-y2    tot
    1  0.000  0.051  0.051  0.000  0.013  0.000  0.041  0.013  0.014  0.184
 
band    15 # energy   34.54732671 # occ.  0.00000000
 
ion      s     py     pz     px    dxy    dyz    dz2    dxz  x2-y2    tot
    1  0.000  0.094  0.094  0.000  0.040  0.000  0.044  0.040  0.015  0.325
 
band    16 # energy   34.99023516 # occ.  0.00000000
 
ion      s     py     pz     px    dxy    dyz    dz2    dxz  x2-y2    tot
    1  0.003  0.000  0.000  0.090  0.014  0.010  0.008  0.014  0.025  0.164
 
band    17 # energy   40.64731627 # occ.  0.00000000
 
ion      s     py     pz     px    dxy    dyz    dz2    dxz  x2-y2    tot
    1  0.000  0.102  0.102  0.000  0.110  0.000  0.035  0.110  0.012  0.471
 
band    18 # energy   41.22421180 # occ.  0.00000000
 
ion      s     py     pz     px    dxy    dyz    dz2    dxz  x2-y2    tot
    1  0.115  0.000  0.000  0.001  0.000  0.026  0.003  0.000  0.010  0.155
 
band    19 # energy   43.67607137 # occ.  0.00000000
 
ion      s     py     pz     px    dxy    dyz    dz2    dxz  x2-y2    tot
    1  0.032  0.054  0.054  0.078  0.002  0.201  0.010  0.002  0.029  0.463
 
band    20 # energy   45.76758922 # occ.  0.00000000
 
ion      s     py     pz     px    dxy    dyz    dz2    dxz  x2-y2    tot
    1  0.105  0.002  0.002  0.042  0.104  0.002  0.020  0.104  0.061  0.443
 
band    21 # energy   48.38511362 # occ.  0.00000000
 
ion      s     py     pz     px    dxy    dyz    dz2    dxz  x2-y2    tot
    1  0.009  0.011  0.011  0.178  0.029  0.029  0.017  0.029  0.052  0.365
 
band    22 # energy   50.36492827 # occ.  0.00000000
 
ion      s     py     pz     px    dxy    dyz    dz2    dxz  x2-y2    tot
    1  0.000  0.067  0.067  0.000  0.005  0.000  0.119  0.005  0.040  0.304
 
band    23 # energy   51.00296383 # occ.  0.00000000
 
ion      s     py     pz     px    dxy    dyz    dz2    dxz  x2-y2    tot
    1  6.290  0.000  0.000  0.000  0.000  0.000  0.000  0.000  0.000  6.290
 
band    24 # energy   56.98066283 # occ.  0.00000000
 
ion      s     py     pz     px    dxy    dyz    dz2    dxz  x2-y2    tot
    1  0.000  0.000  0.000  0.000  0.000  0.000  0.039  0.000  0.013  0.052
 

 k-point     4 :    0.35000000 0.05000000 0.05000000     weight = 0.00600000

band     1 # energy  -42.50184959 # occ.  2.00000000
 
ion      s     py     pz     px    dxy    dyz    dz2    dxz  x2-y2    tot
    1  0.000  0.360  0.360  0.268  0.000  0.000  0.000  0.000  0.000  0.987
 
band     2 # energy  -42.32869415 # occ.  2.00000000
 
ion      s     py     pz     px    dxy    dyz    dz2    dxz  x2-y2    tot
    1  0.000  0.135  0.135  0.724  0.000  0.000  0.000  0.000  0.000  0.994
 
band     3 # energy  -42.31798186 # occ.  2.00000000
 
ion      s     py     pz     px    dxy    dyz    dz2    dxz  x2-y2    tot
    1  0.000  0.497  0.497  0.000  0.000  0.000  0.000  0.000  0.000  0.994
 
band     4 # energy    3.44138817 # occ.  2.00000000
 
ion      s     py     pz     px    dxy    dyz    dz2    dxz  x2-y2    tot
    1  0.227  0.006  0.006  0.002  0.074  0.087  0.000  0.074  0.001  0.477
 
band     5 # energy    6.83276627 # occ.  2.00000000
 
ion      s     py     pz     px    dxy    dyz    dz2    dxz  x2-y2    tot
    1  0.036  0.008  0.008  0.013  0.271  0.013  0.013  0.271  0.038  0.671
 
band     6 # energy    6.99579082 # occ.  2.00000000
 
ion      s     py     pz     px    dxy    dyz    dz2    dxz  x2-y2    tot
    1  0.015  0.006  0.006  0.003  0.002  0.365  0.087  0.002  0.261  0.747
 
band     7 # energy    7.01482440 # occ.  2.00000000
 
ion      s     py     pz     px    dxy    dyz    dz2    dxz  x2-y2    tot
    1  0.000  0.000  0.000  0.000  0.216  0.000  0.303  0.216  0.101  0.835
 
band     8 # energy    8.89696679 # occ.  2.00000000
 
ion      s     py     pz     px    dxy    dyz    dz2    dxz  x2-y2    tot
    1  0.000  0.000  0.000  0.000  0.219  0.000  0.344  0.219  0.115  0.896
 
band     9 # energy    9.43280209 # occ.  2.00000000
 
ion      s     py     pz     px    dxy    dyz    dz2    dxz  x2-y2    tot
    1  0.007  0.002  0.002  0.000  0.025  0.364  0.119  0.025  0.356  0.900
 
band    10 # energy   20.03302881 # occ.  0.00000000
 
ion      s     py     pz     px    dxy    dyz    dz2    dxz  x2-y2    tot
    1  0.169  0.032  0.032  0.034  0.065  0.066  0.001  0.065  0.002  0.466
 
band    11 # energy   25.51276656 # occ.  0.00000000
 
ion      s     py     pz     px    dxy    dyz    dz2    dxz  x2-y2    tot
    1  0.000  0.003  0.003  0.010  0.023  0.002  0.001  0.023  0.003  0.068
 
band    12 # energy   29.01329832 # occ.  0.00000000
 
ion      s     py     pz     px    dxy    dyz    dz2    dxz  x2-y2    tot
    1  0.010  0.047  0.047  0.134  0.024  0.029  0.000  0.024  0.001  0.316
 
band    13 # energy   31.13212607 # occ.  0.00000000
 
ion      s     py     pz     px    dxy    dyz    dz2    dxz  x2-y2    tot
    1  0.000  0.123  0.123  0.000  0.027  0.000  0.011  0.027  0.004  0.314
 
band    14 # energy   32.79427751 # occ.  0.00000000
 
ion      s     py     pz     px    dxy    dyz    dz2    dxz  x2-y2    tot
    1  0.022  0.007  0.007  0.031  0.002  0.019  0.013  0.002  0.038  0.140
 
band    15 # energy   34.28651329 # occ.  0.00000000
 
ion      s     py     pz     px    dxy    dyz    dz2    dxz  x2-y2    tot
    1  0.000  0.007  0.007  0.000  0.015  0.000  0.125  0.015  0.042  0.210
 
band    16 # energy   35.07372131 # occ.  0.00000000
 
ion      s     py     pz     px    dxy    dyz    dz2    dxz  x2-y2    tot
    1  0.023  0.004  0.004  0.024  0.005  0.000  0.017  0.005  0.051  0.135
 
band    17 # energy   41.20545678 # occ.  0.00000000
 
ion      s     py     pz     px    dxy    dyz    dz2    dxz  x2-y2    tot
    1  0.000  0.110  0.110  0.000  0.082  0.000  0.024  0.082  0.008  0.414
 
band    18 # energy   43.08980275 # occ.  0.00000000
 
ion      s     py     pz     px    dxy    dyz    dz2    dxz  x2-y2    tot
    1  0.145  0.012  0.012  0.071  0.000  0.168  0.012  0.000  0.036  0.457
 
band    19 # energy   45.34968157 # occ.  0.00000000
 
ion      s     py     pz     px    dxy    dyz    dz2    dxz  x2-y2    tot
    1  0.092  0.028  0.028  0.056  0.073  0.005  0.011  0.073  0.033  0.397
 
band    20 # energy   47.17084492 # occ.  0.00000000
 
ion      s     py     pz     px    dxy    dyz    dz2    dxz  x2-y2    tot
    1  0.009  0.019  0.019  0.020  0.021  0.001  0.005  0.021  0.016  0.130
 
band    21 # energy   49.40048268 # occ.  0.00000000
 
ion      s     py     pz     px    dxy    dyz    dz2    dxz  x2-y2    tot
    1  0.005  0.016  0.016  0.097  0.013  0.063  0.003  0.013  0.009  0.234
 
band    22 # energy   50.99931504 # occ.  0.00000000
 
ion      s     py     pz     px    dxy    dyz    dz2    dxz  x2-y2    tot
    1  6.287  0.000  0.000  0.000  0.000  0.000  0.000  0.000  0.000  6.287
 
band    23 # energy   51.13951309 # occ.  0.00000000
 
ion      s     py     pz     px    dxy    dyz    dz2    dxz  x2-y2    tot
    1  0.000  0.072  0.072  0.000  0.013  0.000  0.053  0.013  0.018  0.241
 
band    24 # energy   55.82533890 # occ.  0.00000000
 
ion      s     py     pz     px    dxy    dyz    dz2    dxz  x2-y2    tot
    1  0.000  0.002  0.002  0.000  0.047  0.000  0.066  0.047  0.022  0.184
 

 k-point     5 :    0.45000000 0.05000000 0.05000000     weight = 0.00600000

band     1 # energy  -42.56946784 # occ.  2.00000000
 
ion      s     py     pz     px    dxy    dyz    dz2    dxz  x2-y2    tot
    1  0.000  0.340  0.340  0.305  0.000  0.000  0.000  0.000  0.000  0.985
 
band     2 # energy  -42.33786055 # occ.  2.00000000
 
ion      s     py     pz     px    dxy    dyz    dz2    dxz  x2-y2    tot
    1  0.000  0.154  0.154  0.686  0.000  0.000  0.000  0.000  0.000  0.994
 
band     3 # energy  -42.32989043 # occ.  2.00000000
 
ion      s     py     pz     px    dxy    dyz    dz2    dxz  x2-y2    tot
    1  0.000  0.497  0.497  0.000  0.000  0.000  0.000  0.000  0.000  0.994
 
band     4 # energy    3.73896364 # occ.  2.00000000
 
ion      s     py     pz     px    dxy    dyz    dz2    dxz  x2-y2    tot
    1  0.142  0.002  0.002  0.000  0.147  0.153  0.000  0.147  0.000  0.592
 
band     5 # energy    6.74314545 # occ.  2.00000000
 
ion      s     py     pz     px    dxy    dyz    dz2    dxz  x2-y2    tot
    1  0.000  0.000  0.000  0.000  0.056  0.244  0.116  0.056  0.348  0.820
 
band     6 # energy    6.82556915 # occ.  2.00000000
 
ion      s     py     pz     px    dxy    dyz    dz2    dxz  x2-y2    tot
    1  0.000  0.000  0.000  0.000  0.172  0.000  0.361  0.172  0.120  0.826
 
band     7 # energy    8.43030265 # occ.  2.00000000
 
ion      s     py     pz     px    dxy    dyz    dz2    dxz  x2-y2    tot
    1  0.044  0.028  0.028  0.029  0.118  0.011  0.019  0.118  0.058  0.455
 
band     8 # energy    9.59182270 # occ.  2.00000000
 
ion      s     py     pz     px    dxy    dyz    dz2    dxz  x2-y2    tot
    1  0.000  0.000  0.000  0.000  0.273  0.000  0.284  0.273  0.095  0.925
 
band     9 # energy   10.20887038 # occ.  0.00000000
 
ion      s     py     pz     px    dxy    dyz    dz2    dxz  x2-y2    tot
    1  0.022  0.010  0.010  0.006  0.019  0.405  0.081  0.019  0.243  0.814
 
band    10 # energy   16.46040600 # occ.  0.00000000
 
ion      s     py     pz     px    dxy    dyz    dz2    dxz  x2-y2    tot
    1  0.271  0.016  0.016  0.020  0.106  0.090  0.001  0.106  0.002  0.627
 
band    11 # energy   24.64309599 # occ.  0.00000000
 
ion      s     py     pz     px    dxy    dyz    dz2    dxz  x2-y2    tot
    1  0.000  0.003  0.003  0.006  0.006  0.000  0.001  0.006  0.004  0.029
 
band    12 # energy   27.83655875 # occ.  0.00000000
 
ion      s     py     pz     px    dxy    dyz    dz2    dxz  x2-y2    tot
    1  0.007  0.039  0.039  0.141  0.013  0.003  0.001  0.013  0.002  0.257
 
band    13 # energy   28.84489212 # occ.  0.00000000
 
ion      s     py     pz     px    dxy    dyz    dz2    dxz  x2-y2    tot
    1  0.000  0.111  0.111  0.000  0.005  0.000  0.010  0.005  0.003  0.246
 
band    14 # energy   35.20110682 # occ.  0.00000000
 
ion      s     py     pz     px    dxy    dyz    dz2    dxz  x2-y2    tot
    1  0.011  0.000  0.000  0.013  0.000  0.070  0.038  0.000  0.115  0.249
 
band    15 # energy   35.93131850 # occ.  0.00000000
 
ion      s     py     pz     px    dxy    dyz    dz2    dxz  x2-y2    tot
    1  0.000  0.002  0.002  0.000  0.046  0.000  0.175  0.046  0.058  0.331
 
band    16 # energy   36.73536825 # occ.  0.00000000
 
ion      s     py     pz     px    dxy    dyz    dz2    dxz  x2-y2    tot
    1  0.084  0.005  0.005  0.012  0.052  0.010  0.009  0.052  0.028  0.255
 
band    17 # energy   42.06642833 # occ.  0.00000000
 
ion      s     py     pz     px    dxy    dyz    dz2    dxz  x2-y2    tot
    1  0.000  0.136  0.136  0.000  0.026  0.000  0.002  0.026  0.001  0.325
 
band    18 # energy   43.17268122 # occ.  0.00000000
 
ion      s     py     pz     px    dxy    dyz    dz2    dxz  x2-y2    tot
    1  0.076  0.010  0.010  0.151  0.000  0.084  0.010  0.000  0.030  0.371
 
band    19 # energy   44.74206033 # occ.  0.00000000
 
ion      s     py     pz     px    dxy    dyz    dz2    dxz  x2-y2    tot
    1  0.043  0.060  0.060  0.020  0.034  0.008  0.003  0.034  0.010  0.273
 
band    20 # energy   49.20123198 # occ.  0.00000000
 
ion      s     py     pz     px    dxy    dyz    dz2    dxz  x2-y2    tot
    1  0.004  0.023  0.023  0.048  0.011  0.060  0.001  0.011  0.004  0.186
 
band    21 # energy   50.99927143 # occ.  0.00000000
 
ion      s     py     pz     px    dxy    dyz    dz2    dxz  x2-y2    tot
    1  6.297  0.000  0.000  0.000  0.000  0.000  0.000  0.000  0.000  6.297
 
band    22 # energy   51.88151694 # occ.  0.00000000
 
ion      s     py     pz     px    dxy    dyz    dz2    dxz  x2-y2    tot
    1  0.000  0.059  0.059  0.000  0.003  0.000  0.019  0.003  0.006  0.148
 
band    23 # energy   52.12947303 # occ.  0.00000000
 
ion      s     py     pz     px    dxy    dyz    dz2    dxz  x2-y2    tot
    1  0.070  0.001  0.001  0.006  0.002  0.001  0.000  0.002  0.000  0.082
 
band    24 # energy   53.00535597 # occ.  0.00000000
 
ion      s     py     pz     px    dxy    dyz    dz2    dxz  x2-y2    tot
    1  0.000  0.007  0.007  0.000  0.105  0.000  0.010  0.105  0.003  0.236
 

 k-point     6 :   -0.45000000 0.05000000 0.05000000     weight = 0.00600000

band     1 # energy  -42.58796971 # occ.  2.00000000
 
ion      s     py     pz     px    dxy    dyz    dz2    dxz  x2-y2    tot
    1  0.000  0.324  0.324  0.336  0.000  0.000  0.000  0.000  0.000  0.984
 
band     2 # energy  -42.33796777 # occ.  2.00000000
 
ion      s     py     pz     px    dxy    dyz    dz2    dxz  x2-y2    tot
    1  0.000  0.169  0.169  0.655  0.000  0.000  0.000  0.000  0.000  0.994
 
band     3 # energy  -42.33513664 # occ.  2.00000000
 
ion      s     py     pz     px    dxy    dyz    dz2    dxz  x2-y2    tot
    1  0.000  0.497  0.497  0.000  0.000  0.000  0.000  0.000  0.000  0.994
 
band     4 # energy    3.75785060 # occ.  2.00000000
 
ion      s     py     pz     px    dxy    dyz    dz2    dxz  x2-y2    tot
    1  0.124  0.000  0.000  0.001  0.160  0.170  0.000  0.160  0.000  0.615
 
band     5 # energy    6.66826934 # occ.  2.00000000
 
ion      s     py     pz     px    dxy    dyz    dz2    dxz  x2-y2    tot
    1  0.000  0.000  0.000  0.000  0.058  0.208  0.123  0.058  0.369  0.817
 
band     6 # energy    6.78128993 # occ.  2.00000000
 
ion      s     py     pz     px    dxy    dyz    dz2    dxz  x2-y2    tot
    1  0.000  0.000  0.000  0.000  0.169  0.000  0.364  0.169  0.121  0.824
 
band     7 # energy    9.05650709 # occ.  2.00000000
 
ion      s     py     pz     px    dxy    dyz    dz2    dxz  x2-y2    tot
    1  0.002  0.025  0.025  0.024  0.038  0.243  0.041  0.038  0.124  0.560
 
band     8 # energy    9.92885857 # occ.  0.68113717
 
ion      s     py     pz     px    dxy    dyz    dz2    dxz  x2-y2    tot
    1  0.000  0.000  0.000  0.000  0.281  0.000  0.285  0.281  0.095  0.941
 
band     9 # energy   10.72100136 # occ.  0.00000000
 
ion      s     py     pz     px    dxy    dyz    dz2    dxz  x2-y2    tot
    1  0.003  0.028  0.028  0.031  0.064  0.136  0.051  0.064  0.152  0.557
 
band    10 # energy   14.95572046 # occ.  0.00000000
 
ion      s     py     pz     px    dxy    dyz    dz2    dxz  x2-y2    tot
    1  0.354  0.002  0.002  0.001  0.132  0.140  0.000  0.132  0.000  0.763
 
band    11 # energy   24.40515489 # occ.  0.00000000
 
ion      s     py     pz     px    dxy    dyz    dz2    dxz  x2-y2    tot
    1  0.000  0.002  0.002  0.005  0.000  0.004  0.001  0.000  0.004  0.020
 
band    12 # energy   27.79730660 # occ.  0.00000000
 
ion      s     py     pz     px    dxy    dyz    dz2    dxz  x2-y2    tot
    1  0.006  0.036  0.036  0.142  0.003  0.005  0.002  0.003  0.006  0.239
 
band    13 # energy   27.87314157 # occ.  0.00000000
 
ion      s     py     pz     px    dxy    dyz    dz2    dxz  x2-y2    tot
    1  0.000  0.109  0.109  0.000  0.001  0.000  0.005  0.001  0.002  0.227
 
band    14 # energy   36.13477522 # occ.  0.00000000
 
ion      s     py     pz     px    dxy    dyz    dz2    dxz  x2-y2    tot
    1  0.000  0.000  0.000  0.000  0.049  0.000  0.176  0.049  0.059  0.334
 
band    15 # energy   36.29973020 # occ.  0.00000000
 
ion      s     py     pz     px    dxy    dyz    dz2    dxz  x2-y2    tot
    1  0.000  0.000  0.000  0.000  0.012  0.078  0.061  0.012  0.182  0.347
 
band    16 # energy   37.70294373 # occ.  0.00000000
 
ion      s     py     pz     px    dxy    dyz    dz2    dxz  x2-y2    tot
    1  0.142  0.002  0.002  0.000  0.069  0.060  0.000  0.069  0.000  0.346
 
band    17 # energy   42.41158691 # occ.  0.00000000
 
ion      s     py     pz     px    dxy    dyz    dz2    dxz  x2-y2    tot
    1  0.019  0.065  0.065  0.133  0.001  0.002  0.001  0.001  0.003  0.289
 
band    18 # energy   43.33486283 # occ.  0.00000000
 
ion      s     py     pz     px    dxy    dyz    dz2    dxz  x2-y2    tot
    1  0.000  0.150  0.150  0.000  0.002  0.000  0.013  0.002  0.004  0.321
 
band    19 # energy   43.73541356 # occ.  0.00000000
 
ion      s     py     pz     px    dxy    dyz    dz2    dxz  x2-y2    tot
    1  0.001  0.012  0.012  0.084  0.006  0.001  0.001  0.006  0.002  0.125
 
band    20 # energy   50.31698344 # occ.  0.00000000
 
ion      s     py     pz     px    dxy    dyz    dz2    dxz  x2-y2    tot
    1  0.000  0.028  0.028  0.000  0.052  0.000  0.000  0.052  0.000  0.160
 
band    21 # energy   50.96755687 # occ.  0.00000000
 
ion      s     py     pz     px    dxy    dyz    dz2    dxz  x2-y2    tot
    1  0.455  0.007  0.007  0.026  0.009  0.047  0.001  0.009  0.002  0.562
 
band    22 # energy   51.00469780 # occ.  0.00000000
 
ion      s     py     pz     px    dxy    dyz    dz2    dxz  x2-y2    tot
    1  5.857  0.001  0.001  0.002  0.001  0.005  0.000  0.001  0.000  5.868
 