<?xml version="1.0" encoding="ISO-8859-1"?>
<modeling>
 <generator>
  <i name="program" type="string">vasp </i>
  <i name="version" type="string">6.3.2  </i>
  <i name="subversion" type="string">27Jun22 (build Aug 12 2022 00:53:59) complex                          parallel </i>
  <i name="platform" type="string">tv2STD </i>
  <i name="date" type="string">2024 11 30 </i>
  <i name="time" type="string">17:14:55 </i>
 </generator>
 <incar>
  <i type="string" name="SYSTEM">Pt-fcc</i>
  <i type="int" name="ISTART">     0</i>
  <i type="string" name="PREC">accurate      normal | accurate</i>
  <i type="string" name="ALGO">Normal     Normal, Fast, Very_Fast</i>
  <i type="logical" name="ADDGRID"> F  </i>
  <i type="int" name="ICHARG">     2</i>
  <i type="int" name="INIWAV">     1</i>
  <i type="int" name="NELM">   100</i>
  <i type="int" name="IBRION">     2</i>
  <i name="EDIFF">      0.00000100</i>
  <i name="EDIFFG">     -0.02000000</i>
  <i type="int" name="NSW">   100</i>
  <i type="int" name="ISIF">     2</i>
  <i type="int" name="ISYM">     1</i>
  <i name="ENCUT">    425.00000000</i>
  <i type="logical" name="LREAL"> F  </i>
  <i type="int" name="ISMEAR">     0</i>
  <i name="SIGMA">      0.05000000</i>
  <i type="int" name="NWRITE">     2</i>
  <i type="logical" name="LWAVE"> T  </i>
  <i type="logical" name="LCHARG"> T  </i>
  <i type="int" name="LORBIT">    11</i>
 </incar>
 <primitive_cell>
  <structure name="primitive_cell" >
   <crystal>
    <varray name="basis" >
     <v>       0.00000000       2.00059596       2.00059596 </v>
     <v>       2.00059596       0.00000000       2.00059596 </v>
     <v>       2.00059596       2.00059596       0.00000000 </v>
    </varray>
    <i name="volume">     16.01430730 </i>
    <varray name="rec_basis" >
     <v>      -0.24992553       0.24992553       0.24992553 </v>
     <v>       0.24992553      -0.24992553       0.24992553 </v>
     <v>       0.24992553       0.24992553      -0.24992553 </v>
    </varray>
   </crystal>
   <varray name="positions" >
    <v>       0.00000000       0.00000000       0.00000000 </v>
   </varray>
  </structure>
  <varray name="primitive_index" >
   <v type="int" >        1 </v>
  </varray>
 </primitive_cell>
 <kpoints>
  <generation param="Monkhorst-Pack">
   <v type="int" name="divisions">      10       10       10 </v>
   <v name="usershift">      0.00000000       0.00000000       0.00000000 </v>
   <v name="genvec1">      0.10000000      -0.00000000      -0.00000000 </v>
   <v name="genvec2">      0.00000000       0.10000000       0.00000000 </v>
   <v name="genvec3">      0.00000000       0.00000000       0.10000000 </v>
   <v name="shift">      0.50000000       0.50000000       0.50000000 </v>
  </generation>
  <varray name="kpointlist" >
   <v>       0.05000000       0.05000000       0.05000000 </v>
   <v>       0.15000000       0.05000000       0.05000000 </v>
   <v>       0.25000000       0.05000000       0.05000000 </v>
   <v>       0.35000000       0.05000000       0.05000000 </v>
   <v>       0.45000000       0.05000000       0.05000000 </v>
   <v>      -0.45000000       0.05000000       0.05000000 </v>
   <v>      -0.35000000       0.05000000       0.05000000 </v>
   <v>      -0.25000000       0.05000000       0.05000000 </v>
   <v>      -0.15000000       0.05000000       0.05000000 </v>
   <v>      -0.05000000       0.05000000       0.05000000 </v>
   <v>       0.15000000       0.15000000       0.05000000 </v>
   <v>       0.25000000       0.15000000       0.05000000 </v>
   <v>       0.35000000       0.15000000       0.05000000 </v>
   <v>       0.45000000       0.15000000       0.05000000 </v>
   <v>      -0.45000000       0.15000000       0.05000000 </v>
   <v>      -0.35000000       0.15000000       0.05000000 </v>
   <v>      -0.25000000       0.15000000       0.05000000 </v>
   <v>      -0.15000000       0.15000000       0.05000000 </v>
   <v>      -0.05000000       0.15000000       0.05000000 </v>
   <v>       0.25000000       0.25000000       0.05000000 </v>
   <v>       0.35000000       0.25000000       0.05000000 </v>
   <v>       0.45000000       0.25000000       0.05000000 </v>
   <v>      -0.45000000       0.25000000       0.05000000 </v>
   <v>      -0.35000000       0.25000000       0.05000000 </v>
   <v>      -0.25000000       0.25000000       0.05000000 </v>
   <v>      -0.15000000       0.25000000       0.05000000 </v>
   <v>      -0.05000000       0.25000000       0.05000000 </v>
   <v>       0.35000000       0.35000000       0.05000000 </v>
   <v>       0.45000000       0.35000000       0.05000000 </v>
   <v>      -0.45000000       0.35000000       0.05000000 </v>
   <v>      -0.35000000       0.35000000       0.05000000 </v>
   <v>      -0.25000000       0.35000000       0.05000000 </v>
   <v>      -0.15000000       0.35000000       0.05000000 </v>
   <v>      -0.05000000       0.35000000       0.05000000 </v>
   <v>       0.45000000       0.45000000       0.05000000 </v>
   <v>      -0.45000000       0.45000000       0.05000000 </v>
   <v>      -0.35000000       0.45000000       0.05000000 </v>
   <v>      -0.25000000       0.45000000       0.05000000 </v>
   <v>      -0.15000000       0.45000000       0.05000000 </v>
   <v>      -0.05000000       0.45000000       0.05000000 </v>
   <v>      -0.45000000      -0.45000000       0.05000000 </v>
   <v>      -0.35000000      -0.45000000       0.05000000 </v>
   <v>      -0.25000000      -0.45000000       0.05000000 </v>
   <v>      -0.15000000      -0.45000000       0.05000000 </v>
   <v>      -0.35000000      -0.35000000       0.05000000 </v>
   <v>      -0.25000000      -0.35000000       0.05000000 </v>
   <v>      -0.15000000      -0.35000000       0.05000000 </v>
   <v>      -0.25000000      -0.25000000       0.05000000 </v>
   <v>      -0.15000000      -0.25000000       0.05000000 </v>
   <v>      -0.15000000      -0.15000000       0.05000000 </v>
   <v>       0.15000000       0.15000000       0.15000000 </v>
   <v>       0.25000000       0.15000000       0.15000000 </v>
   <v>       0.35000000       0.15000000       0.15000000 </v>
   <v>       0.45000000       0.15000000       0.15000000 </v>
   <v>      -0.45000000       0.15000000       0.15000000 </v>
   <v>      -0.35000000       0.15000000       0.15000000 </v>
   <v>      -0.25000000       0.15000000       0.15000000 </v>
   <v>      -0.15000000       0.15000000       0.15000000 </v>
   <v>       0.25000000       0.25000000       0.15000000 </v>
   <v>       0.35000000       0.25000000       0.15000000 </v>
   <v>       0.45000000       0.25000000       0.15000000 </v>
   <v>      -0.45000000       0.25000000       0.15000000 </v>
   <v>      -0.35000000       0.25000000       0.15000000 </v>
   <v>      -0.25000000       0.25000000       0.15000000 </v>
   <v>      -0.15000000       0.25000000       0.15000000 </v>
   <v>       0.35000000       0.35000000       0.15000000 </v>
   <v>       0.45000000       0.35000000       0.15000000 </v>
   <v>      -0.45000000       0.35000000       0.15000000 </v>
   <v>      -0.35000000       0.35000000       0.15000000 </v>
   <v>      -0.25000000       0.35000000       0.15000000 </v>
   <v>      -0.15000000       0.35000000       0.15000000 </v>
   <v>       0.45000000       0.45000000       0.15000000 </v>
   <v>      -0.45000000       0.45000000       0.15000000 </v>
   <v>      -0.35000000       0.45000000       0.15000000 </v>
   <v>      -0.25000000       0.45000000       0.15000000 </v>
   <v>      -0.15000000       0.45000000       0.15000000 </v>
   <v>      -0.45000000      -0.45000000       0.15000000 </v>
   <v>      -0.35000000      -0.45000000       0.15000000 </v>
   <v>      -0.25000000      -0.45000000       0.15000000 </v>
   <v>      -0.35000000      -0.35000000       0.15000000 </v>
   <v>      -0.25000000      -0.35000000       0.15000000 </v>
   <v>      -0.25000000      -0.25000000       0.15000000 </v>
   <v>       0.25000000       0.25000000       0.25000000 </v>
   <v>       0.35000000       0.25000000       0.25000000 </v>
   <v>       0.45000000       0.25000000       0.25000000 </v>
   <v>      -0.45000000       0.25000000       0.25000000 </v>
   <v>      -0.35000000       0.25000000       0.25000000 </v>
   <v>      -0.25000000       0.25000000       0.25000000 </v>
   <v>       0.35000000       0.35000000       0.25000000 </v>
   <v>       0.45000000       0.35000000       0.25000000 </v>
   <v>      -0.45000000       0.35000000       0.25000000 </v>
   <v>      -0.35000000       0.35000000       0.25000000 </v>
   <v>      -0.25000000       0.35000000       0.25000000 </v>
   <v>       0.45000000       0.45000000       0.25000000 </v>
   <v>      -0.45000000       0.45000000       0.25000000 </v>
   <v>      -0.35000000       0.45000000       0.25000000 </v>
   <v>      -0.25000000       0.45000000       0.25000000 </v>
   <v>      -0.45000000      -0.45000000       0.25000000 </v>
   <v>      -0.35000000      -0.45000000       0.25000000 </v>
   <v>      -0.35000000      -0.35000000       0.25000000 </v>
   <v>       0.35000000       0.35000000       0.35000000 </v>
   <v>       0.45000000       0.35000000       0.35000000 </v>
   <v>      -0.45000000       0.35000000       0.35000000 </v>
   <v>      -0.35000000       0.35000000       0.35000000 </v>
   <v>       0.45000000       0.45000000       0.35000000 </v>
   <v>      -0.45000000       0.45000000       0.35000000 </v>
   <v>      -0.35000000       0.45000000       0.35000000 </v>
   <v>      -0.45000000      -0.45000000       0.35000000 </v>
   <v>       0.45000000       0.45000000       0.45000000 </v>
   <v>      -0.45000000       0.45000000       0.45000000 </v>
  </varray>
  <varray name="weights" >
   <v>       0.00200000 </v>
   <v>       0.00600000 </v>
   <v>       0.00600000 </v>
   <v>       0.00600000 </v>
   <v>       0.00600000 </v>
   <v>       0.00600000 </v>
   <v>       0.00600000 </v>
   <v>       0.00600000 </v>
   <v>       0.00600000 </v>
   <v>       0.00600000 </v>
   <v>       0.00600000 </v>
   <v>       0.01200000 </v>
   <v>       0.01200000 </v>
   <v>       0.01200000 </v>
   <v>       0.01200000 </v>
   <v>       0.01200000 </v>
   <v>       0.01200000 </v>
   <v>       0.01200000 </v>
   <v>       0.01200000 </v>
   <v>       0.00600000 </v>
   <v>       0.01200000 </v>
   <v>       0.01200000 </v>
   <v>       0.01200000 </v>
   <v>       0.01200000 </v>
   <v>       0.01200000 </v>
   <v>       0.01200000 </v>
   <v>       0.01200000 </v>
   <v>       0.00600000 </v>
   <v>       0.01200000 </v>
   <v>       0.01200000 </v>
   <v>       0.01200000 </v>
   <v>       0.01200000 </v>
   <v>       0.01200000 </v>
   <v>       0.01200000 </v>
   <v>       0.00600000 </v>
   <v>       0.01200000 </v>
   <v>       0.01200000 </v>
   <v>       0.01200000 </v>
   <v>       0.01200000 </v>
   <v>       0.01200000 </v>
   <v>       0.00600000 </v>
   <v>       0.01200000 </v>
   <v>       0.01200000 </v>
   <v>       0.01200000 </v>
   <v>       0.00600000 </v>
   <v>       0.01200000 </v>
   <v>       0.01200000 </v>
   <v>       0.00600000 </v>
   <v>       0.01200000 </v>
   <v>       0.00600000 </v>
   <v>       0.00200000 </v>
   <v>       0.00600000 </v>
   <v>       0.00600000 </v>
   <v>       0.00600000 </v>
   <v>       0.00600000 </v>
   <v>       0.00600000 </v>
   <v>       0.00600000 </v>
   <v>       0.00600000 </v>
   <v>       0.00600000 </v>
   <v>       0.01200000 </v>
   <v>       0.01200000 </v>
   <v>       0.01200000 </v>
   <v>       0.01200000 </v>
   <v>       0.01200000 </v>
   <v>       0.01200000 </v>
   <v>       0.00600000 </v>
   <v>       0.01200000 </v>
   <v>       0.01200000 </v>
   <v>       0.01200000 </v>
   <v>       0.01200000 </v>
   <v>       0.01200000 </v>
   <v>       0.00600000 </v>
   <v>       0.01200000 </v>
   <v>       0.01200000 </v>
   <v>       0.01200000 </v>
   <v>       0.01200000 </v>
   <v>       0.00600000 </v>
   <v>       0.01200000 </v>
   <v>       0.01200000 </v>
   <v>       0.00600000 </v>
   <v>       0.01200000 </v>
   <v>       0.00600000 </v>
   <v>       0.00200000 </v>
   <v>       0.00600000 </v>
   <v>       0.00600000 </v>
   <v>       0.00600000 </v>
   <v>       0.00600000 </v>
   <v>       0.00600000 </v>
   <v>       0.00600000 </v>
   <v>       0.01200000 </v>
   <v>       0.01200000 </v>
   <v>       0.01200000 </v>
   <v>       0.01200000 </v>
   <v>       0.00600000 </v>
   <v>       0.01200000 </v>
   <v>       0.01200000 </v>
   <v>       0.01200000 </v>
   <v>       0.00600000 </v>
   <v>       0.01200000 </v>
   <v>       0.00600000 </v>
   <v>       0.00200000 </v>
   <v>       0.00600000 </v>
   <v>       0.00600000 </v>
   <v>       0.00600000 </v>
   <v>       0.00600000 </v>
   <v>       0.01200000 </v>
   <v>       0.01200000 </v>
   <v>       0.00600000 </v>
   <v>       0.00200000 </v>
   <v>       0.00600000 </v>
  </varray>
 </kpoints>
 <parameters>
  <separator name="general" >
   <i type="string" name="SYSTEM">Pt-fcc</i>
   <i type="logical" name="LCOMPAT"> F  </i>
  </separator>
  <separator name="electronic" >
   <i type="string" name="PREC">accura</i>
   <i name="ENMAX">    425.00000000</i>
   <i name="ENAUG">    527.01400000</i>
   <i name="EDIFF">      0.00000100</i>
   <i type="int" name="IALGO">    38</i>
   <i type="int" name="IWAVPR">    11</i>
   <i type="int" name="NBANDS">    24</i>
   <i type="int" name="NBANDSLOW">    -1</i>
   <i type="int" name="NBANDSHIGH">    -1</i>
   <i name="NELECT">     16.00000000</i>
   <i type="int" name="TURBO">     0</i>
   <i type="int" name="IRESTART">     0</i>
   <i type="int" name="NREBOOT">     0</i>
   <i type="int" name="NMIN">     0</i>
   <i name="EREF">      0.00000000</i>
   <separator name="electronic smearing" >
    <i type="int" name="ISMEAR">     0</i>
    <i name="SIGMA">      0.05000000</i>
    <i name="KSPACING">      0.50000000</i>
    <i type="logical" name="KGAMMA"> T  </i>
    <i type="logical" name="KBLOWUP"> T  </i>
   </separator>
   <separator name="electronic projectors" >
    <i type="logical" name="LREAL"> F  </i>
    <v name="ROPT">      0.00000000</v>
    <i type="int" name="LMAXPAW">  -100</i>
    <i type="int" name="LMAXMIX">     2</i>
    <i type="logical" name="NLSPLINE"> F  </i>
   </separator>
   <separator name="electronic startup" >
    <i type="int" name="ISTART">     0</i>
    <i type="int" name="ICHARG">     2</i>
    <i type="int" name="INIWAV">     1</i>
   </separator>
   <separator name="electronic spin" >
    <i type="int" name="ISPIN">     1</i>
    <i type="logical" name="LNONCOLLINEAR"> F  </i>
    <v name="MAGMOM">      1.00000000</v>
    <i name="NUPDOWN">     -1.00000000</i>
    <i type="logical" name="LSORBIT"> F  </i>
    <v name="SAXIS">      0.00000000      0.00000000      1.00000000</v>
    <i type="logical" name="LSPIRAL"> F  </i>
    <v name="QSPIRAL">      0.00000000      0.00000000      0.00000000</v>
    <i type="logical" name="LZEROZ"> F  </i>
   </separator>
   <separator name="electronic exchange-correlation" >
    <i type="logical" name="LASPH"> F  </i>
    <i type="logical" name="LMETAGGA"> F  </i>
   </separator>
   <separator name="electronic convergence" >
    <i type="int" name="NELM">   100</i>
    <i type="int" name="NELMDL">    -5</i>
    <i type="int" name="NELMIN">     2</i>
    <i name="ENINI">    425.00000000</i>
    <separator name="electronic convergence detail" >
     <i type="logical" name="LDIAG"> T  </i>
     <i type="logical" name="LSUBROT"> F  </i>
     <i name="WEIMIN">      0.00100000</i>
     <i name="EBREAK">      0.00000001</i>
     <i name="DEPER">      0.30000000</i>
     <i type="int" name="NRMM">     4</i>
     <i name="TIME">      0.40000000</i>
    </separator>
   </separator>
   <separator name="electronic mixer" >
    <i name="AMIX">      0.40000000</i>
    <i name="BMIX">      1.00000000</i>
    <i name="AMIN">      0.10000000</i>
    <i name="AMIX_MAG">      1.60000000</i>
    <i name="BMIX_MAG">      1.00000000</i>
    <separator name="electronic mixer details" >
     <i type="int" name="IMIX">     4</i>
     <i type="logical" name="MIXFIRST"> F  </i>
     <i type="int" name="MAXMIX">   -45</i>
     <i name="WC">    100.00000000</i>
     <i type="int" name="INIMIX">     1</i>
     <i type="int" name="MIXPRE">     1</i>
     <i type="int" name="MREMOVE">     5</i>
    </separator>
   </separator>
   <separator name="electronic dipolcorrection" >
    <i type="logical" name="LDIPOL"> F  </i>
    <i type="logical" name="LMONO"> F  </i>
    <i type="int" name="IDIPOL">     0</i>
    <i name="EPSILON">      1.00000000</i>
    <v name="DIPOL">   -100.00000000   -100.00000000   -100.00000000</v>
    <i name="EFIELD">      0.00000000</i>
   </separator>
  </separator>
  <separator name="grids" >
   <i type="int" name="NGX">    20</i>
   <i type="int" name="NGY">    20</i>
   <i type="int" name="NGZ">    20</i>
   <i type="int" name="NGXF">    40</i>
   <i type="int" name="NGYF">    40</i>
   <i type="int" name="NGZF">    40</i>
   <i type="logical" name="ADDGRID"> F  </i>
  </separator>
  <separator name="ionic" >
   <i type="int" name="NSW">   100</i>
   <i type="int" name="IBRION">     2</i>
   <i type="int" name="MDALGO">     0</i>
   <i type="int" name="ISIF">     2</i>
   <i name="PSTRESS">      0.00000000</i>
   <i name="EDIFFG">     -0.02000000</i>
   <i type="int" name="NFREE">     1</i>
   <i name="POTIM">      0.50000000</i>
   <i name="SMASS">     -3.00000000</i>
   <i name="SCALEE">      1.00000000</i>
  </separator>
  <separator name="ionic md" >
   <i name="TEBEG">      0.00010000</i>
   <i name="TEEND">      0.00010000</i>
   <i type="int" name="NBLOCK">     1</i>
   <i type="int" name="KBLOCK">   100</i>
   <i type="int" name="NPACO">   256</i>
   <i name="APACO">     10.00000000</i>
  </separator>
  <separator name="symmetry" >
   <i type="int" name="ISYM">     1</i>
   <i name="SYMPREC">      0.00001000</i>
  </separator>
  <separator name="dos" >
   <i type="int" name="LORBIT">    11</i>
   <v name="RWIGS">     -1.00000000</v>
   <i type="int" name="NEDOS">   301</i>
   <i name="EMIN">     10.00000000</i>
   <i name="EMAX">    -10.00000000</i>
   <i name="EFERMI">      0.00000000</i>
  </separator>
  <separator name="writing" >
   <i type="int" name="NWRITE">     2</i>
   <i type="logical" name="LWAVE"> T  </i>
   <i type="logical" name="LDOWNSAMPLE"> F  </i>
   <i type="logical" name="LCHARG"> T  </i>
   <i type="logical" name="LPARD"> F  </i>
   <i type="logical" name="LVTOT"> F  </i>
   <i type="logical" name="LVHAR"> F  </i>
   <i type="logical" name="LELF"> F  </i>
   <i type="logical" name="LOPTICS"> F  </i>
   <v name="STM">      0.00000000      0.00000000      0.00000000      0.00000000      0.00000000      0.00000000      0.00000000</v>
  </separator>
  <separator name="performance" >
   <i type="int" name="NPAR">    24</i>
   <i type="int" name="NSIM">     4</i>
   <i type="int" name="NBLK">    -1</i>
   <i type="logical" name="LPLANE"> T  </i>
   <i type="logical" name="LSCALAPACK"> T  </i>
   <i type="logical" name="LSCAAWARE"> T  </i>
   <i type="logical" name="LSCALU"> F  </i>
   <i type="logical" name="LASYNC"> F  </i>
   <i type="logical" name="LORBITALREAL"> F  </i>
  </separator>
  <separator name="miscellaneous" >
   <i type="int" name="IDIOT">     3</i>
   <i type="int" name="PHON_NSTRUCT">    -1</i>
   <i type="logical" name="LMUSIC"> F  </i>
   <v name="POMASS">    195.08000000</v>
   <v name="DARWINR">      0.00000000</v>
   <v name="DARWINV">      1.00000000</v>
   <i type="logical" name="LCORR"> T  </i>
  </separator>
  <i type="logical" name="GGA_COMPAT"> T  </i>
  <i type="logical" name="LBERRY"> F  </i>
  <i type="int" name="ICORELEVEL">     0</i>
  <i type="logical" name="LDAU"> F  </i>
  <i type="int" name="I_CONSTRAINED_M">     0</i>
  <separator name="electronic exchange-correlation" >
   <i type="string" name="GGA">--</i>
   <i type="int" name="VOSKOWN">     0</i>
   <i type="logical" name="LHFCALC"> F  </i>
   <i type="string" name="PRECFOCK"></i>
   <i type="logical" name="LSYMGRAD"> F  </i>
   <i type="logical" name="LHFONE"> F  </i>
   <i type="logical" name="LRHFCALC"> F  </i>
   <i type="logical" name="LTHOMAS"> F  </i>
   <i type="logical" name="LMODELHF"> F  </i>
   <i type="logical" name="LFOCKACE"> F  </i>
   <i name="ENCUT4O">     -1.00000000</i>
   <i type="int" name="EXXOEP">     0</i>
   <i type="int" name="FOURORBIT">     0</i>
   <i name="AEXX">      0.00000000</i>
   <i name="HFALPHA">      0.00000000</i>
   <i name="MCALPHA">      0.00000000</i>
   <i name="ALDAX">      1.00000000</i>
   <i name="AGGAX">      1.00000000</i>
   <i name="ALDAC">      1.00000000</i>
   <i name="AGGAC">      1.00000000</i>
   <i type="int" name="NKREDX">     1</i>
   <i type="int" name="NKREDY">     1</i>
   <i type="int" name="NKREDZ">     1</i>
   <i type="logical" name="SHIFTRED"> F  </i>
   <i type="logical" name="ODDONLY"> F  </i>
   <i type="logical" name="EVENONLY"> F  </i>
   <i type="int" name="LMAXFOCK">     0</i>
   <i type="int" name="NMAXFOCKAE">     0</i>
   <i type="logical" name="LFOCKAEDFT"> F  </i>
   <i name="HFSCREEN">      0.00000000</i>
   <i name="HFSCREENC">      0.00000000</i>
   <i type="int" name="NBANDSGWLOW">     0</i>
  </separator>
  <separator name="vdW DFT" >
   <i type="logical" name="LUSE_VDW"> F  </i>
   <i name="Zab_VDW">     -0.84910000</i>
   <i name="PARAM1">      0.12340000</i>
   <i name="PARAM2">      1.00000000</i>
   <i name="PARAM3">      0.00000000</i>
  </separator>
  <separator name="model GW" >
   <i type="int" name="MODEL_GW">     0</i>
   <i name="MODEL_EPS0">      9.60858438</i>
   <i name="MODEL_ALPHA">      1.00000000</i>
  </separator>
  <separator name="linear response parameters" >
   <i type="logical" name="LEPSILON"> F  </i>
   <i type="logical" name="LRPA"> F  </i>
   <i type="logical" name="LNABLA"> F  </i>
   <i type="logical" name="LVEL"> F  </i>
   <i name="CSHIFT">      0.10000000</i>
   <i name="OMEGAMAX">     -1.00000000</i>
   <i name="DEG_THRESHOLD">      0.00200000</i>
   <i name="RTIME">     -0.10000000</i>
   <i name="WPLASMAI">      0.00000000</i>
   <v name="DFIELD">      0.00000000      0.00000000      0.00000000</v>
   <v name="WPLASMA">      0.00000000      0.00000000      0.00000000      0.00000000      0.00000000      0.00000000      0.00000000      0.00000000      0.00000000</v>
  </separator>
  <separator name="orbital magnetization" >
   <i type="logical" name="NUCIND"> F  </i>
   <v name="MAGPOS">      0.00000000      0.00000000      0.00000000</v>
   <i type="logical" name="LNICSALL"> T  </i>
   <i type="logical" name="ORBITALMAG"> F  </i>
   <i type="logical" name="LMAGBLOCH"> F  </i>
   <i type="logical" name="LCHIMAG"> F  </i>
   <i type="logical" name="LGAUGE"> T  </i>
   <i type="int" name="MAGATOM">     0</i>
   <v name="MAGDIPOL">      0.00000000      0.00000000      0.00000000</v>
   <v name="AVECCONST">      0.00000000      0.00000000      0.00000000</v>
  </separator>
  <separator name="response functions" >
   <i type="logical" name="LFINITE_TEMPERATURE"> F  </i>
   <i type="logical" name="LADDER"> F  </i>
   <i type="logical" name="LRPAFORCE"> F  </i>
   <i type="logical" name="LFXC"> F  </i>
   <i type="logical" name="LHARTREE"> T  </i>
   <i type="int" name="IBSE">     0</i>
   <v type="int" name="KPOINT">    -1     0     0     0</v>
   <i type="logical" name="LTCTC"> F  </i>
   <i type="logical" name="LTCTE"> F  </i>
   <i type="logical" name="LTETE"> F  </i>
   <i type="logical" name="LTRIPLET"> F  </i>
   <i type="logical" name="LFXCEPS"> F  </i>
   <i type="logical" name="LFXHEG"> F  </i>
   <i type="int" name="NATURALO">     2</i>
   <i type="logical" name="LHOLEGF"> F  </i>
   <i type="logical" name="L2ORDER"> F  </i>
   <i type="logical" name="LDMP1"> F  </i>
   <i type="logical" name="LMP2LT"> F  </i>
   <i type="logical" name="LSMP2LT"> F  </i>
   <i type="logical" name="LGWLF"> F  </i>
   <i name="ENCUTGW">     -2.00000000</i>
   <i name="ENCUTGWSOFT">     -2.00000000</i>
   <i name="ENCUTLF">     -1.00000000</i>
   <i type="logical" name="LESF_SPLINES"> F  </i>
   <i type="int" name="LMAXMP2">    -1</i>
   <i name="SCISSOR">      0.00000000</i>
   <i type="int" name="NOMEGA">     0</i>
   <i type="int" name="NOMEGAR">     0</i>
   <i type="int" name="NBANDSGW">    -1</i>
   <i type="int" name="NBANDSO">    -1</i>
   <i type="int" name="NBANDSV">    -1</i>
   <i type="int" name="NELMGW">     1</i>
   <i type="int" name="NELMHF">     1</i>
   <i type="int" name="DIM">     3</i>
   <i type="int" name="IESPILON">     4</i>
   <i type="int" name="ANTIRES">     0</i>
   <i name="OMEGAMAX">    -30.00000000</i>
   <i name="OMEGAMIN">    -30.00000000</i>
   <i name="OMEGATL">   -200.00000000</i>
   <i type="int" name="OMEGAGRID">     0</i>
   <i name="CSHIFT">     -0.10000000</i>
   <i type="logical" name="LSELFENERGY"> F  </i>
   <i type="logical" name="LSPECTRAL"> F  </i>
   <i type="logical" name="LSPECTRALGW"> F  </i>
   <i type="logical" name="LSINGLES"> F  </i>
   <i type="logical" name="LFERMIGW"> F  </i>
   <i type="logical" name="ODDONLYGW"> F  </i>
   <i type="logical" name="EVENONLYGW"> F  </i>
   <i type="int" name="NKREDLFX">     1</i>
   <i type="int" name="NKREDLFY">     1</i>
   <i type="int" name="NKREDLFZ">     1</i>
   <i type="int" name="MAXMEM">  2800</i>
   <i type="int" name="TELESCOPE">     0</i>
   <i type="int" name="NTAUPAR">    -1</i>
   <i type="int" name="NOMEGAPAR">    -1</i>
   <i name="DAMP_NEWTON">      0.80000001</i>
   <i name="LAMBDA">      1.00000000</i>
  </separator>
  <separator name="External order field" >
   <i name="OFIELD_KAPPA">      0.00000000</i>
   <v name="OFIELD_K">      0.00000000      0.00000000      0.00000000</v>
   <i name="OFIELD_Q6_NEAR">      0.00000000</i>
   <i name="OFIELD_Q6_FAR">      0.00000000</i>
   <i name="OFIELD_A">      0.00000000</i>
  </separator>
  <separator name="optional k-points parameters" >
   <i type="int" name="KPOINTS_OPT_MODE">     1</i>
   <i type="logical" name="LKPOINTS_OPT"> F  </i>
  </separator>
 </parameters>
 <atominfo>
  <atoms>       1 </atoms>
  <types>       1 </types>
  <array name="atoms" >
   <dimension dim="1">ion</dimension>
   <field type="string">element</field>
   <field type="int">atomtype</field>
   <set>
    <rc><c>Pt</c><c>   1</c></rc>
   </set>
  </array>
  <array name="atomtypes" >
   <dimension dim="1">type</dimension>
   <field type="int">atomspertype</field>
   <field type="string">element</field>
   <field>mass</field>
   <field>valence</field>
   <field type="string">pseudopotential</field>
   <set>
    <rc><c>   1</c><c>Pt</c><c>    195.08000000</c><c>     16.00000000</c><c>  PAW_PBE Pt_pv 12Dec2005               </c></rc>
   </set>
  </array>
 </atominfo>
 <structure name="initialpos" >
  <crystal>
   <varray name="basis" >
    <v>       0.00000000       2.00059596       2.00059596 </v>
    <v>       2.00059596       0.00000000       2.00059596 </v>
    <v>       2.00059596       2.00059596       0.00000000 </v>
   </varray>
   <i name="volume">     16.01430730 </i>
   <varray name="rec_basis" >
    <v>      -0.24992553       0.24992553       0.24992553 </v>
    <v>       0.24992553      -0.24992553       0.24992553 </v>
    <v>       0.24992553       0.24992553      -0.24992553 </v>
   </varray>
  </crystal>
  <varray name="positions" >
   <v>       0.00000000       0.00000000       0.00000000 </v>
  </varray>
 </structure>
 <calculation>
  <scstep>
   <time name="dav">    0.52    0.52</time>
   <time name="total">    0.52    0.53</time>
   <energy>
    <i name="alphaZ">    149.82343690 </i>
    <i name="ewald">  -2112.04387056 </i>
    <i name="hartreedc">   -413.16948797 </i>
    <i name="XCdc">     63.58917319 </i>
    <i name="pawpsdc">   2065.75261637 </i>
    <i name="pawaedc">  -2030.83594803 </i>
    <i name="eentropy">     -0.00109018 </i>
    <i name="bandstr">   -133.75106105 </i>
    <i name="atom">   2428.19501064 </i>
    <i name="e_fr_energy">     17.55877931 </i>
    <i name="e_wo_entrp">     17.55986950 </i>
    <i name="e_0_energy">     17.55932441 </i>
   </energy>
  </scstep>
  <scstep>
   <time name="dav">    0.63    0.63</time>
   <time name="total">    0.63    0.63</time>
   <energy>
    <i name="e_fr_energy">     -6.39805169 </i>
    <i name="e_wo_entrp">     -6.39615530 </i>
    <i name="e_0_energy">     -6.39710350 </i>
   </energy>
  </scstep>
  <scstep>
   <time name="dav">    0.74    0.74</time>
   <time name="total">    0.74    0.74</time>
   <energy>
    <i name="e_fr_energy">     -6.43704533 </i>
    <i name="e_wo_entrp">     -6.43513432 </i>
    <i name="e_0_energy">     -6.43608982 </i>
   </energy>
  </scstep>
  <scstep>
   <time name="dav">    0.92    0.92</time>
   <time name="total">    0.92    0.92</time>
   <energy>
    <i name="e_fr_energy">     -6.43707408 </i>
    <i name="e_wo_entrp">     -6.43516305 </i>
    <i name="e_0_energy">     -6.43611857 </i>
   </energy>
  </scstep>
  <scstep>
   <time name="dav">    0.70    0.71</time>
   <time name="total">    0.72    0.73</time>
   <energy>
    <i name="e_fr_energy">     -6.43707408 </i>
    <i name="e_wo_entrp">     -6.43516306 </i>
    <i name="e_0_energy">     -6.43611857 </i>
   </energy>
  </scstep>
  <scstep>
   <time name="dav">    0.53    0.53</time>
   <time name="total">    0.55    0.55</time>
   <energy>
    <i name="e_fr_energy">     -6.09359645 </i>
    <i name="e_wo_entrp">     -6.09101226 </i>
    <i name="e_0_energy">     -6.09230436 </i>
   </energy>
  </scstep>
  <scstep>
   <time name="dav">    0.81    0.81</time>
   <time name="total">    0.83    0.84</time>
   <energy>
    <i name="e_fr_energy">     -6.07784900 </i>
    <i name="e_wo_entrp">     -6.07520903 </i>
    <i name="e_0_energy">     -6.07652901 </i>
   </energy>
  </scstep>
  <scstep>
   <time name="dav">    0.53    0.54</time>
   <time name="total">    0.56    0.56</time>
   <energy>
    <i name="e_fr_energy">     -6.07643424 </i>
    <i name="e_wo_entrp">     -6.07376732 </i>
    <i name="e_0_energy">     -6.07510078 </i>
   </energy>
  </scstep>
  <scstep>
   <time name="dav">    0.76    0.76</time>
   <time name="total">    0.78    0.79</time>
   <energy>
    <i name="e_fr_energy">     -6.07638394 </i>
    <i name="e_wo_entrp">     -6.07372077 </i>
    <i name="e_0_energy">     -6.07505235 </i>
   </energy>
  </scstep>
  <scstep>
   <time name="dav">    0.71    0.72</time>
   <time name="total">    0.74    0.74</time>
   <energy>
    <i name="e_fr_energy">     -6.07639026 </i>
    <i name="e_wo_entrp">     -6.07372838 </i>
    <i name="e_0_energy">     -6.07505932 </i>
   </energy>
  </scstep>
  <scstep>
   <time name="dav">    0.31    0.31</time>
   <time name="total">    0.31    0.31</time>
   <energy>
    <i name="alphaZ">    149.82343690 </i>
    <i name="ewald">  -2112.04387056 </i>
    <i name="hartreedc">   -393.66260687 </i>
    <i name="XCdc">     62.72979278 </i>
    <i name="pawpsdc">   2289.15568387 </i>
    <i name="pawaedc">  -2256.66980723 </i>
    <i name="eentropy">     -0.00266188 </i>
    <i name="bandstr">   -173.60136783 </i>
    <i name="atom">   2428.19501064 </i>
    <i name="e_fr_energy">     -6.07639019 </i>
    <i name="e_wo_entrp">     -6.07372831 </i>
    <i name="e_0_energy">     -6.07505925 </i>
   </energy>
  </scstep>
  <structure>
   <crystal>
    <varray name="basis" >
     <v>       0.00000000       2.00059596       2.00059596 </v>
     <v>       2.00059596       0.00000000       2.00059596 </v>
     <v>       2.00059596       2.00059596       0.00000000 </v>
    </varray>
    <i name="volume">     16.01430730 </i>
    <varray name="rec_basis" >
     <v>      -0.24992553       0.24992553       0.24992553 </v>
     <v>       0.24992553      -0.24992553       0.24992553 </v>
     <v>       0.24992553       0.24992553      -0.24992553 </v>
    </varray>
   </crystal>
   <varray name="positions" >
    <v>       0.00000000       0.00000000       0.00000000 </v>
   </varray>
  </structure>
  <varray name="forces" >
   <v>       0.00000000      -0.00000000       0.00000000 </v>
  </varray>
  <varray name="stress" >
   <v>     -77.99310391      -0.00000000       0.00000000 </v>
   <v>       0.00000000     -77.99310391      -0.00000000 </v>
   <v>      -0.00000000      -0.00000000     -77.99310391 </v>
  </varray>
  <energy>
   <i name="e_fr_energy">     -6.07639019 </i>
   <i name="e_wo_entrp">     -6.07372831 </i>
   <i name="e_0_energy">     -6.07505925 </i>
  </energy>
  <time name="totalsc">    7.54    7.68</time>
  <eigenvalues>
   <array>
    <dimension dim="1">band</dimension>
    <dimension dim="2">kpoint</dimension>
    <dimension dim="3">spin</dimension>
    <field>eigene</field>
    <field>occ</field>
    <set>
     <set comment="spin 1">
      <set comment="kpoint 1">
       <r>  -41.4515    1.0000 </r>
       <r>  -41.4435    1.0000 </r>
       <r>  -41.4435    1.0000 </r>
       <r>    1.4130    1.0000 </r>
       <r>    7.4254    1.0000 </r>
       <r>    7.5036    1.0000 </r>
       <r>    7.5036    1.0000 </r>
       <r>    9.4101    1.0000 </r>
       <r>    9.4101    1.0000 </r>
       <r>   25.8038    0.0000 </r>
       <r>   29.7436    0.0000 </r>
       <r>   30.4324    0.0000 </r>
       <r>   30.4324    0.0000 </r>
       <r>   36.0179    0.0000 </r>
       <r>   40.2575    0.0000 </r>
       <r>   40.9782    0.0000 </r>
       <r>   40.9782    0.0000 </r>
       <r>   43.9254    0.0000 </r>
       <r>   43.9254    0.0000 </r>
       <r>   44.8196    0.0000 </r>
       <r>   50.7687    0.0000 </r>
       <r>   50.7687    0.0000 </r>
       <r>   51.7831    0.0000 </r>
       <r>   57.2016    0.0000 </r>
      </set>
      <set comment="kpoint 2">
       <r>  -41.4943    1.0000 </r>
       <r>  -41.4563    1.0000 </r>
       <r>  -41.4469    1.0000 </r>
       <r>    1.9074    1.0000 </r>
       <r>    7.2171    1.0000 </r>
       <r>    7.6708    1.0000 </r>
       <r>    7.7069    1.0000 </r>
       <r>    9.2091    1.0000 </r>
       <r>    9.4647    1.0000 </r>
       <r>   26.4733    0.0000 </r>
       <r>   28.0336    0.0000 </r>
       <r>   30.4721    0.0000 </r>
       <r>   31.4874    0.0000 </r>
       <r>   36.2191    0.0000 </r>
       <r>   38.5702    0.0000 </r>
       <r>   39.2289    0.0000 </r>
       <r>   40.0849    0.0000 </r>
       <r>   42.3892    0.0000 </r>
       <r>   45.3300    0.0000 </r>
       <r>   47.4935    0.0000 </r>
       <r>   49.7190    0.0000 </r>
       <r>   51.7979    0.0000 </r>
       <r>   51.9369    0.0000 </r>
       <r>   58.9223    0.0000 </r>
      </set>
      <set comment="kpoint 3">
       <r>  -41.5930    1.0000 </r>
       <r>  -41.4734    1.0000 </r>
       <r>  -41.4596    1.0000 </r>
       <r>    2.9746    1.0000 </r>
       <r>    7.0144    1.0000 </r>
       <r>    7.8469    1.0000 </r>
       <r>    7.8827    1.0000 </r>
       <r>    9.1993    1.0000 </r>
       <r>    9.7106    1.0000 </r>
       <r>   25.0258    0.0000 </r>
       <r>   27.3125    0.0000 </r>
       <r>   31.3579    0.0000 </r>
       <r>   33.2500    0.0000 </r>
       <r>   33.4084    0.0000 </r>
       <r>   36.3631    0.0000 </r>
       <r>   36.5623    0.0000 </r>
       <r>   42.8759    0.0000 </r>
       <r>   43.0287    0.0000 </r>
       <r>   46.0200    0.0000 </r>
       <r>   48.1326    0.0000 </r>
       <r>   50.7245    0.0000 </r>
       <r>   51.8053    0.0000 </r>
       <r>   52.6502    0.0000 </r>
       <r>   59.2141    0.0000 </r>
      </set>
      <set comment="kpoint 4">
       <r>  -41.7056    1.0000 </r>
       <r>  -41.4909    1.0000 </r>
       <r>  -41.4764    1.0000 </r>
       <r>    3.9571    1.0000 </r>
       <r>    7.5373    1.0000 </r>
       <r>    7.7127    1.0000 </r>
       <r>    7.7396    1.0000 </r>
       <r>    9.8040    1.0000 </r>
       <r>   10.3936    1.0000 </r>
       <r>   21.4469    0.0000 </r>
       <r>   26.5765    0.0000 </r>
       <r>   30.6295    0.0000 </r>
       <r>   32.8085    0.0000 </r>
       <r>   34.2411    0.0000 </r>
       <r>   35.8953    0.0000 </r>
       <r>   36.5891    0.0000 </r>
       <r>   43.3708    0.0000 </r>
       <r>   45.4317    0.0000 </r>
       <r>   47.6483    0.0000 </r>
       <r>   49.1387    0.0000 </r>
       <r>   51.5898    0.0000 </r>
       <r>   51.8133    0.0000 </r>
       <r>   53.3836    0.0000 </r>
       <r>   58.1395    0.0000 </r>
      </set>
      <set comment="kpoint 5">
       <r>  -41.7896    1.0000 </r>
       <r>  -41.5021    1.0000 </r>
       <r>  -41.4919    1.0000 </r>
       <r>    4.2342    1.0000 </r>
       <r>    7.4410    1.0000 </r>
       <r>    7.5317    1.0000 </r>
       <r>    9.2193    1.0000 </r>
       <r>   10.5720    1.0000 </r>
       <r>   11.2193    0.0000 </r>
       <r>   17.8453    0.0000 </r>
       <r>   25.6135    0.0000 </r>
       <r>   29.3145    0.0000 </r>
       <r>   30.3366    0.0000 </r>
       <r>   36.9007    0.0000 </r>
       <r>   37.7857    0.0000 </r>
       <r>   38.5027    0.0000 </r>
       <r>   44.1335    0.0000 </r>
       <r>   45.3729    0.0000 </r>
       <r>   46.8330    0.0000 </r>
       <r>   51.2984    0.0000 </r>
       <r>   51.8054    0.0000 </r>
       <r>   54.0366    0.0000 </r>
       <r>   54.2802    0.0000 </r>
       <r>   55.2735    0.0000 </r>
      </set>
      <set comment="kpoint 6">
       <r>  -41.8129    1.0000 </r>
       <r>  -41.5022    1.0000 </r>
       <r>  -41.4992    1.0000 </r>
       <r>    4.2463    1.0000 </r>
       <r>    7.3584    1.0000 </r>
       <r>    7.4831    1.0000 </r>
       <r>    9.8973    1.0000 </r>
       <r>   10.9472    0.2897 </r>
       <r>   11.6890    0.0000 </r>
       <r>   16.3436    0.0000 </r>
       <r>   25.3525    0.0000 </r>
       <r>   29.2429    0.0000 </r>
       <r>   29.3051    0.0000 </r>
       <r>   37.9997    0.0000 </r>
       <r>   38.1917    0.0000 </r>
       <r>   39.6565    0.0000 </r>
       <r>   44.4438    0.0000 </r>
       <r>   45.4389    0.0000 </r>
       <r>   45.5591    0.0000 </r>
       <r>   51.8039    0.0000 </r>
       <r>   52.4116    0.0000 </r>
       <r>   53.0466    0.0000 </r>
       <r>   54.6542    0.0000 </r>
       <r>   55.6480    0.0000 </r>
      </set>
      <set comment="kpoint 7">
       <r>  -41.7673    1.0000 </r>
       <r>  -41.4950    1.0000 </r>
       <r>  -41.4919    1.0000 </r>
       <r>    4.1969    1.0000 </r>
       <r>    7.4787    1.0000 </r>
       <r>    7.6190    1.0000 </r>
       <r>    8.5931    1.0000 </r>
       <r>   10.6430    1.0000 </r>
       <r>   10.6821    1.0000 </r>
       <r>   18.9629    0.0000 </r>
       <r>   25.8747    0.0000 </r>
       <r>   29.8896    0.0000 </r>
       <r>   30.7056    0.0000 </r>
       <r>   36.6886    0.0000 </r>
       <r>   36.8444    0.0000 </r>
       <r>   37.6849    0.0000 </r>
       <r>   43.3368    0.0000 </r>
       <r>   46.3413    0.0000 </r>
       <r>   47.0636    0.0000 </r>
       <r>   51.1381    0.0000 </r>
       <r>   51.8071    0.0000 </r>
       <r>   52.5106    0.0000 </r>
       <r>   54.1554    0.0000 </r>
       <r>   55.8813    0.0000 </r>
      </set>
      <set comment="kpoint 8">
       <r>  -41.6693    1.0000 </r>
       <r>  -41.4816    1.0000 </r>
       <r>  -41.4748    1.0000 </r>
       <r>    3.7005    1.0000 </r>
       <r>    7.2217    1.0000 </r>
       <r>    7.7419    1.0000 </r>
       <r>    7.8325    1.0000 </r>
       <r>    9.6667    1.0000 </r>
       <r>   10.0387    1.0000 </r>
       <r>   22.6931    0.0000 </r>
       <r>   26.9706    0.0000 </r>
       <r>   31.2996    0.0000 </r>
       <r>   32.7994    0.0000 </r>
       <r>   34.3414    0.0000 </r>
       <r>   35.3751    0.0000 </r>
       <r>   35.9520    0.0000 </r>
       <r>   42.8670    0.0000 </r>
       <r>   46.1534    0.0000 </r>
       <r>   46.4414    0.0000 </r>
       <r>   48.8724    0.0000 </r>
       <r>   50.3912    0.0000 </r>
       <r>   51.8109    0.0000 </r>
       <r>   53.6379    0.0000 </r>
       <r>   58.9907    0.0000 </r>
      </set>
      <set comment="kpoint 9">
       <r>  -41.5560    1.0000 </r>
       <r>  -41.4645    1.0000 </r>
       <r>  -41.4579    1.0000 </r>
       <r>    2.5821    1.0000 </r>
       <r>    7.0283    1.0000 </r>
       <r>    7.8403    1.0000 </r>
       <r>    7.8597    1.0000 </r>
       <r>    9.1464    1.0000 </r>
       <r>    9.5679    1.0000 </r>
       <r>   26.1017    0.0000 </r>
       <r>   27.1971    0.0000 </r>
       <r>   31.2104    0.0000 </r>
       <r>   32.2200    0.0000 </r>
       <r>   34.5123    0.0000 </r>
       <r>   36.5655    0.0000 </r>
       <r>   37.8225    0.0000 </r>
       <r>   41.6403    0.0000 </r>
       <r>   42.6966    0.0000 </r>
       <r>   46.3182    0.0000 </r>
       <r>   47.9162    0.0000 </r>
       <r>   49.7494    0.0000 </r>
       <r>   51.8029    0.0000 </r>
       <r>   52.7144    0.0000 </r>
       <r>   59.1604    0.0000 </r>
      </set>
      <set comment="kpoint 10">
       <r>  -41.4707    1.0000 </r>
       <r>  -41.4502    1.0000 </r>
       <r>  -41.4477    1.0000 </r>
       <r>    1.6647    1.0000 </r>
       <r>    7.2835    1.0000 </r>
       <r>    7.6172    1.0000 </r>
       <r>    7.6242    1.0000 </r>
       <r>    9.2431    1.0000 </r>
       <r>    9.4809    1.0000 </r>
       <r>   26.1670    0.0000 </r>
       <r>   28.9793    0.0000 </r>
       <r>   30.4260    0.0000 </r>
       <r>   30.6898    0.0000 </r>
       <r>   37.0824    0.0000 </r>
       <r>   38.9233    0.0000 </r>
       <r>   39.1313    0.0000 </r>
       <r>   41.0004    0.0000 </r>
       <r>   42.0705    0.0000 </r>
       <r>   45.8542    0.0000 </r>
       <r>   46.2972    0.0000 </r>
       <r>   49.6199    0.0000 </r>
       <r>   51.7293    0.0000 </r>
       <r>   51.7990    0.0000 </r>
       <r>   58.3748    0.0000 </r>
      </set>
      <set comment="kpoint 11">
       <r>  -41.5037    1.0000 </r>
       <r>  -41.4627    1.0000 </r>
       <r>  -41.4602    1.0000 </r>
       <r>    2.1524    1.0000 </r>
       <r>    7.0051    1.0000 </r>
       <r>    7.8568    1.0000 </r>
       <r>    7.8627    1.0000 </r>
       <r>    8.9487    1.0000 </r>
       <r>    9.6175    1.0000 </r>
       <r>   26.8467    0.0000 </r>
       <r>   28.2540    0.0000 </r>
       <r>   30.2392    0.0000 </r>
       <r>   30.6379    0.0000 </r>
       <r>   36.6570    0.0000 </r>
       <r>   37.5735    0.0000 </r>
       <r>   39.0385    0.0000 </r>
       <r>   39.8892    0.0000 </r>
       <r>   41.6902    0.0000 </r>
       <r>   47.3474    0.0000 </r>
       <r>   47.9096    0.0000 </r>
       <r>   48.3261    0.0000 </r>
       <r>   51.8003    0.0000 </r>
       <r>   52.4567    0.0000 </r>
       <r>   59.6864    0.0000 </r>
      </set>
      <set comment="kpoint 12">
       <r>  -41.5729    1.0000 </r>
       <r>  -41.4873    1.0000 </r>
       <r>  -41.4701    1.0000 </r>
       <r>    3.0379    1.0000 </r>
       <r>    6.6813    1.0000 </r>
       <r>    7.9660    1.0000 </r>
       <r>    8.1989    1.0000 </r>
       <r>    8.8508    1.0000 </r>
       <r>    9.8798    1.0000 </r>
       <r>   26.3835    0.0000 </r>
       <r>   27.6819    0.0000 </r>
       <r>   29.7772    0.0000 </r>
       <r>   31.0412    0.0000 </r>
       <r>   34.4999    0.0000 </r>
       <r>   36.7901    0.0000 </r>
       <r>   37.6352    0.0000 </r>
       <r>   41.1907    0.0000 </r>
       <r>   43.1951    0.0000 </r>
       <r>   46.5792    0.0000 </r>
       <r>   47.5005    0.0000 </r>
       <r>   50.7119    0.0000 </r>
       <r>   51.8050    0.0000 </r>
       <r>   53.7999    0.0000 </r>
       <r>   59.4658    0.0000 </r>
      </set>
      <set comment="kpoint 13">
       <r>  -41.6721    1.0000 </r>
       <r>  -41.5098    1.0000 </r>
       <r>  -41.4865    1.0000 </r>
       <r>    4.1454    1.0000 </r>
       <r>    6.7128    1.0000 </r>
       <r>    7.5805    1.0000 </r>
       <r>    8.2100    1.0000 </r>
       <r>    9.6310    1.0000 </r>
       <r>   10.5511    1.0000 </r>
       <r>   22.9305    0.0000 </r>
       <r>   27.3084    0.0000 </r>
       <r>   28.9955    0.0000 </r>
       <r>   31.2112    0.0000 </r>
       <r>   35.0263    0.0000 </r>
       <r>   36.0414    0.0000 </r>
       <r>   37.9740    0.0000 </r>
       <r>   40.5772    0.0000 </r>
       <r>   46.2526    0.0000 </r>
       <r>   47.4034    0.0000 </r>
       <r>   48.2939    0.0000 </r>
       <r>   51.0749    0.0000 </r>
       <r>   51.8073    0.0000 </r>
       <r>   55.4498    0.0000 </r>
       <r>   57.4356    0.0000 </r>
      </set>
      <set comment="kpoint 14">
       <r>  -41.7573    1.0000 </r>
       <r>  -41.5269    1.0000 </r>
       <r>  -41.5036    1.0000 </r>
       <r>    4.6255    1.0000 </r>
       <r>    7.1962    1.0000 </r>
       <r>    7.6993    1.0000 </r>
       <r>    8.0158    1.0000 </r>
       <r>   10.6200    1.0000 </r>
       <r>   11.6952    0.0000 </r>
       <r>   19.0742    0.0000 </r>
       <r>   26.3537    0.0000 </r>
       <r>   27.9800    0.0000 </r>
       <r>   30.1242    0.0000 </r>
       <r>   36.1670    0.0000 </r>
       <r>   38.1241    0.0000 </r>
       <r>   39.1835    0.0000 </r>
       <r>   40.8401    0.0000 </r>
       <r>   47.2636    0.0000 </r>
       <r>   47.8755    0.0000 </r>
       <r>   49.0566    0.0000 </r>
       <r>   51.8059    0.0000 </r>
       <r>   53.0479    0.0000 </r>
       <r>   54.3563    0.0000 </r>
       <r>   55.9566    0.0000 </r>
      </set>
      <set comment="kpoint 15">
       <r>  -41.7958    1.0000 </r>
       <r>  -41.5375    1.0000 </r>
       <r>  -41.5092    1.0000 </r>
       <r>    4.6698    1.0000 </r>
       <r>    7.0405    1.0000 </r>
       <r>    7.8419    1.0000 </r>
       <r>    8.6997    1.0000 </r>
       <r>   10.8808    0.9074 </r>
       <r>   13.3089    0.0000 </r>
       <r>   16.2335    0.0000 </r>
       <r>   25.8625    0.0000 </r>
       <r>   27.6671    0.0000 </r>
       <r>   28.9593    0.0000 </r>
       <r>   37.4798    0.0000 </r>
       <r>   38.2856    0.0000 </r>
       <r>   40.8758    0.0000 </r>
       <r>   43.0790    0.0000 </r>
       <r>   45.4080    0.0000 </r>
       <r>   46.9275    0.0000 </r>
       <r>   50.2307    0.0000 </r>
       <r>   51.5760    0.0000 </r>
       <r>   51.8099    0.0000 </r>
       <r>   55.1450    0.0000 </r>
       <r>   56.8795    0.0000 </r>
      </set>
      <set comment="kpoint 16">
       <r>  -41.7746    1.0000 </r>
       <r>  -41.5386    1.0000 </r>
       <r>  -41.4998    1.0000 </r>
       <r>    4.6795    1.0000 </r>
       <r>    7.1451    1.0000 </r>
       <r>    7.8687    1.0000 </r>
       <r>    8.2730    1.0000 </r>
       <r>   10.4501    1.0000 </r>
       <r>   12.4096    0.0000 </r>
       <r>   17.9859    0.0000 </r>
       <r>   25.9911    0.0000 </r>
       <r>   27.5487    0.0000 </r>
       <r>   30.1748    0.0000 </r>
       <r>   36.0548    0.0000 </r>
       <r>   38.2015    0.0000 </r>
       <r>   40.2836    0.0000 </r>
       <r>   42.5257    0.0000 </r>
       <r>   46.1092    0.0000 </r>
       <r>   47.5529    0.0000 </r>
       <r>   48.7292    0.0000 </r>
       <r>   51.8133    0.0000 </r>
       <r>   53.1226    0.0000 </r>
       <r>   55.2218    0.0000 </r>
       <r>   56.0432    0.0000 </r>
      </set>
      <set comment="kpoint 17">
       <r>  -41.7022    1.0000 </r>
       <r>  -41.5267    1.0000 </r>
       <r>  -41.4821    1.0000 </r>
       <r>    4.4284    1.0000 </r>
       <r>    7.0253    1.0000 </r>
       <r>    7.4824    1.0000 </r>
       <r>    8.1017    1.0000 </r>
       <r>    9.5580    1.0000 </r>
       <r>   11.1499    0.0000 </r>
       <r>   21.6597    0.0000 </r>
       <r>   26.6422    0.0000 </r>
       <r>   28.4710    0.0000 </r>
       <r>   32.1321    0.0000 </r>
       <r>   34.0061    0.0000 </r>
       <r>   37.1504    0.0000 </r>
       <r>   39.0558    0.0000 </r>
       <r>   40.6689    0.0000 </r>
       <r>   45.6786    0.0000 </r>
       <r>   46.6823    0.0000 </r>
       <r>   50.2112    0.0000 </r>
       <r>   51.8086    0.0000 </r>
       <r>   52.0093    0.0000 </r>
       <r>   55.2149    0.0000 </r>
       <r>   56.4739    0.0000 </r>
      </set>
      <set comment="kpoint 18">
       <r>  -41.6068    1.0000 </r>
       <r>  -41.5021    1.0000 </r>
       <r>  -41.4645    1.0000 </r>
       <r>    3.4234    1.0000 </r>
       <r>    6.7201    1.0000 </r>
       <r>    7.8255    1.0000 </r>
       <r>    8.2295    1.0000 </r>
       <r>    8.8555    1.0000 </r>
       <r>   10.1762    1.0000 </r>
       <r>   25.1540    0.0000 </r>
       <r>   27.3363    0.0000 </r>
       <r>   30.0315    0.0000 </r>
       <r>   31.0613    0.0000 </r>
       <r>   34.6940    0.0000 </r>
       <r>   36.8598    0.0000 </r>
       <r>   38.1802    0.0000 </r>
       <r>   40.2310    0.0000 </r>
       <r>   44.0602    0.0000 </r>
       <r>   45.7297    0.0000 </r>
       <r>   47.8431    0.0000 </r>
       <r>   51.8056    0.0000 </r>
       <r>   52.4900    0.0000 </r>
       <r>   54.1928    0.0000 </r>
       <r>   58.3824    0.0000 </r>
      </set>
      <set comment="kpoint 19">
       <r>  -41.5299    1.0000 </r>
       <r>  -41.4694    1.0000 </r>
       <r>  -41.4545    1.0000 </r>
       <r>    2.3776    1.0000 </r>
       <r>    7.0003    1.0000 </r>
       <r>    7.8567    1.0000 </r>
       <r>    7.8742    1.0000 </r>
       <r>    8.9992    1.0000 </r>
       <r>    9.6192    1.0000 </r>
       <r>   26.9598    0.0000 </r>
       <r>   27.2263    0.0000 </r>
       <r>   30.2868    0.0000 </r>
       <r>   31.8961    0.0000 </r>
       <r>   34.8663    0.0000 </r>
       <r>   37.6135    0.0000 </r>
       <r>   39.1909    0.0000 </r>
       <r>   40.8293    0.0000 </r>
       <r>   41.2592    0.0000 </r>
       <r>   46.2545    0.0000 </r>
       <r>   48.1741    0.0000 </r>
       <r>   49.4843    0.0000 </r>
       <r>   51.7985    0.0000 </r>
       <r>   52.8997    0.0000 </r>
       <r>   59.2645    0.0000 </r>
      </set>
      <set comment="kpoint 20">
       <r>  -41.6004    1.0000 </r>
       <r>  -41.5010    1.0000 </r>
       <r>  -41.5007    1.0000 </r>
       <r>    3.6284    1.0000 </r>
       <r>    6.2452    1.0000 </r>
       <r>    8.1128    1.0000 </r>
       <r>    8.6615    1.0000 </r>
       <r>    8.8741    1.0000 </r>
       <r>   10.0436    1.0000 </r>
       <r>   27.0405    0.0000 </r>
       <r>   28.3341    0.0000 </r>
       <r>   28.6072    0.0000 </r>
       <r>   29.3732    0.0000 </r>
       <r>   32.4817    0.0000 </r>
       <r>   37.0332    0.0000 </r>
       <r>   37.2050    0.0000 </r>
       <r>   42.7165    0.0000 </r>
       <r>   44.2773    0.0000 </r>
       <r>   45.3022    0.0000 </r>
       <r>   50.0771    0.0000 </r>
       <r>   50.7355    0.0000 </r>
       <r>   51.8090    0.0000 </r>
       <r>   52.5942    0.0000 </r>
       <r>   61.9016    0.0000 </r>
      </set>
      <set comment="kpoint 21">
       <r>  -41.6672    1.0000 </r>
       <r>  -41.5323    1.0000 </r>
       <r>  -41.5158    1.0000 </r>
       <r>    4.5094    1.0000 </r>
       <r>    5.9612    1.0000 </r>
       <r>    7.7505    1.0000 </r>
       <r>    9.0850    1.0000 </r>
       <r>    9.6470    1.0000 </r>
       <r>   10.5883    1.0000 </r>
       <r>   24.5597    0.0000 </r>
       <r>   26.5114    0.0000 </r>
       <r>   27.8050    0.0000 </r>
       <r>   30.3431    0.0000 </r>
       <r>   32.1353    0.0000 </r>
       <r>   37.2770    0.0000 </r>
       <r>   38.4861    0.0000 </r>
       <r>   42.7326    0.0000 </r>
       <r>   43.5927    0.0000 </r>
       <r>   47.5399    0.0000 </r>
       <r>   50.3302    0.0000 </r>
       <r>   51.8047    0.0000 </r>
       <r>   52.0973    0.0000 </r>
       <r>   53.3276    0.0000 </r>
       <r>   60.0736    0.0000 </r>
      </set>
      <set comment="kpoint 22">
       <r>  -41.7306    1.0000 </r>
       <r>  -41.5632    1.0000 </r>
       <r>  -41.5309    1.0000 </r>
       <r>    5.0982    1.0000 </r>
       <r>    6.2145    1.0000 </r>
       <r>    7.4173    1.0000 </r>
       <r>    8.9207    1.0000 </r>
       <r>   10.7412    1.0000 </r>
       <r>   11.9813    0.0000 </r>
       <r>   20.5173    0.0000 </r>
       <r>   25.8249    0.0000 </r>
       <r>   26.2047    0.0000 </r>
       <r>   29.9908    0.0000 </r>
       <r>   34.9261    0.0000 </r>
       <r>   37.6744    0.0000 </r>
       <r>   39.5094    0.0000 </r>
       <r>   42.3042    0.0000 </r>
       <r>   45.0177    0.0000 </r>
       <r>   47.8406    0.0000 </r>
       <r>   50.2589    0.0000 </r>
       <r>   51.8043    0.0000 </r>
       <r>   53.6542    0.0000 </r>
       <r>   54.1697    0.0000 </r>
       <r>   57.8223    0.0000 </r>
      </set>
      <set comment="kpoint 23">
       <r>  -41.7613    1.0000 </r>
       <r>  -41.5942    1.0000 </r>
       <r>  -41.5331    1.0000 </r>
       <r>    5.2731    1.0000 </r>
       <r>    6.5387    1.0000 </r>
       <r>    7.6256    1.0000 </r>
       <r>    8.6739    1.0000 </r>
       <r>   10.9217    0.5671 </r>
       <r>   14.4606    0.0000 </r>
       <r>   16.9432    0.0000 </r>
       <r>   24.6507    0.0000 </r>
       <r>   26.2567    0.0000 </r>
       <r>   29.1990    0.0000 </r>
       <r>   36.9643    0.0000 </r>
       <r>   38.7820    0.0000 </r>
       <r>   39.5409    0.0000 </r>
       <r>   42.8933    0.0000 </r>
       <r>   46.3425    0.0000 </r>
       <r>   47.6766    0.0000 </r>
       <r>   49.3595    0.0000 </r>
       <r>   51.8123    0.0000 </r>
       <r>   52.5506    0.0000 </r>
       <r>   54.9425    0.0000 </r>
       <r>   57.5354    0.0000 </r>
      </set>
      <set comment="kpoint 24">
       <r>  -41.7521    1.0000 </r>
       <r>  -41.6119    1.0000 </r>
       <r>  -41.5207    1.0000 </r>
       <r>    5.4704    1.0000 </r>
       <r>    6.6324    1.0000 </r>
       <r>    7.6262    1.0000 </r>
       <r>    8.5477    1.0000 </r>
       <r>   10.3957    1.0000 </r>
       <r>   14.2618    0.0000 </r>
       <r>   17.6581    0.0000 </r>
       <r>   23.5857    0.0000 </r>
       <r>   27.3146    0.0000 </r>
       <r>   29.4030    0.0000 </r>
       <r>   36.0174    0.0000 </r>
       <r>   38.1422    0.0000 </r>
       <r>   41.0503    0.0000 </r>
       <r>   44.1991    0.0000 </r>
       <r>   45.8665    0.0000 </r>
       <r>   47.5235    0.0000 </r>
       <r>   49.1777    0.0000 </r>
       <r>   51.0223    0.0000 </r>
       <r>   51.8150    0.0000 </r>
       <r>   54.7028    0.0000 </r>
       <r>   56.8089    0.0000 </r>
      </set>
      <set comment="kpoint 25">
       <r>  -41.7167    1.0000 </r>
       <r>  -41.5972    1.0000 </r>
       <r>  -41.4999    1.0000 </r>
       <r>    5.4998    1.0000 </r>
       <r>    6.7318    1.0000 </r>
       <r>    7.0043    1.0000 </r>
       <r>    8.6407    1.0000 </r>
       <r>    9.5150    1.0000 </r>
       <r>   12.6401    0.0000 </r>
       <r>   20.8956    0.0000 </r>
       <r>   23.6689    0.0000 </r>
       <r>   27.9973    0.0000 </r>
       <r>   31.5213    0.0000 </r>
       <r>   33.3981    0.0000 </r>
       <r>   38.1905    0.0000 </r>
       <r>   41.1688    0.0000 </r>
       <r>   42.4716    0.0000 </r>
       <r>   44.5048    0.0000 </r>
       <r>   46.4258    0.0000 </r>
       <r>   50.5770    0.0000 </r>
       <r>   51.8094    0.0000 </r>
       <r>   53.8756    0.0000 </r>
       <r>   54.7327    0.0000 </r>
       <r>   55.3769    0.0000 </r>
      </set>
      <set comment="kpoint 26">
       <r>  -41.6760    1.0000 </r>
       <r>  -41.5457    1.0000 </r>
       <r>  -41.4797    1.0000 </r>
       <r>    4.5765    1.0000 </r>
       <r>    6.5989    1.0000 </r>
       <r>    7.4583    1.0000 </r>
       <r>    8.5021    1.0000 </r>
       <r>    9.0155    1.0000 </r>
       <r>   11.2643    0.0000 </r>
       <r>   22.9595    0.0000 </r>
       <r>   25.8467    0.0000 </r>
       <r>   28.7335    0.0000 </r>
       <r>   31.5317    0.0000 </r>
       <r>   34.0486    0.0000 </r>
       <r>   37.7421    0.0000 </r>
       <r>   39.0552    0.0000 </r>
       <r>   40.5920    0.0000 </r>
       <r>   44.4655    0.0000 </r>
       <r>   45.7784    0.0000 </r>
       <r>   50.3602    0.0000 </r>
       <r>   51.8086    0.0000 </r>
       <r>   53.5868    0.0000 </r>
       <r>   55.3508    0.0000 </r>
       <r>   56.3910    0.0000 </r>
      </set>
      <set comment="kpoint 27">
       <r>  -41.6330    1.0000 </r>
       <r>  -41.4895    1.0000 </r>
       <r>  -41.4687    1.0000 </r>
       <r>    3.5184    1.0000 </r>
       <r>    6.8997    1.0000 </r>
       <r>    7.7982    1.0000 </r>
       <r>    7.9977    1.0000 </r>
       <r>    9.2532    1.0000 </r>
       <r>   10.0911    1.0000 </r>
       <r>   23.9937    0.0000 </r>
       <r>   27.3781    0.0000 </r>
       <r>   30.4953    0.0000 </r>
       <r>   32.1084    0.0000 </r>
       <r>   34.7611    0.0000 </r>
       <r>   35.4516    0.0000 </r>
       <r>   37.1622    0.0000 </r>
       <r>   41.5014    0.0000 </r>
       <r>   44.9263    0.0000 </r>
       <r>   46.8356    0.0000 </r>
       <r>   47.8581    0.0000 </r>
       <r>   50.8923    0.0000 </r>
       <r>   51.8092    0.0000 </r>
       <r>   54.2190    0.0000 </r>
       <r>   58.7798    0.0000 </r>
      </set>
      <set comment="kpoint 28">
       <r>  -41.7050    1.0000 </r>
       <r>  -41.5466    1.0000 </r>
       <r>  -41.5442    1.0000 </r>
       <r>    4.6973    1.0000 </r>
       <r>    5.5083    1.0000 </r>
       <r>    8.6167    1.0000 </r>
       <r>    9.7537    1.0000 </r>
       <r>   10.1488    1.0000 </r>
       <r>   10.5626    1.0000 </r>
       <r>   24.4781    0.0000 </r>
       <r>   25.2683    0.0000 </r>
       <r>   25.9751    0.0000 </r>
       <r>   29.6357    0.0000 </r>
       <r>   31.3178    0.0000 </r>
       <r>   39.2071    0.0000 </r>
       <r>   39.5851    0.0000 </r>
       <r>   41.6726    0.0000 </r>
       <r>   44.6280    0.0000 </r>
       <r>   47.4712    0.0000 </r>
       <r>   51.8019    0.0000 </r>
       <r>   52.4727    0.0000 </r>
       <r>   52.5862    0.0000 </r>
       <r>   53.4824    0.0000 </r>
       <r>   58.5656    0.0000 </r>
      </set>
      <set comment="kpoint 29">
       <r>  -41.7453    1.0000 </r>
       <r>  -41.5755    1.0000 </r>
       <r>  -41.5588    1.0000 </r>
       <r>    4.8944    1.0000 </r>
       <r>    5.3727    1.0000 </r>
       <r>    8.7439    1.0000 </r>
       <r>   10.1175    1.0000 </r>
       <r>   10.7568    1.0000 </r>
       <r>   11.9425    0.0000 </r>
       <r>   21.6654    0.0000 </r>
       <r>   23.7059    0.0000 </r>
       <r>   24.4140    0.0000 </r>
       <r>   30.6838    0.0000 </r>
       <r>   32.5191    0.0000 </r>
       <r>   38.8304    0.0000 </r>
       <r>   41.3418    0.0000 </r>
       <r>   42.7645    0.0000 </r>
       <r>   45.5364    0.0000 </r>
       <r>   46.6927    0.0000 </r>
       <r>   51.1586    0.0000 </r>
       <r>   51.8047    0.0000 </r>
       <r>   53.5263    0.0000 </r>
       <r>   55.2922    0.0000 </r>
       <r>   56.2274    0.0000 </r>
      </set>
      <set comment="kpoint 30">
       <r>  -41.7533    1.0000 </r>
       <r>  -41.6205    1.0000 </r>
       <r>  -41.5606    1.0000 </r>
       <r>    5.1239    1.0000 </r>
       <r>    5.7178    1.0000 </r>
       <r>    8.3543    1.0000 </r>
       <r>    9.7470    1.0000 </r>
       <r>   11.0452    0.0004 </r>
       <r>   14.6690    0.0000 </r>
       <r>   18.2882    0.0000 </r>
       <r>   22.3982    0.0000 </r>
       <r>   24.2967    0.0000 </r>
       <r>   30.7660    0.0000 </r>
       <r>   35.1102    0.0000 </r>
       <r>   37.9989    0.0000 </r>
       <r>   40.8681    0.0000 </r>
       <r>   44.8440    0.0000 </r>
       <r>   46.1627    0.0000 </r>
       <r>   46.9684    0.0000 </r>
       <r>   50.5483    0.0000 </r>
       <r>   51.8124    0.0000 </r>
       <r>   52.2218    0.0000 </r>
       <r>   54.7272    0.0000 </r>
       <r>   55.9464    0.0000 </r>
      </set>
      <set comment="kpoint 31">
       <r>  -41.7197    1.0000 </r>
       <r>  -41.6744    1.0000 </r>
       <r>  -41.5465    1.0000 </r>
       <r>    5.4865    1.0000 </r>
       <r>    6.2873    1.0000 </r>
       <r>    7.7294    1.0000 </r>
       <r>    9.3321    1.0000 </r>
       <r>   10.6157    1.0000 </r>
       <r>   15.7150    0.0000 </r>
       <r>   18.0496    0.0000 </r>
       <r>   20.7306    0.0000 </r>
       <r>   25.8063    0.0000 </r>
       <r>   30.1849    0.0000 </r>
       <r>   36.8883    0.0000 </r>
       <r>   38.3010    0.0000 </r>
       <r>   38.8824    0.0000 </r>
       <r>   45.1698    0.0000 </r>
       <r>   46.5274    0.0000 </r>
       <r>   49.1646    0.0000 </r>
       <r>   50.3992    0.0000 </r>
       <r>   50.6483    0.0000 </r>
       <r>   51.8142    0.0000 </r>
       <r>   53.6800    0.0000 </r>
       <r>   56.3001    0.0000 </r>
      </set>
      <set comment="kpoint 32">
       <r>  -41.7218    1.0000 </r>
       <r>  -41.6500    1.0000 </r>
       <r>  -41.5231    1.0000 </r>
       <r>    5.8093    1.0000 </r>
       <r>    6.6292    1.0000 </r>
       <r>    7.1323    1.0000 </r>
       <r>    8.8826    1.0000 </r>
       <r>   10.0850    1.0000 </r>
       <r>   14.1191    0.0000 </r>
       <r>   19.4904    0.0000 </r>
       <r>   21.6265    0.0000 </r>
       <r>   27.5140    0.0000 </r>
       <r>   29.8768    0.0000 </r>
       <r>   35.2823    0.0000 </r>
       <r>   38.0756    0.0000 </r>
       <r>   40.9124    0.0000 </r>
       <r>   43.9803    0.0000 </r>
       <r>   47.1524    0.0000 </r>
       <r>   47.9474    0.0000 </r>
       <r>   48.5949    0.0000 </r>
       <r>   51.6060    0.0000 </r>
       <r>   51.8103    0.0000 </r>
       <r>   53.0713    0.0000 </r>
       <r>   56.9040    0.0000 </r>
      </set>
      <set comment="kpoint 33">
       <r>  -41.7437    1.0000 </r>
       <r>  -41.5700    1.0000 </r>
       <r>  -41.4997    1.0000 </r>
       <r>    5.0803    1.0000 </r>
       <r>    7.0097    1.0000 </r>
       <r>    7.4306    1.0000 </r>
       <r>    8.2624    1.0000 </r>
       <r>    9.9715    1.0000 </r>
       <r>   12.5762    0.0000 </r>
       <r>   19.4220    0.0000 </r>
       <r>   25.1399    0.0000 </r>
       <r>   27.5284    0.0000 </r>
       <r>   30.8759    0.0000 </r>
       <r>   34.5742    0.0000 </r>
       <r>   38.1887    0.0000 </r>
       <r>   41.2293    0.0000 </r>
       <r>   41.7445    0.0000 </r>
       <r>   45.6846    0.0000 </r>
       <r>   47.0311    0.0000 </r>
       <r>   49.1908    0.0000 </r>
       <r>   51.8115    0.0000 </r>
       <r>   53.4548    0.0000 </r>
       <r>   54.8778    0.0000 </r>
       <r>   56.4520    0.0000 </r>
      </set>
      <set comment="kpoint 34">
       <r>  -41.7364    1.0000 </r>
       <r>  -41.5063    1.0000 </r>
       <r>  -41.4865    1.0000 </r>
       <r>    4.2726    1.0000 </r>
       <r>    7.4743    1.0000 </r>
       <r>    7.7330    1.0000 </r>
       <r>    7.8346    1.0000 </r>
       <r>   10.1192    1.0000 </r>
       <r>   10.9327    0.4432 </r>
       <r>   20.2478    0.0000 </r>
       <r>   26.3777    0.0000 </r>
       <r>   29.2719    0.0000 </r>
       <r>   31.5595    0.0000 </r>
       <r>   35.1739    0.0000 </r>
       <r>   36.9696    0.0000 </r>
       <r>   37.9217    0.0000 </r>
       <r>   42.0624    0.0000 </r>
       <r>   46.2283    0.0000 </r>
       <r>   48.2060    0.0000 </r>
       <r>   49.5820    0.0000 </r>
       <r>   51.6543    0.0000 </r>
       <r>   51.8087    0.0000 </r>
       <r>   54.7831    0.0000 </r>
       <r>   56.1768    0.0000 </r>
      </set>
      <set comment="kpoint 35">
       <r>  -41.7773    1.0000 </r>
       <r>  -41.5798    1.0000 </r>
       <r>  -41.5751    1.0000 </r>
       <r>    4.6001    1.0000 </r>
       <r>    5.0318    1.0000 </r>
       <r>   10.4201    1.0000 </r>
       <r>   10.6648    1.0000 </r>
       <r>   11.0854    0.0000 </r>
       <r>   12.0783    0.0000 </r>
       <r>   20.7280    0.0000 </r>
       <r>   22.6944    0.0000 </r>
       <r>   22.8843    0.0000 </r>
       <r>   30.2154    0.0000 </r>
       <r>   32.8812    0.0000 </r>
       <r>   39.2813    0.0000 </r>
       <r>   43.2201    0.0000 </r>
       <r>   43.7609    0.0000 </r>
       <r>   45.5371    0.0000 </r>
       <r>   47.3106    0.0000 </r>
       <r>   51.8010    0.0000 </r>
       <r>   52.4361    0.0000 </r>
       <r>   52.4431    0.0000 </r>
       <r>   53.1740    0.0000 </r>
       <r>   53.6258    0.0000 </r>
      </set>
      <set comment="kpoint 36">
       <r>  -41.7823    1.0000 </r>
       <r>  -41.5986    1.0000 </r>
       <r>  -41.5804    1.0000 </r>
       <r>    4.6911    1.0000 </r>
       <r>    5.0894    1.0000 </r>
       <r>    9.9451    1.0000 </r>
       <r>   10.5920    1.0000 </r>
       <r>   11.2736    0.0000 </r>
       <r>   14.1598    0.0000 </r>
       <r>   18.8038    0.0000 </r>
       <r>   21.7556    0.0000 </r>
       <r>   22.5822    0.0000 </r>
       <r>   31.2096    0.0000 </r>
       <r>   33.3268    0.0000 </r>
       <r>   38.6104    0.0000 </r>
       <r>   43.1965    0.0000 </r>
       <r>   45.7966    0.0000 </r>
       <r>   45.9897    0.0000 </r>
       <r>   47.7993    0.0000 </r>
       <r>   50.7784    0.0000 </r>
       <r>   51.6750    0.0000 </r>
       <r>   51.8158    0.0000 </r>
       <r>   52.1305    0.0000 </r>
       <r>   53.1343    0.0000 </r>
      </set>
      <set comment="kpoint 37">
       <r>  -41.7551    1.0000 </r>
       <r>  -41.6369    1.0000 </r>
       <r>  -41.5668    1.0000 </r>
       <r>    5.0617    1.0000 </r>
       <r>    5.6137    1.0000 </r>
       <r>    8.7150    1.0000 </r>
       <r>    9.9726    1.0000 </r>
       <r>   11.0344    0.0013 </r>
       <r>   16.0114    0.0000 </r>
       <r>   17.5018    0.0000 </r>
       <r>   21.0359    0.0000 </r>
       <r>   23.9209    0.0000 </r>
       <r>   31.1340    0.0000 </r>
       <r>   35.2100    0.0000 </r>
       <r>   37.8736    0.0000 </r>
       <r>   40.9187    0.0000 </r>
       <r>   45.8183    0.0000 </r>
       <r>   46.3189    0.0000 </r>
       <r>   48.3461    0.0000 </r>
       <r>   49.5244    0.0000 </r>
       <r>   51.8119    0.0000 </r>
       <r>   52.1856    0.0000 </r>
       <r>   53.3067    0.0000 </r>
       <r>   55.6421    0.0000 </r>
      </set>
      <set comment="kpoint 38">
       <r>  -41.7448    1.0000 </r>
       <r>  -41.6358    1.0000 </r>
       <r>  -41.5420    1.0000 </r>
       <r>    5.4409    1.0000 </r>
       <r>    6.3509    1.0000 </r>
       <r>    7.6714    1.0000 </r>
       <r>    9.0534    1.0000 </r>
       <r>   10.7821    1.0000 </r>
       <r>   16.1114    0.0000 </r>
       <r>   16.2842    0.0000 </r>
       <r>   22.6754    0.0000 </r>
       <r>   25.9532    0.0000 </r>
       <r>   29.7307    0.0000 </r>
       <r>   36.9276    0.0000 </r>
       <r>   38.5427    0.0000 </r>
       <r>   39.2173    0.0000 </r>
       <r>   44.5988    0.0000 </r>
       <r>   45.8298    0.0000 </r>
       <r>   48.3280    0.0000 </r>
       <r>   49.9703    0.0000 </r>
       <r>   51.7594    0.0000 </r>
       <r>   51.8164    0.0000 </r>
       <r>   54.5128    0.0000 </r>
       <r>   56.9615    0.0000 </r>
      </set>
      <set comment="kpoint 39">
       <r>  -41.7791    1.0000 </r>
       <r>  -41.5713    1.0000 </r>
       <r>  -41.5160    1.0000 </r>
       <r>    5.0445    1.0000 </r>
       <r>    6.8029    1.0000 </r>
       <r>    8.1605    1.0000 </r>
       <r>    8.1793    1.0000 </r>
       <r>   10.7104    1.0000 </r>
       <r>   14.2358    0.0000 </r>
       <r>   16.3079    0.0000 </r>
       <r>   25.3091    0.0000 </r>
       <r>   27.0809    0.0000 </r>
       <r>   28.9685    0.0000 </r>
       <r>   36.9392    0.0000 </r>
       <r>   38.2139    0.0000 </r>
       <r>   41.2314    0.0000 </r>
       <r>   44.0453    0.0000 </r>
       <r>   44.6995    0.0000 </r>
       <r>   47.3751    0.0000 </r>
       <r>   49.9623    0.0000 </r>
       <r>   50.6542    0.0000 </r>
       <r>   51.8154    0.0000 </r>
       <r>   55.4953    0.0000 </r>
       <r>   56.8486    0.0000 </r>
      </set>
      <set comment="kpoint 40">
       <r>  -41.7993    1.0000 </r>
       <r>  -41.5145    1.0000 </r>
       <r>  -41.5000    1.0000 </r>
       <r>    4.3935    1.0000 </r>
       <r>    7.2729    1.0000 </r>
       <r>    7.6231    1.0000 </r>
       <r>    9.1344    1.0000 </r>
       <r>   10.8163    0.9992 </r>
       <r>   12.0834    0.0000 </r>
       <r>   16.9073    0.0000 </r>
       <r>   25.6576    0.0000 </r>
       <r>   28.5707    0.0000 </r>
       <r>   29.5941    0.0000 </r>
       <r>   37.3515    0.0000 </r>
       <r>   38.2199    0.0000 </r>
       <r>   39.7199    0.0000 </r>
       <r>   43.4434    0.0000 </r>
       <r>   46.0492    0.0000 </r>
       <r>   46.2684    0.0000 </r>
       <r>   50.6805    0.0000 </r>
       <r>   51.8072    0.0000 </r>
       <r>   53.0515    0.0000 </r>
       <r>   54.9883    0.0000 </r>
       <r>   55.7827    0.0000 </r>
      </set>
      <set comment="kpoint 41">
       <r>  -41.7925    1.0000 </r>
       <r>  -41.5871    1.0000 </r>
       <r>  -41.5818    1.0000 </r>
       <r>    4.5161    1.0000 </r>
       <r>    4.9313    1.0000 </r>
       <r>   10.8291    0.9973 </r>
       <r>   10.8797    0.9123 </r>
       <r>   11.2910    0.0000 </r>
       <r>   13.0908    0.0000 </r>
       <r>   19.2413    0.0000 </r>
       <r>   22.0485    0.0000 </r>
       <r>   22.3222    0.0000 </r>
       <r>   30.4647    0.0000 </r>
       <r>   33.2236    0.0000 </r>
       <r>   38.9713    0.0000 </r>
       <r>   44.2177    0.0000 </r>
       <r>   45.7165    0.0000 </r>
       <r>   45.8031    0.0000 </r>
       <r>   48.1837    0.0000 </r>
       <r>   50.0567    0.0000 </r>
       <r>   50.5636    0.0000 </r>
       <r>   51.8084    0.0000 </r>
       <r>   52.8977    0.0000 </r>
       <r>   53.7347    0.0000 </r>
      </set>
      <set comment="kpoint 42">
       <r>  -41.7702    1.0000 </r>
       <r>  -41.5906    1.0000 </r>
       <r>  -41.5732    1.0000 </r>
       <r>    4.7783    1.0000 </r>
       <r>    5.1856    1.0000 </r>
       <r>    9.4654    1.0000 </r>
       <r>   10.4789    1.0000 </r>
       <r>   11.0696    0.0000 </r>
       <r>   13.0970    0.0000 </r>
       <r>   20.0914    0.0000 </r>
       <r>   22.4879    0.0000 </r>
       <r>   23.1742    0.0000 </r>
       <r>   30.9761    0.0000 </r>
       <r>   33.0443    0.0000 </r>
       <r>   38.7757    0.0000 </r>
       <r>   42.6752    0.0000 </r>
       <r>   43.9848    0.0000 </r>
       <r>   45.9645    0.0000 </r>
       <r>   47.1657    0.0000 </r>
       <r>   51.1511    0.0000 </r>
       <r>   51.8049    0.0000 </r>
       <r>   52.3778    0.0000 </r>
       <r>   53.6741    0.0000 </r>
       <r>   54.2748    0.0000 </r>
      </set>
      <set comment="kpoint 43">
       <r>  -41.7464    1.0000 </r>
       <r>  -41.5940    1.0000 </r>
       <r>  -41.5482    1.0000 </r>
       <r>    5.1816    1.0000 </r>
       <r>    5.9284    1.0000 </r>
       <r>    7.8348    1.0000 </r>
       <r>    9.3569    1.0000 </r>
       <r>   10.9822    0.0613 </r>
       <r>   13.2242    0.0000 </r>
       <r>   19.3163    0.0000 </r>
       <r>   24.2123    0.0000 </r>
       <r>   25.0470    0.0000 </r>
       <r>   30.2661    0.0000 </r>
       <r>   34.9931    0.0000 </r>
       <r>   38.0076    0.0000 </r>
       <r>   40.3808    0.0000 </r>
       <r>   43.5998    0.0000 </r>
       <r>   45.5130    0.0000 </r>
       <r>   46.9577    0.0000 </r>
       <r>   50.3397    0.0000 </r>
       <r>   51.8082    0.0000 </r>
       <r>   53.2026    0.0000 </r>
       <r>   55.3361    0.0000 </r>
       <r>   57.6085    0.0000 </r>
      </set>
      <set comment="kpoint 44">
       <r>  -41.7660    1.0000 </r>
       <r>  -41.5564    1.0000 </r>
       <r>  -41.5202    1.0000 </r>
       <r>    4.9790    1.0000 </r>
       <r>    6.8479    1.0000 </r>
       <r>    7.6390    1.0000 </r>
       <r>    8.3074    1.0000 </r>
       <r>   10.8982    0.7978 </r>
       <r>   12.9036    0.0000 </r>
       <r>   17.9490    0.0000 </r>
       <r>   26.1061    0.0000 </r>
       <r>   26.8140    0.0000 </r>
       <r>   29.1789    0.0000 </r>
       <r>   36.7813    0.0000 </r>
       <r>   38.9210    0.0000 </r>
       <r>   39.4780    0.0000 </r>
       <r>   41.2721    0.0000 </r>
       <r>   47.3508    0.0000 </r>
       <r>   47.5337    0.0000 </r>
       <r>   48.6846    0.0000 </r>
       <r>   51.8074    0.0000 </r>
       <r>   53.2367    0.0000 </r>
       <r>   54.5724    0.0000 </r>
       <r>   57.3451    0.0000 </r>
      </set>
      <set comment="kpoint 45">
       <r>  -41.7471    1.0000 </r>
       <r>  -41.5660    1.0000 </r>
       <r>  -41.5622    1.0000 </r>
       <r>    4.7109    1.0000 </r>
       <r>    5.2278    1.0000 </r>
       <r>    9.5507    1.0000 </r>
       <r>   10.2858    1.0000 </r>
       <r>   10.8207    0.9988 </r>
       <r>   10.9999    0.0205 </r>
       <r>   22.7047    0.0000 </r>
       <r>   23.9118    0.0000 </r>
       <r>   23.9923    0.0000 </r>
       <r>   29.8536    0.0000 </r>
       <r>   32.2232    0.0000 </r>
       <r>   39.7229    0.0000 </r>
       <r>   41.3462    0.0000 </r>
       <r>   41.9534    0.0000 </r>
       <r>   45.9138    0.0000 </r>
       <r>   46.4655    0.0000 </r>
       <r>   51.7984    0.0000 </r>
       <r>   52.8000    0.0000 </r>
       <r>   53.0233    0.0000 </r>
       <r>   55.3054    0.0000 </r>
       <r>   55.6589    0.0000 </r>
      </set>
      <set comment="kpoint 46">
       <r>  -41.7102    1.0000 </r>
       <r>  -41.5553    1.0000 </r>
       <r>  -41.5390    1.0000 </r>
       <r>    4.8814    1.0000 </r>
       <r>    5.6376    1.0000 </r>
       <r>    8.0577    1.0000 </r>
       <r>    9.6094    1.0000 </r>
       <r>   10.2779    1.0000 </r>
       <r>   11.0997    0.0000 </r>
       <r>   23.1919    0.0000 </r>
       <r>   25.0806    0.0000 </r>
       <r>   26.1500    0.0000 </r>
       <r>   30.5654    0.0000 </r>
       <r>   31.9240    0.0000 </r>
       <r>   38.2817    0.0000 </r>
       <r>   39.8001    0.0000 </r>
       <r>   42.6948    0.0000 </r>
       <r>   44.0272    0.0000 </r>
       <r>   47.4628    0.0000 </r>
       <r>   51.4146    0.0000 </r>
       <r>   51.8031    0.0000 </r>
       <r>   53.4258    0.0000 </r>
       <r>   53.6739    0.0000 </r>
       <r>   58.2707    0.0000 </r>
      </set>
      <set comment="kpoint 47">
       <r>  -41.7055    1.0000 </r>
       <r>  -41.5345    1.0000 </r>
       <r>  -41.5093    1.0000 </r>
       <r>    4.7322    1.0000 </r>
       <r>    6.4896    1.0000 </r>
       <r>    7.3521    1.0000 </r>
       <r>    8.5233    1.0000 </r>
       <r>   10.2391    1.0000 </r>
       <r>   11.1114    0.0000 </r>
       <r>   21.7607    0.0000 </r>
       <r>   26.9058    0.0000 </r>
       <r>   27.5212    0.0000 </r>
       <r>   30.3416    0.0000 </r>
       <r>   34.9380    0.0000 </r>
       <r>   37.0015    0.0000 </r>
       <r>   38.6743    0.0000 </r>
       <r>   41.0219    0.0000 </r>
       <r>   45.5152    0.0000 </r>
       <r>   47.8991    0.0000 </r>
       <r>   50.7780    0.0000 </r>
       <r>   51.0942    0.0000 </r>
       <r>   51.8026    0.0000 </r>
       <r>   54.4472    0.0000 </r>
       <r>   57.9159    0.0000 </r>
      </set>
      <set comment="kpoint 48">
       <r>  -41.6542    1.0000 </r>
       <r>  -41.5239    1.0000 </r>
       <r>  -41.5230    1.0000 </r>
       <r>    4.3357    1.0000 </r>
       <r>    5.8558    1.0000 </r>
       <r>    8.1114    1.0000 </r>
       <r>    9.1883    1.0000 </r>
       <r>    9.4445    1.0000 </r>
       <r>   10.3007    1.0000 </r>
       <r>   25.9768    0.0000 </r>
       <r>   26.8053    0.0000 </r>
       <r>   27.8530    0.0000 </r>
       <r>   29.9733    0.0000 </r>
       <r>   30.5402    0.0000 </r>
       <r>   37.9513    0.0000 </r>
       <r>   38.1428    0.0000 </r>
       <r>   42.7760    0.0000 </r>
       <r>   43.5538    0.0000 </r>
       <r>   47.4729    0.0000 </r>
       <r>   51.0683    0.0000 </r>
       <r>   51.7134    0.0000 </r>
       <r>   51.8110    0.0000 </r>
       <r>   52.4636    0.0000 </r>
       <r>   61.0108    0.0000 </r>
      </set>
      <set comment="kpoint 49">
       <r>  -41.6199    1.0000 </r>
       <r>  -41.5090    1.0000 </r>
       <r>  -41.4916    1.0000 </r>
       <r>    3.8071    1.0000 </r>
       <r>    6.3201    1.0000 </r>
       <r>    7.8416    1.0000 </r>
       <r>    8.6076    1.0000 </r>
       <r>    9.0986    1.0000 </r>
       <r>   10.2052    1.0000 </r>
       <r>   25.6125    0.0000 </r>
       <r>   27.6529    0.0000 </r>
       <r>   29.1146    0.0000 </r>
       <r>   29.9805    0.0000 </r>
       <r>   33.6217    0.0000 </r>
       <r>   36.4231    0.0000 </r>
       <r>   37.6105    0.0000 </r>
       <r>   41.7946    0.0000 </r>
       <r>   44.7610    0.0000 </r>
       <r>   46.1727    0.0000 </r>
       <r>   48.3698    0.0000 </r>
       <r>   51.7271    0.0000 </r>
       <r>   51.8097    0.0000 </r>
       <r>   53.8007    0.0000 </r>
       <r>   59.9513    0.0000 </r>
      </set>
      <set comment="kpoint 50">
       <r>  -41.5486    1.0000 </r>
       <r>  -41.4802    1.0000 </r>
       <r>  -41.4787    1.0000 </r>
       <r>    2.8366    1.0000 </r>
       <r>    6.6426    1.0000 </r>
       <r>    8.1448    1.0000 </r>
       <r>    8.2123    1.0000 </r>
       <r>    8.6629    1.0000 </r>
       <r>    9.8098    1.0000 </r>
       <r>   27.5755    0.0000 </r>
       <r>   27.8624    0.0000 </r>
       <r>   29.5697    0.0000 </r>
       <r>   30.0862    0.0000 </r>
       <r>   34.9733    0.0000 </r>
       <r>   36.8243    0.0000 </r>
       <r>   37.2266    0.0000 </r>
       <r>   42.0936    0.0000 </r>
       <r>   42.4670    0.0000 </r>
       <r>   45.9678    0.0000 </r>
       <r>   49.1902    0.0000 </r>
       <r>   49.4974    0.0000 </r>
       <r>   51.8044    0.0000 </r>
       <r>   52.7105    0.0000 </r>
       <r>   61.0052    0.0000 </r>
      </set>
      <set comment="kpoint 51">
       <r>  -41.5196    1.0000 </r>
       <r>  -41.4530    1.0000 </r>
       <r>  -41.4530    1.0000 </r>
       <r>    2.1375    1.0000 </r>
       <r>    7.1825    1.0000 </r>
       <r>    7.7307    1.0000 </r>
       <r>    7.7307    1.0000 </r>
       <r>    9.3352    1.0000 </r>
       <r>    9.3352    1.0000 </r>
       <r>   26.6693    0.0000 </r>
       <r>   27.1573    0.0000 </r>
       <r>   31.4726    0.0000 </r>
       <r>   31.4726    0.0000 </r>
       <r>   35.5256    0.0000 </r>
       <r>   38.0740    0.0000 </r>
       <r>   38.0740    0.0000 </r>
       <r>   40.1442    0.0000 </r>
       <r>   44.5174    0.0000 </r>
       <r>   44.5174    0.0000 </r>
       <r>   47.2029    0.0000 </r>
       <r>   51.0359    0.0000 </r>
       <r>   51.0359    0.0000 </r>
       <r>   51.7984    0.0000 </r>
       <r>   58.7004    0.0000 </r>
      </set>
      <set comment="kpoint 52">
       <r>  -41.5663    1.0000 </r>
       <r>  -41.4830    1.0000 </r>
       <r>  -41.4548    1.0000 </r>
       <r>    2.8129    1.0000 </r>
       <r>    6.9179    1.0000 </r>
       <r>    7.8705    1.0000 </r>
       <r>    7.9814    1.0000 </r>
       <r>    8.9284    1.0000 </r>
       <r>    9.8029    1.0000 </r>
       <r>   26.0816    0.0000 </r>
       <r>   27.3049    0.0000 </r>
       <r>   30.1984    0.0000 </r>
       <r>   32.7763    0.0000 </r>
       <r>   33.4050    0.0000 </r>
       <r>   37.8690    0.0000 </r>
       <r>   38.3186    0.0000 </r>
       <r>   40.7463    0.0000 </r>
       <r>   42.1968    0.0000 </r>
       <r>   45.5789    0.0000 </r>
       <r>   48.2710    0.0000 </r>
       <r>   51.1734    0.0000 </r>
[...]
       </set>
       <set comment="band 3">
        <r>  0.0000  0.4970  0.0000  0.4970  0.0000  0.0000  0.0000  0.0000  0.0000 </r>
       </set>
       <set comment="band 4">
        <r>  0.1376  0.0000  0.0057  0.0000  0.1845  0.1377  0.0046  0.1377  0.0000 </r>
       </set>
       <set comment="band 5">
        <r>  0.0001  0.0010  0.0000  0.0010  0.1265  0.0734  0.5270  0.0734  0.0000 </r>
       </set>
       <set comment="band 6">
        <r>  0.0000  0.0006  0.0000  0.0006  0.0000  0.1818  0.0000  0.1818  0.4683 </r>
       </set>
       <set comment="band 7">
        <r>  0.0327  0.0216  0.0218  0.0216  0.3734  0.0073  0.0799  0.0073  0.0000 </r>
       </set>
       <set comment="band 8">
        <r>  0.0000  0.0001  0.0000  0.0001  0.0000  0.2678  0.0000  0.2678  0.4093 </r>
       </set>
       <set comment="band 9">
        <r>  0.0410  0.0136  0.0261  0.0136  0.0751  0.1534  0.2319  0.1534  0.0000 </r>
       </set>
       <set comment="band 10">
        <r>  0.2769  0.0215  0.0141  0.0215  0.1131  0.0872  0.0040  0.0872  0.0000 </r>
       </set>
       <set comment="band 11">
        <r>  0.0011  0.0018  0.0106  0.0018  0.0179  0.0001  0.0249  0.0001  0.0000 </r>
       </set>
       <set comment="band 12">
        <r>  0.0000  0.1138  0.0000  0.1138  0.0000  0.0131  0.0000  0.0131  0.0150 </r>
       </set>
       <set comment="band 13">
        <r>  0.0226  0.0326  0.1345  0.0326  0.0416  0.0063  0.0314  0.0063  0.0000 </r>
       </set>
       <set comment="band 14">
        <r>  0.0000  0.0010  0.0000  0.0010  0.0000  0.0280  0.0000  0.0280  0.1622 </r>
       </set>
       <set comment="band 15">
        <r>  0.0000  0.0087  0.0022  0.0087  0.0511  0.0162  0.1946  0.0162  0.0000 </r>
       </set>
       <set comment="band 16">
        <r>  0.0571  0.0283  0.0024  0.0283  0.0713  0.0181  0.0276  0.0181  0.0000 </r>
       </set>
       <set comment="band 17">
        <r>  0.1013  0.0372  0.0942  0.0372  0.0130  0.0296  0.0001  0.0296  0.0000 </r>
       </set>
       <set comment="band 18">
        <r>  0.0380  0.0015  0.0909  0.0015  0.0145  0.0323  0.0008  0.0323  0.0000 </r>
       </set>
       <set comment="band 19">
        <r>  0.0000  0.1272  0.0000  0.1272  0.0000  0.0339  0.0000  0.0339  0.0815 </r>
       </set>
       <set comment="band 20">
        <r>  0.0000  0.0753  0.0000  0.0753  0.0000  0.0259  0.0000  0.0259  0.0002 </r>
       </set>
       <set comment="band 21">
        <r>  6.2972  0.0000  0.0000  0.0000  0.0000  0.0000  0.0000  0.0000  0.0000 </r>
       </set>
       <set comment="band 22">
        <r>  0.0041  0.0098  0.0687  0.0098  0.0271  0.0022  0.0413  0.0022  0.0000 </r>
       </set>
       <set comment="band 23">
        <r>  0.0314  0.0041  0.0318  0.0041  0.1689  0.0092  0.0000  0.0092  0.0000 </r>
       </set>
       <set comment="band 24">
        <r>  0.0819  0.0013  0.0009  0.0013  0.0117  0.0009  0.0004  0.0009  0.0000 </r>
       </set>
      </set>
      <set comment="kpoint 106">
       <set comment="band 1">
        <r>  0.0000  0.2962  0.4062  0.2819  0.0000  0.0000  0.0000  0.0000  0.0000 </r>
       </set>
       <set comment="band 2">
        <r>  0.0000  0.0045  0.3622  0.6253  0.0000  0.0000  0.0000  0.0000  0.0000 </r>
       </set>
       <set comment="band 3">
        <r>  0.0000  0.6901  0.2208  0.0827  0.0000  0.0000  0.0000  0.0000  0.0000 </r>
       </set>
       <set comment="band 4">
        <r>  0.1040  0.0003  0.0068  0.0029  0.2177  0.1882  0.0065  0.1050  0.0010 </r>
       </set>
       <set comment="band 5">
        <r>  0.0000  0.0051  0.0001  0.0002  0.0642  0.1298  0.4397  0.0012  0.1195 </r>
       </set>
       <set comment="band 6">
        <r>  0.0076  0.0107  0.0094  0.0179  0.1722  0.1736  0.1563  0.0796  0.0563 </r>
       </set>
       <set comment="band 7">
        <r>  0.0038  0.0053  0.0112  0.0015  0.1793  0.0038  0.0283  0.1653  0.3756 </r>
       </set>
       <set comment="band 8">
        <r>  0.0006  0.0001  0.0011  0.0004  0.0821  0.0857  0.0672  0.4445  0.2460 </r>
       </set>
       <set comment="band 9">
        <r>  0.0736  0.0200  0.0377  0.0187  0.0179  0.2709  0.1276  0.0183  0.0522 </r>
       </set>
       <set comment="band 10">
        <r>  0.2915  0.0145  0.0089  0.0262  0.1308  0.0444  0.0081  0.0928  0.0174 </r>
       </set>
       <set comment="band 11">
        <r>  0.0077  0.0179  0.0000  0.0780  0.0467  0.0070  0.0353  0.0157  0.0387 </r>
       </set>
       <set comment="band 12">
        <r>  0.0366  0.0004  0.0956  0.0581  0.0068  0.0219  0.0481  0.0225  0.0081 </r>
       </set>
       <set comment="band 13">
        <r>  0.0030  0.1356  0.0441  0.0071  0.0128  0.0004  0.0226  0.0000  0.0001 </r>
       </set>
       <set comment="band 14">
        <r>  0.0002  0.0029  0.0040  0.0120  0.0382  0.0485  0.0058  0.0113  0.0902 </r>
       </set>
       <set comment="band 15">
        <r>  0.0000  0.0001  0.0017  0.0027  0.0713  0.0084  0.1169  0.0118  0.0014 </r>
       </set>
       <set comment="band 16">
        <r>  0.1800  0.0014  0.0053  0.0003  0.0182  0.0167  0.0121  0.0473  0.0014 </r>
       </set>
       <set comment="band 17">
        <r>  0.0230  0.1003  0.0461  0.0315  0.0160  0.0227  0.0181  0.0049  0.0390 </r>
       </set>
       <set comment="band 18">
        <r>  0.0051  0.1040  0.0464  0.0419  0.0021  0.0187  0.0002  0.0225  0.0458 </r>
       </set>
       <set comment="band 19">
        <r>  0.0193  0.0610  0.0553  0.0573  0.0001  0.0433  0.0455  0.0002  0.0284 </r>
       </set>
       <set comment="band 20">
        <r>  0.0000  0.0019  0.0009  0.0177  0.0006  0.0509  0.0050  0.0055  0.0002 </r>
       </set>
       <set comment="band 21">
        <r>  6.2898  0.0000  0.0000  0.0000  0.0001  0.0000  0.0000  0.0000  0.0000 </r>
       </set>
       <set comment="band 22">
        <r>  0.0067  0.0003  0.0150  0.0059  0.0586  0.0007  0.0090  0.0000  0.0115 </r>
       </set>
       <set comment="band 23">
        <r>  0.0201  0.0137  0.0359  0.0060  0.0279  0.0005  0.0028  0.0282  0.0325 </r>
       </set>
       <set comment="band 24">
        <r>  0.0097  0.0025  0.0613  0.0309  0.0273  0.0508  0.0006  0.0082  0.0168 </r>
       </set>
      </set>
      <set comment="kpoint 107">
       <set comment="band 1">
        <r>  0.0000  0.2459  0.3552  0.3844  0.0000  0.0000  0.0000  0.0000  0.0000 </r>
       </set>
       <set comment="band 2">
        <r>  0.0000  0.0520  0.3606  0.5770  0.0000  0.0000  0.0000  0.0000  0.0000 </r>
       </set>
       <set comment="band 3">
        <r>  0.0000  0.6930  0.2732  0.0267  0.0000  0.0000  0.0000  0.0000  0.0000 </r>
       </set>
       <set comment="band 4">
        <r>  0.0560  0.0000  0.0063  0.0050  0.0936  0.4001  0.0198  0.0403  0.0588 </r>
       </set>
       <set comment="band 5">
        <r>  0.0041  0.0118  0.0050  0.0008  0.0941  0.0014  0.3509  0.0153  0.1999 </r>
       </set>
       <set comment="band 6">
        <r>  0.0001  0.0067  0.0095  0.0214  0.3725  0.2090  0.0147  0.0315  0.0141 </r>
       </set>
       <set comment="band 7">
        <r>  0.0015  0.0002  0.0033  0.0017  0.0073  0.0005  0.2860  0.1408  0.4026 </r>
       </set>
       <set comment="band 8">
        <r>  0.0047  0.0000  0.0000  0.0004  0.1483  0.0293  0.0603  0.6004  0.0821 </r>
       </set>
       <set comment="band 9">
        <r>  0.2380  0.0151  0.0374  0.0076  0.0003  0.2134  0.0566  0.0207  0.0063 </r>
       </set>
       <set comment="band 10">
        <r>  0.1541  0.0165  0.0167  0.0630  0.1510  0.0005  0.0314  0.0653  0.0711 </r>
       </set>
       <set comment="band 11">
        <r>  0.0758  0.0147  0.0386  0.1075  0.0578  0.0071  0.0100  0.0374  0.0929 </r>
       </set>
       <set comment="band 12">
        <r>  0.0112  0.0509  0.0939  0.0001  0.0020  0.0420  0.1399  0.0022  0.0040 </r>
       </set>
       <set comment="band 13">
        <r>  0.0020  0.0973  0.0071  0.0046  0.0040  0.0460  0.0021  0.0000  0.0096 </r>
       </set>
       <set comment="band 14">
        <r>  0.0002  0.0000  0.0021  0.0101  0.0726  0.0428  0.0044  0.0066  0.0273 </r>
       </set>
       <set comment="band 15">
        <r>  0.0000  0.0003  0.0005  0.0093  0.0267  0.0159  0.0282  0.0121  0.0033 </r>
       </set>
       <set comment="band 16">
        <r>  0.1532  0.0577  0.0083  0.0011  0.0164  0.0100  0.0001  0.0042  0.0393 </r>
       </set>
       <set comment="band 17">
        <r>  0.0845  0.1343  0.0029  0.0015  0.0014  0.0671  0.0299  0.0017  0.0294 </r>
       </set>
       <set comment="band 18">
        <r>  0.0013  0.0011  0.0366  0.0241  0.0020  0.0037  0.0009  0.0290  0.0549 </r>
       </set>
       <set comment="band 19">
        <r>  0.0087  0.0491  0.1037  0.0013  0.0010  0.0532  0.1141  0.0017  0.0007 </r>
       </set>
       <set comment="band 20">
        <r>  0.0026  0.0149  0.0018  0.0370  0.0319  0.0099  0.0030  0.0049  0.0311 </r>
       </set>
       <set comment="band 21">
        <r>  0.0001  0.0037  0.0022  0.0021  0.0017  0.0115  0.0028  0.0008  0.0009 </r>
       </set>
       <set comment="band 22">
        <r>  6.2937  0.0000  0.0000  0.0000  0.0000  0.0000  0.0000  0.0000  0.0000 </r>
       </set>
       <set comment="band 23">
        <r>  0.0067  0.0002  0.0384  0.0573  0.0235  0.0235  0.0003  0.0197  0.0129 </r>
       </set>
       <set comment="band 24">
        <r>  0.0081  0.0051  0.0373  0.0051  0.0042  0.0013  0.0148  0.0159  0.0272 </r>
       </set>
      </set>
      <set comment="kpoint 108">
       <set comment="band 1">
        <r>  0.0000  0.2829  0.4187  0.2829  0.0000  0.0000  0.0000  0.0000  0.0000 </r>
       </set>
       <set comment="band 2">
        <r>  0.0000  0.2108  0.5697  0.2108  0.0000  0.0000  0.0000  0.0000  0.0000 </r>
       </set>
       <set comment="band 3">
        <r>  0.0000  0.4967  0.0000  0.4967  0.0000  0.0000  0.0000  0.0000  0.0000 </r>
       </set>
       <set comment="band 4">
        <r>  0.0852  0.0012  0.0062  0.0012  0.3318  0.0965  0.0347  0.0965  0.0000 </r>
       </set>
       <set comment="band 5">
        <r>  0.0010  0.0061  0.0003  0.0061  0.0086  0.0627  0.5738  0.0627  0.0000 </r>
       </set>
       <set comment="band 6">
        <r>  0.0065  0.0117  0.0229  0.0117  0.3133  0.1251  0.0382  0.1251  0.0000 </r>
       </set>
       <set comment="band 7">
        <r>  0.0000  0.0013  0.0000  0.0013  0.0000  0.1410  0.0000  0.1410  0.5573 </r>
       </set>
       <set comment="band 8">
        <r>  0.0000  0.0001  0.0000  0.0001  0.0000  0.3156  0.0000  0.3156  0.3087 </r>
       </set>
       <set comment="band 9">
        <r>  0.0028  0.0342  0.0582  0.0342  0.0819  0.0635  0.1704  0.0635  0.0000 </r>
       </set>
       <set comment="band 10">
        <r>  0.3798  0.0049  0.0003  0.0049  0.1211  0.0990  0.0006  0.0990  0.0000 </r>
       </set>
       <set comment="band 11">
        <r>  0.0388  0.0144  0.0993  0.0144  0.0002  0.0324  0.1206  0.0324  0.0000 </r>
       </set>
       <set comment="band 12">
        <r>  0.0000  0.1138  0.0000  0.1138  0.0000  0.0032  0.0000  0.0032  0.0691 </r>
       </set>
       <set comment="band 13">
        <r>  0.0232  0.0253  0.0242  0.0253  0.0828  0.0017  0.0038  0.0017  0.0000 </r>
       </set>
       <set comment="band 14">
        <r>  0.0000  0.0004  0.0000  0.0004  0.0000  0.0459  0.0000  0.0459  0.0845 </r>
       </set>
       <set comment="band 15">
        <r>  0.0001  0.0017  0.0207  0.0017  0.0960  0.0001  0.0776  0.0001  0.0000 </r>
       </set>
       <set comment="band 16">
        <r>  0.1705  0.0265  0.0098  0.0265  0.0011  0.0157  0.0458  0.0157  0.0000 </r>
       </set>
       <set comment="band 17">
        <r>  0.0296  0.0404  0.0142  0.0404  0.0203  0.0252  0.0155  0.0252  0.0000 </r>
       </set>
       <set comment="band 18">
        <r>  0.0204  0.0057  0.0512  0.0057  0.0692  0.0098  0.0572  0.0098  0.0000 </r>
       </set>
       <set comment="band 19">
        <r>  0.0000  0.1681  0.0000  0.1681  0.0000  0.0003  0.0000  0.0003  0.1171 </r>
       </set>
       <set comment="band 20">
        <r>  0.0000  0.0048  0.0000  0.0048  0.0000  0.0188  0.0000  0.0188  0.0023 </r>
       </set>
       <set comment="band 21">
        <r>  0.0066  0.0029  0.0279  0.0029  0.0534  0.0031  0.0063  0.0031  0.0000 </r>
       </set>
       <set comment="band 22">
        <r>  6.2897  0.0000  0.0000  0.0000  0.0000  0.0000  0.0000  0.0000  0.0000 </r>
       </set>
       <set comment="band 23">
        <r>  0.0400  0.0073  0.0226  0.0073  0.0715  0.0196  0.0004  0.0196  0.0000 </r>
       </set>
       <set comment="band 24">
        <r>  0.0000  0.0331  0.0000  0.0331  0.0000  0.0132  0.0000  0.0132  0.0423 </r>
       </set>
      </set>
      <set comment="kpoint 109">
       <set comment="band 1">
        <r>  0.0000  0.3277  0.3277  0.3277  0.0000  0.0000  0.0000  0.0000  0.0000 </r>
       </set>
       <set comment="band 2">
        <r>  0.0000  0.3478  0.0726  0.5739  0.0000  0.0000  0.0000  0.0000  0.0000 </r>
       </set>
       <set comment="band 3">
        <r>  0.0000  0.3151  0.5903  0.0890  0.0000  0.0000  0.0000  0.0000  0.0000 </r>
       </set>
       <set comment="band 4">
        <r>  0.1375  0.0003  0.0003  0.0003  0.1599  0.1599  0.0000  0.1599  0.0000 </r>
       </set>
       <set comment="band 5">
        <r>  0.0000  0.0000  0.0000  0.0000  0.2310  0.0581  0.4816  0.0574  0.0000 </r>
       </set>
       <set comment="band 6">
        <r>  0.0000  0.0000  0.0000  0.0000  0.0000  0.1728  0.0000  0.1736  0.4816 </r>
       </set>
       <set comment="band 7">
        <r>  0.0327  0.0503  0.0503  0.0503  0.0217  0.0217  0.0000  0.0217  0.0000 </r>
       </set>
       <set comment="band 8">
        <r>  0.0000  0.0000  0.0001  0.0000  0.3695  0.0921  0.3870  0.0927  0.0000 </r>
       </set>
       <set comment="band 9">
        <r>  0.0000  0.0001  0.0000  0.0001  0.0000  0.2774  0.0000  0.2768  0.3870 </r>
       </set>
       <set comment="band 10">
        <r>  0.3286  0.0081  0.0081  0.0081  0.1237  0.1237  0.0000  0.1237  0.0000 </r>
       </set>
       <set comment="band 11">
        <r>  0.0002  0.0035  0.0035  0.0035  0.0010  0.0010  0.0000  0.0010  0.0000 </r>
       </set>
       <set comment="band 12">
        <r>  0.0000  0.0472  0.1433  0.0289  0.0041  0.0008  0.0004  0.0013  0.0000 </r>
       </set>
       <set comment="band 13">
        <r>  0.0000  0.0990  0.0030  0.1174  0.0001  0.0033  0.0000  0.0028  0.0004 </r>
       </set>
       <set comment="band 14">
        <r>  0.0000  0.0005  0.0020  0.0005  0.0634  0.0160  0.2601  0.0157  0.0001 </r>
       </set>
       <set comment="band 15">
        <r>  0.0000  0.0015  0.0000  0.0015  0.0000  0.0474  0.0001  0.0477  0.2601 </r>
       </set>
       <set comment="band 16">
        <r>  0.1123  0.0049  0.0049  0.0049  0.0592  0.0592  0.0000  0.0592  0.0000 </r>
       </set>
       <set comment="band 17">
        <r>  0.0000  0.0662  0.2022  0.0389  0.0171  0.0033  0.0115  0.0056  0.0002 </r>
       </set>
       <set comment="band 18">
        <r>  0.0000  0.1387  0.0027  0.1660  0.0002  0.0141  0.0002  0.0117  0.0115 </r>
       </set>
       <set comment="band 19">
        <r>  0.0503  0.0256  0.0256  0.0256  0.0194  0.0194  0.0000  0.0194  0.0000 </r>
       </set>
       <set comment="band 20">
        <r>  6.3025  0.0000  0.0000  0.0000  0.0000  0.0000  0.0000  0.0000  0.0000 </r>
       </set>
       <set comment="band 21">
        <r>  0.0000  0.0383  0.0792  0.0135  0.0415  0.0071  0.0032  0.0201  0.0003 </r>
       </set>
       <set comment="band 22">
        <r>  0.0000  0.0490  0.0082  0.0739  0.0043  0.0387  0.0003  0.0257  0.0032 </r>
       </set>
       <set comment="band 23">
        <r>  0.1890  0.0006  0.0006  0.0006  0.0109  0.0109  0.0000  0.0109  0.0000 </r>
       </set>
       <set comment="band 24">
        <r>  0.0000  0.0033  0.0068  0.0012  0.1405  0.0242  0.0116  0.0673  0.0012 </r>
       </set>
      </set>
      <set comment="kpoint 110">
       <set comment="band 1">
        <r>  0.0000  0.3282  0.3282  0.3269  0.0000  0.0000  0.0000  0.0000  0.0000 </r>
       </set>
       <set comment="band 2">
        <r>  0.0000  0.1651  0.1651  0.6632  0.0000  0.0000  0.0000  0.0000  0.0000 </r>
       </set>
       <set comment="band 3">
        <r>  0.0000  0.4971  0.4971  0.0000  0.0000  0.0000  0.0000  0.0000  0.0000 </r>
       </set>
       <set comment="band 4">
        <r>  0.1211  0.0009  0.0009  0.0018  0.1556  0.1923  0.0001  0.1556  0.0003 </r>
       </set>
       <set comment="band 5">
        <r>  0.0000  0.0009  0.0009  0.0001  0.0558  0.1795  0.1271  0.0558  0.3814 </r>
       </set>
       <set comment="band 6">
        <r>  0.0000  0.0003  0.0003  0.0000  0.1609  0.0000  0.3810  0.1609  0.1270 </r>
       </set>
       <set comment="band 7">
        <r>  0.0010  0.0250  0.0250  0.0253  0.0784  0.2004  0.0337  0.0784  0.1012 </r>
       </set>
       <set comment="band 8">
        <r>  0.0000  0.0001  0.0001  0.0000  0.2916  0.0000  0.2672  0.2916  0.0891 </r>
       </set>
       <set comment="band 9">
        <r>  0.0087  0.0317  0.0317  0.0325  0.0221  0.2145  0.0532  0.0221  0.1596 </r>
       </set>
       <set comment="band 10">
        <r>  0.3640  0.0008  0.0008  0.0048  0.1381  0.1118  0.0008  0.1381  0.0025 </r>
       </set>
       <set comment="band 11">
        <r>  0.0003  0.0007  0.0007  0.0143  0.0065  0.0081  0.0059  0.0065  0.0176 </r>
       </set>
       <set comment="band 12">
        <r>  0.0179  0.0384  0.0384  0.1291  0.0142  0.0072  0.0033  0.0142  0.0100 </r>
       </set>
       <set comment="band 13">
        <r>  0.0000  0.1110  0.1110  0.0000  0.0001  0.0000  0.0223  0.0001  0.0074 </r>
       </set>
       <set comment="band 14">
        <r>  0.0030  0.0000  0.0000  0.0110  0.0009  0.0904  0.0448  0.0009  0.1344 </r>
       </set>
       <set comment="band 15">
        <r>  0.0000  0.0005  0.0005  0.0000  0.0575  0.0000  0.1578  0.0575  0.0526 </r>
       </set>
       <set comment="band 16">
        <r>  0.1387  0.0001  0.0001  0.0023  0.0711  0.0248  0.0018  0.0711  0.0053 </r>
       </set>
       <set comment="band 17">
        <r>  0.0302  0.0674  0.0674  0.1114  0.0013  0.0002  0.0112  0.0013  0.0337 </r>
       </set>
       <set comment="band 18">
        <r>  0.0000  0.1590  0.1590  0.0000  0.0004  0.0000  0.0269  0.0004  0.0090 </r>
       </set>
       <set comment="band 19">
        <r>  0.0183  0.0157  0.0157  0.0615  0.0008  0.0465  0.0049  0.0008  0.0147 </r>
       </set>
       <set comment="band 20">
        <r>  0.0038  0.0053  0.0053  0.0219  0.0059  0.0690  0.0000  0.0059  0.0001 </r>
       </set>
       <set comment="band 21">
        <r>  0.0000  0.0123  0.0123  0.0000  0.0405  0.0000  0.0049  0.0405  0.0016 </r>
       </set>
       <set comment="band 22">
        <r>  6.2938  0.0000  0.0000  0.0000  0.0000  0.0000  0.0000  0.0000  0.0000 </r>
       </set>
       <set comment="band 23">
        <r>  0.1036  0.0033  0.0033  0.0001  0.0022  0.0992  0.0012  0.0022  0.0036 </r>
       </set>
       <set comment="band 24">
        <r>  0.0000  0.0479  0.0479  0.0000  0.0499  0.0000  0.0022  0.0499  0.0007 </r>
       </set>
      </set>
     </set>
    </set>
   </array>
  </projected>
 </calculation>
 <structure name="finalpos" >
  <crystal>
   <varray name="basis" >
    <v>       0.00000000       2.00059596       2.00059596 </v>
    <v>       2.00059596       0.00000000       2.00059596 </v>
    <v>       2.00059596       2.00059596       0.00000000 </v>
   </varray>
   <i name="volume">     16.01430730 </i>
   <varray name="rec_basis" >
    <v>      -0.24992553       0.24992553       0.24992553 </v>
    <v>       0.24992553      -0.24992553       0.24992553 </v>
    <v>       0.24992553       0.24992553      -0.24992553 </v>
   </varray>
  </crystal>
  <varray name="positions" >
   <v>       0.00000000       0.00000000       0.00000000 </v>
  </varray>
 </structure>
</modeling>
