Pt-fcc                                  
           1
     0.000000    2.038214    2.038214
     2.038214    0.000000    2.038214
     2.038214    2.038214    0.000000
   Pt
     1
Direct configuration=     1
   0.00000000  0.00000000  0.00000000
