       N       E                     dE             d eps       ncg     rms          rms(c)
DAV:   1     0.772560044443E+02    0.77256E+02   -0.65829E+03  6096   0.983E+02
DAV:   2    -0.105166428775E+02   -0.87773E+02   -0.81123E+02  6112   0.211E+02
DAV:   3    -0.127010478102E+02   -0.21844E+01   -0.21531E+01  7544   0.468E+01
DAV:   4    -0.127369090012E+02   -0.35861E-01   -0.35850E-01  8288   0.477E+00
DAV:   5    -0.127372946233E+02   -0.38562E-03   -0.38562E-03  7504   0.437E-01    0.124E+01
DAV:   6    -0.125350603459E+02    0.20223E+00   -0.22488E+01  7008   0.763E+01    0.128E+01
DAV:   7    -0.111048087437E+02    0.14303E+01   -0.47641E+00  7224   0.336E+01    0.322E+00
DAV:   8    -0.111924658938E+02   -0.87657E-01   -0.12976E-01  7528   0.366E+00    0.159E+00
DAV:   9    -0.112403606237E+02   -0.47895E-01   -0.34138E-02  7488   0.183E+00    0.777E-01
DAV:  10    -0.112549346289E+02   -0.14574E-01   -0.17803E-02  7080   0.136E+00    0.398E-01
DAV:  11    -0.112562003168E+02   -0.12657E-02   -0.40970E-03  7384   0.649E-01    0.206E-01
DAV:  12    -0.112563516953E+02   -0.15138E-03   -0.30038E-04  7576   0.200E-01    0.912E-02
DAV:  13    -0.112563943948E+02   -0.42700E-04   -0.97448E-05  7240   0.126E-01    0.306E-02
DAV:  14    -0.112564140999E+02   -0.19705E-04   -0.25564E-05  6984   0.487E-02    0.162E-02
DAV:  15    -0.112564151351E+02   -0.10353E-05   -0.32992E-06  6912   0.197E-02    0.547E-03
DAV:  16    -0.112564155400E+02   -0.40483E-06   -0.10455E-06  5224   0.107E-02
   1 F= -.11256416E+02 E0= -.11253963E+02  d E =-.490442E-02  mag=     3.7343
