 vasp.6.3.2 27Jun22 (build Aug 12 2022 00:53:59) complex                        
  
 executed on               tv2STD date 2024.11.30  15:36:02
 running   24 mpi-ranks, with    1 threads/rank
 distrk:  each k-point on   24 cores,    1 groups
 distr:  one band on NCORE=   6 cores,    4 groups


--------------------------------------------------------------------------------------------------------


 INCAR:
   SYSTEM = Co-hcc
   NWRITE = 2    write-flag
   ISTART = 0    job   : 0-new, 1-cont, 2-samecut
   ICHARG = 2    charge: 0-wave, 1-file, 2-atom, >10-const
   INIWAV = 1    electr: 0-lowe 1-rand  2-diag
   ENCUT = 400     energy cutoff in eV
   PREC = Accurate      normal | accurate
   ADDGRID = .FALSE.  (use fine grid)
   NELM = 100     number of ELM steps
   EDIFF = 1E-06    energy stopping-criterion for ELM
   LREAL = .F.      real-space projection (.FALSE., .TRUE., On, Auto)
   ALGO = Normal     Normal, Fast, Very_Fast
   LWAVE = .FALSE.
   LCHARG = .FALSE.
   NSW = 0       max number of geometry steps
   IBRION = -1     ionic relax: 0-MD, 1-quasi-Newton, 2-CG, 3-Damped MD
   EDIFFG = -0.02  force (eV/A) stopping-criterion for geometry steps
   ISIF = 2     (1:force\=y stress\=trace only ions\=y shape\=n volume\=n)
   ISYM = 1     (1-use symmetry, 0-no symmetry)
   ISMEAR = 0     (-1-Fermi, 1-Methfessel/Paxton)
   SIGMA = 0.05   broadening in eV
   NPAR = 4
   ISPIN = 2
   MAGMOM = 2*3

 POTCAR:    PAW_PBE Co 02Aug2007                  
 POTCAR:    PAW_PBE Co 02Aug2007                  
   SHA256 =  0e690c60710354995174544f52f9f2c30879afabeffe3b3fbd4001cb294e56d4 Co/POTCAR             
   COPYR  = (c) Copyright 02Aug2007 Georg Kresse                                                    
   COPYR  = This file is part of the software VASP. Any use, copying, and all other rights are regul
   COPYR  = If you do not have a valid VASP license, you may not use, copy or distribute this file. 
   VRHFIN =Co: d8 s1                                                                                
   LEXCH  = PE                                                                                      
   EATOM  =   813.3670 eV,   59.7808 Ry                                                             
                                                                                                    
   TITEL  = PAW_PBE Co 02Aug2007                                                                    
   LULTRA =        F    use ultrasoft PP ?                                                          
   IUNSCR =        1    unscreen: 0-lin 1-nonlin 2-no                                               
   RPACOR =    2.000    partial core radius                                                         
   POMASS =   58.933; ZVAL   =    9.000    mass and valenz                                          
   RCORE  =    2.300    outmost cutoff radius                                                       
   RWIGS  =    2.460; RWIGS  =    1.302    wigner-seitz radius (au A)                               
   ENMAX  =  267.968; ENMIN  =  200.976 eV                                                          
   RCLOC  =    1.203    cutoff for local pot                                                        
   LCOR   =        T    correct aug charges                                                         
   LPAW   =        T    paw PP                                                                      
   EAUG   =  477.818                                                                                
   DEXC   =    0.000                                                                                
   RMAX   =    2.360    core radius for proj-oper                                                   
   RAUG   =    1.300    factor for augmentation sphere                                              
   RDEP   =    2.393    radius for radial grids                                                     
   RDEPT  =    1.864    core radius for aug-charge                                                  
                                                                                                    
   Atomic configuration                                                                             
    9 entries                                                                                       
     n  l   j            E        occ.                                                              
     1  0  0.50     -7587.6674   2.0000                                                             
     2  0  0.50      -893.6084   2.0000                                                             
     2  1  1.50      -764.5805   6.0000                                                             
     3  0  0.50       -97.5973   2.0000                                                             
     3  1  1.50       -60.9648   6.0000                                                             
     3  2  2.50        -4.2382   8.0000                                                             
     4  0  0.50        -4.3746   1.0000                                                             
     4  1  1.50        -4.0817   0.0000                                                             
     4  3  2.50        -1.3606   0.0000                                                             
   Description                                                                                      
     l       E           TYP  RCUT    TYP  RCUT                                                     
     2     -4.2382362     23  2.300                                                                 
     2     -5.5988188     23  2.300                                                                 
     0     -4.3745797     23  2.300                                                                 
     0      5.7660125     23  2.300                                                                 
     1     -2.7211652     23  2.300                                                                 
     1     16.9860234     23  2.300                                                                 
  local pseudopotential read in
  partial core-charges read in
  partial kinetic energy density read in
  atomic valenz-charges read in
  non local Contribution for L=           2  read in
    real space projection operators read in
  non local Contribution for L=           2  read in
    real space projection operators read in
  non local Contribution for L=           0  read in
    real space projection operators read in
  non local Contribution for L=           0  read in
    real space projection operators read in
  non local Contribution for L=           1  read in
    real space projection operators read in
  non local Contribution for L=           1  read in
    real space projection operators read in
    PAW grid and wavefunctions read in
 
   number of l-projection  operators is LMAX  =           6
   number of lm-projection operators is LMMAX =          18
 
  PAW_PBE Co 02Aug2007                  :
 energy of atom  1       EATOM= -813.3670
 kinetic energy error for atom=    0.0093 (will be added to EATOM!!)
 
 
 POSCAR: Co
  positions in cartesian coordinates
  No initial velocities read in
 exchange correlation table for  LEXCH =        8
   RHO(1)=    0.500       N(1)  =     2000
   RHO(2)=  100.500       N(2)  =     4000
 


--------------------------------------------------------------------------------------------------------


 ion  position               nearest neighbor table
   1  0.000  0.000  0.000-
   2  0.333  0.667  0.500-
 
  LATTYP: Found a hexagonal cell.
 ALAT       =     2.4700000000
 C/A-ratio  =     3.2753036437
  
  Lattice vectors:
  
 A1 = (   2.4700000000,   0.0000000000,   0.0000000000)
 A2 = (  -1.2350000000,   2.1390827473,   0.0000000000)
 A3 = (   0.0000000000,   0.0000000000,   8.0900000000)


Analysis of symmetry for initial positions (statically):
=====================================================================
 Subroutine PRICEL returns:
 Original cell was already a primitive cell.
 

 Routine SETGRP: Setting up the symmetry group for a 
 hexagonal supercell.


 Subroutine GETGRP returns: Found 24 space group operations
 (whereof 12 operations were pure point group operations)
 out of a pool of 24 trial point group operations.


The static configuration has the point symmetry D_3h.
 The point group associated with its full space group is D_6h.


Analysis of symmetry for dynamics (positions and initial velocities):
=====================================================================
 Subroutine PRICEL returns:
 Original cell was already a primitive cell.
 

 Routine SETGRP: Setting up the symmetry group for a 
 hexagonal supercell.


 Subroutine GETGRP returns: Found 24 space group operations
 (whereof 12 operations were pure point group operations)
 out of a pool of 24 trial point group operations.


The dynamic configuration has the point symmetry D_3h.
 The point group associated with its full space group is D_6h.


Analysis of structural, dynamic, and magnetic symmetry:
=====================================================================
 Subroutine PRICEL returns:
 Original cell was already a primitive cell.
 

 Routine SETGRP: Setting up the symmetry group for a 
 hexagonal supercell.


 Subroutine GETGRP returns: Found 24 space group operations
 (whereof 12 operations were pure point group operations)
 out of a pool of 24 trial point group operations.


The overall configuration has the point symmetry D_3h.
 The point group associated with its full space group is D_6h.


 Subroutine INISYM returns: Found 24 space group operations
 (whereof 12 operations are pure point group operations),
 and found     1 'primitive' translations


----------------------------------------------------------------------------------------

                                     Primitive cell                                     

  volume of cell :      42.7438

  direct lattice vectors                    reciprocal lattice vectors
     2.470000000  0.000000000  0.000000000     0.404858300  0.233745048  0.000000000
    -1.235000000  2.139082747  0.000000000     0.000000000  0.467490097  0.000000000
     0.000000000  0.000000000  8.090000000     0.000000000  0.000000000  0.123609394

  length of vectors
     2.470000000  2.470000000  8.090000000     0.467490097  0.467490097  0.123609394

  position of ions in fractional coordinates (direct lattice)
     0.000000000  0.000000000  0.000000000
     0.333333333  0.666666667  0.500000000

  ion indices of the primitive-cell ions
   primitive index   ion index
                 1           1
                 2           2

----------------------------------------------------------------------------------------

 
 
 KPOINTS: Automatic mesh                          

Automatic generation of k-mesh.
 Grid dimensions read from file:
 generate k-points for:   12   12    8

 Generating k-lattice:

  Cartesian coordinates                     Fractional coordinates (reciprocal lattice)
     0.033738192  0.019478754  0.000000000     0.083333333  0.000000000  0.000000000
     0.000000000  0.038957508  0.000000000     0.000000000  0.083333333  0.000000000
     0.000000000  0.000000000  0.015451174     0.000000000  0.000000000  0.125000000

  Length of vectors
     0.038957508  0.038957508  0.015451174

  Shift w.r.t. Gamma in fractional coordinates (k-lattice)
     0.000000000  0.000000000  0.000000000

 
 Subroutine IBZKPT returns following result:
 ===========================================
 
 Found     95 irreducible k-points:
 
 Following reciprocal coordinates:
            Coordinates               Weight
  0.000000  0.000000  0.000000      1.000000
  0.083333  0.000000  0.000000      6.000000
  0.166667 -0.000000  0.000000      6.000000
  0.250000 -0.000000  0.000000      6.000000
  0.333333 -0.000000  0.000000      6.000000
  0.416667 -0.000000  0.000000      6.000000
  0.500000 -0.000000  0.000000      3.000000
  0.083333  0.083333  0.000000      6.000000
  0.166667  0.083333  0.000000     12.000000
  0.250000  0.083333  0.000000     12.000000
  0.333333  0.083333  0.000000     12.000000
  0.416667  0.083333  0.000000     12.000000
  0.166667  0.166667  0.000000      6.000000
  0.250000  0.166667  0.000000     12.000000
  0.333333  0.166667  0.000000     12.000000
  0.416667  0.166667  0.000000      6.000000
  0.250000  0.250000  0.000000      6.000000
  0.333333  0.250000  0.000000     12.000000
  0.333333  0.333333  0.000000      2.000000
  0.000000  0.000000  0.125000      2.000000
  0.083333  0.000000  0.125000     12.000000
  0.166667 -0.000000  0.125000     12.000000
  0.250000 -0.000000  0.125000     12.000000
  0.333333 -0.000000  0.125000     12.000000
  0.416667 -0.000000  0.125000     12.000000
  0.500000 -0.000000  0.125000      6.000000
  0.083333  0.083333  0.125000     12.000000
  0.166667  0.083333  0.125000     24.000000
  0.250000  0.083333  0.125000     24.000000
  0.333333  0.083333  0.125000     24.000000
  0.416667  0.083333  0.125000     24.000000
  0.166667  0.166667  0.125000     12.000000
  0.250000  0.166667  0.125000     24.000000
  0.333333  0.166667  0.125000     24.000000
  0.416667  0.166667  0.125000     12.000000
  0.250000  0.250000  0.125000     12.000000
  0.333333  0.250000  0.125000     24.000000
  0.333333  0.333333  0.125000      4.000000
  0.000000  0.000000  0.250000      2.000000
  0.083333  0.000000  0.250000     12.000000
  0.166667 -0.000000  0.250000     12.000000
  0.250000 -0.000000  0.250000     12.000000
  0.333333 -0.000000  0.250000     12.000000
  0.416667 -0.000000  0.250000     12.000000
  0.500000 -0.000000  0.250000      6.000000
  0.083333  0.083333  0.250000     12.000000
  0.166667  0.083333  0.250000     24.000000
  0.250000  0.083333  0.250000     24.000000
  0.333333  0.083333  0.250000     24.000000
  0.416667  0.083333  0.250000     24.000000
  0.166667  0.166667  0.250000     12.000000
  0.250000  0.166667  0.250000     24.000000
  0.333333  0.166667  0.250000     24.000000
  0.416667  0.166667  0.250000     12.000000
  0.250000  0.250000  0.250000     12.000000
  0.333333  0.250000  0.250000     24.000000
  0.333333  0.333333  0.250000      4.000000
  0.000000  0.000000  0.375000      2.000000
  0.083333  0.000000  0.375000     12.000000
  0.166667 -0.000000  0.375000     12.000000
  0.250000 -0.000000  0.375000     12.000000
  0.333333 -0.000000  0.375000     12.000000
  0.416667 -0.000000  0.375000     12.000000
  0.500000 -0.000000  0.375000      6.000000
  0.083333  0.083333  0.375000     12.000000
  0.166667  0.083333  0.375000     24.000000
  0.250000  0.083333  0.375000     24.000000
  0.333333  0.083333  0.375000     24.000000
  0.416667  0.083333  0.375000     24.000000
  0.166667  0.166667  0.375000     12.000000
  0.250000  0.166667  0.375000     24.000000
  0.333333  0.166667  0.375000     24.000000
  0.416667  0.166667  0.375000     12.000000
  0.250000  0.250000  0.375000     12.000000
  0.333333  0.250000  0.375000     24.000000
  0.333333  0.333333  0.375000      4.000000
  0.000000  0.000000  0.500000      1.000000
  0.083333  0.000000  0.500000      6.000000
  0.166667 -0.000000  0.500000      6.000000
  0.250000 -0.000000  0.500000      6.000000
  0.333333 -0.000000  0.500000      6.000000
  0.416667 -0.000000  0.500000      6.000000
  0.500000 -0.000000  0.500000      3.000000
  0.083333  0.083333  0.500000      6.000000
  0.166667  0.083333  0.500000     12.000000
  0.250000  0.083333  0.500000     12.000000
  0.333333  0.083333  0.500000     12.000000
  0.416667  0.083333  0.500000     12.000000
  0.166667  0.166667  0.500000      6.000000
  0.250000  0.166667  0.500000     12.000000
  0.333333  0.166667  0.500000     12.000000
  0.416667  0.166667  0.500000      6.000000
  0.250000  0.250000  0.500000      6.000000
  0.333333  0.250000  0.500000     12.000000
  0.333333  0.333333  0.500000      2.000000
 
 Following cartesian coordinates:
            Coordinates               Weight
  0.000000  0.000000  0.000000      1.000000
  0.033738  0.019479  0.000000      6.000000
  0.067476  0.038958  0.000000      6.000000
  0.101215  0.058436  0.000000      6.000000
  0.134953  0.077915  0.000000      6.000000
  0.168691  0.097394  0.000000      6.000000
  0.202429  0.116873  0.000000      3.000000
  0.033738  0.058436  0.000000      6.000000
  0.067476  0.077915  0.000000     12.000000
  0.101215  0.097394  0.000000     12.000000
  0.134953  0.116873  0.000000     12.000000
  0.168691  0.136351  0.000000     12.000000
  0.067476  0.116873  0.000000      6.000000
  0.101215  0.136351  0.000000     12.000000
  0.134953  0.155830  0.000000     12.000000
  0.168691  0.175309  0.000000      6.000000
  0.101215  0.175309  0.000000      6.000000
  0.134953  0.194788  0.000000     12.000000
  0.134953  0.233745  0.000000      2.000000
  0.000000  0.000000  0.015451      2.000000
  0.033738  0.019479  0.015451     12.000000
  0.067476  0.038958  0.015451     12.000000
  0.101215  0.058436  0.015451     12.000000
  0.134953  0.077915  0.015451     12.000000
  0.168691  0.097394  0.015451     12.000000
  0.202429  0.116873  0.015451      6.000000
  0.033738  0.058436  0.015451     12.000000
  0.067476  0.077915  0.015451     24.000000
  0.101215  0.097394  0.015451     24.000000
  0.134953  0.116873  0.015451     24.000000
  0.168691  0.136351  0.015451     24.000000
  0.067476  0.116873  0.015451     12.000000
  0.101215  0.136351  0.015451     24.000000
  0.134953  0.155830  0.015451     24.000000
  0.168691  0.175309  0.015451     12.000000
  0.101215  0.175309  0.015451     12.000000
  0.134953  0.194788  0.015451     24.000000
  0.134953  0.233745  0.015451      4.000000
  0.000000  0.000000  0.030902      2.000000
  0.033738  0.019479  0.030902     12.000000
  0.067476  0.038958  0.030902     12.000000
  0.101215  0.058436  0.030902     12.000000
  0.134953  0.077915  0.030902     12.000000
  0.168691  0.097394  0.030902     12.000000
  0.202429  0.116873  0.030902      6.000000
  0.033738  0.058436  0.030902     12.000000
  0.067476  0.077915  0.030902     24.000000
  0.101215  0.097394  0.030902     24.000000
  0.134953  0.116873  0.030902     24.000000
  0.168691  0.136351  0.030902     24.000000
  0.067476  0.116873  0.030902     12.000000
  0.101215  0.136351  0.030902     24.000000
  0.134953  0.155830  0.030902     24.000000
  0.168691  0.175309  0.030902     12.000000
  0.101215  0.175309  0.030902     12.000000
  0.134953  0.194788  0.030902     24.000000
  0.134953  0.233745  0.030902      4.000000
  0.000000  0.000000  0.046354      2.000000
  0.033738  0.019479  0.046354     12.000000
  0.067476  0.038958  0.046354     12.000000
  0.101215  0.058436  0.046354     12.000000
  0.134953  0.077915  0.046354     12.000000
  0.168691  0.097394  0.046354     12.000000
  0.202429  0.116873  0.046354      6.000000
  0.033738  0.058436  0.046354     12.000000
  0.067476  0.077915  0.046354     24.000000
  0.101215  0.097394  0.046354     24.000000
  0.134953  0.116873  0.046354     24.000000
  0.168691  0.136351  0.046354     24.000000
  0.067476  0.116873  0.046354     12.000000
  0.101215  0.136351  0.046354     24.000000
  0.134953  0.155830  0.046354     24.000000
  0.168691  0.175309  0.046354     12.000000
  0.101215  0.175309  0.046354     12.000000
  0.134953  0.194788  0.046354     24.000000
  0.134953  0.233745  0.046354      4.000000
  0.000000  0.000000  0.061805      1.000000
  0.033738  0.019479  0.061805      6.000000
  0.067476  0.038958  0.061805      6.000000
  0.101215  0.058436  0.061805      6.000000
  0.134953  0.077915  0.061805      6.000000
  0.168691  0.097394  0.061805      6.000000
  0.202429  0.116873  0.061805      3.000000
  0.033738  0.058436  0.061805      6.000000
  0.067476  0.077915  0.061805     12.000000
  0.101215  0.097394  0.061805     12.000000
  0.134953  0.116873  0.061805     12.000000
  0.168691  0.136351  0.061805     12.000000
  0.067476  0.116873  0.061805      6.000000
  0.101215  0.136351  0.061805     12.000000
  0.134953  0.155830  0.061805     12.000000
  0.168691  0.175309  0.061805      6.000000
  0.101215  0.175309  0.061805      6.000000
  0.134953  0.194788  0.061805     12.000000
  0.134953  0.233745  0.061805      2.000000
 


--------------------------------------------------------------------------------------------------------




 Dimension of arrays:
   k-points           NKPTS =     95   k-points in BZ     NKDIM =     95   number of bands    NBANDS=     16
   number of dos      NEDOS =    301   number of ions     NIONS =      2
   non local maximal  LDIM  =      6   non local SUM 2l+1 LMDIM =     18
   total plane-waves  NPLWV =  13824
   max r-space proj   IRMAX =      1   max aug-charges    IRDMAX=  12953
   dimension x,y,z NGX =    16 NGY =   16 NGZ =   54
   dimension x,y,z NGXF=    32 NGYF=   32 NGZF=  108
   support grid    NGXF=    32 NGYF=   32 NGZF=  108
   ions per type =               2
   NGX,Y,Z   is equivalent  to a cutoff of  10.77, 10.77, 11.10 a.u.
   NGXF,Y,Z  is equivalent  to a cutoff of  21.54, 21.54, 22.19 a.u.

 SYSTEM =  Co-hcc                                  
 POSCAR =  Co                                      

 Startparameter for this run:
   NWRITE =      2    write-flag & timer
   PREC   = accura    normal or accurate (medium, high low for compatibility)
   ISTART =      0    job   : 0-new  1-cont  2-samecut
   ICHARG =      2    charge: 1-file 2-atom 10-const
   ISPIN  =      2    spin polarized calculation?
   LNONCOLLINEAR =      F non collinear calculations
   LSORBIT =      F    spin-orbit coupling
   INIWAV =      1    electr: 0-lowe 1-rand  2-diag
   LASPH  =      F    aspherical Exc in radial PAW
 Electronic Relaxation 1
   ENCUT  =  400.0 eV  29.40 Ry    5.42 a.u.   4.03  4.03 13.19*2*pi/ulx,y,z
   ENINI  =  400.0     initial cutoff
   ENAUG  =  477.8 eV  augmentation charge cutoff
   NELM   =    100;   NELMIN=  2; NELMDL= -5     # of ELM steps 
   EDIFF  = 0.1E-05   stopping-criterion for ELM
   LREAL  =      F    real-space projection
   NLSPLINE    = F    spline interpolate recip. space projectors
   LCOMPAT=      F    compatible to vasp.4.4
   GGA_COMPAT  = T    GGA compatible to vasp.4.4-vasp.4.6
   LMAXPAW     = -100 max onsite density
   LMAXMIX     =    2 max onsite mixed and CHGCAR
   VOSKOWN=      0    Vosko Wilk Nusair interpolation
   ROPT   =    0.00000
 Ionic relaxation
   EDIFFG = -.2E-01   stopping-criterion for IOM
   NSW    =      0    number of steps for IOM
   NBLOCK =      1;   KBLOCK =      1    inner block; outer block 
   IBRION =     -1    ionic relax: 0-MD 1-quasi-New 2-CG
   NFREE  =      0    steps in history (QN), initial steepest desc. (CG)
   ISIF   =      2    stress and relaxation
   IWAVPR =     10    prediction:  0-non 1-charg 2-wave 3-comb
   ISYM   =      1    0-nonsym 1-usesym 2-fastsym
   LCORR  =      T    Harris-Foulkes like correction to forces

   POTIM  = 0.5000    time-step for ionic-motion
   TEIN   =    0.0    initial temperature
   TEBEG  =    0.0;   TEEND  =   0.0 temperature during run
   SMASS  =  -3.00    Nose mass-parameter (am)
   estimated Nose-frequenzy (Omega)   =  0.10E-29 period in steps = 0.13E+47 mass=  -0.139E-27a.u.
   SCALEE = 1.0000    scale energy and forces
   NPACO  =    256;   APACO  = 10.0  distance and # of slots for P.C.
   PSTRESS=    0.0 pullay stress

  Mass of Ions in am
   POMASS =  58.93
  Ionic Valenz
   ZVAL   =   9.00
  Atomic Wigner-Seitz radii
   RWIGS  =  -1.00
  virtual crystal weights 
   VCA    =   1.00
   NELECT =      18.0000    total number of electrons
   NUPDOWN=      -1.0000    fix difference up-down

 DOS related values:
   EMIN   =  10.00;   EMAX   =-10.00  energy-range for DOS
   EFERMI =   0.00
   ISMEAR =     0;   SIGMA  =   0.05  broadening in eV -4-tet -1-fermi 0-gaus

 Electronic relaxation 2 (details)
   IALGO  =     38    algorithm
   LDIAG  =      T    sub-space diagonalisation (order eigenvalues)
   LSUBROT=      F    optimize rotation matrix (better conditioning)
   TURBO    =      0    0=normal 1=particle mesh
   IRESTART =      0    0=no restart 2=restart with 2 vectors
   NREBOOT  =      0    no. of reboots
   NMIN     =      0    reboot dimension
   EREF     =   0.00    reference energy to select bands
   IMIX   =      4    mixing-type and parameters
     AMIX     =   0.40;   BMIX     =  1.00
     AMIX_MAG =   1.60;   BMIX_MAG =  1.00
     AMIN     =   0.10
     WC   =   100.;   INIMIX=   1;  MIXPRE=   1;  MAXMIX= -45

 Intra band minimization:
   WEIMIN = 0.0000     energy-eigenvalue tresh-hold
   EBREAK =  0.16E-07  absolut break condition
   DEPER  =   0.30     relativ break condition  

   TIME   =   0.40     timestep for ELM

  volume/ion in A,a.u.               =      21.37       144.22
  Fermi-wavevector in a.u.,A,eV,Ry     =   1.227085  2.318854 20.486804  1.505738
  Thomas-Fermi vector in A             =   2.362062
 
 Write flags
   LWAVE        =      F    write WAVECAR
   LDOWNSAMPLE  =      F    k-point downsampling of WAVECAR
   LCHARG       =      F    write CHGCAR
   LVTOT        =      F    write LOCPOT, total local potential
   LVHAR        =      F    write LOCPOT, Hartree potential only
   LELF         =      F    write electronic localiz. function (ELF)
   LORBIT       =      0    0 simple, 1 ext, 2 COOP (PROOUT), +10 PAW based schemes


 Dipole corrections
   LMONO  =      F    monopole corrections only (constant potential shift)
   LDIPOL =      F    correct potential (dipole corrections)
   IDIPOL =      0    1-x, 2-y, 3-z, 4-all directions 
   EPSILON=  1.0000000 bulk dielectric constant

 Exchange correlation treatment:
   GGA     =    --    GGA type
   LEXCH   =     8    internal setting for exchange type
   LIBXC   =     F    Libxc                    
   VOSKOWN =     0    Vosko Wilk Nusair interpolation
   LHFCALC =     F    Hartree Fock is set to
   LHFONE  =     F    Hartree Fock one center treatment
   AEXX    =    0.0000 exact exchange contribution

 Linear response parameters
   LEPSILON=     F    determine dielectric tensor
   LRPA    =     F    only Hartree local field effects (RPA)
   LNABLA  =     F    use nabla operator in PAW spheres
   LVEL    =     F    velocity operator in full k-point grid
   CSHIFT  =0.1000    complex shift for real part using Kramers Kronig
   OMEGAMAX=  -1.0    maximum frequency
   DEG_THRESHOLD= 0.2000000E-02 threshold for treating states as degnerate
   RTIME   =   -0.100 relaxation time in fs
  (WPLASMAI=    0.000 imaginary part of plasma frequency in eV, 0.658/RTIME)
   DFIELD  = 0.0000000 0.0000000 0.0000000 field for delta impulse in time
 
  Optional k-point grid parameters
   LKPOINTS_OPT  =     F    use optional k-point grid
   KPOINTS_OPT_MODE=     1    mode for optional k-point grid
 
 Orbital magnetization related:
   ORBITALMAG=     F  switch on orbital magnetization
   LCHIMAG   =     F  perturbation theory with respect to B field
   DQ        =  0.001000  dq finite difference perturbation B field
   LLRAUG    =     F  two centre corrections for induced B field



--------------------------------------------------------------------------------------------------------


 Static calculation
 charge density and potential will be updated during run
 spin polarized calculation
 Variant of blocked Davidson
 Davidson routine will perform the subspace rotation
 perform sub-space diagonalisation
    after iterative eigenvector-optimisation
 modified Broyden-mixing scheme, WC =      100.0
 initial mixing is a Kerker type mixing with AMIX =  0.4000 and BMIX =      1.0000
 Hartree-type preconditioning will be used
 using additional bands            7
 reciprocal scheme for non local part
 use partial core corrections
 calculate Harris-corrections to forces 
   (improved forces if not selfconsistent)
 use gradient corrections 
 use of overlap-Matrix (Vanderbilt PP)
 Gauss-broadening in eV      SIGMA  =   0.05


--------------------------------------------------------------------------------------------------------


  energy-cutoff  :      400.00
  volume of cell :       42.74
      direct lattice vectors                 reciprocal lattice vectors
     2.470000000  0.000000000  0.000000000     0.404858300  0.233745048  0.000000000
    -1.235000000  2.139082747  0.000000000     0.000000000  0.467490097  0.000000000
     0.000000000  0.000000000  8.090000000     0.000000000  0.000000000  0.123609394

  length of vectors
     2.470000000  2.470000000  8.090000000     0.467490097  0.467490097  0.123609394


 
 k-points in units of 2pi/SCALE and weight: Automatic mesh                          
   0.00000000  0.00000000  0.00000000       0.001
   0.03373819  0.01947875  0.00000000       0.005
   0.06747638  0.03895751  0.00000000       0.005
   0.10121457  0.05843626  0.00000000       0.005
   0.13495277  0.07791502  0.00000000       0.005
   0.16869096  0.09739377  0.00000000       0.005
   0.20242915  0.11687252  0.00000000       0.003
   0.03373819  0.05843626  0.00000000       0.005
   0.06747638  0.07791502  0.00000000       0.010
   0.10121457  0.09739377  0.00000000       0.010
   0.13495277  0.11687252  0.00000000       0.010
   0.16869096  0.13635128  0.00000000       0.010
   0.06747638  0.11687252  0.00000000       0.005
   0.10121457  0.13635128  0.00000000       0.010
   0.13495277  0.15583003  0.00000000       0.010
   0.16869096  0.17530879  0.00000000       0.005
   0.10121457  0.17530879  0.00000000       0.005
   0.13495277  0.19478754  0.00000000       0.010
   0.13495277  0.23374505  0.00000000       0.002
   0.00000000  0.00000000  0.01545117       0.002
   0.03373819  0.01947875  0.01545117       0.010
   0.06747638  0.03895751  0.01545117       0.010
   0.10121457  0.05843626  0.01545117       0.010
   0.13495277  0.07791502  0.01545117       0.010
   0.16869096  0.09739377  0.01545117       0.010
   0.20242915  0.11687252  0.01545117       0.005
   0.03373819  0.05843626  0.01545117       0.010
   0.06747638  0.07791502  0.01545117       0.021
   0.10121457  0.09739377  0.01545117       0.021
   0.13495277  0.11687252  0.01545117       0.021
   0.16869096  0.13635128  0.01545117       0.021
   0.06747638  0.11687252  0.01545117       0.010
   0.10121457  0.13635128  0.01545117       0.021
   0.13495277  0.15583003  0.01545117       0.021
   0.16869096  0.17530879  0.01545117       0.010
   0.10121457  0.17530879  0.01545117       0.010
   0.13495277  0.19478754  0.01545117       0.021
   0.13495277  0.23374505  0.01545117       0.003
   0.00000000  0.00000000  0.03090235       0.002
   0.03373819  0.01947875  0.03090235       0.010
   0.06747638  0.03895751  0.03090235       0.010
   0.10121457  0.05843626  0.03090235       0.010
   0.13495277  0.07791502  0.03090235       0.010
   0.16869096  0.09739377  0.03090235       0.010
   0.20242915  0.11687252  0.03090235       0.005
   0.03373819  0.05843626  0.03090235       0.010
   0.06747638  0.07791502  0.03090235       0.021
   0.10121457  0.09739377  0.03090235       0.021
   0.13495277  0.11687252  0.03090235       0.021
   0.16869096  0.13635128  0.03090235       0.021
   0.06747638  0.11687252  0.03090235       0.010
   0.10121457  0.13635128  0.03090235       0.021
   0.13495277  0.15583003  0.03090235       0.021
   0.16869096  0.17530879  0.03090235       0.010
   0.10121457  0.17530879  0.03090235       0.010
   0.13495277  0.19478754  0.03090235       0.021
   0.13495277  0.23374505  0.03090235       0.003
   0.00000000  0.00000000  0.04635352       0.002
   0.03373819  0.01947875  0.04635352       0.010
   0.06747638  0.03895751  0.04635352       0.010
   0.10121457  0.05843626  0.04635352       0.010
   0.13495277  0.07791502  0.04635352       0.010
   0.16869096  0.09739377  0.04635352       0.010
   0.20242915  0.11687252  0.04635352       0.005
   0.03373819  0.05843626  0.04635352       0.010
   0.06747638  0.07791502  0.04635352       0.021
   0.10121457  0.09739377  0.04635352       0.021
   0.13495277  0.11687252  0.04635352       0.021
   0.16869096  0.13635128  0.04635352       0.021
   0.06747638  0.11687252  0.04635352       0.010
   0.10121457  0.13635128  0.04635352       0.021
   0.13495277  0.15583003  0.04635352       0.021
   0.16869096  0.17530879  0.04635352       0.010
   0.10121457  0.17530879  0.04635352       0.010
   0.13495277  0.19478754  0.04635352       0.021
   0.13495277  0.23374505  0.04635352       0.003
   0.00000000  0.00000000  0.06180470       0.001
   0.03373819  0.01947875  0.06180470       0.005
   0.06747638  0.03895751  0.06180470       0.005
   0.10121457  0.05843626  0.06180470       0.005
   0.13495277  0.07791502  0.06180470       0.005
   0.16869096  0.09739377  0.06180470       0.005
   0.20242915  0.11687252  0.06180470       0.003
   0.03373819  0.05843626  0.06180470       0.005
   0.06747638  0.07791502  0.06180470       0.010
   0.10121457  0.09739377  0.06180470       0.010
   0.13495277  0.11687252  0.06180470       0.010
   0.16869096  0.13635128  0.06180470       0.010
   0.06747638  0.11687252  0.06180470       0.005
   0.10121457  0.13635128  0.06180470       0.010
   0.13495277  0.15583003  0.06180470       0.010
   0.16869096  0.17530879  0.06180470       0.005
   0.10121457  0.17530879  0.06180470       0.005
   0.13495277  0.19478754  0.06180470       0.010
   0.13495277  0.23374505  0.06180470       0.002
 
 k-points in reciprocal lattice and weights: Automatic mesh                          
   0.00000000  0.00000000  0.00000000       0.001
   0.08333333  0.00000000  0.00000000       0.005
   0.16666667 -0.00000000  0.00000000       0.005
   0.25000000 -0.00000000  0.00000000       0.005
   0.33333333 -0.00000000  0.00000000       0.005
   0.41666667 -0.00000000  0.00000000       0.005
   0.50000000 -0.00000000  0.00000000       0.003
   0.08333333  0.08333333  0.00000000       0.005
   0.16666667  0.08333333  0.00000000       0.010
   0.25000000  0.08333333  0.00000000       0.010
   0.33333333  0.08333333  0.00000000       0.010
   0.41666667  0.08333333  0.00000000       0.010
   0.16666667  0.16666667  0.00000000       0.005
   0.25000000  0.16666667  0.00000000       0.010
   0.33333333  0.16666667  0.00000000       0.010
   0.41666667  0.16666667  0.00000000       0.005
   0.25000000  0.25000000  0.00000000       0.005
   0.33333333  0.25000000  0.00000000       0.010
   0.33333333  0.33333333  0.00000000       0.002
   0.00000000  0.00000000  0.12500000       0.002
   0.08333333  0.00000000  0.12500000       0.010
   0.16666667 -0.00000000  0.12500000       0.010
   0.25000000 -0.00000000  0.12500000       0.010
   0.33333333 -0.00000000  0.12500000       0.010
   0.41666667 -0.00000000  0.12500000       0.010
   0.50000000 -0.00000000  0.12500000       0.005
   0.08333333  0.08333333  0.12500000       0.010
   0.16666667  0.08333333  0.12500000       0.021
   0.25000000  0.08333333  0.12500000       0.021
   0.33333333  0.08333333  0.12500000       0.021
   0.41666667  0.08333333  0.12500000       0.021
   0.16666667  0.16666667  0.12500000       0.010
   0.25000000  0.16666667  0.12500000       0.021
   0.33333333  0.16666667  0.12500000       0.021
   0.41666667  0.16666667  0.12500000       0.010
   0.25000000  0.25000000  0.12500000       0.010
   0.33333333  0.25000000  0.12500000       0.021
   0.33333333  0.33333333  0.12500000       0.003
   0.00000000  0.00000000  0.25000000       0.002
   0.08333333  0.00000000  0.25000000       0.010
   0.16666667 -0.00000000  0.25000000       0.010
   0.25000000 -0.00000000  0.25000000       0.010
   0.33333333 -0.00000000  0.25000000       0.010
   0.41666667 -0.00000000  0.25000000       0.010
   0.50000000 -0.00000000  0.25000000       0.005
   0.08333333  0.08333333  0.25000000       0.010
   0.16666667  0.08333333  0.25000000       0.021
   0.25000000  0.08333333  0.25000000       0.021
   0.33333333  0.08333333  0.25000000       0.021
   0.41666667  0.08333333  0.25000000       0.021
   0.16666667  0.16666667  0.25000000       0.010
   0.25000000  0.16666667  0.25000000       0.021
   0.33333333  0.16666667  0.25000000       0.021
   0.41666667  0.16666667  0.25000000       0.010
   0.25000000  0.25000000  0.25000000       0.010
   0.33333333  0.25000000  0.25000000       0.021
   0.33333333  0.33333333  0.25000000       0.003
   0.00000000  0.00000000  0.37500000       0.002
   0.08333333  0.00000000  0.37500000       0.010
   0.16666667 -0.00000000  0.37500000       0.010
   0.25000000 -0.00000000  0.37500000       0.010
   0.33333333 -0.00000000  0.37500000       0.010
   0.41666667 -0.00000000  0.37500000       0.010
   0.50000000 -0.00000000  0.37500000       0.005
   0.08333333  0.08333333  0.37500000       0.010
   0.16666667  0.08333333  0.37500000       0.021
   0.25000000  0.08333333  0.37500000       0.021
   0.33333333  0.08333333  0.37500000       0.021
   0.41666667  0.08333333  0.37500000       0.021
   0.16666667  0.16666667  0.37500000       0.010
   0.25000000  0.16666667  0.37500000       0.021
   0.33333333  0.16666667  0.37500000       0.021
   0.41666667  0.16666667  0.37500000       0.010
   0.25000000  0.25000000  0.37500000       0.010
   0.33333333  0.25000000  0.37500000       0.021
   0.33333333  0.33333333  0.37500000       0.003
   0.00000000  0.00000000  0.50000000       0.001
   0.08333333  0.00000000  0.50000000       0.005
   0.16666667 -0.00000000  0.50000000       0.005
   0.25000000 -0.00000000  0.50000000       0.005
   0.33333333 -0.00000000  0.50000000       0.005
   0.41666667 -0.00000000  0.50000000       0.005
   0.50000000 -0.00000000  0.50000000       0.003
   0.08333333  0.08333333  0.50000000       0.005
   0.16666667  0.08333333  0.50000000       0.010
   0.25000000  0.08333333  0.50000000       0.010
   0.33333333  0.08333333  0.50000000       0.010
   0.41666667  0.08333333  0.50000000       0.010
   0.16666667  0.16666667  0.50000000       0.005
   0.25000000  0.16666667  0.50000000       0.010
   0.33333333  0.16666667  0.50000000       0.010
   0.41666667  0.16666667  0.50000000       0.005
   0.25000000  0.25000000  0.50000000       0.005
   0.33333333  0.25000000  0.50000000       0.010
   0.33333333  0.33333333  0.50000000       0.002
 
 position of ions in fractional coordinates (direct lattice) 
   0.00000000  0.00000000  0.00000000
   0.33333333  0.66666667  0.50000000
 
 position of ions in cartesian coordinates  (Angst):
   0.00000000  0.00000000  0.00000000
   0.00000000  1.42605516  4.04500000
 


--------------------------------------------------------------------------------------------------------


 k-point   1 :   0.0000 0.0000 0.0000  plane waves:     741
 k-point   2 :   0.0833 0.0000 0.0000  plane waves:     747
 k-point   3 :   0.1667-0.0000 0.0000  plane waves:     767
 k-point   4 :   0.2500-0.0000 0.0000  plane waves:     773
 k-point   5 :   0.3333-0.0000 0.0000  plane waves:     773
 k-point   6 :   0.4167-0.0000 0.0000  plane waves:     775
 k-point   7 :   0.5000-0.0000 0.0000  plane waves:     766
 k-point   8 :   0.0833 0.0833 0.0000  plane waves:     756
 k-point   9 :   0.1667 0.0833 0.0000  plane waves:     770
 k-point  10 :   0.2500 0.0833 0.0000  plane waves:     779
 k-point  11 :   0.3333 0.0833 0.0000  plane waves:     785
 k-point  12 :   0.4167 0.0833 0.0000  plane waves:     791
 k-point  13 :   0.1667 0.1667 0.0000  plane waves:     776
 k-point  14 :   0.2500 0.1667 0.0000  plane waves:     778
 k-point  15 :   0.3333 0.1667 0.0000  plane waves:     787
 k-point  16 :   0.4167 0.1667 0.0000  plane waves:     786
 k-point  17 :   0.2500 0.2500 0.0000  plane waves:     786
 k-point  18 :   0.3333 0.2500 0.0000  plane waves:     775
 k-point  19 :   0.3333 0.3333 0.0000  plane waves:     780
 k-point  20 :   0.0000 0.0000 0.1250  plane waves:     741
 k-point  21 :   0.0833 0.0000 0.1250  plane waves:     750
 k-point  22 :   0.1667-0.0000 0.1250  plane waves:     759
 k-point  23 :   0.2500-0.0000 0.1250  plane waves:     772
 k-point  24 :   0.3333-0.0000 0.1250  plane waves:     781
 k-point  25 :   0.4167-0.0000 0.1250  plane waves:     772
 k-point  26 :   0.5000-0.0000 0.1250  plane waves:     778
 k-point  27 :   0.0833 0.0833 0.1250  plane waves:     754
 k-point  28 :   0.1667 0.0833 0.1250  plane waves:     770
 k-point  29 :   0.2500 0.0833 0.1250  plane waves:     780
 k-point  30 :   0.3333 0.0833 0.1250  plane waves:     778
 k-point  31 :   0.4167 0.0833 0.1250  plane waves:     785
 k-point  32 :   0.1667 0.1667 0.1250  plane waves:     775
 k-point  33 :   0.2500 0.1667 0.1250  plane waves:     780
 k-point  34 :   0.3333 0.1667 0.1250  plane waves:     785
 k-point  35 :   0.4167 0.1667 0.1250  plane waves:     785
 k-point  36 :   0.2500 0.2500 0.1250  plane waves:     781
 k-point  37 :   0.3333 0.2500 0.1250  plane waves:     780
 k-point  38 :   0.3333 0.3333 0.1250  plane waves:     774
 k-point  39 :   0.0000 0.0000 0.2500  plane waves:     746
 k-point  40 :   0.0833 0.0000 0.2500  plane waves:     747
 k-point  41 :   0.1667-0.0000 0.2500  plane waves:     754
 k-point  42 :   0.2500-0.0000 0.2500  plane waves:     778
 k-point  43 :   0.3333-0.0000 0.2500  plane waves:     780
 k-point  44 :   0.4167-0.0000 0.2500  plane waves:     778
 k-point  45 :   0.5000-0.0000 0.2500  plane waves:     776
 k-point  46 :   0.0833 0.0833 0.2500  plane waves:     757
 k-point  47 :   0.1667 0.0833 0.2500  plane waves:     770
 k-point  48 :   0.2500 0.0833 0.2500  plane waves:     780
 k-point  49 :   0.3333 0.0833 0.2500  plane waves:     783
 k-point  50 :   0.4167 0.0833 0.2500  plane waves:     783
 k-point  51 :   0.1667 0.1667 0.2500  plane waves:     779
 k-point  52 :   0.2500 0.1667 0.2500  plane waves:     783
 k-point  53 :   0.3333 0.1667 0.2500  plane waves:     783
 k-point  54 :   0.4167 0.1667 0.2500  plane waves:     780
 k-point  55 :   0.2500 0.2500 0.2500  plane waves:     778
 k-point  56 :   0.3333 0.2500 0.2500  plane waves:     785
 k-point  57 :   0.3333 0.3333 0.2500  plane waves:     774
 k-point  58 :   0.0000 0.0000 0.3750  plane waves:     758
 k-point  59 :   0.0833 0.0000 0.3750  plane waves:     750
 k-point  60 :   0.1667-0.0000 0.3750  plane waves:     760
 k-point  61 :   0.2500-0.0000 0.3750  plane waves:     775
 k-point  62 :   0.3333-0.0000 0.3750  plane waves:     778
 k-point  63 :   0.4167-0.0000 0.3750  plane waves:     775
 k-point  64 :   0.5000-0.0000 0.3750  plane waves:     768
 k-point  65 :   0.0833 0.0833 0.3750  plane waves:     758
 k-point  66 :   0.1667 0.0833 0.3750  plane waves:     771
 k-point  67 :   0.2500 0.0833 0.3750  plane waves:     777
 k-point  68 :   0.3333 0.0833 0.3750  plane waves:     786
 k-point  69 :   0.4167 0.0833 0.3750  plane waves:     780
 k-point  70 :   0.1667 0.1667 0.3750  plane waves:     783
 k-point  71 :   0.2500 0.1667 0.3750  plane waves:     782
 k-point  72 :   0.3333 0.1667 0.3750  plane waves:     786
 k-point  73 :   0.4167 0.1667 0.3750  plane waves:     777
 k-point  74 :   0.2500 0.2500 0.3750  plane waves:     785
 k-point  75 :   0.3333 0.2500 0.3750  plane waves:     786
 k-point  76 :   0.3333 0.3333 0.3750  plane waves:     768
 k-point  77 :   0.0000 0.0000 0.5000  plane waves:     770
 k-point  78 :   0.0833 0.0000 0.5000  plane waves:     756
 k-point  79 :   0.1667-0.0000 0.5000  plane waves:     758
 k-point  80 :   0.2500-0.0000 0.5000  plane waves:     764
 k-point  81 :   0.3333-0.0000 0.5000  plane waves:     774
 k-point  82 :   0.4167-0.0000 0.5000  plane waves:     776
 k-point  83 :   0.5000-0.0000 0.5000  plane waves:     768
 k-point  84 :   0.0833 0.0833 0.5000  plane waves:     752
 k-point  85 :   0.1667 0.0833 0.5000  plane waves:     772
 k-point  86 :   0.2500 0.0833 0.5000  plane waves:     780
 k-point  87 :   0.3333 0.0833 0.5000  plane waves:     784
 k-point  88 :   0.4167 0.0833 0.5000  plane waves:     776
 k-point  89 :   0.1667 0.1667 0.5000  plane waves:     782
 k-point  90 :   0.2500 0.1667 0.5000  plane waves:     788
 k-point  91 :   0.3333 0.1667 0.5000  plane waves:     784
 k-point  92 :   0.4167 0.1667 0.5000  plane waves:     786
 k-point  93 :   0.2500 0.2500 0.5000  plane waves:     792
 k-point  94 :   0.3333 0.2500 0.5000  plane waves:     784
 k-point  95 :   0.3333 0.3333 0.5000  plane waves:     768

 maximum and minimum number of plane-waves per node :       143      117

 maximum number of plane-waves:       792
 maximum index in each direction: 
   IXMAX=    4   IYMAX=    4   IZMAX=   13
   IXMIN=   -4   IYMIN=   -4   IZMIN=  -13


 parallel 3D FFT for wavefunctions:
    minimum data exchange during FFTs selected (reduces bandwidth)
 parallel 3D FFT for charge:
    minimum data exchange during FFTs selected (reduces bandwidth)


 total amount of memory used by VASP MPI-rank0    34693. kBytes
=======================================================================

   base      :      30000. kBytes
   nonl-proj :       1809. kBytes
   fftplans  :        292. kBytes
   grid      :        713. kBytes
   one-center:         31. kBytes
   wavefun   :       1848. kBytes
 
     INWAV:  cpu time      0.0000: real time      0.0001
 Broyden mixing: mesh for mixing (old mesh)
   NGX =  9   NGY =  9   NGZ = 27
  (NGX  = 32   NGY  = 32   NGZ  =108)
  gives a total of   2187 points

 initial charge density was supplied:
 charge density of overlapping atoms calculated
 number of electron      18.0000000 magnetization       6.0000000
 keeping initial charge density in first step


--------------------------------------------------------------------------------------------------------


 Maximum index for augmentation-charges         1022 (set IRDMAX)


--------------------------------------------------------------------------------------------------------


 First call to EWALD:  gamma=   0.507
 Maximum number of real-space cells 4x 4x 1
 Maximum number of reciprocal cells 2x 2x 6

    FEWALD:  cpu time      0.0015: real time      0.0015


--------------------------------------- Iteration      1(   1)  ---------------------------------------


    POTLOK:  cpu time      0.0092: real time      0.0093
    SETDIJ:  cpu time      0.0057: real time      0.0057
     EDDAV:  cpu time      0.6173: real time      0.6205
       DOS:  cpu time      0.0018: real time      0.0018
    --------------------------------------------
      LOOP:  cpu time      0.6340: real time      0.6374

 eigenvalue-minimisations  :  6096
 total energy-change (2. order) : 0.7725600E+02  (-0.6582881E+03)
 number of electron      18.0000000 magnetization       6.0000000
 augmentation part       18.0000000 magnetization       6.0000000

 Free energy of the ion-electron system (eV)
  ---------------------------------------------------
  alpha Z        PSCENC =        39.63868225
  Ewald energy   TEWEN  =     -1054.56880693
  -Hartree energ DENC   =      -595.60964206
  -exchange      EXHF   =         0.00000000
  -V(xc)+E(xc)   XCENC  =        33.36921587
  PAW double counting   =      1439.98163886    -1545.88690193
  entropy T*S    EENTRO =        -0.00257379
  eigenvalues    EBANDS =       133.61892398
  atomic energy  EATOM  =      1626.71546820
  Solvation  Ediel_sol  =         0.00000000
  ---------------------------------------------------
  free energy    TOTEN  =        77.25600444 eV

  energy without entropy =       77.25857824  energy(sigma->0) =       77.25729134


--------------------------------------------------------------------------------------------------------




--------------------------------------- Iteration      1(   2)  ---------------------------------------


     EDDAV:  cpu time      0.6030: real time      0.6069
       DOS:  cpu time      0.0019: real time      0.0019
    --------------------------------------------
      LOOP:  cpu time      0.6049: real time      0.6088

 eigenvalue-minimisations  :  6112
 total energy-change (2. order) :-0.8777265E+02  (-0.8112313E+02)
 number of electron      18.0000000 magnetization       6.0000000
 augmentation part       18.0000000 magnetization       6.0000000

 Free energy of the ion-electron system (eV)
  ---------------------------------------------------
  alpha Z        PSCENC =        39.63868225
  Ewald energy   TEWEN  =     -1054.56880693
  -Hartree energ DENC   =      -595.60964206
  -exchange      EXHF   =         0.00000000
  -V(xc)+E(xc)   XCENC  =        33.36921587
  PAW double counting   =      1439.98163886    -1545.88690193
  entropy T*S    EENTRO =        -0.00385417
  eigenvalues    EBANDS =        45.84755703
  atomic energy  EATOM  =      1626.71546820
  Solvation  Ediel_sol  =         0.00000000
  ---------------------------------------------------
  free energy    TOTEN  =       -10.51664288 eV

  energy without entropy =      -10.51278871  energy(sigma->0) =      -10.51471579


--------------------------------------------------------------------------------------------------------




--------------------------------------- Iteration      1(   3)  ---------------------------------------


     EDDAV:  cpu time      0.7320: real time      0.7360
       DOS:  cpu time      0.0021: real time      0.0021
    --------------------------------------------
      LOOP:  cpu time      0.7342: real time      0.7381

 eigenvalue-minimisations  :  7544
 total energy-change (2. order) :-0.2184405E+01  (-0.2153055E+01)
 number of electron      18.0000000 magnetization       6.0000000
 augmentation part       18.0000000 magnetization       6.0000000

 Free energy of the ion-electron system (eV)
  ---------------------------------------------------
  alpha Z        PSCENC =        39.63868225
  Ewald energy   TEWEN  =     -1054.56880693
  -Hartree energ DENC   =      -595.60964206
  -exchange      EXHF   =         0.00000000
  -V(xc)+E(xc)   XCENC  =        33.36921587
  PAW double counting   =      1439.98163886    -1545.88690193
  entropy T*S    EENTRO =        -0.00353973
  eigenvalues    EBANDS =        43.66283766
  atomic energy  EATOM  =      1626.71546820
  Solvation  Ediel_sol  =         0.00000000
  ---------------------------------------------------
  free energy    TOTEN  =       -12.70104781 eV

  energy without entropy =      -12.69750808  energy(sigma->0) =      -12.69927794


--------------------------------------------------------------------------------------------------------




--------------------------------------- Iteration      1(   4)  ---------------------------------------


     EDDAV:  cpu time      0.7686: real time      0.7726
       DOS:  cpu time      0.0020: real time      0.0020
    --------------------------------------------
      LOOP:  cpu time      0.7706: real time      0.7747

 eigenvalue-minimisations  :  8288
 total energy-change (2. order) :-0.3586119E-01  (-0.3584966E-01)
 number of electron      18.0000000 magnetization       6.0000000
 augmentation part       18.0000000 magnetization       6.0000000

 Free energy of the ion-electron system (eV)
  ---------------------------------------------------
  alpha Z        PSCENC =        39.63868225
  Ewald energy   TEWEN  =     -1054.56880693
  -Hartree energ DENC   =      -595.60964206
  -exchange      EXHF   =         0.00000000
  -V(xc)+E(xc)   XCENC  =        33.36921587
  PAW double counting   =      1439.98163886    -1545.88690193
  entropy T*S    EENTRO =        -0.00353250
  eigenvalues    EBANDS =        43.62696924
  atomic energy  EATOM  =      1626.71546820
  Solvation  Ediel_sol  =         0.00000000
  ---------------------------------------------------
  free energy    TOTEN  =       -12.73690900 eV

  energy without entropy =      -12.73337650  energy(sigma->0) =      -12.73514275


--------------------------------------------------------------------------------------------------------




--------------------------------------- Iteration      1(   5)  ---------------------------------------


     EDDAV:  cpu time      0.7092: real time      0.7130
       DOS:  cpu time      0.0020: real time      0.0020
    CHARGE:  cpu time      0.0372: real time      0.0373
    MIXING:  cpu time      0.0004: real time      0.0004
    --------------------------------------------
      LOOP:  cpu time      0.7488: real time      0.7527

 eigenvalue-minimisations  :  7504
 total energy-change (2. order) :-0.3856221E-03  (-0.3856165E-03)
 number of electron      17.9999992 magnetization       5.2786923
 augmentation part        9.0953807 magnetization       4.0028330

 Broyden mixing:
  rms(total) = 0.12443E+01    rms(broyden)= 0.12443E+01
  rms(prec ) = 0.16850E+01
  weight for this iteration     100.00

 Free energy of the ion-electron system (eV)
  ---------------------------------------------------
  alpha Z        PSCENC =        39.63868225
  Ewald energy   TEWEN  =     -1054.56880693
  -Hartree energ DENC   =      -595.60964206
  -exchange      EXHF   =         0.00000000
  -V(xc)+E(xc)   XCENC  =        33.36921587
  PAW double counting   =      1439.98163886    -1545.88690193
  entropy T*S    EENTRO =        -0.00353329
  eigenvalues    EBANDS =        43.62658441
  atomic energy  EATOM  =      1626.71546820
  Solvation  Ediel_sol  =         0.00000000
  ---------------------------------------------------
  free energy    TOTEN  =       -12.73729462 eV

  energy without entropy =      -12.73376133  energy(sigma->0) =      -12.73552798


--------------------------------------------------------------------------------------------------------




--------------------------------------- Iteration      1(   6)  ---------------------------------------


    POTLOK:  cpu time      0.0077: real time      0.0079
    SETDIJ:  cpu time      0.0052: real time      0.0053
     EDDAV:  cpu time      0.6781: real time      0.6817
       DOS:  cpu time      0.0021: real time      0.0021
    CHARGE:  cpu time      0.0384: real time      0.0385
    MIXING:  cpu time      0.0005: real time      0.0005
    --------------------------------------------
      LOOP:  cpu time      0.7319: real time      0.7359

 eigenvalue-minimisations  :  7008
 total energy-change (2. order) : 0.2022343E+00  (-0.2248831E+01)
 number of electron      17.9999990 magnetization       4.7639673
 augmentation part       11.3305769 magnetization       4.0151277

 Broyden mixing:
  rms(total) = 0.12762E+01    rms(broyden)= 0.12761E+01
  rms(prec ) = 0.15255E+01
  weight for this iteration     100.00

 eigenvalues of (default mixing * dielectric matrix)
  average eigenvalue GAMMA=   0.4099
  0.4099

 Free energy of the ion-electron system (eV)
  ---------------------------------------------------
  alpha Z        PSCENC =        39.63868225
  Ewald energy   TEWEN  =     -1054.56880693
  -Hartree energ DENC   =      -550.42291202
  -exchange      EXHF   =         0.00000000
  -V(xc)+E(xc)   XCENC  =        31.09841699
  PAW double counting   =      1473.15276125    -1567.68572161
  entropy T*S    EENTRO =        -0.00468087
  eigenvalues    EBANDS =       -10.45826760
  atomic energy  EATOM  =      1626.71546820
  Solvation  Ediel_sol  =         0.00000000
  ---------------------------------------------------
  free energy    TOTEN  =       -12.53506035 eV

  energy without entropy =      -12.53037947  energy(sigma->0) =      -12.53271991


--------------------------------------------------------------------------------------------------------




--------------------------------------- Iteration      1(   7)  ---------------------------------------


    POTLOK:  cpu time      0.0076: real time      0.0078
    SETDIJ:  cpu time      0.0049: real time      0.0050
     EDDAV:  cpu time      0.6830: real time      0.6864
       DOS:  cpu time      0.0021: real time      0.0021
    CHARGE:  cpu time      0.0370: real time      0.0371
    MIXING:  cpu time      0.0004: real time      0.0004
    --------------------------------------------
      LOOP:  cpu time      0.7351: real time      0.7388

 eigenvalue-minimisations  :  7224
 total energy-change (2. order) : 0.1430252E+01  (-0.4764075E+00)
 number of electron      17.9999991 magnetization       4.2527845
 augmentation part       10.3782857 magnetization       3.4683814

 Broyden mixing:
  rms(total) = 0.32245E+00    rms(broyden)= 0.32244E+00
  rms(prec ) = 0.34456E+00
  weight for this iteration     100.00

 eigenvalues of (default mixing * dielectric matrix)
  average eigenvalue GAMMA=   0.6271
  0.6798  0.5743

 Free energy of the ion-electron system (eV)
  ---------------------------------------------------
  alpha Z        PSCENC =        39.63868225
  Ewald energy   TEWEN  =     -1054.56880693
  -Hartree energ DENC   =      -569.24228427
  -exchange      EXHF   =         0.00000000
  -V(xc)+E(xc)   XCENC  =        31.46523443
  PAW double counting   =      1531.58802122    -1633.80462354
  entropy T*S    EENTRO =        -0.00541199
  eigenvalues    EBANDS =        17.10891187
  atomic energy  EATOM  =      1626.71546820
  Solvation  Ediel_sol  =         0.00000000
  ---------------------------------------------------
  free energy    TOTEN  =       -11.10480874 eV

  energy without entropy =      -11.09939676  energy(sigma->0) =      -11.10210275


--------------------------------------------------------------------------------------------------------




--------------------------------------- Iteration      1(   8)  ---------------------------------------


    POTLOK:  cpu time      0.0073: real time      0.0076
    SETDIJ:  cpu time      0.0048: real time      0.0048
     EDDAV:  cpu time      0.7134: real time      0.7169
       DOS:  cpu time      0.0020: real time      0.0020
    CHARGE:  cpu time      0.0378: real time      0.0379
    MIXING:  cpu time      0.0004: real time      0.0004
    --------------------------------------------
      LOOP:  cpu time      0.7658: real time      0.7697

 eigenvalue-minimisations  :  7528
 total energy-change (2. order) :-0.8765715E-01  (-0.1297606E-01)
 number of electron      17.9999991 magnetization       3.8258871
 augmentation part       10.2774911 magnetization       3.1639258

 Broyden mixing:
  rms(total) = 0.15878E+00    rms(broyden)= 0.15875E+00
  rms(prec ) = 0.17923E+00
  weight for this iteration     100.00

 eigenvalues of (default mixing * dielectric matrix)
  average eigenvalue GAMMA=   0.8655
  1.4477  0.5744  0.5744

 Free energy of the ion-electron system (eV)
  ---------------------------------------------------
  alpha Z        PSCENC =        39.63868225
  Ewald energy   TEWEN  =     -1054.56880693
  -Hartree energ DENC   =      -570.86967578
  -exchange      EXHF   =         0.00000000
  -V(xc)+E(xc)   XCENC  =        31.39383930
  PAW double counting   =      1567.20480594    -1671.19716963
  entropy T*S    EENTRO =        -0.00441942
  eigenvalues    EBANDS =        20.49481018
  atomic energy  EATOM  =      1626.71546820
  Solvation  Ediel_sol  =         0.00000000
  ---------------------------------------------------
  free energy    TOTEN  =       -11.19246589 eV

  energy without entropy =      -11.18804647  energy(sigma->0) =      -11.19025618


--------------------------------------------------------------------------------------------------------




--------------------------------------- Iteration      1(   9)  ---------------------------------------


    POTLOK:  cpu time      0.0075: real time      0.0078
    SETDIJ:  cpu time      0.0049: real time      0.0049
     EDDAV:  cpu time      0.7023: real time      0.7060
       DOS:  cpu time      0.0021: real time      0.0021
    CHARGE:  cpu time      0.0367: real time      0.0368
    MIXING:  cpu time      0.0004: real time      0.0004
    --------------------------------------------
      LOOP:  cpu time      0.7540: real time      0.7580

 eigenvalue-minimisations  :  7488
 total energy-change (2. order) :-0.4789473E-01  (-0.3413758E-02)
 number of electron      17.9999991 magnetization       3.7126131
 augmentation part       10.2841377 magnetization       3.1339382

 Broyden mixing:
  rms(total) = 0.77692E-01    rms(broyden)= 0.77611E-01
  rms(prec ) = 0.90327E-01
  weight for this iteration     100.00

 eigenvalues of (default mixing * dielectric matrix)
  average eigenvalue GAMMA=   0.9131
  1.6063  0.5275  0.7593  0.7593

 Free energy of the ion-electron system (eV)
  ---------------------------------------------------
  alpha Z        PSCENC =        39.63868225
  Ewald energy   TEWEN  =     -1054.56880693
  -Hartree energ DENC   =      -570.26322083
  -exchange      EXHF   =         0.00000000
  -V(xc)+E(xc)   XCENC  =        31.28494473
  PAW double counting   =      1595.20516567    -1700.10803709
  entropy T*S    EENTRO =        -0.00522486
  eigenvalues    EBANDS =        20.86066824
  atomic energy  EATOM  =      1626.71546820
  Solvation  Ediel_sol  =         0.00000000
  ---------------------------------------------------
  free energy    TOTEN  =       -11.24036062 eV

  energy without entropy =      -11.23513576  energy(sigma->0) =      -11.23774819


--------------------------------------------------------------------------------------------------------




--------------------------------------- Iteration      1(  10)  ---------------------------------------


    POTLOK:  cpu time      0.0073: real time      0.0075
    SETDIJ:  cpu time      0.0047: real time      0.0047
     EDDAV:  cpu time      0.6804: real time      0.6839
       DOS:  cpu time      0.0020: real time      0.0020
    CHARGE:  cpu time      0.0373: real time      0.0374
    MIXING:  cpu time      0.0005: real time      0.0005
    --------------------------------------------
      LOOP:  cpu time      0.7321: real time      0.7360

 eigenvalue-minimisations  :  7080
 total energy-change (2. order) :-0.1457401E-01  (-0.1780318E-02)
 number of electron      17.9999991 magnetization       3.7156381
 augmentation part       10.2990184 magnetization       3.1841493

 Broyden mixing:
  rms(total) = 0.39805E-01    rms(broyden)= 0.39740E-01
  rms(prec ) = 0.46286E-01
  weight for this iteration     100.00

 eigenvalues of (default mixing * dielectric matrix)
  average eigenvalue GAMMA=   1.0709
  2.0398  1.0626  1.0626  0.5947  0.5947

 Free energy of the ion-electron system (eV)
  ---------------------------------------------------
  alpha Z        PSCENC =        39.63868225
  Ewald energy   TEWEN  =     -1054.56880693
  -Hartree energ DENC   =      -569.54046890
  -exchange      EXHF   =         0.00000000
  -V(xc)+E(xc)   XCENC  =        31.31104687
  PAW double counting   =      1606.58880805    -1711.83006155
  entropy T*S    EENTRO =        -0.00513057
  eigenvalues    EBANDS =        20.43552795
  atomic energy  EATOM  =      1626.71546820
  Solvation  Ediel_sol  =         0.00000000
  ---------------------------------------------------
  free energy    TOTEN  =       -11.25493463 eV

  energy without entropy =      -11.24980406  energy(sigma->0) =      -11.25236935


--------------------------------------------------------------------------------------------------------




--------------------------------------- Iteration      1(  11)  ---------------------------------------


    POTLOK:  cpu time      0.0076: real time      0.0078
    SETDIJ:  cpu time      0.0047: real time      0.0048
     EDDAV:  cpu time      0.7002: real time      0.7037
       DOS:  cpu time      0.0021: real time      0.0021
    CHARGE:  cpu time      0.0374: real time      0.0377
    MIXING:  cpu time      0.0004: real time      0.0004
    --------------------------------------------
      LOOP:  cpu time      0.7525: real time      0.7565

 eigenvalue-minimisations  :  7384
 total energy-change (2. order) :-0.1265688E-02  (-0.4097050E-03)
 number of electron      17.9999991 magnetization       3.7338596
 augmentation part       10.3115014 magnetization       3.2187706

 Broyden mixing:
  rms(total) = 0.20577E-01    rms(broyden)= 0.20526E-01
  rms(prec ) = 0.22713E-01
  weight for this iteration     100.00

 eigenvalues of (default mixing * dielectric matrix)
  average eigenvalue GAMMA=   1.0877
  2.1004  1.2816  1.2816  0.6659  0.5982  0.5982

 Free energy of the ion-electron system (eV)
  ---------------------------------------------------
  alpha Z        PSCENC =        39.63868225
  Ewald energy   TEWEN  =     -1054.56880693
  -Hartree energ DENC   =      -568.91675695
  -exchange      EXHF   =         0.00000000
  -V(xc)+E(xc)   XCENC  =        31.31615996
  PAW double counting   =      1611.38213311    -1716.82073516
  entropy T*S    EENTRO =        -0.00503398
  eigenvalues    EBANDS =        20.00268918
  atomic energy  EATOM  =      1626.71546820
  Solvation  Ediel_sol  =         0.00000000
  ---------------------------------------------------
  free energy    TOTEN  =       -11.25620032 eV

  energy without entropy =      -11.25116634  energy(sigma->0) =      -11.25368333


--------------------------------------------------------------------------------------------------------




--------------------------------------- Iteration      1(  12)  ---------------------------------------


    POTLOK:  cpu time      0.0075: real time      0.0077
    SETDIJ:  cpu time      0.0049: real time      0.0049
     EDDAV:  cpu time      0.7103: real time      0.7138
       DOS:  cpu time      0.0020: real time      0.0021
    CHARGE:  cpu time      0.0368: real time      0.0369
    MIXING:  cpu time      0.0004: real time      0.0005
    --------------------------------------------
      LOOP:  cpu time      0.7621: real time      0.7659

 eigenvalue-minimisations  :  7576
 total energy-change (2. order) :-0.1513785E-03  (-0.3003811E-04)
 number of electron      17.9999991 magnetization       3.7388919
 augmentation part       10.3156099 magnetization       3.2217276

 Broyden mixing:
  rms(total) = 0.91153E-02    rms(broyden)= 0.90958E-02
  rms(prec ) = 0.10125E-01
  weight for this iteration     100.00

 eigenvalues of (default mixing * dielectric matrix)
  average eigenvalue GAMMA=   1.1704
  2.1663  1.6192  1.6192  0.9456  0.5904  0.5904  0.6615

 Free energy of the ion-electron system (eV)
  ---------------------------------------------------
  alpha Z        PSCENC =        39.63868225
  Ewald energy   TEWEN  =     -1054.56880693
  -Hartree energ DENC   =      -568.66695572
  -exchange      EXHF   =         0.00000000
  -V(xc)+E(xc)   XCENC  =        31.31497067
  PAW double counting   =      1612.46488631    -1718.00134901
  entropy T*S    EENTRO =        -0.00497127
  eigenvalues    EBANDS =        19.85172381
  atomic energy  EATOM  =      1626.71546820
  Solvation  Ediel_sol  =         0.00000000
  ---------------------------------------------------
  free energy    TOTEN  =       -11.25635170 eV

  energy without entropy =      -11.25138042  energy(sigma->0) =      -11.25386606


--------------------------------------------------------------------------------------------------------




--------------------------------------- Iteration      1(  13)  ---------------------------------------


    POTLOK:  cpu time      0.0073: real time      0.0075
    SETDIJ:  cpu time      0.0048: real time      0.0048
     EDDAV:  cpu time      0.6866: real time      0.6900
       DOS:  cpu time      0.0020: real time      0.0020
    CHARGE:  cpu time      0.0369: real time      0.0370
    MIXING:  cpu time      0.0005: real time      0.0005
    --------------------------------------------
      LOOP:  cpu time      0.7381: real time      0.7419

 eigenvalue-minimisations  :  7240
 total energy-change (2. order) :-0.4269953E-04  (-0.9744796E-05)
 number of electron      17.9999991 magnetization       3.7376292
 augmentation part       10.3166666 magnetization       3.2186181

 Broyden mixing:
  rms(total) = 0.30609E-02    rms(broyden)= 0.30464E-02
  rms(prec ) = 0.31375E-02
  weight for this iteration     100.00

 eigenvalues of (default mixing * dielectric matrix)
  average eigenvalue GAMMA=   1.2308
  2.8017  1.9885  1.2197  1.2197  0.7945  0.5867  0.6177  0.6177

 Free energy of the ion-electron system (eV)
  ---------------------------------------------------
  alpha Z        PSCENC =        39.63868225
  Ewald energy   TEWEN  =     -1054.56880693
  -Hartree energ DENC   =      -568.50229112
  -exchange      EXHF   =         0.00000000
  -V(xc)+E(xc)   XCENC  =        31.30350950
  PAW double counting   =      1613.40995655    -1719.04691868
  entropy T*S    EENTRO =        -0.00491960
  eigenvalues    EBANDS =        19.79892543
  atomic energy  EATOM  =      1626.71546820
  Solvation  Ediel_sol  =         0.00000000
  ---------------------------------------------------
  free energy    TOTEN  =       -11.25639439 eV

  energy without entropy =      -11.25147479  energy(sigma->0) =      -11.25393459


--------------------------------------------------------------------------------------------------------




--------------------------------------- Iteration      1(  14)  ---------------------------------------


    POTLOK:  cpu time      0.0073: real time      0.0075
    SETDIJ:  cpu time      0.0047: real time      0.0047
     EDDAV:  cpu time      0.6667: real time      0.6702
       DOS:  cpu time      0.0020: real time      0.0020
    CHARGE:  cpu time      0.0373: real time      0.0374
    MIXING:  cpu time      0.0005: real time      0.0005
    --------------------------------------------
      LOOP:  cpu time      0.7186: real time      0.7224

 eigenvalue-minimisations  :  6984
 total energy-change (2. order) :-0.1970503E-04  (-0.2556397E-05)
 number of electron      17.9999991 magnetization       3.7348960
 augmentation part       10.3170262 magnetization       3.2171902

 Broyden mixing:
  rms(total) = 0.16198E-02    rms(broyden)= 0.16168E-02
  rms(prec ) = 0.17430E-02
  weight for this iteration     100.00

 eigenvalues of (default mixing * dielectric matrix)
  average eigenvalue GAMMA=   1.2315
  2.7915  2.0834  1.3763  1.3763  0.8257  0.8257  0.5795  0.6126  0.6126

 Free energy of the ion-electron system (eV)
  ---------------------------------------------------
  alpha Z        PSCENC =        39.63868225
  Ewald energy   TEWEN  =     -1054.56880693
  -Hartree energ DENC   =      -568.49235128
  -exchange      EXHF   =         0.00000000
  -V(xc)+E(xc)   XCENC  =        31.30627465
  PAW double counting   =      1613.43343154    -1719.06930046
  entropy T*S    EENTRO =        -0.00491416
  eigenvalues    EBANDS =        19.78510208
  atomic energy  EATOM  =      1626.71546820
  Solvation  Ediel_sol  =         0.00000000
  ---------------------------------------------------
  free energy    TOTEN  =       -11.25641410 eV

  energy without entropy =      -11.25149994  energy(sigma->0) =      -11.25395702


--------------------------------------------------------------------------------------------------------




--------------------------------------- Iteration      1(  15)  ---------------------------------------


    POTLOK:  cpu time      0.0075: real time      0.0077
    SETDIJ:  cpu time      0.0049: real time      0.0049
     EDDAV:  cpu time      0.6761: real time      0.6794
       DOS:  cpu time      0.0021: real time      0.0021
    CHARGE:  cpu time      0.0379: real time      0.0381
    MIXING:  cpu time      0.0005: real time      0.0005
    --------------------------------------------
      LOOP:  cpu time      0.7290: real time      0.7327

 eigenvalue-minimisations  :  6912
 total energy-change (2. order) :-0.1035291E-05  (-0.3299171E-06)
 number of electron      17.9999991 magnetization       3.7339940
 augmentation part       10.3165055 magnetization       3.2169040

 Broyden mixing:
  rms(total) = 0.54686E-03    rms(broyden)= 0.54547E-03
  rms(prec ) = 0.59494E-03
  weight for this iteration     100.00

 eigenvalues of (default mixing * dielectric matrix)
  average eigenvalue GAMMA=   1.2945
  3.0396  2.2888  1.5268  1.2734  1.2734  1.0070  0.7282  0.5797  0.6141  0.6141

 Free energy of the ion-electron system (eV)
  ---------------------------------------------------
  alpha Z        PSCENC =        39.63868225
  Ewald energy   TEWEN  =     -1054.56880693
  -Hartree energ DENC   =      -568.52006689
  -exchange      EXHF   =         0.00000000
  -V(xc)+E(xc)   XCENC  =        31.30733425
  PAW double counting   =      1613.30968890    -1718.93355467
  entropy T*S    EENTRO =        -0.00490870
  eigenvalues    EBANDS =        19.79974846
  atomic energy  EATOM  =      1626.71546820
  Solvation  Ediel_sol  =         0.00000000
  ---------------------------------------------------
  free energy    TOTEN  =       -11.25641514 eV

  energy without entropy =      -11.25150644  energy(sigma->0) =      -11.25396079


--------------------------------------------------------------------------------------------------------




--------------------------------------- Iteration      1(  16)  ---------------------------------------


    POTLOK:  cpu time      0.0076: real time      0.0078
    SETDIJ:  cpu time      0.0049: real time      0.0049
     EDDAV:  cpu time      0.5462: real time      0.5489
       DOS:  cpu time      0.0020: real time      0.0020
    --------------------------------------------
      LOOP:  cpu time      0.5607: real time      0.5636

 eigenvalue-minimisations  :  5224
 total energy-change (2. order) :-0.4048297E-06  (-0.1045503E-06)
 number of electron      17.9999991 magnetization       3.7339940
 augmentation part       10.3165055 magnetization       3.2169040

 Free energy of the ion-electron system (eV)
  ---------------------------------------------------
  alpha Z        PSCENC =        39.63868225
  Ewald energy   TEWEN  =     -1054.56880693
  -Hartree energ DENC   =      -568.52104007
  -exchange      EXHF   =         0.00000000
  -V(xc)+E(xc)   XCENC  =        31.30719419
  PAW double counting   =      1613.29728685    -1718.91816577
  entropy T*S    EENTRO =        -0.00490442
  eigenvalues    EBANDS =        19.79787016
  atomic energy  EATOM  =      1626.71546820
  Solvation  Ediel_sol  =         0.00000000
  ---------------------------------------------------
  free energy    TOTEN  =       -11.25641554 eV

  energy without entropy =      -11.25151112  energy(sigma->0) =      -11.25396333


--------------------------------------------------------------------------------------------------------




 average (electrostatic) potential at core
  the test charge radii are     1.0452
  (the norm of the test charge is              1.0000)
       1 -85.4359       2 -85.4359
 
 
 
 E-fermi :   3.1425     XC(G=0):  -9.3836     alpha+bet : -8.9999

 Fermi energy:         3.1424716075

 spin component 1

 k-point     1 :       0.0000    0.0000    0.0000
  band No.  band energies     occupation 
      1      -2.9737      1.00000
      2      -2.5022      1.00000
      3      -0.0819      1.00000
      4       0.8252      1.00000
      5       0.8252      1.00000
      6       0.8261      1.00000
      7       0.8261      1.00000
      8       0.9430      1.00000
      9       1.6984      1.00000
     10       1.6984      1.00000
     11       1.7013      1.00000
     12       1.7013      1.00000
     13       2.2144      1.00000
     14       6.4963      0.00000
     15      10.9245      0.00000
     16      18.8571      0.00000

 k-point     2 :       0.0833    0.0000    0.0000
  band No.  band energies     occupation 
      1      -2.7198      1.00000
      2      -2.2571      1.00000
      3      -0.0035      1.00000
      4       0.7487      1.00000
      5       0.7504      1.00000
      6       0.9339      1.00000
      7       0.9347      1.00000
      8       1.0018      1.00000
      9       1.2558      1.00000
     10       1.5000      1.00000
     11       1.6762      1.00000
     12       1.6802      1.00000
     13       2.8263      1.00000
     14       6.8976      0.00000
     15      11.0770      0.00000
     16      19.1496      0.00000

 k-point     3 :       0.1667   -0.0000    0.0000
  band No.  band energies     occupation 
      1      -2.0038      1.00000
      2      -1.5910      1.00000
      3       0.2124      1.00000
      4       0.5874      1.00000
      5       0.5919      1.00000
      6       0.7455      1.00000
      7       1.0559      1.00000
      8       1.1893      1.00000
      9       1.2391      1.00000
     10       1.2400      1.00000
     11       1.6161      1.00000
     12       1.6224      1.00000
     13       3.8525      0.00000
     14       7.9501      0.00000
     15      11.5423      0.00000
     16      20.0040      0.00000

 k-point     4 :       0.2500   -0.0000    0.0000
  band No.  band energies     occupation 
      1      -1.1156      1.00000
      2      -0.8870      1.00000
      3       0.3319      1.00000
      4       0.5418      1.00000
      5       0.5836      1.00000
      6       0.6300      1.00000
      7       0.6602      1.00000
      8       1.5353      1.00000
      9       1.5440      1.00000
     10       1.6159      1.00000
     11       1.6783      1.00000
     12       1.6791      1.00000
     13       5.1703      0.00000
     14       9.4315      0.00000
     15      12.3205      0.00000
     16      17.8562      0.00000

 k-point     5 :       0.3333   -0.0000    0.0000
  band No.  band energies     occupation 
      1      -0.8240      1.00000
      2      -0.7668      1.00000
      3       0.0280      1.00000
      4       0.1980      1.00000
      5       0.8509      1.00000
      6       1.0028      1.00000
      7       1.4552      1.00000
      8       1.4660      1.00000
      9       1.8182      1.00000
     10       2.1474      1.00000
     11       2.1480      1.00000
     12       2.7518      1.00000
     13       6.8083      0.00000
     14      11.1835      0.00000
     15      13.0654      0.00000
     16      14.2841      0.00000

 k-point     6 :       0.4167   -0.0000    0.0000
  band No.  band energies     occupation 
      1      -0.9084      1.00000
      2      -0.8920      1.00000
      3      -0.1540      1.00000
      4      -0.0528      1.00000
      5       1.0859      1.00000
      6       1.2179      1.00000
      7       1.3971      1.00000
      8       1.4095      1.00000
      9       2.5135      1.00000
     10       2.5136      1.00000
     11       3.7552      0.00000
     12       4.5557      0.00000
     13       8.7650      0.00000
     14      10.8649      0.00000
     15      11.8161      0.00000
     16      12.6568      0.00000

 k-point     7 :       0.5000   -0.0000    0.0000
  band No.  band energies     occupation 
      1      -0.9598      1.00000
      2      -0.9556      1.00000
      3      -0.2114      1.00000
      4      -0.1424      1.00000
      5       1.1794      1.00000
      6       1.2762      1.00000
      7       1.3760      1.00000
      8       1.3890      1.00000
      9       2.6527      1.00000
     10       2.6529      1.00000
     11       5.2485      0.00000
     12       5.5972      0.00000
     13       9.3087      0.00000
     14      10.1230      0.00000
     15      10.5340      0.00000
     16      11.6757      0.00000

 k-point     8 :       0.0833    0.0833    0.0000
  band No.  band energies     occupation 
      1      -2.2300      1.00000
      2      -1.7943      1.00000
      3       0.1449      1.00000
      4       0.6075      1.00000
      5       0.6092      1.00000
      6       0.8783      1.00000
      7       1.0754      1.00000
      8       1.1598      1.00000
      9       1.1912      1.00000
     10       1.2065      1.00000
     11       1.6290      1.00000
     12       1.6327      1.00000
     13       3.5522      0.00000
     14       7.6194      0.00000
     15      11.3869      0.00000
     16      19.7239      0.00000

 k-point     9 :       0.1667    0.0833    0.0000
  band No.  band energies     occupation 
      1      -1.3604      1.00000
      2      -1.0284      1.00000
      3       0.4064      1.00000
      4       0.4378      1.00000
[...]
      2      -0.8622      1.00000
      3       1.9435      1.00000
      4       1.9435      1.00000
      5       2.0842      1.00000
      6       2.0842      1.00000
      7       2.8376      1.00000
      8       2.8376      1.00000
      9       3.3539      0.00000
     10       3.3539      0.00000
     11       3.7088      0.00000
     12       3.7088      0.00000
     13       6.8689      0.00000
     14       6.8689      0.00000
     15      15.8674      0.00000
     16      15.8674      0.00000

 k-point    86 :       0.2500    0.0833    0.5000
  band No.  band energies     occupation 
      1       0.1532      1.00000
      2       0.1532      1.00000
      3       1.8266      1.00000
      4       1.8266      1.00000
      5       2.1176      1.00000
      6       2.1176      1.00000
      7       2.9536      1.00000
      8       2.9536      1.00000
      9       3.5859      0.00000
     10       3.5859      0.00000
     11       3.9672      0.00000
     12       3.9672      0.00000
     13       8.2114      0.00000
     14       8.2114      0.00000
     15      16.4174      0.00000
     16      16.4174      0.00000

 k-point    87 :       0.3333    0.0833    0.5000
  band No.  band energies     occupation 
      1       0.5017      1.00000
      2       0.5017      1.00000
      3       1.7185      1.00000
      4       1.7185      1.00000
      5       2.9100      1.00000
      6       2.9100      1.00000
      7       3.2385      0.00329
      8       3.2385      0.00329
      9       3.4804      0.00000
     10       3.4804      0.00000
     11       4.7566      0.00000
     12       4.7566      0.00000
     13       9.8330      0.00000
     14       9.8330      0.00000
     15      13.4982      0.00000
     16      13.4982      0.00000

 k-point    88 :       0.4167    0.0833    0.5000
  band No.  band energies     occupation 
      1       0.4647      1.00000
      2       0.4647      1.00000
      3       1.6234      1.00000
      4       1.6234      1.00000
      5       3.3496      0.00000
      6       3.3496      0.00000
      7       3.4187      0.00000
      8       3.4187      0.00000
      9       3.7854      0.00000
     10       3.7854      0.00000
     11       5.8966      0.00000
     12       5.8966      0.00000
     13      10.5666      0.00000
     14      10.5666      0.00000
     15      11.9996      0.00000
     16      11.9996      0.00000

 k-point    89 :       0.1667    0.1667    0.5000
  band No.  band energies     occupation 
      1       0.1550      1.00000
      2       0.1550      1.00000
      3       1.7185      1.00000
      4       1.7185      1.00000
      5       1.9932      1.00000
      6       1.9932      1.00000
      7       2.9265      1.00000
      8       2.9265      1.00000
      9       3.5350      0.00000
     10       3.5350      0.00000
     11       4.0005      0.00000
     12       4.0005      0.00000
     13       8.0258      0.00000
     14       8.0258      0.00000
     15      16.7894      0.00000
     16      16.7894      0.00000

 k-point    90 :       0.2500    0.1667    0.5000
  band No.  band energies     occupation 
      1       0.9575      1.00000
      2       0.9575      1.00000
      3       1.7543      1.00000
      4       1.7543      1.00000
      5       1.9627      1.00000
      6       1.9627      1.00000
      7       3.1724      0.19888
      8       3.1724      0.19886
      9       3.3362      0.00000
     10       3.3362      0.00000
     11       4.9388      0.00000
     12       4.9388      0.00000
     13       9.5394      0.00000
     14       9.5394      0.00000
     15      15.4787      0.00000
     16      15.4787      0.00000

 k-point    91 :       0.3333    0.1667    0.5000
  band No.  band energies     occupation 
      1       0.9159      1.00000
      2       0.9159      1.00000
      3       1.7937      1.00000
      4       1.7937      1.00000
      5       2.6733      1.00000
      6       2.6733      1.00000
      7       3.1663      0.25027
      8       3.1663      0.25027
      9       3.3721      0.00000
     10       3.3721      0.00000
     11       6.3088      0.00000
     12       6.3088      0.00000
     13      11.2173      0.00000
     14      11.2173      0.00000
     15      12.5509      0.00000
     16      12.5509      0.00000

 k-point    92 :       0.4167    0.1667    0.5000
  band No.  band energies     occupation 
      1       0.8509      1.00000
      2       0.8509      1.00000
      3       1.7784      1.00000
      4       1.7784      1.00000
      5       3.0419      0.99779
      6       3.0419      0.99779
      7       3.1152      0.77963
      8       3.1152      0.77963
      9       3.4067      0.00000
     10       3.4067      0.00000
     11       7.4782      0.00000
     12       7.4782      0.00000
     13      10.4497      0.00000
     14      10.4497      0.00000
     15      13.0003      0.00000
     16      13.0003      0.00000

 k-point    93 :       0.2500    0.2500    0.5000
  band No.  band energies     occupation 
      1       1.4780      1.00000
      2       1.4780      1.00000
      3       1.8060      1.00000
      4       1.8060      1.00000
      5       1.9904      1.00000
      6       1.9904      1.00000
      7       3.0191      0.99976
      8       3.0191      0.99976
      9       3.3586      0.00000
     10       3.3586      0.00000
     11       6.4231      0.00000
     12       6.4231      0.00000
     13      11.2526      0.00000
     14      11.2526      0.00000
     15      14.3182      0.00000
     16      14.3182      0.00000

 k-point    94 :       0.3333    0.2500    0.5000
  band No.  band energies     occupation 
      1       1.4073      1.00000
      2       1.4073      1.00000
      3       2.0091      1.00000
      4       2.0091      1.00000
      5       2.3179      1.00000
      6       2.3180      1.00000
      7       2.7651      1.00000
      8       2.7651      1.00000
      9       3.4211      0.00000
     10       3.4211      0.00000
     11       8.3228      0.00000
     12       8.3228      0.00000
     13      11.5312      0.00000
     14      11.5312      0.00000
     15      13.3316      0.00000
     16      13.3316      0.00000

 k-point    95 :       0.3333    0.3333    0.5000
  band No.  band energies     occupation 
      1       1.8869      1.00000
      2       1.8869      1.00000
      3       1.8900      1.00000
      4       1.8900      1.00000
      5       2.3498      1.00000
      6       2.3498      1.00000
      7       2.3614      1.00000
      8       2.3614      1.00000
      9       3.4294      0.00000
     10       3.4294      0.00000
     11      10.4965      0.00000
     12      10.4965      0.00000
     13      10.5751      0.00000
     14      10.5751      0.00000
     15      12.2633      0.00000
     16      12.2633      0.00000


--------------------------------------------------------------------------------------------------------


 soft charge-density along one line, spin component           1
         0         1         2         3         4         5         6         7         8         9
 total charge-density along one line
 
 soft charge-density along one line, spin component           2
         0         1         2         3         4         5         6         7         8         9
 total charge-density along one line
 
 pseudopotential strength for first ion, spin component:           1
 -5.415   0.000   0.000  -0.000   0.000  -5.875   0.000   0.000
  0.000  -5.610   0.000  -0.000   0.000   0.000  -6.064   0.000
  0.000   0.000  -5.673   0.000  -0.000   0.000   0.000  -6.125
 -0.000  -0.000   0.000  -5.610  -0.000  -0.000  -0.000   0.000
  0.000   0.000  -0.000  -0.000  -5.415   0.000   0.000  -0.000
 -5.875   0.000   0.000  -0.000   0.000  -6.283   0.000   0.000
  0.000  -6.064   0.000  -0.000   0.000   0.000  -6.465   0.000
  0.000   0.000  -6.125   0.000  -0.000   0.000   0.000  -6.524
 -0.000  -0.000   0.000  -6.064  -0.000  -0.000  -0.000   0.000
  0.000   0.000  -0.000  -0.000  -5.875   0.000   0.000  -0.000
  0.000   0.000   0.028   0.000  -0.000   0.000   0.000   0.028
  0.000   0.000   0.050   0.000  -0.000   0.000   0.000   0.049
 -0.000  -0.000  -0.000   0.000  -0.000  -0.000  -0.000  -0.000
  0.000   0.000  -0.000  -0.000   0.000   0.000   0.000  -0.000
 -0.000   0.000   0.000   0.000  -0.000  -0.000   0.000   0.000
 -0.000  -0.000  -0.000   0.000  -0.000  -0.000  -0.000  -0.000
  0.000   0.000  -0.000  -0.000   0.000   0.000   0.000  -0.000
 -0.000   0.000   0.000   0.000  -0.000  -0.000   0.000   0.000
 pseudopotential strength for first ion, spin component:           2
 -4.054  -0.000   0.000   0.000   0.000  -4.573  -0.000   0.000
 -0.000  -4.045  -0.000  -0.000  -0.000  -0.000  -4.564  -0.000
  0.000  -0.000  -4.065  -0.000  -0.000   0.000  -0.000  -4.583
  0.000  -0.000  -0.000  -4.045   0.000   0.000  -0.000  -0.000
  0.000  -0.000  -0.000   0.000  -4.054   0.000  -0.000  -0.000
 -4.573  -0.000   0.000   0.000   0.000  -5.037  -0.000   0.000
 -0.000  -4.564  -0.000  -0.000  -0.000  -0.000  -5.028  -0.000
  0.000  -0.000  -4.583  -0.000  -0.000   0.000  -0.000  -5.046
  0.000  -0.000  -0.000  -4.564   0.000   0.000  -0.000  -0.000
  0.000  -0.000  -0.000   0.000  -4.573   0.000  -0.000  -0.000
  0.000  -0.000  -0.002  -0.000  -0.000   0.000  -0.000  -0.003
  0.000  -0.000  -0.005  -0.000  -0.000   0.000  -0.000  -0.006
  0.000  -0.000   0.000   0.000   0.000   0.000  -0.000   0.000
  0.000  -0.000  -0.000   0.000   0.000   0.000  -0.000  -0.000
  0.000   0.000  -0.000   0.000   0.000   0.000   0.000  -0.000
  0.000  -0.000   0.000   0.000   0.000   0.000  -0.000   0.000
  0.000  -0.000  -0.000   0.000   0.000   0.000  -0.000  -0.000
  0.000   0.000  -0.000   0.000   0.000   0.000   0.000  -0.000
 total augmentation occupancy for first ion, spin component:           1
  2.343   0.000   0.000  -0.000   0.000  -0.978   0.000  -0.000   0.000  -0.000   0.000  -0.000   0.000   0.000   0.000  -0.000
  0.000   2.657   0.000  -0.000   0.000   0.000  -0.877   0.000   0.000   0.000  -0.000   0.000   0.000   0.000  -0.000   0.000
  0.000   0.000   3.033  -0.000  -0.000  -0.000  -0.000  -1.231   0.000   0.000   0.714   0.052   0.000   0.000   0.000   0.000
  0.000  -0.000   0.000   2.657  -0.000  -0.000   0.000   0.000  -0.877   0.000   0.000   0.000   0.000   0.000   0.000   0.000
  0.000   0.000  -0.000   0.000   2.343  -0.000  -0.000   0.000   0.000  -0.978  -0.000   0.000   0.000  -0.000   0.000  -0.000
 -0.978   0.000  -0.000   0.000  -0.000   1.204   0.000   0.000   0.000   0.000  -0.000   0.000  -0.000  -0.000  -0.000   0.000
  0.000  -0.877  -0.000   0.000  -0.000   0.000   0.614   0.000  -0.000   0.000   0.000   0.000   0.000   0.000   0.000   0.000
 -0.000   0.000  -1.231   0.000   0.000   0.000  -0.000   0.914  -0.000  -0.000  -0.937   0.034   0.000   0.000  -0.000  -0.000
 -0.000   0.000   0.000  -0.877   0.000   0.000  -0.000   0.000   0.614   0.000   0.000   0.000   0.000   0.000  -0.000  -0.000
 -0.000  -0.000   0.000   0.000  -0.978   0.000   0.000  -0.000  -0.000   1.204   0.000  -0.000  -0.000   0.000  -0.000   0.000
  0.000   0.000   0.714   0.000  -0.000  -0.000  -0.000  -0.937   0.000   0.000   1.775  -0.106   0.000   0.000   0.000   0.000
 -0.000   0.000   0.052   0.000  -0.000   0.000   0.000   0.034   0.000  -0.000  -0.106   0.018   0.000   0.000   0.000  -0.000
  0.000   0.000   0.000  -0.000   0.000  -0.000   0.000   0.000  -0.000  -0.000   0.000   0.000   0.229  -0.000   0.000  -0.017
  0.000  -0.000   0.000   0.000   0.000  -0.000   0.000   0.000   0.000  -0.000   0.000   0.000  -0.000   0.063   0.000  -0.000
  0.000   0.000   0.000   0.000   0.000  -0.000   0.000  -0.000   0.000  -0.000   0.000   0.000   0.000   0.000   0.229   0.000
 -0.000   0.000  -0.000  -0.000  -0.000   0.000   0.000   0.000   0.000   0.000   0.000   0.000  -0.017  -0.000   0.000   0.001
 -0.000   0.000   0.000   0.000  -0.000   0.000   0.000   0.000   0.000   0.000   0.000   0.000  -0.000  -0.004   0.000  -0.000
 -0.000   0.000   0.000   0.000  -0.000   0.000  -0.000   0.000  -0.000   0.000  -0.000   0.000  -0.000   0.000  -0.017   0.000
 total augmentation occupancy for first ion, spin component:           2
  1.690  -0.000   0.000   0.000   0.000  -0.751   0.000   0.000   0.000  -0.000  -0.000   0.000  -0.000   0.000  -0.000   0.000
  0.000   2.129   0.000  -0.000  -0.000  -0.000  -0.967   0.000   0.000  -0.000   0.000   0.000  -0.000  -0.000   0.000   0.000
  0.000  -0.000   1.984   0.000  -0.000   0.000  -0.000  -0.840   0.000   0.000   0.011   0.115   0.000   0.000  -0.000   0.000
 -0.000  -0.000   0.000   2.129   0.000   0.000   0.000  -0.000  -0.967   0.000   0.000   0.000   0.000  -0.000   0.000  -0.000
  0.000   0.000  -0.000  -0.000   1.690  -0.000   0.000   0.000  -0.000  -0.751   0.000  -0.000  -0.000   0.000   0.000   0.000
 -0.751   0.000   0.000   0.000  -0.000   0.117   0.000  -0.000  -0.000  -0.000   0.000  -0.000   0.000   0.000   0.000  -0.000
  0.000  -0.967   0.000   0.000   0.000  -0.000   0.301   0.000  -0.000   0.000   0.000   0.000   0.000  -0.000  -0.000   0.000
 -0.000   0.000  -0.840   0.000   0.000  -0.000   0.000   0.235   0.000   0.000   0.089  -0.068  -0.000   0.000   0.000   0.000
 -0.000   0.000   0.000  -0.967   0.000   0.000  -0.000  -0.000   0.301   0.000   0.000   0.000   0.000   0.000  -0.000   0.000
 -0.000  -0.000   0.000   0.000  -0.751   0.000  -0.000   0.000   0.000   0.117  -0.000   0.000   0.000   0.000   0.000  -0.000
 -0.000  -0.000   0.011   0.000  -0.000   0.000   0.000   0.089   0.000  -0.000  -0.222   0.075   0.000   0.000   0.000   0.000
  0.000   0.000   0.115  -0.000  -0.000  -0.000  -0.000  -0.068   0.000   0.000   0.075  -0.003   0.000   0.000  -0.000   0.000
 -0.000   0.000   0.000   0.000  -0.000   0.000   0.000   0.000   0.000   0.000   0.000   0.000  -0.028  -0.000  -0.000   0.003
 -0.000  -0.000   0.000   0.000   0.000  -0.000  -0.000   0.000   0.000  -0.000   0.000   0.000   0.000  -0.017   0.000   0.000
 -0.000   0.000   0.000   0.000   0.000   0.000   0.000   0.000   0.000   0.000  -0.000  -0.000   0.000   0.000  -0.028  -0.000
  0.000  -0.000  -0.000  -0.000   0.000  -0.000   0.000   0.000   0.000  -0.000   0.000   0.000   0.003  -0.000  -0.000  -0.000
  0.000  -0.000   0.000   0.000  -0.000   0.000   0.000   0.000   0.000  -0.000   0.000   0.000   0.000   0.001  -0.000  -0.000
  0.000   0.000   0.000   0.000  -0.000  -0.000   0.000  -0.000  -0.000  -0.000   0.000   0.000   0.000   0.000   0.003  -0.000


------------------------ aborting loop because EDIFF is reached ----------------------------------------


    CHARGE:  cpu time      0.0370: real time      0.0371
    FORLOC:  cpu time      0.0002: real time      0.0002
    FORNL :  cpu time      0.0333: real time      0.0334
    STRESS:  cpu time      0.0914: real time      0.0917
    FORCOR:  cpu time      0.0071: real time      0.0071
    FORHAR:  cpu time      0.0007: real time      0.0007
    MIXING:  cpu time      0.0004: real time      0.0004
    OFIELD:  cpu time      0.0000: real time      0.0000

  FORCE on cell =-STRESS in cart. coord.  units (eV):
  Direction    XX          YY          ZZ          XY          YZ          ZX
  --------------------------------------------------------------------------------------
  Alpha Z    39.63868    39.63868    39.63868
  Ewald     -59.61202   -59.61202  -935.34508    -0.00000     0.00000     0.00000
  Hartree   384.44447   384.44447  -200.36274    -0.00000    -0.00000    -0.00000
  E(xc)     -90.93843   -90.93843   -91.18268     0.00000    -0.00000    -0.00000
  Local    -724.05578  -724.05590   740.88613    -0.00010    -0.00000    -0.00000
  n-local   -11.00989   -12.08991   -16.04435   -10.84584    -0.06237    -0.03777
  augment   313.25460   313.25473   310.63839     0.00011    -0.00000    -0.00000
  Kinetic   147.85870   142.57118   150.49431     8.91387     0.00103     0.05747
  Fock        0.00000     0.00000     0.00000     0.00000     0.00000     0.00000
  -------------------------------------------------------------------------------------
  Total      -3.60343    -3.60343    -1.27734     0.00000     0.00000    -0.00000
  in kB    -135.06820  -135.06820   -47.87890     0.00000     0.00000    -0.00000
  external pressure =     -106.01 kB  Pullay stress =        0.00 kB


 VOLUME and BASIS-vectors are now :
 -----------------------------------------------------------------------------
  energy-cutoff  :      400.00
  volume of cell :       42.74
      direct lattice vectors                 reciprocal lattice vectors
     2.470000000  0.000000000  0.000000000     0.404858300  0.233745048  0.000000000
    -1.235000000  2.139082747  0.000000000     0.000000000  0.467490097  0.000000000
     0.000000000  0.000000000  8.090000000     0.000000000  0.000000000  0.123609394

  length of vectors
     2.470000000  2.470000000  8.090000000     0.467490097  0.467490097  0.123609394


 FORCES acting on ions
    electron-ion (+dipol)            ewald-force                    non-local-force                 convergence-correction
 -----------------------------------------------------------------------------------------------
   -.473E-05 0.273E-05 -.127E-13   -.208E-13 0.254E-14 -.503E-13   -.813E-19 0.217E-18 0.000E+00   0.304E-10 -.176E-10 -.743E-13
   -.377E-05 0.218E-05 -.745E-12   -.268E-13 0.108E-13 0.503E-13   0.108E-18 -.217E-18 0.000E+00   -.292E-10 0.169E-10 0.172E-12
 -----------------------------------------------------------------------------------------------
   -.850E-05 0.491E-05 -.758E-12   -.476E-13 0.133E-13 0.000E+00   0.271E-19 0.000E+00 0.000E+00   0.115E-11 -.696E-12 0.975E-13
 
 
 POSITION                                       TOTAL-FORCE (eV/Angst)
 -----------------------------------------------------------------------------------
      0.00000      0.00000      0.00000        -0.000000      0.000000      0.000000
      0.00000      1.42606      4.04500         0.000000      0.000000      0.000000
 -----------------------------------------------------------------------------------
    total drift:                               -0.000008      0.000005     -0.000000


--------------------------------------------------------------------------------------------------------



  FREE ENERGIE OF THE ION-ELECTRON SYSTEM (eV)
  ---------------------------------------------------
  free  energy   TOTEN  =       -11.25641554 eV

  energy  without entropy=      -11.25151112  energy(sigma->0) =      -11.25396333
 


--------------------------------------------------------------------------------------------------------


    POTLOK:  cpu time      0.0130: real time      0.0130


--------------------------------------------------------------------------------------------------------


     LOOP+:  cpu time     11.6668: real time     11.7328
    4ORBIT:  cpu time      0.0000: real time      0.0000

 total amount of memory used by VASP MPI-rank0    34693. kBytes
=======================================================================

   base      :      30000. kBytes
   nonl-proj :       1809. kBytes
   fftplans  :        292. kBytes
   grid      :        713. kBytes
   one-center:         31. kBytes
   wavefun   :       1848. kBytes
 
  
  
 General timing and accounting informations for this job:
 ========================================================
  
                  Total CPU time used (sec):       12.513
                            User time (sec):       12.036
                          System time (sec):        0.477
                         Elapsed time (sec):       14.055
  
                   Maximum memory used (kb):      226928.
                   Average memory used (kb):          N/A
  
                          Minor page faults:        30509
                          Major page faults:           61
                 Voluntary context switches:         2188
