   2   2   1   0
  0.8419754E+01  0.2292894E-09  0.2292894E-09  0.3698546E-09  0.5000000E-15
  1.000000000000000E-004
  CAR 
 Co-hcc                                  
     59.28021163      1.26126771  301     14.35563830      1.00000000
      1.261  0.0000E+00  0.0000E+00  0.0000E+00  0.0000E+00
      1.455  0.0000E+00  0.0000E+00  0.0000E+00  0.0000E+00
      1.648  0.0000E+00  0.0000E+00  0.0000E+00  0.0000E+00
      1.841  0.0000E+00  0.0000E+00  0.0000E+00  0.0000E+00
      2.035  0.0000E+00  0.0000E+00  0.0000E+00  0.0000E+00
      2.228  0.0000E+00  0.0000E+00  0.0000E+00  0.0000E+00
      2.422  0.0000E+00  0.0000E+00  0.0000E+00  0.0000E+00
      2.615  0.0000E+00  0.0000E+00  0.0000E+00  0.0000E+00
      2.808  0.0000E+00  0.0000E+00  0.0000E+00  0.0000E+00
      3.002  0.0000E+00  0.0000E+00  0.0000E+00  0.0000E+00
      3.195  0.0000E+00  0.0000E+00  0.0000E+00  0.0000E+00
      3.389  0.0000E+00  0.0000E+00  0.0000E+00  0.0000E+00
      3.582  0.0000E+00  0.0000E+00  0.0000E+00  0.0000E+00
      3.775  0.1121E-07  0.6471E-10  0.2168E-08  0.1251E-10
      3.969  0.4385E-04  0.3526E-04  0.8482E-05  0.6819E-05
      4.162  0.1361E-03  0.8353E-04  0.3480E-04  0.2297E-04
      4.356  0.3356E-03  0.2950E-03  0.9971E-04  0.8002E-04
      4.549  0.4271E-03  0.5286E-03  0.1823E-03  0.1823E-03
      4.742  0.1510E-03  0.8353E-04  0.2115E-03  0.1984E-03
      4.936  0.6809E-03  0.3399E-03  0.3432E-03  0.2642E-03
      5.129  0.8757E-03  0.1239E-02  0.5126E-03  0.5037E-03
      5.323  0.5359E-03  0.5431E-03  0.6162E-03  0.6087E-03
      5.516  0.5296E-03  0.2327E-03  0.7186E-03  0.6537E-03
      5.709  0.3196E-03  0.4428E-03  0.7804E-03  0.7394E-03
      5.903  0.1403E-02  0.1350E-02  0.1052E-02  0.1000E-02
      6.096  0.1069E-02  0.1209E-02  0.1259E-02  0.1234E-02
      6.290  0.5237E-03  0.1443E-03  0.1360E-02  0.1262E-02
      6.483  0.2051E-02  0.1055E-02  0.1757E-02  0.1466E-02
      6.676  0.4792E-03  0.1947E-02  0.1849E-02  0.1843E-02
      6.870  0.1067E-02  0.1222E-03  0.2056E-02  0.1866E-02
      7.063  0.5723E-03  0.1023E-02  0.2166E-02  0.2064E-02
      7.257  0.3263E-02  0.1581E-02  0.2798E-02  0.2370E-02
      7.450  0.2308E-02  0.2387E-02  0.3244E-02  0.2831E-02
      7.643  0.2258E-02  0.1699E-02  0.3681E-02  0.3160E-02
      7.837  0.2350E-02  0.1691E-02  0.4135E-02  0.3487E-02
      8.030  0.8987E-02  0.1113E-02  0.5873E-02  0.3702E-02
      8.224  0.9065E-02  0.2825E-02  0.7626E-02  0.4249E-02
      8.417  0.1131E-01  0.1823E-02  0.9813E-02  0.4601E-02
      8.610  0.1209E-01  0.6846E-02  0.1215E-01  0.5925E-02
      8.804  0.1229E-01  0.8159E-02  0.1453E-01  0.7503E-02
      8.997  0.1533E-01  0.5860E-02  0.1749E-01  0.8636E-02
      9.191  0.1056E-01  0.8072E-02  0.1953E-01  0.1020E-01
      9.384  0.1038E-01  0.1188E-01  0.2154E-01  0.1249E-01
      9.577  0.1423E-01  0.6059E-02  0.2429E-01  0.1367E-01
      9.771  0.1153E-01  0.1623E-01  0.2652E-01  0.1680E-01
      9.964  0.1544E-01  0.1049E-01  0.2951E-01  0.1883E-01
     10.158  0.1229E-01  0.9709E-02  0.3189E-01  0.2071E-01
     10.351  0.1587E-01  0.9898E-02  0.3496E-01  0.2263E-01
     10.544  0.1279E-01  0.9836E-02  0.3743E-01  0.2453E-01
     10.738  0.6018E-02  0.1106E-01  0.3859E-01  0.2667E-01
     10.931  0.1205E-01  0.1387E-01  0.4092E-01  0.2935E-01
     11.124  0.2073E-01  0.1235E-01  0.4493E-01  0.3174E-01
     11.318  0.1913E-01  0.1683E-01  0.4863E-01  0.3499E-01
     11.511  0.1691E-01  0.1101E-01  0.5190E-01  0.3712E-01
     11.705  0.2135E-01  0.5204E-02  0.5603E-01  0.3813E-01
     11.898  0.1952E-01  0.6564E-02  0.5981E-01  0.3940E-01
     12.091  0.2436E-01  0.1292E-01  0.6452E-01  0.4190E-01
     12.285  0.1622E-01  0.1807E-01  0.6766E-01  0.4539E-01
     12.478  0.1466E-01  0.1785E-01  0.7049E-01  0.4884E-01
     12.672  0.1187E-01  0.1424E-01  0.7278E-01  0.5160E-01
     12.865  0.1255E-01  0.1889E-01  0.7521E-01  0.5525E-01
     13.058  0.1526E-01  0.1941E-01  0.7816E-01  0.5900E-01
     13.252  0.7614E-02  0.2220E-01  0.7963E-01  0.6330E-01
     13.445  0.1086E-01  0.1946E-01  0.8173E-01  0.6706E-01
     13.639  0.1695E-01  0.1154E-01  0.8501E-01  0.6929E-01
     13.832  0.1528E-01  0.1210E-01  0.8797E-01  0.7163E-01
     14.025  0.2267E-01  0.1034E-01  0.9235E-01  0.7363E-01
     14.219  0.2762E-01  0.1042E-01  0.9769E-01  0.7565E-01
     14.412  0.3005E-01  0.1362E-01  0.1035E+00  0.7828E-01
     14.606  0.5368E-02  0.6620E-02  0.1045E+00  0.7956E-01
     14.799  0.2058E-02  0.1073E-01  0.1049E+00  0.8164E-01
     14.992  0.5169E-02  0.1095E-01  0.1059E+00  0.8375E-01
     15.186  0.4103E-02  0.1780E-01  0.1067E+00  0.8720E-01
     15.379  0.1084E-02  0.1504E-01  0.1069E+00  0.9010E-01
     15.573  0.2639E-02  0.2057E-01  0.1075E+00  0.9408E-01
     15.766  0.9580E-03  0.3239E-01  0.1076E+00  0.1003E+00
     15.959  0.1788E-02  0.2139E-01  0.1080E+00  0.1045E+00
     16.153  0.1995E-02  0.4200E-02  0.1084E+00  0.1053E+00
     16.346  0.3558E-02  0.6429E-02  0.1091E+00  0.1065E+00
     16.540  0.4114E-02  0.2491E-02  0.1099E+00  0.1070E+00
     16.733  0.2576E-02  0.2537E-02  0.1103E+00  0.1075E+00
     16.926  0.2017E-02  0.2673E-02  0.1107E+00  0.1080E+00
     17.120  0.2055E-02  0.2956E-02  0.1111E+00  0.1086E+00
     17.313  0.1683E-02  0.1475E-02  0.1115E+00  0.1089E+00
     17.507  0.2249E-02  0.3143E-02  0.1119E+00  0.1095E+00
     17.700  0.9716E-03  0.4056E-02  0.1121E+00  0.1103E+00
     17.893  0.1817E-02  0.3231E-02  0.1124E+00  0.1109E+00
     18.087  0.2625E-02  0.1369E-02  0.1129E+00  0.1112E+00
     18.280  0.1681E-02  0.3396E-02  0.1133E+00  0.1118E+00
     18.474  0.2304E-02  0.1413E-02  0.1137E+00  0.1121E+00
     18.667  0.1571E-02  0.1123E-02  0.1140E+00  0.1123E+00
     18.860  0.7773E-03  0.3086E-02  0.1142E+00  0.1129E+00
     19.054  0.2498E-02  0.2198E-02  0.1147E+00  0.1133E+00
     19.247  0.2827E-02  0.7812E-03  0.1152E+00  0.1135E+00
     19.441  0.3708E-02  0.2876E-02  0.1159E+00  0.1140E+00
     19.634  0.2959E-03  0.1289E-02  0.1160E+00  0.1143E+00
     19.827  0.6020E-03  0.2561E-02  0.1161E+00  0.1148E+00
     20.021  0.2503E-02  0.3253E-02  0.1166E+00  0.1154E+00
     20.214  0.2718E-02  0.2796E-02  0.1171E+00  0.1160E+00
     20.408  0.1200E-02  0.1511E-03  0.1173E+00  0.1160E+00
     20.601  0.1112E-02  0.1061E-02  0.1175E+00  0.1162E+00
     20.794  0.8435E-03  0.2767E-02  0.1177E+00  0.1167E+00
     20.988  0.9473E-03  0.2970E-02  0.1179E+00  0.1173E+00
     21.181  0.4068E-03  0.5781E-03  0.1180E+00  0.1174E+00
     21.375  0.2260E-02  0.1203E-02  0.1184E+00  0.1176E+00
     21.568  0.3458E-02  0.1194E-02  0.1191E+00  0.1179E+00
     21.761  0.2108E-02  0.1465E-03  0.1195E+00  0.1179E+00
     21.955  0.5072E-03  0.1930E-02  0.1196E+00  0.1183E+00
     22.148  0.4462E-03  0.2392E-02  0.1197E+00  0.1187E+00
     22.341  0.1767E-04  0.3617E-02  0.1197E+00  0.1194E+00
     22.535  0.2417E-03  0.6489E-03  0.1197E+00  0.1196E+00
     22.728  0.7570E-03  0.5342E-03  0.1199E+00  0.1197E+00
     22.922  0.5097E-03  0.7062E-06  0.1200E+00  0.1197E+00
     23.115  0.2815E-08  0.1437E-03  0.1200E+00  0.1197E+00
     23.308  0.1166E-04  0.1030E-02  0.1200E+00  0.1199E+00
     23.502  0.8218E-03  0.3525E-03  0.1201E+00  0.1200E+00
     23.695  0.1713E-02  0.8790E-11  0.1205E+00  0.1200E+00
     23.889  0.6802E-03  0.6900E-05  0.1206E+00  0.1200E+00
     24.082  0.2046E-02  0.2651E-03  0.1210E+00  0.1200E+00
     24.275  0.2593E-02  0.8983E-03  0.1215E+00  0.1202E+00
     24.469  0.2963E-02  0.2144E-02  0.1221E+00  0.1206E+00
     24.662  0.3708E-02  0.3066E-02  0.1228E+00  0.1212E+00
     24.856  0.5317E-02  0.1124E-02  0.1238E+00  0.1214E+00
     25.049  0.3950E-02  0.1100E-02  0.1246E+00  0.1216E+00
     25.242  0.2439E-02  0.3148E-02  0.1250E+00  0.1222E+00
     25.436  0.3086E-02  0.5811E-02  0.1256E+00  0.1234E+00
     25.629  0.4583E-02  0.5169E-02  0.1265E+00  0.1244E+00
     25.823  0.1276E-02  0.2922E-02  0.1268E+00  0.1249E+00
     26.016  0.2569E-02  0.2409E-02  0.1273E+00  0.1254E+00
     26.209  0.3123E-02  0.5355E-02  0.1279E+00  0.1264E+00
     26.403  0.1706E-02  0.1937E-02  0.1282E+00  0.1268E+00
     26.596  0.2124E-02  0.2577E-02  0.1286E+00  0.1273E+00
     26.790  0.2620E-02  0.2833E-02  0.1291E+00  0.1278E+00
     26.983  0.2569E-02  0.2693E-02  0.1296E+00  0.1284E+00
     27.176  0.4759E-02  0.1828E-02  0.1305E+00  0.1287E+00
     27.370  0.2407E-02  0.2146E-02  0.1310E+00  0.1291E+00
     27.563  0.5481E-02  0.3947E-02  0.1321E+00  0.1299E+00
     27.757  0.2423E-02  0.4247E-02  0.1325E+00  0.1307E+00
     27.950  0.3483E-02  0.4382E-02  0.1332E+00  0.1316E+00
     28.143  0.4912E-02  0.4090E-02  0.1342E+00  0.1324E+00
     28.337  0.2670E-02  0.2977E-02  0.1347E+00  0.1329E+00
     28.530  0.3209E-02  0.4436E-02  0.1353E+00  0.1338E+00
     28.724  0.1379E-02  0.3483E-02  0.1356E+00  0.1345E+00
     28.917  0.3171E-02  0.3004E-02  0.1362E+00  0.1350E+00
     29.110  0.3408E-02  0.2422E-02  0.1368E+00  0.1355E+00
     29.304  0.3931E-02  0.2538E-02  0.1376E+00  0.1360E+00
     29.497  0.2128E-02  0.3750E-02  0.1380E+00  0.1367E+00
     29.691  0.1697E-02  0.2714E-02  0.1383E+00  0.1373E+00
     29.884  0.2564E-02  0.3390E-02  0.1388E+00  0.1379E+00
     30.077  0.3049E-02  0.1491E-02  0.1394E+00  0.1382E+00
     30.271  0.2064E-02  0.2422E-02  0.1398E+00  0.1387E+00
     30.464  0.3197E-02  0.3342E-02  0.1404E+00  0.1393E+00
     30.658  0.3132E-02  0.2200E-02  0.1410E+00  0.1397E+00
     30.851  0.2429E-02  0.2935E-02  0.1415E+00  0.1403E+00
     31.044  0.2410E-02  0.2437E-02  0.1420E+00  0.1408E+00
     31.238  0.3898E-02  0.3704E-02  0.1427E+00  0.1415E+00
     31.431  0.3727E-02  0.1859E-02  0.1434E+00  0.1419E+00
     31.625  0.2904E-02  0.4727E-02  0.1440E+00  0.1428E+00
     31.818  0.1943E-02  0.3666E-02  0.1444E+00  0.1435E+00
     32.011  0.3688E-02  0.2438E-02  0.1451E+00  0.1440E+00
     32.205  0.2424E-02  0.2145E-02  0.1456E+00  0.1444E+00
     32.398  0.2602E-02  0.3710E-02  0.1461E+00  0.1451E+00
     32.591  0.4167E-02  0.3196E-02  0.1469E+00  0.1457E+00
     32.785  0.5155E-02  0.2269E-02  0.1479E+00  0.1461E+00
     32.978  0.6744E-02  0.6402E-02  0.1492E+00  0.1474E+00
     33.172  0.2867E-02  0.4420E-02  0.1497E+00  0.1482E+00
     33.365  0.3567E-02  0.5531E-02  0.1504E+00  0.1493E+00
     33.558  0.2958E-02  0.3615E-02  0.1510E+00  0.1500E+00
     33.752  0.2313E-02  0.2153E-02  0.1514E+00  0.1504E+00
     33.945  0.4514E-02  0.4055E-02  0.1523E+00  0.1512E+00
     34.139  0.4915E-02  0.2583E-02  0.1533E+00  0.1517E+00
     34.332  0.2305E-02  0.5693E-02  0.1537E+00  0.1528E+00
     34.525  0.4916E-02  0.3842E-02  0.1547E+00  0.1535E+00
     34.719  0.3534E-02  0.2990E-02  0.1553E+00  0.1541E+00
     34.912  0.4610E-02  0.4154E-02  0.1562E+00  0.1549E+00
     35.106  0.4663E-02  0.4141E-02  0.1571E+00  0.1557E+00
     35.299  0.4389E-02  0.5808E-02  0.1580E+00  0.1569E+00
     35.492  0.2381E-02  0.5013E-02  0.1584E+00  0.1578E+00
     35.686  0.3003E-02  0.2946E-02  0.1590E+00  0.1584E+00
     35.879  0.4505E-02  0.1886E-02  0.1599E+00  0.1588E+00
     36.073  0.2546E-02  0.4547E-02  0.1604E+00  0.1596E+00
     36.266  0.2923E-02  0.3538E-02  0.1610E+00  0.1603E+00
     36.459  0.6333E-02  0.2176E-02  0.1622E+00  0.1607E+00
     36.653  0.3436E-02  0.4586E-02  0.1628E+00  0.1616E+00
     36.846  0.3212E-02  0.4790E-02  0.1635E+00  0.1626E+00
     37.040  0.5573E-02  0.3509E-02  0.1645E+00  0.1632E+00
     37.233  0.3244E-02  0.6352E-02  0.1652E+00  0.1645E+00
     37.426  0.2752E-02  0.4092E-02  0.1657E+00  0.1653E+00
     37.620  0.5547E-02  0.2348E-02  0.1668E+00  0.1657E+00
     37.813  0.4243E-02  0.5252E-02  0.1676E+00  0.1667E+00
     38.007  0.3742E-02  0.2972E-02  0.1683E+00  0.1673E+00
     38.200  0.3930E-02  0.4924E-02  0.1691E+00  0.1683E+00
     38.393  0.3145E-02  0.5002E-02  0.1697E+00  0.1692E+00
     38.587  0.3004E-02  0.2182E-02  0.1703E+00  0.1696E+00
     38.780  0.3056E-02  0.3412E-02  0.1709E+00  0.1703E+00
     38.974  0.3643E-02  0.2160E-02  0.1716E+00  0.1707E+00
     39.167  0.3774E-02  0.5807E-02  0.1723E+00  0.1718E+00
     39.360  0.3469E-02  0.3679E-02  0.1730E+00  0.1726E+00
     39.554  0.3555E-02  0.2659E-02  0.1737E+00  0.1731E+00
     39.747  0.4695E-02  0.2629E-02  0.1746E+00  0.1736E+00
     39.941  0.4312E-02  0.5884E-02  0.1754E+00  0.1747E+00
     40.134  0.2246E-02  0.2933E-02  0.1758E+00  0.1753E+00
     40.327  0.3968E-02  0.3400E-02  0.1766E+00  0.1759E+00
     40.521  0.3820E-02  0.3031E-02  0.1773E+00  0.1765E+00
     40.714  0.5061E-02  0.4475E-02  0.1783E+00  0.1774E+00
     40.908  0.2360E-02  0.4519E-02  0.1788E+00  0.1783E+00
     41.101  0.1975E-02  0.3128E-02  0.1792E+00  0.1789E+00
     41.294  0.1553E-02  0.2452E-02  0.1795E+00  0.1793E+00
     41.488  0.2588E-02  0.5943E-03  0.1800E+00  0.1795E+00
     41.681  0.4162E-02  0.1737E-02  0.1808E+00  0.1798E+00
     41.875  0.4155E-02  0.4894E-02  0.1816E+00  0.1807E+00
     42.068  0.4092E-02  0.3988E-02  0.1824E+00  0.1815E+00
     42.261  0.2881E-02  0.2558E-02  0.1829E+00  0.1820E+00
     42.455  0.2387E-02  0.4235E-02  0.1834E+00  0.1828E+00
     42.648  0.5426E-02  0.3157E-02  0.1844E+00  0.1834E+00
     42.842  0.5594E-02  0.4920E-02  0.1855E+00  0.1844E+00
     43.035  0.4917E-02  0.4765E-02  0.1865E+00  0.1853E+00
     43.228  0.3329E-02  0.5081E-02  0.1871E+00  0.1863E+00
     43.422  0.5292E-02  0.3306E-02  0.1881E+00  0.1869E+00
     43.615  0.6473E-02  0.4593E-02  0.1894E+00  0.1878E+00
     43.808  0.2940E-02  0.6012E-02  0.1899E+00  0.1890E+00
     44.002  0.4248E-02  0.3527E-02  0.1908E+00  0.1897E+00
     44.195  0.2034E-02  0.5248E-02  0.1912E+00  0.1907E+00
     44.389  0.4199E-02  0.2176E-02  0.1920E+00  0.1911E+00
     44.582  0.3754E-02  0.4323E-02  0.1927E+00  0.1919E+00
     44.775  0.9532E-03  0.3333E-02  0.1929E+00  0.1926E+00
     44.969  0.2573E-02  0.1715E-02  0.1934E+00  0.1929E+00
     45.162  0.6383E-02  0.2714E-02  0.1946E+00  0.1934E+00
     45.356  0.3168E-02  0.5547E-02  0.1952E+00  0.1945E+00
     45.549  0.2642E-02  0.3975E-02  0.1957E+00  0.1953E+00
     45.742  0.2867E-02  0.2870E-02  0.1963E+00  0.1958E+00
     45.936  0.2546E-02  0.2611E-02  0.1968E+00  0.1963E+00
     46.129  0.2736E-02  0.2242E-02  0.1973E+00  0.1968E+00
     46.323  0.5928E-02  0.2161E-02  0.1985E+00  0.1972E+00
     46.516  0.2238E-02  0.4149E-02  0.1989E+00  0.1980E+00
     46.709  0.1846E-02  0.4637E-02  0.1993E+00  0.1989E+00
     46.903  0.2375E-02  0.5387E-03  0.1997E+00  0.1990E+00
     47.096  0.6387E-02  0.2221E-02  0.2009E+00  0.1994E+00
     47.290  0.5435E-02  0.3701E-02  0.2020E+00  0.2001E+00
     47.483  0.5648E-02  0.6924E-02  0.2031E+00  0.2015E+00
     47.676  0.3054E-02  0.7728E-02  0.2037E+00  0.2030E+00
     47.870  0.3577E-02  0.2919E-02  0.2044E+00  0.2035E+00
     48.063  0.6165E-02  0.3781E-02  0.2056E+00  0.2043E+00
     48.257  0.3871E-02  0.6094E-02  0.2063E+00  0.2054E+00
     48.450  0.2696E-02  0.3246E-02  0.2068E+00  0.2061E+00
     48.643  0.5761E-02  0.3371E-02  0.2079E+00  0.2067E+00
     48.837  0.3228E-02  0.4261E-02  0.2086E+00  0.2076E+00
     49.030  0.6038E-03  0.2673E-02  0.2087E+00  0.2081E+00
     49.224  0.6048E-02  0.2845E-02  0.2099E+00  0.2086E+00
     49.417  0.4823E-02  0.4890E-02  0.2108E+00  0.2096E+00
     49.610  0.5961E-02  0.3482E-02  0.2119E+00  0.2102E+00
     49.804  0.7193E-02  0.4059E-02  0.2133E+00  0.2110E+00
     49.997  0.4489E-02  0.3483E-02  0.2142E+00  0.2117E+00
     50.191  0.4772E-02  0.7789E-02  0.2151E+00  0.2132E+00
     50.384  0.8414E-02  0.3872E-02  0.2168E+00  0.2140E+00
     50.577  0.7366E-02  0.6175E-02  0.2182E+00  0.2151E+00
     50.771  0.1417E-01  0.1860E-02  0.2209E+00  0.2155E+00
     50.964  0.3317E-01  0.4885E-02  0.2273E+00  0.2164E+00
     51.158  0.1672E-01  0.5222E-02  0.2306E+00  0.2175E+00
     51.351  0.9306E-02  0.1612E-02  0.2324E+00  0.2178E+00
     51.544  0.6256E-02  0.1739E-02  0.2336E+00  0.2181E+00
     51.738  0.1052E-01  0.4219E-02  0.2356E+00  0.2189E+00
     51.931  0.6281E-02  0.2828E-02  0.2368E+00  0.2195E+00
     52.125  0.1546E-02  0.6442E-02  0.2371E+00  0.2207E+00
     52.318  0.2460E-02  0.4744E-02  0.2376E+00  0.2216E+00
     52.511  0.1616E-02  0.5104E-02  0.2379E+00  0.2226E+00
     52.705  0.5284E-03  0.4420E-02  0.2380E+00  0.2235E+00
     52.898  0.2329E-02  0.5507E-02  0.2385E+00  0.2245E+00
     53.092  0.2013E-02  0.7808E-02  0.2389E+00  0.2261E+00
     53.285  0.1067E-02  0.1042E-01  0.2391E+00  0.2281E+00
     53.478  0.1179E-04  0.1013E-01  0.2391E+00  0.2300E+00
     53.672  0.6163E-03  0.1087E-01  0.2392E+00  0.2321E+00
     53.865  0.5078E-03  0.1570E-01  0.2393E+00  0.2352E+00
     54.059  0.5355E-03  0.5682E-02  0.2394E+00  0.2363E+00
     54.252  0.1591E-02  0.8377E-02  0.2397E+00  0.2379E+00
     54.445  0.6354E-04  0.4726E-02  0.2397E+00  0.2388E+00
     54.639  0.2279E-08  0.2049E-02  0.2397E+00  0.2392E+00
     54.832  0.4554E-03  0.2562E-03  0.2398E+00  0.2392E+00
     55.025  0.8326E-04  0.2094E-02  0.2398E+00  0.2396E+00
     55.219  0.1193E-15  0.1892E-03  0.2398E+00  0.2397E+00
     55.412  0.2103E-04  0.6426E-03  0.2398E+00  0.2398E+00
     55.606  0.7853E-03  0.4443E-05  0.2400E+00  0.2398E+00
     55.799  0.1581E-05  0.9379E-09  0.2400E+00  0.2398E+00
     55.992  0.0000E+00  0.6207E-03  0.2400E+00  0.2399E+00
     56.186  0.0000E+00  0.1872E-03  0.2400E+00  0.2400E+00
     56.379  0.7814E-17  0.2250E-14  0.2400E+00  0.2400E+00
     56.573  0.4191E-05  0.2056E-04  0.2400E+00  0.2400E+00
     56.766  0.1753E-03  0.1590E-03  0.2400E+00  0.2400E+00
     56.959  0.4485E-07  0.1777E-08  0.2400E+00  0.2400E+00
     57.153  0.0000E+00  0.0000E+00  0.2400E+00  0.2400E+00
     57.346  0.0000E+00  0.0000E+00  0.2400E+00  0.2400E+00
     57.540  0.0000E+00  0.0000E+00  0.2400E+00  0.2400E+00
     57.733  0.0000E+00  0.0000E+00  0.2400E+00  0.2400E+00
     57.926  0.0000E+00  0.0000E+00  0.2400E+00  0.2400E+00
     58.120  0.0000E+00  0.0000E+00  0.2400E+00  0.2400E+00
     58.313  0.0000E+00  0.0000E+00  0.2400E+00  0.2400E+00
     58.507  0.0000E+00  0.0000E+00  0.2400E+00  0.2400E+00
     58.700  0.0000E+00  0.0000E+00  0.2400E+00  0.2400E+00
     58.893  0.0000E+00  0.0000E+00  0.2400E+00  0.2400E+00
     59.087  0.0000E+00  0.0000E+00  0.2400E+00  0.2400E+00
     59.280  0.0000E+00  0.0000E+00  0.2400E+00  0.2400E+00
     59.28021163      1.26126771  301     14.35563830      1.00000000
      1.261  0.0000E+00  0.0000E+00  0.0000E+00  0.0000E+00  0.0000E+00  0.0000E+00  0.0000E+00  0.0000E+00  0.0000E+00  0.0000E+00  0.0000E+00  0.0000E+00  0.0000E+00  0.0000E+00  0.0000E+00  0.0000E+00  0.0000E+00  0.0000E+00
      1.455  0.0000E+00  0.0000E+00  0.0000E+00  0.0000E+00  0.0000E+00  0.0000E+00  0.0000E+00  0.0000E+00  0.0000E+00  0.0000E+00  0.0000E+00  0.0000E+00  0.0000E+00  0.0000E+00  0.0000E+00  0.0000E+00  0.0000E+00  0.0000E+00
      1.648  0.0000E+00  0.0000E+00  0.0000E+00  0.0000E+00  0.0000E+00  0.0000E+00  0.0000E+00  0.0000E+00  0.0000E+00  0.0000E+00  0.0000E+00  0.0000E+00  0.0000E+00  0.0000E+00  0.0000E+00  0.0000E+00  0.0000E+00  0.0000E+00
      1.841  0.0000E+00  0.0000E+00  0.0000E+00  0.0000E+00  0.0000E+00  0.0000E+00  0.0000E+00  0.0000E+00  0.0000E+00  0.0000E+00  0.0000E+00  0.0000E+00  0.0000E+00  0.0000E+00  0.0000E+00  0.0000E+00  0.0000E+00  0.0000E+00
      2.035  0.0000E+00  0.0000E+00  0.0000E+00  0.0000E+00  0.0000E+00  0.0000E+00  0.0000E+00  0.0000E+00  0.0000E+00  0.0000E+00  0.0000E+00  0.0000E+00  0.0000E+00  0.0000E+00  0.0000E+00  0.0000E+00  0.0000E+00  0.0000E+00
      2.228  0.0000E+00  0.0000E+00  0.0000E+00  0.0000E+00  0.0000E+00  0.0000E+00  0.0000E+00  0.0000E+00  0.0000E+00  0.0000E+00  0.0000E+00  0.0000E+00  0.0000E+00  0.0000E+00  0.0000E+00  0.0000E+00  0.0000E+00  0.0000E+00
      2.422  0.0000E+00  0.0000E+00  0.0000E+00  0.0000E+00  0.0000E+00  0.0000E+00  0.0000E+00  0.0000E+00  0.0000E+00  0.0000E+00  0.0000E+00  0.0000E+00  0.0000E+00  0.0000E+00  0.0000E+00  0.0000E+00  0.0000E+00  0.0000E+00
      2.615  0.0000E+00  0.0000E+00  0.0000E+00  0.0000E+00  0.0000E+00  0.0000E+00  0.0000E+00  0.0000E+00  0.0000E+00  0.0000E+00  0.0000E+00  0.0000E+00  0.0000E+00  0.0000E+00  0.0000E+00  0.0000E+00  0.0000E+00  0.0000E+00
      2.808  0.0000E+00  0.0000E+00  0.0000E+00  0.0000E+00  0.0000E+00  0.0000E+00  0.0000E+00  0.0000E+00  0.0000E+00  0.0000E+00  0.0000E+00  0.0000E+00  0.0000E+00  0.0000E+00  0.0000E+00  0.0000E+00  0.0000E+00  0.0000E+00
      3.002  0.0000E+00  0.0000E+00  0.0000E+00  0.0000E+00  0.0000E+00  0.0000E+00  0.0000E+00  0.0000E+00  0.0000E+00  0.0000E+00  0.0000E+00  0.0000E+00  0.0000E+00  0.0000E+00  0.0000E+00  0.0000E+00  0.0000E+00  0.0000E+00
      3.195  0.0000E+00  0.0000E+00  0.0000E+00  0.0000E+00  0.0000E+00  0.0000E+00  0.0000E+00  0.0000E+00  0.0000E+00  0.0000E+00  0.0000E+00  0.0000E+00  0.0000E+00  0.0000E+00  0.0000E+00  0.0000E+00  0.0000E+00  0.0000E+00
      3.389  0.0000E+00  0.0000E+00  0.0000E+00  0.0000E+00  0.0000E+00  0.0000E+00  0.0000E+00  0.0000E+00  0.0000E+00  0.0000E+00  0.0000E+00  0.0000E+00  0.0000E+00  0.0000E+00  0.0000E+00  0.0000E+00  0.0000E+00  0.0000E+00
      3.582  0.0000E+00  0.0000E+00  0.0000E+00  0.0000E+00  0.0000E+00  0.0000E+00  0.0000E+00  0.0000E+00  0.0000E+00  0.0000E+00  0.0000E+00  0.0000E+00  0.0000E+00  0.0000E+00  0.0000E+00  0.0000E+00  0.0000E+00  0.0000E+00
      3.775  0.5510E-06  0.3199E-08  0.3062E-22  0.6824E-24  0.3175E-23  0.7154E-24  0.3062E-22  0.6824E-24  0.4879E-20  0.1125E-22  0.9818E-26  0.1203E-28  0.9117E-12  0.8669E-14  0.9818E-26  0.1203E-28  0.4879E-20  0.1125E-22
      3.969  0.2155E-02  0.1743E-02  0.1357E-13  0.2324E-17  0.1917E-07  0.9804E-10  0.1357E-13  0.2324E-17  0.2464E-15  0.6160E-17  0.6850E-22  0.6825E-23  0.3814E-08  0.4725E-08  0.6850E-22  0.6825E-23  0.2464E-15  0.6160E-17
      4.162  0.6551E-02  0.4064E-02  0.3090E-04  0.2665E-05  0.7479E-04  0.5999E-04  0.3090E-04  0.2665E-05  0.5178E-06  0.3724E-07  0.2281E-14  0.4084E-18  0.1420E-05  0.6384E-06  0.2281E-14  0.4084E-18  0.5178E-06  0.3724E-07
      4.356  0.1596E-01  0.1420E-01  0.2167E-03  0.1804E-03  0.9547E-04  0.2549E-04  0.2167E-03  0.1804E-03  0.3684E-05  0.2524E-05  0.2904E-05  0.2179E-06  0.2129E-05  0.2400E-05  0.2904E-05  0.2179E-06  0.3684E-05  0.2524E-05
      4.549  0.2006E-01  0.2499E-01  0.2753E-03  0.3430E-03  0.3588E-03  0.4466E-03  0.2753E-03  0.3430E-03  0.4818E-05  0.4969E-05  0.1111E-04  0.1163E-04  0.1324E-06  0.6358E-07  0.1111E-04  0.1163E-04  0.4818E-05  0.4969E-05
      4.742  0.6872E-02  0.3843E-02  0.1157E-03  0.9089E-05  0.2879E-03  0.2569E-03  0.1157E-03  0.9089E-05  0.5813E-05  0.3749E-06  0.2448E-10  0.4265E-08  0.2481E-04  0.1450E-04  0.2448E-10  0.4265E-08  0.5813E-05  0.3749E-06
      4.936  0.3039E-01  0.1543E-01  0.9213E-03  0.5640E-03  0.1042E-02  0.1950E-03  0.9213E-03  0.5640E-03  0.4217E-04  0.2285E-04  0.4619E-04  0.5321E-05  0.6005E-04  0.2417E-04  0.4619E-04  0.5321E-05  0.4217E-04  0.2285E-04
      5.129  0.3872E-01  0.5523E-01  0.1449E-02  0.1826E-02  0.1111E-02  0.2012E-02  0.1449E-02  0.1826E-02  0.9200E-04  0.8414E-04  0.5824E-04  0.8105E-04  0.8248E-04  0.9242E-04  0.5824E-04  0.8105E-04  0.9200E-04  0.8414E-04
      5.323  0.2304E-01  0.2357E-01  0.1269E-02  0.1306E-02  0.4185E-03  0.3959E-03  0.1269E-02  0.1306E-02  0.1140E-03  0.9224E-04  0.6881E-04  0.5203E-04  0.3866E-04  0.3409E-04  0.6881E-04  0.5203E-04  0.1140E-03  0.9224E-04
      5.516  0.2207E-01  0.9835E-02  0.8592E-03  0.4353E-03  0.1762E-02  0.6396E-03  0.8592E-03  0.4353E-03  0.5382E-04  0.2363E-04  0.1746E-03  0.5983E-04  0.7286E-04  0.8904E-05  0.1746E-03  0.5983E-04  0.5382E-04  0.2363E-04
      5.709  0.1299E-01  0.1859E-01  0.5677E-03  0.6387E-03  0.1156E-02  0.1681E-02  0.5677E-03  0.6387E-03  0.5805E-04  0.3237E-04  0.1296E-03  0.1047E-03  0.8270E-04  0.1034E-03  0.1296E-03  0.1047E-03  0.5805E-04  0.3237E-04
      5.903  0.5621E-01  0.5473E-01  0.3186E-02  0.2789E-02  0.4363E-02  0.4879E-02  0.3186E-02  0.2789E-02  0.4116E-03  0.2589E-03  0.2943E-03  0.3142E-03  0.8314E-03  0.5479E-03  0.2943E-03  0.3142E-03  0.4116E-03  0.2589E-03
      6.096  0.4166E-01  0.4793E-01  0.4073E-02  0.4607E-02  0.7538E-03  0.9481E-03  0.4073E-02  0.4607E-02  0.6457E-03  0.5612E-03  0.2951E-03  0.2115E-03  0.3351E-03  0.3417E-03  0.2951E-03  0.2115E-03  0.6457E-03  0.5612E-03
      6.290  0.1948E-01  0.5662E-02  0.1331E-02  0.5308E-03  0.2222E-02  0.1896E-03  0.1331E-02  0.5308E-03  0.2785E-03  0.6519E-04  0.2851E-03  0.3696E-04  0.3443E-03  0.4021E-04  0.2851E-03  0.3696E-04  0.2785E-03  0.6519E-04
      6.483  0.7396E-01  0.3956E-01  0.7072E-02  0.3178E-02  0.5468E-02  0.3863E-02  0.7072E-02  0.3178E-02  0.1700E-02  0.5262E-03  0.1759E-02  0.5117E-03  0.7119E-03  0.4580E-03  0.1759E-02  0.5117E-03  0.1700E-02  0.5262E-03
      6.676  0.1705E-01  0.7121E-01  0.9034E-03  0.6453E-02  0.2900E-02  0.6704E-02  0.9034E-03  0.6453E-02  0.1619E-03  0.1087E-02  0.4478E-03  0.1409E-02  0.6544E-03  0.7032E-03  0.4478E-03  0.1409E-02  0.1619E-03  0.1087E-02
      6.870  0.3521E-01  0.4250E-02  0.2311E-02  0.1403E-03  0.5942E-02  0.9890E-03  0.2311E-02  0.1403E-03  0.9023E-03  0.3003E-04  0.1097E-02  0.5231E-04  0.2978E-02  0.3880E-03  0.1097E-02  0.5231E-04  0.9023E-03  0.3003E-04
      7.063  0.1849E-01  0.3492E-01  0.2756E-02  0.2602E-02  0.1122E-02  0.5774E-02  0.2756E-02  0.2602E-02  0.7839E-03  0.6804E-03  0.5493E-03  0.7964E-03  0.4998E-03  0.1948E-02  0.5493E-03  0.7964E-03  0.7839E-03  0.6804E-03
      7.257  0.1006E+00  0.5172E-01  0.1384E-01  0.7405E-02  0.9155E-02  0.4470E-02  0.1384E-01  0.7405E-02  0.5906E-02  0.1672E-02  0.3911E-02  0.1616E-02  0.4246E-02  0.8451E-03  0.3911E-02  0.1616E-02  0.5906E-02  0.1672E-02
      7.450  0.6401E-01  0.7603E-01  0.7677E-02  0.1069E-01  0.9833E-02  0.7511E-02  0.7677E-02  0.1069E-01  0.4159E-02  0.3460E-02  0.5991E-02  0.1865E-02  0.4417E-02  0.3046E-02  0.5991E-02  0.1865E-02  0.4159E-02  0.3460E-02
      7.643  0.5463E-01  0.5056E-01  0.7446E-02  0.6122E-02  0.5314E-02  0.9014E-02  0.7446E-02  0.6122E-02  0.8797E-02  0.1890E-02  0.4876E-02  0.3434E-02  0.9841E-02  0.1737E-02  0.4876E-02  0.3434E-02  0.8797E-02  0.1890E-02
      7.837  0.3779E-01  0.4705E-01  0.4043E-02  0.8121E-02  0.5266E-02  0.3052E-02  0.4043E-02  0.8121E-02  0.1131E-01  0.4865E-02  0.1700E-01  0.2690E-02  0.8333E-02  0.2672E-02  0.1700E-01  0.2690E-02  0.1131E-01  0.4865E-02
      8.030  0.1188E+00  0.2842E-01  0.1243E-01  0.2891E-02  0.1745E-01  0.5552E-02  0.1243E-01  0.2891E-02  0.5019E-01  0.2627E-02  0.7149E-01  0.1601E-02  0.3980E-01  0.7345E-02  0.7149E-01  0.1601E-02  0.5019E-01  0.2627E-02
      8.224  0.1156E+00  0.6966E-01  0.1868E-01  0.9903E-02  0.1215E-01  0.1581E-01  0.1868E-01  0.9903E-02  0.5936E-01  0.5241E-02  0.5284E-01  0.1113E-01  0.5974E-01  0.1605E-02  0.5284E-01  0.1113E-01  0.5936E-01  0.5241E-02
      8.417  0.1040E+00  0.3996E-01  0.1797E-01  0.4614E-02  0.1655E-01  0.1088E-01  0.1797E-01  0.4614E-02  0.8018E-01  0.4403E-02  0.8995E-01  0.6658E-02  0.6018E-01  0.8321E-02  0.8995E-01  0.6658E-02  0.8018E-01  0.4403E-02
      8.610  0.7345E-01  0.1264E+00  0.1380E-01  0.2496E-01  0.1519E-01  0.9790E-02  0.1380E-01  0.2496E-01  0.1052E+00  0.3532E-01  0.8552E-01  0.2523E-01  0.9836E-01  0.3476E-01  0.8552E-01  0.2523E-01  0.1052E+00  0.3532E-01
      8.804  0.6208E-01  0.1073E+00  0.1271E-01  0.1583E-01  0.2899E-01  0.1440E-01  0.1271E-01  0.1583E-01  0.9509E-01  0.4672E-01  0.1159E+00  0.6307E-01  0.6456E-01  0.3212E-01  0.1159E+00  0.6307E-01  0.9509E-01  0.4672E-01
      8.997  0.5765E-01  0.6668E-01  0.2302E-01  0.1013E-01  0.1831E-01  0.1117E-01  0.2302E-01  0.1013E-01  0.1015E+00  0.3389E-01  0.1415E+00  0.4721E-01  0.1457E+00  0.3028E-01  0.1415E+00  0.4721E-01  0.1015E+00  0.3389E-01
      9.191  0.4501E-01  0.8018E-01  0.1791E-01  0.1279E-01  0.2275E-01  0.2131E-01  0.1791E-01  0.1279E-01  0.7263E-01  0.5169E-01  0.9270E-01  0.5626E-01  0.8596E-01  0.5708E-01  0.9270E-01  0.5626E-01  0.7263E-01  0.5169E-01
      9.384  0.2809E-01  0.8530E-01  0.2163E-01  0.1887E-01  0.1774E-01  0.2087E-01  0.2163E-01  0.1887E-01  0.8363E-01  0.1029E+00  0.8469E-01  0.8184E-01  0.8812E-01  0.7333E-01  0.8469E-01  0.8184E-01  0.8363E-01  0.1029E+00
      9.577  0.3177E-01  0.4546E-01  0.3175E-01  0.1450E-01  0.2002E-01  0.1507E-01  0.3175E-01  0.1450E-01  0.1101E+00  0.4792E-01  0.1061E+00  0.4556E-01  0.1581E+00  0.2196E-01  0.1061E+00  0.4556E-01  0.1101E+00  0.4792E-01
      9.771  0.1508E-01  0.7274E-01  0.1790E-01  0.2655E-01  0.1652E-01  0.2617E-01  0.1790E-01  0.2655E-01  0.8940E-01  0.1042E+00  0.8395E-01  0.1500E+00  0.1590E+00  0.1399E+00  0.8395E-01  0.1500E+00  0.8940E-01  0.1042E+00
      9.964  0.1377E-01  0.2983E-01  0.3007E-01  0.1617E-01  0.2068E-01  0.2346E-01  0.3007E-01  0.1617E-01  0.1651E+00  0.7368E-01  0.8642E-01  0.1049E+00  0.1655E+00  0.7136E-01  0.8642E-01  0.1049E+00  0.1651E+00  0.7368E-01
     10.158  0.9843E-02  0.2809E-01  0.2380E-01  0.1863E-01  0.1347E-01  0.2866E-01  0.2380E-01  0.1863E-01  0.1319E+00  0.5316E-01  0.7231E-01  0.1123E+00  0.1296E+00  0.5443E-01  0.7231E-01  0.1123E+00  0.1319E+00  0.5316E-01
     10.351  0.1426E-01  0.2188E-01  0.2959E-01  0.2918E-01  0.2484E-01  0.1291E-01  0.2959E-01  0.2918E-01  0.1711E+00  0.8991E-01  0.9441E-01  0.5658E-01  0.1540E+00  0.1059E+00  0.9441E-01  0.5658E-01  0.1711E+00  0.8991E-01
     10.544  0.1321E-01  0.1415E-01  0.2757E-01  0.2229E-01  0.2205E-01  0.1951E-01  0.2757E-01  0.2229E-01  0.1432E+00  0.8417E-01  0.7255E-01  0.6470E-01  0.1094E+00  0.1140E+00  0.7255E-01  0.6470E-01  0.1432E+00  0.8417E-01
     10.738  0.4818E-02  0.1217E-01  0.1042E-01  0.2697E-01  0.9700E-02  0.1335E-01  0.1042E-01  0.2697E-01  0.7307E-01  0.9426E-01  0.2319E-01  0.6687E-01  0.6897E-01  0.1500E+00  0.2319E-01  0.6687E-01  0.7307E-01  0.9426E-01
     10.931  0.5090E-02  0.1165E-01  0.1337E-01  0.3125E-01  0.2192E-01  0.2152E-01  0.1337E-01  0.3125E-01  0.8732E-01  0.1390E+00  0.1117E+00  0.7513E-01  0.1441E+00  0.1663E+00  0.1117E+00  0.7513E-01  0.8732E-01  0.1390E+00