    2    2  100    2
  0.8419754E+01  0.2292894E-09  0.2292894E-09  0.3698546E-09  0.5000000E-15
  1.000000000000000E-004
  CAR 
 Co-hcc                                  
     18     95     24
 
  0.0000000E+00  0.0000000E+00  0.0000000E+00  0.8680556E-03
      1          3.898492        3.940849   1.000000   1.000000
      2          7.878356        8.620045   1.000000   1.000000
      3         11.387219       12.656681   1.000000   1.000000
      4         11.393228       12.657501   1.000000   1.000000
      5         11.393229       12.657502   1.000000   1.000000
      6         11.879223       13.193641   1.000000   1.000000
      7         11.879223       13.193642   1.000000   1.000000
      8         12.391050       13.776258   1.000000   1.000000
      9         12.391051       13.776258   1.000000   1.000000
     10         14.032370       14.283055   1.000000   0.979962
     11         14.032370       15.523084   1.000000   0.000000
     12         14.264611       15.523084   0.994983   0.000000
     13         23.422115       24.266907   0.000000   0.000000
     14         38.397831       38.238638   0.000000   0.000000
     15         42.360400       42.297204   0.000000   0.000000
     16         42.579071       42.451135   0.000000   0.000000
     17         43.936355       44.265792   0.000000   0.000000
     18         43.936356       44.265797   0.000000   0.000000
     19         45.009768       45.304060   0.000000   0.000000
     20         45.009772       45.304069   0.000000   0.000000
     21         48.736318       48.759750   0.000000   0.000000
     22         48.736319       48.759754   0.000000   0.000000
     23         50.434098       50.233957   0.000000   0.000000
     24         50.886312       51.745173   0.000000   0.000000
 
  0.8333333E-01  0.0000000E+00  0.0000000E+00  0.5208333E-02
      1          4.195121        4.238864   1.000000   1.000000
      2          8.068464        8.824726   1.000000   1.000000
      3         11.041334       12.265559   1.000000   1.000000
      4         11.559391       12.833639   1.000000   1.000000
      5         11.675256       12.966093   1.000000   1.000000
      6         11.807453       13.107181   1.000000   1.000000
      7         12.026398       13.168148   1.000000   1.000000
      8         12.135202       13.349608   1.000000   1.000000
      9         12.281439       13.655238   1.000000   1.000000
     10         12.745492       13.748451   1.000000   1.000000
     11         14.081377       15.577947   1.000000   0.000000
     12         15.967084       16.810378   0.000000   0.000000
     13         23.441949       24.270674   0.000000   0.000000
     14         37.338630       37.365246   0.000000   0.000000
     15         40.338322       40.481968   0.000000   0.000000
     16         41.284208       41.600510   0.000000   0.000000
     17         42.645158       42.535154   0.000000   0.000000
     18         43.892153       43.951693   0.000000   0.000000
     19         45.215889       45.172626   0.000000   0.000000
     20         47.797420       48.084422   0.000000   0.000000
     21         48.459790       48.526680   0.000000   0.000000
     22         48.506276       48.760038   0.000000   0.000000
     23         50.853629       51.329779   0.000000   0.000000
     24         50.897209       51.599425   0.000000   0.000000
 
  0.1666667E+00  0.1387779E-16  0.0000000E+00  0.5208333E-02
      1          5.041992        5.094326   1.000000   1.000000
      2          8.531141        9.335041   1.000000   1.000000
      3         10.620476       11.772815   1.000000   1.000000
      4         11.048371       11.912256   1.000000   1.000000
      5         11.549938       12.804354   1.000000   1.000000
      6         12.013969       13.334018   1.000000   1.000000
      7         12.029867       13.361489   1.000000   1.000000
      8         12.125182       13.439430   1.000000   1.000000
      9         12.296226       13.512700   1.000000   1.000000
     10         12.440050       13.788719   1.000000   1.000000
     11         14.184821       15.692808   0.999999   0.000000
     12         18.002111       18.758028   0.000000   0.000000
     13         23.520204       24.298312   0.000000   0.000000
     14         33.875058       34.180242   0.000000   0.000000
     15         38.425398       38.727456   0.000000   0.000000
     16         39.102772       39.238700   0.000000   0.000000
     17         41.046465       41.097267   0.000000   0.000000
     18         42.808515       42.702867   0.000000   0.000000
     19         44.999739       45.065324   0.000000   0.000000
     20         47.948223       48.088817   0.000000   0.000000
     21         48.610570       49.112510   0.000000   0.000000
     22         49.735930       49.990416   0.000000   0.000000
     23         50.076807       50.331028   0.000000   0.000000
     24         50.849927       52.516078   0.000000   0.000000
 
  0.2500000E+00  0.1387779E-16  0.0000000E+00  0.5208333E-02
      1          6.279882        6.372549   1.000000   1.000000
      2          8.866368        9.761051   1.000000   1.000000
      3         10.004661       10.881286   1.000000   1.000000
      4         10.373467       11.403480   1.000000   1.000000
      5         11.420218       12.623391   1.000000   1.000000
      6         11.696113       13.014310   1.000000   1.000000
      7         12.012899       13.217971   1.000000   1.000000
      8         12.716632       14.069786   1.000000   1.000000
      9         12.755977       14.081037   1.000000   1.000000
     10         13.038011       14.425584   1.000000   0.023944
     11         14.281855       15.799493   0.981552   0.000000
     12         20.214159       20.903612   0.000000   0.000000
     13         23.662617       24.351014   0.000000   0.000000
     14         29.961522       30.403173   0.000000   0.000000
     15         35.904516       36.176964   0.000000   0.000000
     16         37.510769       37.654484   0.000000   0.000000
     17         38.025315       38.267539   0.000000   0.000000
     18         41.915452       41.866357   0.000000   0.000000
     19         44.082741       44.478511   0.000000   0.000000
     20         47.512873       47.716061   0.000000   0.000000
     21         48.259344       48.458564   0.000000   0.000000
     22         48.337732       48.669748   0.000000   0.000000
     23         50.055330       50.255092   0.000000   0.000000
     24         50.936379       53.094053   0.000000   0.000000
 
  0.3333333E+00  0.5551115E-16  0.0000000E+00  0.5208333E-02
      1          7.515367        7.768519   1.000000   1.000000
      2          8.726494        9.669340   1.000000   1.000000
      3          9.233911       10.128715   1.000000   1.000000
      4         10.555100       11.401029   1.000000   1.000000
      5         11.412597       12.705886   1.000000   1.000000
      6         11.605923       12.791468   1.000000   1.000000
      7         11.758205       12.935455   1.000000   1.000000
      8         13.457939       14.873301   1.000000   0.000000
      9         13.690085       15.039835   1.000000   0.000000
     10         13.744388       15.123321   1.000000   0.000000
     11         14.347892       15.871429   0.586715   0.000000
     12         22.553780       23.169611   0.000000   0.000000
     13         23.369127       23.957579   0.000000   0.000000
     14         26.997491       27.535013   0.000000   0.000000
     15         33.860951       34.088740   0.000000   0.000000
     16         34.267476       34.530554   0.000000   0.000000
     17         35.987148       36.345320   0.000000   0.000000
     18         40.707213       40.669402   0.000000   0.000000
     19         42.419422       42.858641   0.000000   0.000000
     20         46.192934       46.505244   0.000000   0.000000
     21         47.222805       47.471255   0.000000   0.000000
     22         49.315409       49.632067   0.000000   0.000000
     23         51.082249       52.166567   0.000000   0.000000
     24         51.248466       53.436916   0.000000   0.000000
 
  0.4166667E+00  0.8326673E-16  0.0000000E+00  0.5208333E-02
      1          8.143113        8.756840   1.000000   1.000000
      2          8.516434        9.382613   1.000000   1.000000
      3          8.764190        9.671587   1.000000   1.000000
      4         11.082946       11.692993   1.000000   1.000000
      5         11.220226       12.497152   1.000000   1.000000
      6         11.579509       12.734800   1.000000   1.000000
      7         11.899993       13.106552   1.000000   1.000000
      8         14.021467       15.489330   1.000000   0.000000
      9         14.232648       15.711086   0.999748   0.000000
     10         14.382906       15.909260   0.220279   0.000000
     11         15.234123       16.407193   0.000000   0.000000
     12         21.158546       21.826771   0.000000   0.000000
     13         24.906569       25.427813   0.000000   0.000000
     14         26.792041       27.255214   0.000000   0.000000
     15         31.409226       31.805462   0.000000   0.000000
     16         32.487655       32.668459   0.000000   0.000000
     17         33.410677       33.854416   0.000000   0.000000
     18         39.799564       39.749223   0.000000   0.000000
     19         41.741358       42.183645   0.000000   0.000000
     20         44.730330       45.011994   0.000000   0.000000
     21         47.061974       47.337801   0.000000   0.000000
     22         49.875030       50.506716   0.000000   0.000000
     23         51.154800       53.571026   0.000000   0.000000
     24         51.598827       54.072279   0.000000   0.000000
 
  0.5000000E+00  0.2775558E-16  0.0000000E+00  0.2604167E-02
      1          8.197691        9.103777   1.000000   1.000000
      2          8.502452        9.203150   1.000000   1.000000
      3          8.606387        9.518208   1.000000   1.000000
      4         11.152432       11.940420   1.000000   1.000000
      5         11.409746       12.423686   1.000000   1.000000
      6         11.515335       12.662518   1.000000   1.000000
      7         12.014130       13.231419   1.000000   1.000000
      8         14.226663       15.713020   0.999868   0.000000
      9         14.393510       15.920651   0.142047   0.000000
     10         14.454279       15.955520   0.002636   0.000000
     11         16.603459       17.634804   0.000000   0.000000
     12         19.254151       20.039780   0.000000   0.000000
     13         26.416804       26.838454   0.000000   0.000000
     14         27.399131       27.778691   0.000000   0.000000
     15         29.737583       30.248238   0.000000   0.000000
     16         31.996319       32.155564   0.000000   0.000000
     17         32.012583       32.513460   0.000000   0.000000
     18         39.473447       39.415853   0.000000   0.000000
     19         41.580010       42.026058   0.000000   0.000000
     20         44.214105       44.482403   0.000000   0.000000
     21         47.011043       47.296017   0.000000   0.000000
     22         50.009853       50.826761   0.000000   0.000000
     23         51.127500       53.574254   0.000000   0.000000
     24         51.808587       54.093785   0.000000   0.000000
 
  0.8333333E-01  0.8333333E-01  0.0000000E+00  0.5208333E-02
      1          4.768555        4.816827   1.000000   1.000000
      2          8.404105        9.190225   1.000000   1.000000
      3         10.709088       11.886972   1.000000   1.000000
      4         11.401898       12.252561   1.000000   1.000000
      5         11.648989       12.917435   1.000000   1.000000
      6         11.899645       13.193888   1.000000   1.000000
      7         11.907145       13.215021   1.000000   1.000000
      8         11.967984       13.302999   1.000000   1.000000
      9         12.352237       13.691742   1.000000   1.000000
     10         12.474678       13.719681   1.000000   1.000000
     11         14.141676       15.644665   1.000000   0.000000
     12         17.441419       18.218044   0.000000   0.000000
     13         23.494187       24.289647   0.000000   0.000000
     14         35.438649       35.639878   0.000000   0.000000
     15         37.018600       37.337685   0.000000   0.000000
     16         42.144618       42.265139   0.000000   0.000000
     17         42.466805       42.438045   0.000000   0.000000
     18         42.484382       42.438812   0.000000   0.000000
     19         43.261787       43.356079   0.000000   0.000000
     20         47.353177       47.513611   0.000000   0.000000
     21         49.615271       50.033899   0.000000   0.000000
     22         49.907329       50.545451   0.000000   0.000000
     23         50.871337       51.627220   0.000000   0.000000
     24         51.267066       52.228166   0.000000   0.000000
 
  0.1666667E+00  0.8333333E-01  0.0000000E+00  0.1041667E-01
      1          5.826640        5.894414   1.000000   1.000000
      2          8.870559        9.720233   1.000000   1.000000
      3         10.297064       11.253594   1.000000   1.000000
      4         10.390351       11.395860   1.000000   1.000000
      5         11.472825       12.696097   1.000000   1.000000
      6         11.628991       12.919488   1.000000   1.000000
      7         12.264749       13.522421   1.000000   1.000000
      8         12.282270       13.611358   1.000000   1.000000
      9         12.522853       13.854489   1.000000   1.000000
     10         12.965141       14.327493   1.000000   0.787002
     11         14.215852       15.726381   0.999962   0.000000
     12         19.427405       20.144287   0.000000   0.000000
     13         23.638303       24.363903   0.000000   0.000000
     14         31.938714       32.310524   0.000000   0.000000
     15         34.536214       34.864763   0.000000   0.000000
     16         39.166709       39.224270   0.000000   0.000000
     17         40.845258       41.023190   0.000000   0.000000
     18         41.527437       41.588147   0.000000   0.000000
     19         44.033642       44.181115   0.000000   0.000000
     20         46.930677       47.310315   0.000000   0.000000
     21         47.200823       47.392615   0.000000   0.000000
     22         50.283028       51.532034   0.000000   0.000000
     23         50.916259       51.927536   0.000000   0.000000
     24         51.731571       52.501967   0.000000   0.000000
 
  0.2500000E+00  0.8333333E-01  0.0000000E+00  0.1041667E-01
      1          7.124379        7.272855   1.000000   1.000000
      2          8.975182        9.912358   1.000000   1.000000
      3          9.551012       10.439220   1.000000   1.000000
      4         10.206372       11.168168   1.000000   1.000000
      5         11.350519       12.607279   1.000000   1.000000
      6         11.497323       12.683803   1.000000   1.000000
      7         11.978883       13.209704   1.000000   1.000000
      8         12.874067       14.227342   1.000000   0.999858
      9         13.268390       14.655601   1.000000   0.000000
     10         13.791238       15.157921   1.000000   0.000000
     11         14.278192       15.794677   0.985756   0.000000
     12         21.652619       22.305677   0.000000   0.000000
     13         23.795022       24.415545   0.000000   0.000000
     14         28.284678       28.772404   0.000000   0.000000
     15         32.704579       33.024151   0.000000   0.000000
     16         35.919600       36.103306   0.000000   0.000000
     17         38.296718       38.587177   0.000000   0.000000
     18         40.157164       40.242951   0.000000   0.000000
     19         43.971750       44.247216   0.000000   0.000000
     20         44.786124       45.194674   0.000000   0.000000
     21         47.873849       47.976367   0.000000   0.000000
     22         50.932504       51.944284   0.000000   0.000000
     23         50.938684       52.239578   0.000000   0.000000
     24         51.770034       53.003052   0.000000   0.000000
 
  0.3333333E+00  0.8333333E-01  0.0000000E+00  0.1041667E-01
      1          8.115673        8.527922   1.000000   1.000000
      2          8.722323        9.650655   1.000000   1.000000
      3          8.970240        9.877877   1.000000   1.000000
      4         10.575129       11.330569   1.000000   1.000000
      5         11.173765       12.416467   1.000000   1.000000
      6         11.694755       12.887117   1.000000   1.000000
      7         11.778468       12.975429   1.000000   1.000000
      8         13.618709       15.016598   1.000000   0.000000
      9         13.912863       15.355151   1.000000   0.000000
     10         14.316616       15.836386   0.865141   0.000000
     11         14.894123       16.176103   0.000000   0.000000
     12         22.680955       23.275688   0.000000   0.000000
     13         24.005420       24.580296   0.000000   0.000000
     14         26.618272       27.130152   0.000000   0.000000
     15         31.226380       31.517970   0.000000   0.000000
     16         32.909108       33.229566   0.000000   0.000000
     17         35.298114       35.666242   0.000000   0.000000
     18         39.034995       39.101235   0.000000   0.000000
     19         43.184916       43.479709   0.000000   0.000000
     20         43.654743       44.058261   0.000000   0.000000
     21         48.197719       48.348470   0.000000   0.000000
     22         50.836862       52.264273   0.000000   0.000000
     23         51.123611       53.528427   0.000000   0.000000
     24         52.358398       54.021496   0.000000   0.000000
 
  0.4166667E+00  0.8333333E-01  0.0000000E+00  0.1041667E-01
      1          8.350991        9.163083   1.000000   1.000000
      2          8.635568        9.405232   1.000000   1.000000
      3          8.674902        9.592961   1.000000   1.000000
      4         11.088727       11.677688   1.000000   1.000000
      5         11.105317       12.356851   1.000000   1.000000
      6         11.506169       12.660053   1.000000   1.000000
      7         12.005561       13.224906   1.000000   1.000000
      8         14.162159       15.631158   1.000000   0.000000
      9         14.266975       15.742638   0.993925   0.000000
     10         14.333453       15.854491   0.734834   0.000000
     11         16.447257       17.502422   0.000000   0.000000
     12         20.115547       20.860966   0.000000   0.000000
     13         26.209222       26.677731   0.000000   0.000000
     14         27.345128       27.748993   0.000000   0.000000
     15         30.248399       30.539907   0.000000   0.000000
     16         30.389342       30.850194   0.000000   0.000000
     17         32.973401       33.379654   0.000000   0.000000
     18         38.428046       38.476132   0.000000   0.000000
     19         42.487608       42.773036   0.000000   0.000000
     20         43.300837       43.708704   0.000000   0.000000
     21         48.236303       48.417214   0.000000   0.000000
     22         50.779490       52.551509   0.000000   0.000000
     23         51.173618       53.611069   0.000000   0.000000
     24         52.868788       54.201653   0.000000   0.000000
 
  0.1666667E+00  0.1666667E+00  0.0000000E+00  0.5208333E-02
      1          6.991023        7.102565   1.000000   1.000000
      2          9.254226       10.156638   1.000000   1.000000
      3          9.717038       10.600059   1.000000   1.000000
      4          9.859060       10.896783   1.000000   1.000000
      5         11.242671       12.489529   1.000000   1.000000
      6         11.487862       12.680553   1.000000   1.000000
      7         12.120912       13.369655   1.000000   1.000000
      8         12.528471       13.880425   1.000000   1.000000
      9         13.249203       14.625280   1.000000   0.000000
     10         13.821208       15.180497   1.000000   0.000000
     11         14.218255       15.728654   0.999949   0.000000
     12         21.349913       22.019503   0.000000   0.000000
     13         23.927250       24.566528   0.000000   0.000000
     14         29.855110       30.270995   0.000000   0.000000
     15         30.845069       31.241077   0.000000   0.000000
     16         37.147197       37.212153   0.000000   0.000000
     17         39.076300       39.327857   0.000000   0.000000
     18         40.680906       40.967698   0.000000   0.000000
     19         41.640796       41.884327   0.000000   0.000000
     20         47.084720       47.393063   0.000000   0.000000
     21         48.047238       48.073520   0.000000   0.000000
     22         49.890517       51.084801   0.000000   0.000000
     23         50.995360       53.494933   0.000000   0.000000
     24         52.505714       54.604518   0.000000   0.000000
 
  0.2500000E+00  0.1666667E+00  0.0000000E+00  0.1041667E-01
      1          8.196518        8.449234   1.000000   1.000000
      2          9.173079       10.084004   1.000000   1.000000
      3          9.187588       10.142162   1.000000   1.000000
      4          9.854814       10.765503   1.000000   1.000000
      5         11.015050       12.227332   1.000000   1.000000
      6         11.697807       12.887921   1.000000   1.000000
      7         11.837788       13.054617   1.000000   1.000000
      8         12.982745       14.361571   1.000000   0.433371
      9         13.911957       15.344807   1.000000   0.000000
     10         14.214974       15.724981   0.999965   0.000000
     11         14.942680       16.237631   0.000000   0.000000
     12         23.562343       24.173043   0.000000   0.000000
     13         24.061449       24.605837   0.000000   0.000000
     14         26.964802       27.467047   0.000000   0.000000
     15         29.065418       29.454146   0.000000   0.000000
     16         34.649870       34.855315   0.000000   0.000000
     17         37.265123       37.513811   0.000000   0.000000
     18         37.541007       37.883141   0.000000   0.000000
     19         40.406914       40.710087   0.000000   0.000000
     20         47.260627       47.610577   0.000000   0.000000
     21         49.524754       49.535488   0.000000   0.000000
     22         50.776328       52.640937   0.000000   0.000000
     23         51.024107       53.692872   0.000000   0.000000
     24         53.707000       54.944286   0.000000   0.000000
 
  0.3333333E+00  0.1666667E+00  0.0000000E+00  0.1041667E-01
      1          8.788704        9.400279   1.000000   1.000000
      2          8.828254        9.760726   1.000000   1.000000
      3          8.942940        9.832157   1.000000   1.000000
      4         10.347738       11.065873   1.000000   1.000000
      5         10.956778       12.158592   1.000000   1.000000
      6         11.529260       12.705054   1.000000   1.000000
      7         11.991314       13.209621   1.000000   1.000000
      8         13.585329       14.999757   1.000000   0.000000
      9         14.210848       15.718630   0.999979   0.000000
     10         14.247292       15.720235   0.998910   0.000000
     11         16.428416       17.537154   0.000000   0.000000
     12         21.988206       22.621897   0.000000   0.000000
     13         25.908962       26.441561   0.000000   0.000000
     14         26.742737       27.194377   0.000000   0.000000
     15         28.156504       28.523128   0.000000   0.000000
     16         31.943496       32.312491   0.000000   0.000000
     17         34.463176       34.847171   0.000000   0.000000
     18         36.333485       36.537883   0.000000   0.000000
     19         39.574855       39.880907   0.000000   0.000000
     20         46.954479       47.342082   0.000000   0.000000
     21         50.562627       50.598681   0.000000   0.000000
     22         51.010788       53.532959   0.000000   0.000000
     23         51.200144       53.853073   0.000000   0.000000
     24         54.796138       55.327509   0.000000   0.000000
 
  0.4166667E+00  0.1666667E+00  0.0000000E+00  0.5208333E-02
      1          8.710828        9.646904   1.000000   1.000000
      2          8.741221        9.651207   1.000000   1.000000
      3          8.991650        9.718340   1.000000   1.000000
      4         10.656674       11.306993   1.000000   1.000000
      5         10.984825       12.201070   1.000000   1.000000
      6         11.368260       12.510555   1.000000   1.000000
      7         12.117538       13.352210   1.000000   1.000000
      8         13.996817       15.443930   1.000000   0.000000
      9         14.208756       15.693649   0.999984   0.000000
     10         14.217659       15.717801   0.999952   0.000000
     11         17.816162       18.702199   0.000000   0.000000
     12         20.013626       20.815429   0.000000   0.000000
     13         27.112239       27.495440   0.000000   0.000000
     14         27.569188       28.010772   0.000000   0.000000
     15         28.149247       28.519879   0.000000   0.000000
     16         30.145646       30.632724   0.000000   0.000000
     17         32.952456       33.364145   0.000000   0.000000
     18         36.038748       36.229330   0.000000   0.000000
     19         39.264099       39.566633   0.000000   0.000000
     20         46.822066       47.217019   0.000000   0.000000
     21         50.844776       50.899294   0.000000   0.000000
     22         51.015258       53.690155   0.000000   0.000000
     23         51.254974       53.860166   0.000000   0.000000
     24         55.516124       55.963039   0.000000   0.000000
 
  0.2500000E+00  0.2500000E+00  0.0000000E+00  0.5208333E-02
      1          8.916093        9.569052   1.000000   1.000000
      2          9.069540        9.857138   1.000000   1.000000
      3          9.505624       10.351033   1.000000   1.000000
      4          9.541881       10.431635   1.000000   1.000000
      5         10.860546       12.038961   1.000000   1.000000
      6         11.553794       12.737824   1.000000   1.000000
      7         11.994601       13.209033   1.000000   1.000000
      8         13.249917       14.655048   1.000000   0.000000
      9         14.148004       15.651833   1.000000   0.000000
     10         14.255803       15.726353   0.997627   0.000000
     11         16.467029       17.594320   0.000000   0.000000
     12         23.962947       24.459417   0.000000   0.000000
     13         24.827926       25.369839   0.000000   0.000000
     14         25.792317       26.349713   0.000000   0.000000
     15         27.775548       28.191297   0.000000   0.000000
     16         33.595464       33.811195   0.000000   0.000000
     17         34.476236       34.856797   0.000000   0.000000
     18         36.221987       36.595199   0.000000   0.000000
     19         37.281184       37.591393   0.000000   0.000000
     20         50.098329       50.414763   0.000000   0.000000
     21         50.668276       51.708145   0.000000   0.000000
     22         51.164574       52.775483   0.000000   0.000000
     23         51.727732       53.807086   0.000000   0.000000
     24         54.100237       55.210350   0.000000   0.000000
 
  0.3333333E+00  0.2500000E+00  0.0000000E+00  0.1041667E-01
      1          8.787959        9.750907   1.000000   1.000000
      2          9.246808       10.069540   1.000000   1.000000
      3          9.353921       10.164984   1.000000   1.000000
      4         10.036289       10.754156   1.000000   1.000000
      5         10.893087       12.059989   1.000000   1.000000
      6         11.259177       12.410010   1.000000   1.000000
      7         12.238067       13.477634   1.000000   1.000000
      8         13.657457       15.088725   1.000000   0.000000
      9         14.108533       15.608699   1.000000   0.000000
     10         14.175393       15.646355   1.000000   0.000000
     11         18.396888       19.277074   0.000000   0.000000
     12         21.528898       22.197993   0.000000   0.000000
     13         24.096797       24.600943   0.000000   0.000000
     14         28.146577       28.631056   0.000000   0.000000
     15         28.702414       29.081103   0.000000   0.000000
     16         31.356827       31.763195   0.000000   0.000000
     17         33.551988       33.859156   0.000000   0.000000
     18         33.931411       34.314242   0.000000   0.000000
     19         36.377562       36.702734   0.000000   0.000000
     20         50.313594       51.010011   0.000000   0.000000
     21         51.002481       53.535998   0.000000   0.000000
     22         51.545706       53.617474   0.000000   0.000000
     23         53.555574       53.860464   0.000000   0.000000
     24         55.474920       55.968206   0.000000   0.000000
 
  0.3333333E+00  0.3333333E+00  0.0000000E+00  0.1736111E-02
      1          8.786464        9.764583   1.000000   1.000000
      2          9.524445       10.355336   1.000000   1.000000
      3          9.524445       10.355337   1.000000   1.000000
      4          9.806184       10.557104   1.000000   1.000000
      5         11.008651       12.154052   1.000000   1.000000
      6         11.008651       12.154053   1.000000   1.000000
      7         12.378961       13.624838   1.000000   1.000000
      8         13.875568       15.326489   1.000000   0.000000
      9         13.875568       15.326490   1.000000   0.000000
     10         14.067725       15.564309   1.000000   0.000000
     11         20.216112       20.916799   0.000000   0.000000
     12         21.599495       22.254723   0.000000   0.000000
     13         21.599497       22.254727   0.000000   0.000000
     14         29.532871       29.902802   0.000000   0.000000
     15         30.494113       30.934824   0.000000   0.000000