PROCAR lm decomposed
# of k-points:   95         # of bands:   24         # of ions:    2

 k-point     1 :    0.00000000 0.00000000 0.00000000     weight = 0.00086806

band     1 # energy    3.89849243 # occ.  1.00000000
 
ion      s     py     pz     px    dxy    dyz    dz2    dxz  x2-y2    tot
    1  0.491  0.000  0.000  0.000  0.000  0.000  0.000  0.000  0.000  0.491
    2  0.491  0.000  0.000  0.000  0.000  0.000  0.000  0.000  0.000  0.491
tot    0.983  0.000  0.000  0.000  0.000  0.000  0.000  0.000  0.000  0.983
 
band     2 # energy    7.87835565 # occ.  1.00000000
 
ion      s     py     pz     px    dxy    dyz    dz2    dxz  x2-y2    tot
    1  0.107  0.000  0.000  0.000  0.000  0.000  0.400  0.000  0.000  0.507
    2  0.107  0.000  0.000  0.000  0.000  0.000  0.400  0.000  0.000  0.507
tot    0.214  0.000  0.000  0.000  0.000  0.000  0.800  0.000  0.000  1.014
 
band     3 # energy   11.38721878 # occ.  1.00000000
 
ion      s     py     pz     px    dxy    dyz    dz2    dxz  x2-y2    tot
    1  0.000  0.000  0.000  0.000  0.000  0.000  0.500  0.000  0.000  0.500
    2  0.000  0.000  0.000  0.000  0.000  0.000  0.500  0.000  0.000  0.500
tot    0.000  0.000  0.000  0.000  0.000  0.000  0.999  0.000  0.000  0.999
 
band     4 # energy   11.39322848 # occ.  1.00000000
 
ion      s     py     pz     px    dxy    dyz    dz2    dxz  x2-y2    tot
    1  0.000  0.000  0.000  0.001  0.494  0.000  0.000  0.000  0.000  0.495
    2  0.000  0.000  0.000  0.001  0.494  0.000  0.000  0.000  0.000  0.495
tot    0.000  0.000  0.000  0.002  0.989  0.000  0.000  0.000  0.000  0.991
 
band     5 # energy   11.39322905 # occ.  1.00000000
 
ion      s     py     pz     px    dxy    dyz    dz2    dxz  x2-y2    tot
    1  0.000  0.001  0.000  0.000  0.000  0.000  0.000  0.000  0.494  0.495
    2  0.000  0.001  0.000  0.000  0.000  0.000  0.000  0.000  0.494  0.495
tot    0.000  0.002  0.000  0.000  0.000  0.000  0.000  0.000  0.989  0.991
 
band     6 # energy   11.87922268 # occ.  1.00000000
 
ion      s     py     pz     px    dxy    dyz    dz2    dxz  x2-y2    tot
    1  0.000  0.000  0.000  0.001  0.497  0.000  0.000  0.000  0.000  0.498
    2  0.000  0.000  0.000  0.001  0.497  0.000  0.000  0.000  0.000  0.498
tot    0.000  0.000  0.000  0.003  0.993  0.000  0.000  0.000  0.000  0.996
 
band     7 # energy   11.87922310 # occ.  1.00000000
 
ion      s     py     pz     px    dxy    dyz    dz2    dxz  x2-y2    tot
    1  0.000  0.001  0.000  0.000  0.000  0.000  0.000  0.000  0.497  0.498
    2  0.000  0.001  0.000  0.000  0.000  0.000  0.000  0.000  0.497  0.498
tot    0.000  0.003  0.000  0.000  0.000  0.000  0.000  0.000  0.993  0.996
 
band     8 # energy   12.39105049 # occ.  1.00000000
 
ion      s     py     pz     px    dxy    dyz    dz2    dxz  x2-y2    tot
    1  0.000  0.000  0.000  0.000  0.000  0.497  0.000  0.000  0.000  0.497
    2  0.000  0.000  0.000  0.000  0.000  0.497  0.000  0.000  0.000  0.497
tot    0.000  0.000  0.000  0.000  0.000  0.994  0.000  0.000  0.000  0.994
 
band     9 # energy   12.39105077 # occ.  1.00000000
 
ion      s     py     pz     px    dxy    dyz    dz2    dxz  x2-y2    tot
    1  0.000  0.000  0.000  0.000  0.000  0.000  0.000  0.497  0.000  0.497
    2  0.000  0.000  0.000  0.000  0.000  0.000  0.000  0.497  0.000  0.497
tot    0.000  0.000  0.000  0.000  0.000  0.000  0.000  0.994  0.000  0.994
 
band    10 # energy   14.03236961 # occ.  1.00000000
 
ion      s     py     pz     px    dxy    dyz    dz2    dxz  x2-y2    tot
    1  0.000  0.000  0.000  0.000  0.000  0.492  0.000  0.000  0.000  0.492
    2  0.000  0.000  0.000  0.000  0.000  0.492  0.000  0.000  0.000  0.492
tot    0.000  0.000  0.000  0.000  0.000  0.985  0.000  0.000  0.000  0.985
 
band    11 # energy   14.03236984 # occ.  1.00000000
 
ion      s     py     pz     px    dxy    dyz    dz2    dxz  x2-y2    tot
    1  0.000  0.000  0.000  0.000  0.000  0.000  0.000  0.492  0.000  0.492
    2  0.000  0.000  0.000  0.000  0.000  0.000  0.000  0.492  0.000  0.492
tot    0.000  0.000  0.000  0.000  0.000  0.000  0.000  0.985  0.000  0.985
 
band    12 # energy   14.26461125 # occ.  0.99498269
 
ion      s     py     pz     px    dxy    dyz    dz2    dxz  x2-y2    tot
    1  0.000  0.000  0.475  0.000  0.000  0.000  0.000  0.000  0.000  0.475
    2  0.000  0.000  0.475  0.000  0.000  0.000  0.000  0.000  0.000  0.475
tot    0.000  0.000  0.950  0.000  0.000  0.000  0.000  0.000  0.000  0.950
 
band    13 # energy   23.42211490 # occ.  0.00000000
 
ion      s     py     pz     px    dxy    dyz    dz2    dxz  x2-y2    tot
    1  0.239  0.000  0.000  0.000  0.000  0.000  0.295  0.000  0.000  0.535
    2  0.239  0.000  0.000  0.000  0.000  0.000  0.295  0.000  0.000  0.535
tot    0.478  0.000  0.000  0.000  0.000  0.000  0.591  0.000  0.000  1.069
 
band    14 # energy   38.39783060 # occ.  0.00000000
 
ion      s     py     pz     px    dxy    dyz    dz2    dxz  x2-y2    tot
    1  0.007  0.000  0.000  0.000  0.000  0.000  0.034  0.000  0.000  0.041
    2  0.007  0.000  0.000  0.000  0.000  0.000  0.034  0.000  0.000  0.041
tot    0.015  0.000  0.000  0.000  0.000  0.000  0.068  0.000  0.000  0.083
 
band    15 # energy   42.36040000 # occ.  0.00000000
 
ion      s     py     pz     px    dxy    dyz    dz2    dxz  x2-y2    tot
    1  0.021  0.000  0.000  0.000  0.000  0.000  0.081  0.000  0.000  0.102
    2  0.021  0.000  0.000  0.000  0.000  0.000  0.081  0.000  0.000  0.102
tot    0.042  0.000  0.000  0.000  0.000  0.000  0.162  0.000  0.000  0.204
 
band    16 # energy   42.57907124 # occ.  0.00000000
 
ion      s     py     pz     px    dxy    dyz    dz2    dxz  x2-y2    tot
    1  0.000  0.000  0.017  0.000  0.000  0.000  0.000  0.000  0.000  0.017
    2  0.000  0.000  0.017  0.000  0.000  0.000  0.000  0.000  0.000  0.017
tot    0.000  0.000  0.034  0.000  0.000  0.000  0.000  0.000  0.000  0.034
 
band    17 # energy   43.93635484 # occ.  0.00000000
 
ion      s     py     pz     px    dxy    dyz    dz2    dxz  x2-y2    tot
    1  0.000  0.000  0.000  0.256  0.203  0.000  0.000  0.000  0.000  0.459
    2  0.000  0.000  0.000  0.256  0.203  0.000  0.000  0.000  0.000  0.459
tot    0.000  0.000  0.000  0.513  0.406  0.000  0.000  0.000  0.000  0.919
 
band    18 # energy   43.93635623 # occ.  0.00000000
 
ion      s     py     pz     px    dxy    dyz    dz2    dxz  x2-y2    tot
    1  0.000  0.256  0.000  0.000  0.000  0.000  0.000  0.000  0.203  0.459
    2  0.000  0.256  0.000  0.000  0.000  0.000  0.000  0.000  0.203  0.459
tot    0.000  0.513  0.000  0.000  0.000  0.000  0.000  0.000  0.406  0.919
 
band    19 # energy   45.00976823 # occ.  0.00000000
 
ion      s     py     pz     px    dxy    dyz    dz2    dxz  x2-y2    tot
    1  0.000  0.000  0.000  0.074  0.567  0.000  0.000  0.000  0.000  0.641
    2  0.000  0.000  0.000  0.074  0.567  0.000  0.000  0.000  0.000  0.641
tot    0.000  0.000  0.000  0.148  1.135  0.000  0.000  0.000  0.000  1.283
 
band    20 # energy   45.00977240 # occ.  0.00000000
 
ion      s     py     pz     px    dxy    dyz    dz2    dxz  x2-y2    tot
    1  0.000  0.074  0.000  0.000  0.000  0.000  0.000  0.000  0.567  0.641
    2  0.000  0.074  0.000  0.000  0.000  0.000  0.000  0.000  0.567  0.641
tot    0.000  0.148  0.000  0.000  0.000  0.000  0.000  0.000  1.135  1.283
 
band    21 # energy   48.73631837 # occ.  0.00000000
 
ion      s     py     pz     px    dxy    dyz    dz2    dxz  x2-y2    tot
    1  0.000  0.000  0.000  0.000  0.000  0.000  0.000  0.174  0.000  0.174
    2  0.000  0.000  0.000  0.000  0.000  0.000  0.000  0.174  0.000  0.174
tot    0.000  0.000  0.000  0.000  0.000  0.000  0.000  0.347  0.000  0.347
 
band    22 # energy   48.73631949 # occ.  0.00000000
 
ion      s     py     pz     px    dxy    dyz    dz2    dxz  x2-y2    tot
    1  0.000  0.000  0.000  0.000  0.000  0.174  0.000  0.000  0.000  0.174
    2  0.000  0.000  0.000  0.000  0.000  0.174  0.000  0.000  0.000  0.174
tot    0.000  0.000  0.000  0.000  0.000  0.347  0.000  0.000  0.000  0.347
 
band    23 # energy   50.43409834 # occ.  0.00000000
 
ion      s     py     pz     px    dxy    dyz    dz2    dxz  x2-y2    tot
    1  0.000  0.000  0.055  0.000  0.000  0.000  0.000  0.000  0.000  0.055
    2  0.000  0.000  0.055  0.000  0.000  0.000  0.000  0.000  0.000  0.055
tot    0.000  0.000  0.110  0.000  0.000  0.000  0.000  0.000  0.000  0.110
 
band    24 # energy   50.88631188 # occ.  0.00000000
 
ion      s     py     pz     px    dxy    dyz    dz2    dxz  x2-y2    tot
    1  2.869  0.000  0.000  0.000  0.000  0.000  0.066  0.000  0.000  2.935
    2  2.869  0.000  0.000  0.000  0.000  0.000  0.066  0.000  0.000  2.935
tot    5.737  0.000  0.000  0.000  0.000  0.000  0.133  0.000  0.000  5.870
 

 k-point     2 :    0.08333333 0.00000000 0.00000000     weight = 0.00520833

band     1 # energy    4.19512066 # occ.  1.00000000
 
ion      s     py     pz     px    dxy    dyz    dz2    dxz  x2-y2    tot
    1  0.478  0.003  0.000  0.010  0.000  0.000  0.000  0.000  0.000  0.492
    2  0.478  0.003  0.000  0.010  0.000  0.000  0.000  0.000  0.000  0.492
tot    0.957  0.007  0.000  0.020  0.000  0.000  0.000  0.000  0.000  0.983
 
band     2 # energy    8.06846385 # occ.  1.00000000
 
ion      s     py     pz     px    dxy    dyz    dz2    dxz  x2-y2    tot
    1  0.097  0.002  0.000  0.006  0.002  0.000  0.398  0.000  0.001  0.507
    2  0.097  0.002  0.000  0.006  0.002  0.000  0.398  0.000  0.001  0.507
tot    0.194  0.004  0.000  0.012  0.005  0.000  0.796  0.000  0.002  1.013
 
band     3 # energy   11.04133429 # occ.  1.00000000
 
ion      s     py     pz     px    dxy    dyz    dz2    dxz  x2-y2    tot
    1  0.000  0.001  0.000  0.002  0.247  0.000  0.164  0.000  0.082  0.496
    2  0.000  0.001  0.000  0.002  0.247  0.000  0.164  0.000  0.082  0.496
tot    0.000  0.001  0.000  0.003  0.494  0.000  0.328  0.000  0.165  0.992
 
band     4 # energy   11.55939109 # occ.  1.00000000
 
ion      s     py     pz     px    dxy    dyz    dz2    dxz  x2-y2    tot
    1  0.000  0.001  0.000  0.000  0.123  0.000  0.000  0.000  0.369  0.494
    2  0.000  0.001  0.000  0.000  0.123  0.000  0.000  0.000  0.369  0.494
tot    0.000  0.003  0.000  0.001  0.246  0.000  0.000  0.000  0.739  0.989
 
band     5 # energy   11.67525554 # occ.  1.00000000
 
ion      s     py     pz     px    dxy    dyz    dz2    dxz  x2-y2    tot
    1  0.000  0.000  0.000  0.001  0.148  0.000  0.299  0.000  0.049  0.497
    2  0.000  0.000  0.000  0.001  0.148  0.000  0.299  0.000  0.049  0.497
tot    0.000  0.000  0.000  0.001  0.296  0.000  0.598  0.000  0.099  0.995
 
band     6 # energy   11.80745338 # occ.  1.00000000
 
ion      s     py     pz     px    dxy    dyz    dz2    dxz  x2-y2    tot
    1  0.002  0.000  0.000  0.001  0.342  0.000  0.037  0.000  0.114  0.497
    2  0.002  0.000  0.000  0.001  0.342  0.000  0.037  0.000  0.114  0.497
tot    0.003  0.001  0.000  0.002  0.685  0.000  0.075  0.000  0.228  0.994
 
band     7 # energy   12.02639827 # occ.  1.00000000
 
ion      s     py     pz     px    dxy    dyz    dz2    dxz  x2-y2    tot
    1  0.000  0.002  0.000  0.001  0.124  0.000  0.000  0.000  0.371  0.497
    2  0.000  0.002  0.000  0.001  0.124  0.000  0.000  0.000  0.371  0.497
tot    0.000  0.003  0.000  0.001  0.248  0.000  0.000  0.000  0.743  0.994
 
band     8 # energy   12.13520156 # occ.  1.00000000
 
ion      s     py     pz     px    dxy    dyz    dz2    dxz  x2-y2    tot
    1  0.000  0.000  0.034  0.000  0.000  0.115  0.000  0.344  0.000  0.492
    2  0.000  0.000  0.034  0.000  0.000  0.115  0.000  0.344  0.000  0.492
tot    0.000  0.000  0.068  0.000  0.000  0.229  0.000  0.688  0.000  0.985
 
band     9 # energy   12.28143909 # occ.  1.00000000
 
ion      s     py     pz     px    dxy    dyz    dz2    dxz  x2-y2    tot
    1  0.000  0.000  0.000  0.000  0.000  0.372  0.000  0.124  0.000  0.496
    2  0.000  0.000  0.000  0.000  0.000  0.372  0.000  0.124  0.000  0.496
tot    0.000  0.000  0.000  0.000  0.000  0.744  0.000  0.248  0.000  0.992
 
band    10 # energy   12.74549165 # occ.  1.00000000
 
ion      s     py     pz     px    dxy    dyz    dz2    dxz  x2-y2    tot
    1  0.000  0.000  0.157  0.000  0.000  0.082  0.000  0.247  0.000  0.487
    2  0.000  0.000  0.157  0.000  0.000  0.082  0.000  0.247  0.000  0.487
tot    0.000  0.000  0.314  0.000  0.000  0.165  0.000  0.495  0.000  0.973
 
band    11 # energy   14.08137664 # occ.  1.00000000
 
ion      s     py     pz     px    dxy    dyz    dz2    dxz  x2-y2    tot
    1  0.000  0.000  0.000  0.000  0.000  0.370  0.000  0.123  0.000  0.493
    2  0.000  0.000  0.000  0.000  0.000  0.370  0.000  0.123  0.000  0.493
tot    0.000  0.000  0.000  0.000  0.000  0.740  0.000  0.247  0.000  0.987
 
band    12 # energy   15.96708430 # occ.  0.00000000
 
ion      s     py     pz     px    dxy    dyz    dz2    dxz  x2-y2    tot
    1  0.000  0.000  0.278  0.000  0.000  0.052  0.000  0.157  0.000  0.487
    2  0.000  0.000  0.278  0.000  0.000  0.052  0.000  0.157  0.000  0.487
tot    0.000  0.000  0.556  0.000  0.000  0.105  0.000  0.314  0.000  0.975
 
band    13 # energy   23.44194886 # occ.  0.00000000
 
ion      s     py     pz     px    dxy    dyz    dz2    dxz  x2-y2    tot
    1  0.234  0.002  0.000  0.007  0.000  0.000  0.289  0.000  0.000  0.532
    2  0.234  0.002  0.000  0.007  0.000  0.000  0.289  0.000  0.000  0.532
tot    0.468  0.005  0.000  0.014  0.000  0.000  0.577  0.000  0.000  1.065
 
band    14 # energy   37.33862957 # occ.  0.00000000
 
ion      s     py     pz     px    dxy    dyz    dz2    dxz  x2-y2    tot
    1  0.011  0.010  0.000  0.030  0.122  0.000  0.031  0.000  0.041  0.244
    2  0.011  0.010  0.000  0.030  0.122  0.000  0.031  0.000  0.041  0.244
tot    0.022  0.020  0.000  0.060  0.244  0.000  0.062  0.000  0.081  0.488
 
band    15 # energy   40.33832224 # occ.  0.00000000
 
ion      s     py     pz     px    dxy    dyz    dz2    dxz  x2-y2    tot
    1  0.026  0.025  0.000  0.074  0.108  0.000  0.054  0.000  0.036  0.323
    2  0.026  0.025  0.000  0.074  0.108  0.000  0.054  0.000  0.036  0.323
tot    0.052  0.049  0.000  0.148  0.217  0.000  0.108  0.000  0.072  0.646
 
band    16 # energy   41.28420791 # occ.  0.00000000
 
ion      s     py     pz     px    dxy    dyz    dz2    dxz  x2-y2    tot
    1  0.000  0.169  0.000  0.056  0.068  0.000  0.000  0.000  0.203  0.496
    2  0.000  0.169  0.000  0.056  0.068  0.000  0.000  0.000  0.203  0.496
tot    0.000  0.337  0.000  0.112  0.136  0.000  0.000  0.000  0.407  0.992
 
band    17 # energy   42.64515842 # occ.  0.00000000
 
ion      s     py     pz     px    dxy    dyz    dz2    dxz  x2-y2    tot
    1  0.000  0.000  0.007  0.000  0.000  0.013  0.000  0.039  0.000  0.059
    2  0.000  0.000  0.007  0.000  0.000  0.013  0.000  0.039  0.000  0.059
tot    0.000  0.000  0.015  0.000  0.000  0.026  0.000  0.077  0.000  0.118
 
band    18 # energy   43.89215303 # occ.  0.00000000
 
ion      s     py     pz     px    dxy    dyz    dz2    dxz  x2-y2    tot
    1  0.001  0.024  0.000  0.071  0.063  0.000  0.027  0.000  0.021  0.207
    2  0.001  0.024  0.000  0.071  0.063  0.000  0.027  0.000  0.021  0.207
tot    0.002  0.048  0.000  0.143  0.126  0.000  0.053  0.000  0.042  0.413
 
band    19 # energy   45.21588884 # occ.  0.00000000
 
ion      s     py     pz     px    dxy    dyz    dz2    dxz  x2-y2    tot
    1  0.000  0.000  0.028  0.000  0.000  0.035  0.000  0.104  0.000  0.166
    2  0.000  0.000  0.028  0.000  0.000  0.035  0.000  0.104  0.000  0.166
tot    0.000  0.000  0.055  0.000  0.000  0.069  0.000  0.208  0.000  0.333
 
band    20 # energy   47.79742042 # occ.  0.00000000
 
ion      s     py     pz     px    dxy    dyz    dz2    dxz  x2-y2    tot
    1  0.000  0.067  0.000  0.022  0.132  0.000  0.000  0.000  0.396  0.617
    2  0.000  0.067  0.000  0.022  0.132  0.000  0.000  0.000  0.396  0.617
tot    0.000  0.134  0.000  0.045  0.264  0.000  0.000  0.000  0.792  1.235
 
band    21 # energy   48.45978959 # occ.  0.00000000
 
ion      s     py     pz     px    dxy    dyz    dz2    dxz  x2-y2    tot
    1  0.000  0.000  0.000  0.000  0.000  0.214  0.000  0.071  0.000  0.286
    2  0.000  0.000  0.000  0.000  0.000  0.214  0.000  0.071  0.000  0.286
tot    0.000  0.000  0.000  0.000  0.000  0.429  0.000  0.143  0.000  0.572
 
band    22 # energy   48.50627642 # occ.  0.00000000
 
ion      s     py     pz     px    dxy    dyz    dz2    dxz  x2-y2    tot
    1  0.034  0.028  0.000  0.083  0.264  0.000  0.003  0.000  0.088  0.499
    2  0.034  0.028  0.000  0.083  0.264  0.000  0.003  0.000  0.088  0.499
tot    0.068  0.055  0.000  0.166  0.528  0.000  0.006  0.000  0.176  0.999
 
band    23 # energy   50.85362899 # occ.  0.00000000
 
ion      s     py     pz     px    dxy    dyz    dz2    dxz  x2-y2    tot
    1  2.994  0.001  0.000  0.002  0.015  0.000  0.004  0.000  0.005  3.021
    2  2.994  0.001  0.000  0.002  0.015  0.000  0.004  0.000  0.005  3.021
tot    5.988  0.001  0.000  0.004  0.030  0.000  0.008  0.000  0.010  6.043
 
band    24 # energy   50.89720868 # occ.  0.00000000
 
ion      s     py     pz     px    dxy    dyz    dz2    dxz  x2-y2    tot
    1  2.348  0.001  0.000  0.004  0.023  0.000  0.163  0.000  0.008  2.547
    2  2.348  0.001  0.000  0.004  0.023  0.000  0.163  0.000  0.008  2.547
tot    4.696  0.003  0.000  0.009  0.046  0.000  0.326  0.000  0.015  5.094
 

 k-point     3 :    0.16666667 0.00000000 0.00000000     weight = 0.00520833

band     1 # energy    5.04199227 # occ.  1.00000000
 
ion      s     py     pz     px    dxy    dyz    dz2    dxz  x2-y2    tot
    1  0.439  0.012  0.000  0.036  0.003  0.000  0.001  0.000  0.001  0.493
    2  0.439  0.012  0.000  0.036  0.003  0.000  0.001  0.000  0.001  0.493
tot    0.878  0.024  0.000  0.072  0.006  0.000  0.003  0.000  0.002  0.985
 
band     2 # energy    8.53114067 # occ.  1.00000000
 
ion      s     py     pz     px    dxy    dyz    dz2    dxz  x2-y2    tot
    1  0.069  0.006  0.000  0.019  0.023  0.000  0.380  0.000  0.008  0.505
    2  0.069  0.006  0.000  0.019  0.023  0.000  0.380  0.000  0.008  0.505
tot    0.138  0.013  0.000  0.038  0.046  0.000  0.761  0.000  0.015  1.011
 
band     3 # energy   10.62047619 # occ.  1.00000000
 
ion      s     py     pz     px    dxy    dyz    dz2    dxz  x2-y2    tot
    1  0.001  0.003  0.000  0.008  0.274  0.000  0.117  0.000  0.091  0.493
    2  0.001  0.003  0.000  0.008  0.274  0.000  0.117  0.000  0.091  0.493
tot    0.001  0.005  0.000  0.015  0.548  0.000  0.235  0.000  0.183  0.986
 
band     4 # energy   11.04837094 # occ.  1.00000000
 
ion      s     py     pz     px    dxy    dyz    dz2    dxz  x2-y2    tot
    1  0.000  0.000  0.106  0.000  0.000  0.094  0.000  0.283  0.000  0.484
    2  0.000  0.000  0.106  0.000  0.000  0.094  0.000  0.283  0.000  0.484
tot    0.000  0.000  0.213  0.000  0.000  0.189  0.000  0.567  0.000  0.969
 
band     5 # energy   11.54993762 # occ.  1.00000000
 
ion      s     py     pz     px    dxy    dyz    dz2    dxz  x2-y2    tot
    1  0.007  0.001  0.000  0.003  0.319  0.000  0.061  0.000  0.106  0.496
    2  0.007  0.001  0.000  0.003  0.319  0.000  0.061  0.000  0.106  0.496
tot    0.013  0.002  0.000  0.005  0.638  0.000  0.121  0.000  0.213  0.992
 
band     6 # energy   12.01396930 # occ.  1.00000000
 
ion      s     py     pz     px    dxy    dyz    dz2    dxz  x2-y2    tot
    1  0.000  0.000  0.000  0.000  0.000  0.372  0.000  0.124  0.000  0.495
    2  0.000  0.000  0.000  0.000  0.000  0.372  0.000  0.124  0.000  0.495
tot    0.000  0.000  0.000  0.000  0.000  0.743  0.000  0.248  0.000  0.991
 
band     7 # energy   12.02986719 # occ.  1.00000000
 
ion      s     py     pz     px    dxy    dyz    dz2    dxz  x2-y2    tot
    1  0.000  0.003  0.000  0.001  0.122  0.000  0.000  0.000  0.366  0.492
    2  0.000  0.003  0.000  0.001  0.122  0.000  0.000  0.000  0.366  0.492
tot    0.000  0.005  0.000  0.002  0.244  0.000  0.000  0.000  0.733  0.984
 
band     8 # energy   12.12518241 # occ.  1.00000000
 
ion      s     py     pz     px    dxy    dyz    dz2    dxz  x2-y2    tot
    1  0.002  0.001  0.000  0.002  0.113  0.000  0.339  0.000  0.038  0.495
    2  0.002  0.001  0.000  0.002  0.113  0.000  0.339  0.000  0.038  0.495
tot    0.005  0.001  0.000  0.004  0.227  0.000  0.678  0.000  0.076  0.990
 
band     9 # energy   12.29622567 # occ.  1.00000000
 
ion      s     py     pz     px    dxy    dyz    dz2    dxz  x2-y2    tot
    1  0.000  0.000  0.057  0.000  0.000  0.109  0.000  0.327  0.000  0.494
    2  0.000  0.000  0.057  0.000  0.000  0.109  0.000  0.327  0.000  0.494
tot    0.000  0.000  0.115  0.000  0.000  0.218  0.000  0.654  0.000  0.987
 
band    10 # energy   12.44005025 # occ.  1.00000000
 
ion      s     py     pz     px    dxy    dyz    dz2    dxz  x2-y2    tot
    1  0.000  0.003  0.000  0.001  0.123  0.000  0.000  0.000  0.369  0.496
    2  0.000  0.003  0.000  0.001  0.123  0.000  0.000  0.000  0.369  0.496
tot    0.000  0.006  0.000  0.002  0.246  0.000  0.000  0.000  0.738  0.991
 
band    11 # energy   14.18482076 # occ.  0.99999932
 
ion      s     py     pz     px    dxy    dyz    dz2    dxz  x2-y2    tot
    1  0.000  0.000  0.000  0.000  0.000  0.371  0.000  0.124  0.000  0.495
    2  0.000  0.000  0.000  0.000  0.000  0.371  0.000  0.124  0.000  0.495
tot    0.000  0.000  0.000  0.000  0.000  0.742  0.000  0.247  0.000  0.990
 
band    12 # energy   18.00211061 # occ.  0.00000000
 
ion      s     py     pz     px    dxy    dyz    dz2    dxz  x2-y2    tot
    1  0.000  0.000  0.288  0.000  0.000  0.052  0.000  0.155  0.000  0.494
    2  0.000  0.000  0.288  0.000  0.000  0.052  0.000  0.155  0.000  0.494
tot    0.000  0.000  0.576  0.000  0.000  0.103  0.000  0.310  0.000  0.989
 
band    13 # energy   23.52020354 # occ.  0.00000000
 
ion      s     py     pz     px    dxy    dyz    dz2    dxz  x2-y2    tot
    1  0.215  0.010  0.000  0.031  0.001  0.000  0.269  0.000  0.000  0.527
    2  0.215  0.010  0.000  0.031  0.001  0.000  0.269  0.000  0.000  0.527
tot    0.431  0.021  0.000  0.063  0.001  0.000  0.537  0.000  0.000  1.053
 
band    14 # energy   33.87505840 # occ.  0.00000000
 
ion      s     py     pz     px    dxy    dyz    dz2    dxz  x2-y2    tot
    1  0.040  0.033  0.000  0.100  0.185  0.000  0.029  0.000  0.062  0.448
    2  0.040  0.033  0.000  0.100  0.185  0.000  0.029  0.000  0.062  0.448
tot    0.079  0.066  0.000  0.199  0.370  0.000  0.058  0.000  0.123  0.896
 
band    15 # energy   38.42539765 # occ.  0.00000000
 
ion      s     py     pz     px    dxy    dyz    dz2    dxz  x2-y2    tot
    1  0.000  0.195  0.000  0.065  0.051  0.000  0.000  0.000  0.154  0.465
    2  0.000  0.195  0.000  0.065  0.051  0.000  0.000  0.000  0.154  0.465
tot    0.000  0.389  0.000  0.130  0.103  0.000  0.000  0.000  0.309  0.931
 
band    16 # energy   39.10277167 # occ.  0.00000000
 
ion      s     py     pz     px    dxy    dyz    dz2    dxz  x2-y2    tot
    1  0.024  0.008  0.000  0.025  0.183  0.000  0.060  0.000  0.061  0.361
    2  0.024  0.008  0.000  0.025  0.183  0.000  0.060  0.000  0.061  0.361
tot    0.048  0.016  0.000  0.049  0.366  0.000  0.120  0.000  0.122  0.723
 
band    17 # energy   41.04646500 # occ.  0.00000000
 
ion      s     py     pz     px    dxy    dyz    dz2    dxz  x2-y2    tot
    1  0.000  0.000  0.035  0.000  0.000  0.067  0.000  0.200  0.000  0.303
    2  0.000  0.000  0.035  0.000  0.000  0.067  0.000  0.200  0.000  0.303
tot    0.000  0.000  0.071  0.000  0.000  0.134  0.000  0.401  0.000  0.605
 
band    18 # energy   42.80851476 # occ.  0.00000000
 
ion      s     py     pz     px    dxy    dyz    dz2    dxz  x2-y2    tot
    1  0.000  0.000  0.008  0.000  0.000  0.017  0.000  0.052  0.000  0.078
    2  0.000  0.000  0.008  0.000  0.000  0.017  0.000  0.052  0.000  0.078
tot    0.000  0.000  0.016  0.000  0.000  0.035  0.000  0.105  0.000  0.155
 
band    19 # energy   44.99973938 # occ.  0.00000000
 
ion      s     py     pz     px    dxy    dyz    dz2    dxz  x2-y2    tot
    1  0.018  0.026  0.000  0.077  0.047  0.000  0.017  0.000  0.016  0.200
    2  0.018  0.026  0.000  0.077  0.047  0.000  0.017  0.000  0.016  0.200
tot    0.037  0.051  0.000  0.154  0.093  0.000  0.034  0.000  0.031  0.401
 
band    20 # energy   47.94822293 # occ.  0.00000000
 
ion      s     py     pz     px    dxy    dyz    dz2    dxz  x2-y2    tot
    1  0.000  0.000  0.000  0.000  0.000  0.350  0.000  0.117  0.000  0.467
    2  0.000  0.000  0.000  0.000  0.000  0.350  0.000  0.117  0.000  0.467
tot    0.000  0.000  0.000  0.000  0.000  0.701  0.000  0.234  0.000  0.934
 
band    21 # energy   48.61056965 # occ.  0.00000000
 
ion      s     py     pz     px    dxy    dyz    dz2    dxz  x2-y2    tot
    1  0.340  0.043  0.000  0.128  0.006  0.000  0.249  0.000  0.002  0.768
    2  0.340  0.043  0.000  0.128  0.006  0.000  0.249  0.000  0.002  0.768
tot    0.680  0.085  0.000  0.256  0.012  0.000  0.498  0.000  0.004  1.535
 
band    22 # energy   49.73592984 # occ.  0.00000000
 
ion      s     py     pz     px    dxy    dyz    dz2    dxz  x2-y2    tot
    1  0.000  0.000  0.213  0.000  0.000  0.024  0.000  0.073  0.000  0.311
    2  0.000  0.000  0.213  0.000  0.000  0.024  0.000  0.073  0.000  0.311
tot    0.000  0.000  0.426  0.000  0.000  0.049  0.000  0.146  0.000  0.621
 
band    23 # energy   50.07680717 # occ.  0.00000000
 
ion      s     py     pz     px    dxy    dyz    dz2    dxz  x2-y2    tot
    1  0.000  0.018  0.000  0.006  0.165  0.000  0.000  0.000  0.495  0.685
    2  0.000  0.018  0.000  0.006  0.165  0.000  0.000  0.000  0.495  0.685
tot    0.000  0.036  0.000  0.012  0.330  0.000  0.000  0.000  0.991  1.369
 
band    24 # energy   50.84992671 # occ.  0.00000000
 
ion      s     py     pz     px    dxy    dyz    dz2    dxz  x2-y2    tot
    1  2.953  0.000  0.000  0.000  0.012  0.000  0.018  0.000  0.004  2.987
    2  2.953  0.000  0.000  0.000  0.012  0.000  0.018  0.000  0.004  2.987
tot    5.907  0.000  0.000  0.000  0.024  0.000  0.036  0.000  0.008  5.974
 

 k-point     4 :    0.25000000 0.00000000 0.00000000     weight = 0.00520833

band     1 # energy    6.27988167 # occ.  1.00000000
 
ion      s     py     pz     px    dxy    dyz    dz2    dxz  x2-y2    tot
    1  0.370  0.023  0.000  0.068  0.021  0.000  0.007  0.000  0.007  0.495
    2  0.370  0.023  0.000  0.068  0.021  0.000  0.007  0.000  0.007  0.495
tot    0.740  0.045  0.000  0.135  0.041  0.000  0.014  0.000  0.014  0.989
 
band     2 # energy    8.86636818 # occ.  1.00000000
 
ion      s     py     pz     px    dxy    dyz    dz2    dxz  x2-y2    tot
    1  0.035  0.006  0.000  0.018  0.118  0.000  0.287  0.000  0.039  0.504
    2  0.035  0.006  0.000  0.018  0.118  0.000  0.287  0.000  0.039  0.504
tot    0.070  0.012  0.000  0.036  0.236  0.000  0.574  0.000  0.079  1.007
 
band     3 # energy   10.00466091 # occ.  1.00000000
 
ion      s     py     pz     px    dxy    dyz    dz2    dxz  x2-y2    tot
    1  0.000  0.000  0.084  0.000  0.000  0.100  0.000  0.300  0.000  0.484
    2  0.000  0.000  0.084  0.000  0.000  0.100  0.000  0.300  0.000  0.484
tot    0.000  0.000  0.169  0.000  0.000  0.200  0.000  0.600  0.000  0.968
 
band     4 # energy   10.37346731 # occ.  1.00000000
 
ion      s     py     pz     px    dxy    dyz    dz2    dxz  x2-y2    tot
    1  0.001  0.012  0.000  0.035  0.232  0.000  0.134  0.000  0.077  0.491
    2  0.001  0.012  0.000  0.035  0.232  0.000  0.134  0.000  0.077  0.491
tot    0.003  0.023  0.000  0.070  0.464  0.000  0.268  0.000  0.155  0.982
 
band     5 # energy   11.42021769 # occ.  1.00000000
 
ion      s     py     pz     px    dxy    dyz    dz2    dxz  x2-y2    tot
    1  0.015  0.002  0.000  0.007  0.251  0.000  0.135  0.000  0.084  0.496
    2  0.015  0.002  0.000  0.007  0.251  0.000  0.135  0.000  0.084  0.496
tot    0.031  0.005  0.000  0.015  0.502  0.000  0.271  0.000  0.167  0.991
 
band     6 # energy   11.69611255 # occ.  1.00000000
 
ion      s     py     pz     px    dxy    dyz    dz2    dxz  x2-y2    tot
    1  0.000  0.000  0.000  0.000  0.000  0.372  0.000  0.124  0.000  0.495
    2  0.000  0.000  0.000  0.000  0.000  0.372  0.000  0.124  0.000  0.495
tot    0.000  0.000  0.000  0.000  0.000  0.743  0.000  0.248  0.000  0.991
 
band     7 # energy   12.01289943 # occ.  1.00000000
 
ion      s     py     pz     px    dxy    dyz    dz2    dxz  x2-y2    tot
    1  0.000  0.000  0.048  0.000  0.000  0.112  0.000  0.335  0.000  0.494
    2  0.000  0.000  0.048  0.000  0.000  0.112  0.000  0.335  0.000  0.494
tot    0.000  0.000  0.096  0.000  0.000  0.223  0.000  0.670  0.000  0.989
 
band     8 # energy   12.71663184 # occ.  1.00000000
 
ion      s     py     pz     px    dxy    dyz    dz2    dxz  x2-y2    tot
    1  0.000  0.003  0.000  0.001  0.122  0.000  0.000  0.000  0.365  0.491
    2  0.000  0.003  0.000  0.001  0.122  0.000  0.000  0.000  0.365  0.491
tot    0.000  0.006  0.000  0.002  0.243  0.000  0.000  0.000  0.729  0.981
 
band     9 # energy   12.75597695 # occ.  1.00000000
 
ion      s     py     pz     px    dxy    dyz    dz2    dxz  x2-y2    tot
    1  0.008  0.003  0.000  0.009  0.100  0.000  0.340  0.000  0.033  0.494
    2  0.008  0.003  0.000  0.009  0.100  0.000  0.340  0.000  0.033  0.494
tot    0.017  0.006  0.000  0.018  0.200  0.000  0.680  0.000  0.067  0.988
 
band    10 # energy   13.03801065 # occ.  1.00000000
 
ion      s     py     pz     px    dxy    dyz    dz2    dxz  x2-y2    tot
    1  0.000  0.004  0.000  0.001  0.122  0.000  0.000  0.000  0.367  0.495
    2  0.000  0.004  0.000  0.001  0.122  0.000  0.000  0.000  0.367  0.495
tot    0.000  0.008  0.000  0.003  0.245  0.000  0.000  0.000  0.734  0.989
 
band    11 # energy   14.28185499 # occ.  0.98155174
 
ion      s     py     pz     px    dxy    dyz    dz2    dxz  x2-y2    tot