Pt-hcc                                  
   1.00000000000000     
     2.780502    0.000000    0.000000
    -1.390251    2.407985    0.000000
     0.000000    0.000000    4.817155
   Pt
     2
Direct
  0.000000  0.000000  0.000000
  0.333333  0.666667  0.500000
 
   40   40   72
  282.33      281.99      280.31      275.62      265.82      249.28      225.51      195.59      162.02      128.07    
  96.958      71.004      51.237      37.357      28.110      21.842      17.577      14.825      13.151      12.267    
  11.988      12.267      13.151      14.825      17.577      21.843      28.107      37.360      51.236      71.004    
  96.958      128.08      162.02      195.59      225.51      249.28      265.82      275.62      280.31      281.99    
  281.99      281.99      280.97      277.75      270.41      257.05      236.62      209.44      177.37      143.38    
  110.77      82.321      59.705      43.215      32.008      24.520      19.379      15.962      13.816      12.577    
  12.015      12.014      12.578      13.815      15.964      19.377      24.523      32.008      43.214      59.706    
  82.321      110.77      143.38      177.38      209.44      236.62      257.05      270.41      277.75      280.97    
  280.31      280.98      280.31      277.75      271.80      260.69      243.04      218.63      188.67      155.63    
  122.64      92.708      67.938      49.186      36.058      27.279      21.275      17.185      14.543      12.933    
  12.081      11.812      12.080      12.933      14.542      17.186      21.275      27.277      36.061      49.184    
  67.940      92.707      122.64      155.62      188.67      218.63      243.04      260.69      271.80      277.75    
  275.62      277.76      277.76      275.62      270.41      260.69      245.13      223.18      195.53      164.11    
  131.72      101.31      75.246      54.803      40.028      29.989      23.167      18.444      15.305      13.325    
  12.179      11.657      11.657      12.180      13.325      15.306      18.442      23.170      29.987      40.030    
  54.802      75.246      101.31      131.72      164.11      195.53      223.18      245.13      260.69      270.41    
  265.82      270.43      271.84      270.43      265.82      257.05      243.04      223.18      197.82      168.44    
  137.40      107.45      80.986      59.565      43.603      32.498      24.947      19.668      16.071      13.735    
  12.306      11.543      11.304      11.543      12.307      13.734      16.072      19.666      24.948      32.498    
  43.603      59.565      80.985      107.45      137.40      168.44      197.82      223.18      243.04      257.05    
  249.28      257.08      260.74      260.74      257.09      249.28      236.62      218.63      195.53      168.44    
  139.33      110.63      84.646      63.024      46.452      34.624      26.497      20.780      16.794      14.139    
  12.449      11.465      11.012      11.013      11.464      12.450      14.138      16.795      20.779      26.496    
  34.625      46.451      63.025      84.646      110.63      139.33      168.44      195.53      218.63      236.62    
  225.51      236.65      243.10      245.19      243.10      236.65      225.51      209.44      188.67      164.11    
  137.40      110.63      85.903      64.843      48.289      36.174      27.705      21.699      17.426      14.511    
  12.597      11.416      10.776      10.575      10.776      11.416      12.597      14.511      17.426      21.700    
  27.704      36.174      48.289      64.844      85.902      110.63      137.40      164.11      188.67      209.44    
  195.59      209.46      218.67      223.24      223.24      218.67      209.46      195.59      177.37      155.62    
  131.72      107.45      84.646      64.843      48.924      36.992      28.476      22.356      17.920      14.822    
  12.733      11.387      10.589      10.219      10.219      10.589      11.387      12.733      14.823      17.919    
  22.357      28.476      36.992      48.924      64.844      84.646      107.45      131.72      155.62      177.38    
  162.02      177.38      188.68      195.56      197.86      195.56      188.68      177.38      162.02      143.38    
  122.64      101.31      80.986      63.024      48.289      36.992      28.741      22.699      18.234      15.047    
  12.843      11.374      10.447      9.9387      9.7756      9.9387      10.447      11.374      12.843      15.048    
  18.234      22.700      28.741      36.992      48.289      63.025      80.985      101.31      122.64      143.38    
  128.08      143.36      155.60      164.09      168.43      168.43      164.09      155.60      143.36      128.07    
  110.77      92.707      75.248      59.564      46.452      36.174      28.476      22.699      18.342      15.165    
  12.915      11.369      10.347      9.7285      9.4364      9.4364      9.7286      10.347      11.370      12.915    
  15.166      18.342      22.700      28.476      36.174      46.451      59.565      75.246      92.707      110.77    
  96.958      110.73      122.59      131.66      137.33      139.26      137.33      131.66      122.59      110.73    
  96.958      82.322      67.939      54.801      43.605      34.623      27.705      22.357      18.234      15.165    
  12.940      11.368      10.288      9.5890      9.1945      9.0683      9.1946      9.5890      10.288      11.369    
  12.940      15.166      18.234      22.357      27.704      34.625      43.603      54.802      67.940      82.321    
  71.004      82.276      92.626      101.21      107.33      110.51      110.51      107.33      101.21      92.626    
  82.277      71.004      59.705      49.185      40.030      32.497      26.498      21.699      17.920      15.047    
  12.915      11.368      10.269      9.5184      9.0501      8.8244      8.8247      9.0497      9.5190      10.268    
  11.369      12.915      15.048      17.919      21.700      26.496      32.498      40.030      49.184      59.706    
  51.236      59.656      67.845      75.115      80.829      84.474      85.726      84.474      80.830      75.116    
  67.844      59.655      51.236      43.216      36.059      29.987      24.949      20.778      17.427      14.822    
  12.844      11.369      10.288      9.5186      9.0014      8.7035      8.6053      8.7036      9.0011      9.5190    
  10.288      11.370      12.843      14.823      17.426      20.779      24.948      29.987      36.061      43.214    
  37.360      43.167      49.090      54.664      59.392      62.828      64.635      64.634      62.827      59.391    
  54.662      49.091      43.169      37.359      32.005      27.280      23.168      19.666      16.795      14.510    
  12.734      11.374      10.348      9.5884      9.0502      8.7031      8.5331      8.5328      8.7036      9.0497    
  9.5890      10.347      11.374      12.733      14.511      16.795      19.666      23.170      27.277      32.008    
  28.107      31.967      35.974      39.898      43.433      46.251      48.070      48.699      48.070      46.252    
  43.435      39.899      35.972      31.965      28.110      24.523      21.273      18.444      16.071      14.138    
  12.597      11.387      10.447      9.7285      9.1949      8.8246      8.6055      8.5331      8.6053      8.8247    
  9.1946      9.7286      10.447      11.387      12.597      14.138      16.072      18.442      21.275      24.523    
  21.843      24.490      27.205      29.875      32.349      34.443      35.970      36.775      36.775      35.969    
  34.442      32.347      29.875      27.208      24.490      21.840      19.378      17.187      15.305      13.734    
  12.450      11.415      10.589      9.9382      9.4365      9.0679      8.8246      8.7031      8.7035      8.8244    
  9.0683      9.4364      9.9387      10.589      11.416      12.450      13.734      15.306      17.186      19.377    
  17.577      19.351      21.218      23.080      24.824      26.341      27.524      28.280      28.540      28.280    
  27.525      26.342      24.826      23.078      21.215      19.352      17.579      15.963      14.541      13.325    
  12.306      11.465      10.776      10.219      9.7760      9.4365      9.1949      9.0502      9.0014      9.0501    
  9.1945      9.4364      9.7756      10.219      10.776      11.464      12.307      13.325      14.542      15.964    
  14.825      15.944      17.142      18.372      19.569      20.656      21.555      22.197      22.532      22.532    
  22.197      21.554      20.654      19.569      18.374      17.143      15.943      14.824      13.816      12.934    
  12.179      11.543      11.013      10.575      10.219      9.9382      9.7285      9.5884      9.5186      9.5184    
  9.5890      9.7285      9.9387      10.219      10.575      11.013      11.543      12.180      12.933      13.815    
  13.151      13.800      14.510      15.254      15.998      16.701      17.314      17.793      18.098      18.203    
  18.099      17.794      17.316      16.701      15.998      15.252      14.509      13.801      13.153      12.577    
  12.080      11.657      11.304      11.013      10.776      10.589      10.447      10.348      10.288      10.269    
  10.288      10.347      10.447      10.589      10.776      11.012      11.304      11.657      12.080      12.578    
  12.267      12.566      12.908      13.285      13.679      14.069      14.428      14.729      14.946      15.059    
  15.059      14.945      14.728      14.427      14.069      13.679      13.285      12.909      12.565      12.266    
  12.015      11.813      11.657      11.543      11.465      11.415      11.387      11.374      11.369      11.368    
  11.368      11.369      11.374      11.387      11.416      11.465      11.543      11.657      11.812      12.014    
  11.988      12.004      12.059      12.148      12.265      12.399      12.536      12.665      12.770      12.838    
  12.862      12.838      12.771      12.666      12.537      12.398      12.264      12.148      12.059      12.004    
  11.989      12.015      12.080      12.179      12.306      12.450      12.597      12.734      12.844      12.915    
  12.940      12.915      12.843      12.733      12.597      12.449      12.306      12.179      12.081      12.015    
  12.267      12.005      11.792      11.629      11.509      11.424      11.371      11.339      11.323      11.317    
  11.315      11.315      11.316      11.323      11.339      11.370      11.425      11.509      11.630      11.793    
  12.004      12.266      12.577      12.934      13.325      13.734      14.138      14.510      14.822      15.047    
  15.165      15.165      15.047      14.822      14.511      14.139      13.735      13.325      12.933      12.577    
  13.151      12.565      12.059      11.630      11.272      10.979      10.740      10.554      10.412      10.313    
  10.255      10.235      10.255      10.313      10.412      10.554      10.741      10.978      11.272      11.630    
  12.059      12.565      13.153      13.816      14.541      15.305      16.071      16.795      17.427      17.920    
  18.234      18.342      18.234      17.920      17.426      16.794      16.071      15.305      14.543      13.816    
  14.825      13.801      12.908      12.148      11.509      10.978      10.543      10.190      9.9131      9.7067    
  9.5694      9.5008      9.5004      9.5692      9.7064      9.9127      10.190      10.542      10.978      11.509    
  12.148      12.909      13.801      14.824      15.963      17.187      18.444      19.666      20.778      21.699    
  22.357      22.699      22.699      22.356      21.699      20.780      19.668      18.444      17.185      15.962    
  17.577      15.943      14.510      13.285      12.264      11.425      10.740      10.190      9.7531      9.4201    
  9.1840      9.0424      8.9956      9.0427      9.1841      9.4203      9.7535      10.190      10.741      11.425    
  12.264      13.285      14.509      15.943      17.579      19.378      21.273      23.168      24.949      26.498    
  27.705      28.476      28.741      28.476      27.705      26.497      24.947      23.167      21.275      19.379    
  21.842      19.353      17.142      15.253      13.680      12.398      11.371      10.554      9.9130      9.4205    
  9.0599      8.8226      8.7040      8.7042      8.8224      9.0599      9.4203      9.9127      10.554      11.370    
  12.398      13.679      15.252      17.143      19.352      21.840      24.523      27.280      29.987      32.497    
  34.623      36.174      36.992      36.992      36.174      34.624      32.498      29.989      27.279      24.520    
  28.110      24.487      21.218      18.374      15.997      14.070      12.536      11.339      10.412      9.7063    
  9.1840      8.8222      8.6091      8.5383      8.6089      8.8224      9.1841      9.7064      10.412      11.339    
  12.537      14.069      15.998      18.374      21.215      24.490      28.110      32.005      36.059      40.030    
  43.605      46.452      48.289      48.924      48.289      46.452      43.603      40.028      36.058      32.008    
  37.357      31.968      27.207      23.077      19.571      16.700      14.428      12.665      11.323      10.314    
  9.5692      9.0428      8.7040      8.5382      8.5383      8.7042      9.0427      9.5692      10.313      11.323    
  12.666      14.427      16.701      19.569      23.078      27.208      31.965      37.359      43.216      49.185    
  54.801      59.564      63.024      64.843      64.843      63.024      59.565      54.803      49.186      43.215    
  51.237      43.168      35.972      29.877      24.823      20.656      17.315      14.728      12.770      11.316    
  10.255      9.5001      8.9959      8.7040      8.6091      8.7040      8.9956      9.5004      10.255      11.316    
  12.771      14.728      17.316      20.654      24.826      29.875      35.972      43.169      51.236      59.705    
  67.939      75.248      80.986      84.646      85.903      84.646      80.986      75.246      67.938      59.705    
  71.004      59.656      49.092      39.897      32.349      26.342      21.554      17.795      14.945      12.839    
  11.314      10.236      9.5001      9.0428      8.8222      8.8226      9.0424      9.5008      10.235      11.315    
  12.838      14.945      17.794      21.554      26.342      32.347      39.899      49.091      59.655      71.004    
  82.322      92.707      101.31      107.45      110.63      110.63      107.45      101.31      92.708      82.321    
  96.958      82.276      67.843      54.664      43.434      34.442      27.525      22.196      18.099      15.058    
  12.863      11.314      10.255      9.5692      9.1840      9.0599      9.1840      9.5694      10.255      11.315    
  12.862      15.059      18.099      22.197      27.525      34.442      43.435      54.662      67.844      82.277    
  96.958      110.77      122.64      131.72      137.40      139.33      137.40      131.72      122.64      110.77    
  128.07      110.73      92.627      75.115      59.391      46.253      35.968      28.281      22.531      18.204    
  15.058      12.839      11.316      10.314      9.7063      9.4205      9.4201      9.7067      10.313      11.317    
  12.838      15.059      18.203      22.532      28.280      35.969      46.252      59.391      75.116      92.626    
  110.73      128.07      143.38      155.62      164.11      168.44      168.44      164.11      155.63      143.38    
  162.02      143.36      122.59      101.21      80.829      62.827      48.071      36.774      28.541      22.531    
  18.099      14.945      12.770      11.323      10.412      9.9130      9.7531      9.9131      10.412      11.323    
  12.770      14.946      18.098      22.532      28.540      36.775      48.070      62.827      80.830      101.21    
  122.59      143.36      162.02      177.37      188.67      195.53      197.82      195.53      188.67      177.37    
  195.59      177.38      155.60      131.66      107.33      84.475      64.634      48.700      36.774      28.281    
  22.196      17.795      14.728      12.665      11.339      10.554      10.190      10.190      10.554      11.339    
  12.665      14.729      17.793      22.197      28.280      36.775      48.699      64.634      84.474      107.33    
  131.66      155.60      177.38      195.59      209.44      218.63      223.18      223.18      218.63      209.44    
  225.51      209.46      188.68      164.09      137.33      110.51      85.727      64.634      48.071      35.968    
  27.525      21.554      17.315      14.428      12.536      11.371      10.740      10.543      10.740      11.371    
  12.536      14.428      17.314      21.555      27.524      35.970      48.070      64.635      85.726      110.51    
  137.33      164.09      188.68      209.46      225.51      236.62      243.04      245.13      243.04      236.62    
  249.28      236.65      218.67      195.56      168.43      139.27      110.51      84.475      62.827      46.253    
  34.442      26.342      20.656      16.700      14.070      12.398      11.425      10.978      10.979      11.424    
  12.399      14.069      16.701      20.656      26.341      34.443      46.251      62.828      84.474      110.51    
  139.26      168.43      195.56      218.67      236.65      249.28      257.05      260.69      260.69      257.05    
  265.82      257.08      243.10      223.24      197.86      168.43      137.33      107.33      80.829      59.391    
  43.434      32.349      24.823      19.571      15.997      13.680      12.264      11.509      11.272      11.509    
  12.265      13.679      15.998      19.569      24.824      32.349      43.433      59.392      80.829      107.33    
  137.33      168.43      197.86      223.24      243.10      257.09      265.82      270.41      271.80      270.41    
  275.62      270.43      260.74      245.19      223.24      195.56      164.09      131.66      101.21      75.115    
  54.664      39.897      29.877      23.077      18.374      15.253      13.285      12.148      11.630      11.629    
  12.148      13.285      15.254      18.372      23.080      29.875      39.898      54.664      75.115      101.21    
  131.66      164.09      195.56      223.24      245.19      260.74      270.43      275.62      277.75      277.75    
  280.31      277.76      271.84      260.74      243.10      218.67      188.68      155.60      122.59      92.627    
  67.843      49.092      35.972      27.207      21.218      17.142      14.510      12.908      12.059      11.792    
  12.059      12.908      14.510      17.142      21.218      27.205      35.974      49.090      67.845      92.626    
  122.59      155.60      188.68      218.67      243.10      260.74      271.84      277.76      280.31      280.97    
  281.99      280.97      277.76      270.43      257.08      236.65      209.46      177.38      143.36      110.73    
  82.276      59.656      43.168      31.968      24.487      19.353      15.943      13.801      12.565      12.005    
  12.004      12.566      13.800      15.944      19.351      24.490      31.967      43.167      59.656      82.276    
  110.73      143.36      177.38      209.46      236.65      257.08      270.43      277.76      280.98      281.99    
  282.18      281.76      279.87      274.87      264.74      247.88      223.90      193.91      160.41      126.66    
  95.813      70.151      50.649      36.975      27.859      21.664      17.449      14.729      13.074      12.199    
  11.923      12.199      13.074      14.728      17.449      21.665      27.856      36.977      50.648      70.151    
  95.813      126.66      160.41      193.91      223.90      247.88      264.74      274.87      279.87      281.76    
  281.76      281.76      280.59      277.11      269.45      255.77      235.09      207.77      175.71      141.86    
  109.49      81.331      58.998      42.743      31.703      24.311      19.229      15.852      13.730      12.504    
  11.949      11.948      12.505      13.729      15.854      19.226      24.314      31.702      42.742      58.998    
  81.331      109.49      141.86      175.71      207.77      235.09      255.78      269.45      277.11      280.59    
  279.87      280.60      279.87      277.11      270.90      259.48      241.57      216.99      186.99      154.04    
  121.26      91.603      67.120      48.624      35.692      27.036      21.101      17.059      14.447      12.856    
  12.012      11.746      12.012      12.856      14.447      17.060      21.101      27.034      35.695      48.622    
  67.122      91.602      121.26      154.04      186.99      216.99      241.57      259.48      270.90      277.11    
  274.87      277.13      277.13      274.87      269.45      259.48      243.68      221.56      193.84      162.49    
  130.27      100.12      74.336      54.160      39.600      29.709      22.971      18.302      15.200      13.242    
  12.109      11.592      11.591      12.109      13.242      15.201      18.300      22.974      29.706      39.602    
  54.158      74.337      100.12      130.27      162.49      193.84      221.56      243.68      259.48      269.45    
  264.74      269.48      270.94      269.48      264.74      255.78      241.57      221.56      196.14      166.80    
  135.91      106.19      80.007      58.854      43.121      32.182      24.729      19.511      15.956      13.646    
  12.233      11.478      11.241      11.477      12.234      13.645      15.957      19.509      24.730      32.181    
  43.121      58.855      80.006      106.19      135.91      166.80      196.14      221.56      241.57      255.78    
  247.89      255.81      259.54      259.54      255.81      247.88      235.09      216.99      193.84      166.80    
  137.83      109.35      83.625      62.267      45.927      34.275      26.260      20.609      16.670      14.045    
  12.374      11.400      10.951      10.952      11.399      12.375      14.044      16.671      20.609      26.259    
  34.276      45.926      62.267      83.624      109.35      137.83      166.80      193.84      216.99      235.09    
  223.90      235.12      241.63      243.75      241.63      235.12      223.90      207.77      186.99      162.49    
  135.92      109.35      84.867      64.061      47.736      35.801      27.453      21.518      17.294      14.413    
  12.519      11.350      10.716      10.517      10.716      11.350      12.519      14.412      17.294      21.518    
  27.452      35.802      47.736      64.062      84.866      109.35      135.91      162.49      186.99      207.77    
  193.91      207.80      217.04      221.63      221.63      217.04      207.80      193.91      175.71      154.04    
  130.27      106.19      83.625      64.061      48.362      36.606      28.213      22.167      17.782      14.720    
  12.653      11.321      10.530      10.164      10.164      10.530      11.321      12.653      14.720      17.781    
  22.168      28.213      36.607      48.361      64.062      83.624      106.19      130.27      154.04      175.71    
  160.41      175.72      187.01      193.88      196.19      193.88      187.01      175.72      160.41      141.86    
  121.26      100.12      80.007      62.266      47.736      36.607      28.474      22.506      18.092      14.942    
  12.762      11.308      10.389      9.8852      9.7234      9.8852      10.389      11.308      12.761      14.942    
  18.091      22.506      28.474      36.607      47.735      62.267      80.006      100.12      121.26      141.86    
  126.66      141.85      154.03      162.48      166.80      166.80      162.48      154.03      141.85      126.66    
  109.49      91.602      74.337      58.854      45.927      35.801      28.213      22.506      18.199      15.058    
  12.833      11.302      10.290      9.6764      9.3867      9.3866      9.6766      10.290      11.303      12.832    
  15.058      18.198      22.506      28.213      35.802      45.926      58.855      74.336      91.602      109.49    
  95.813      109.46      121.22      130.22      135.86      137.78      135.86      130.22      121.22      109.46    
  95.813      81.332      67.121      54.157      43.122      34.274      27.453      22.167      18.092      15.058    
  12.857      11.301      10.231      9.5378      9.1465      9.0211      9.1464      9.5379      10.231      11.301    
  12.857      15.058      18.091      22.168      27.452      34.276      43.121      54.159      67.122      81.331    
  70.151      81.291      91.530      100.03      106.09      109.24      109.24      106.09      100.03      91.530    
  81.292      70.151      58.997      48.624      39.603      32.180      26.261      21.517      17.782      14.941    
  12.833      11.301      10.212      9.4677      9.0030      8.7789      8.7793      9.0026      9.4683      10.211    
  11.302      12.832      14.942      17.781      21.519      26.260      32.182      39.602      48.623      58.998    
  50.648      58.953      67.036      74.218      79.866      83.471      84.710      83.472      79.867      74.220    
  67.036      58.952      50.648      42.744      35.692      29.707      24.731      20.608      17.295      14.719    
  12.762      11.302      10.231      9.4680      8.9546      8.6588      8.5613      8.6589      8.9544      9.4682    
  10.231      11.303      12.761      14.720      17.294      20.609      24.730      29.707      35.694      42.742    
  36.977      42.699      48.536      54.033      58.698      62.088      63.873      63.872      62.088      58.696    
  54.032      48.537      42.701      36.976      31.700      27.037      22.972      19.509      16.671      14.411    
  12.654      11.307      10.290      9.5373      9.0031      8.6584      8.4896      8.4892      8.6588      9.0027    
  9.5379      10.290      11.308      12.653      14.412      16.671      19.509      22.973      27.034      31.702    
  27.856      31.665      35.616      39.482      42.965      45.743      47.536      48.156      47.536      45.744    
  42.967      39.483      35.613      31.663      27.859      24.314      21.099      18.302      15.956      14.044    
  12.519      11.321      10.389      9.6764      9.1468      8.7791      8.5614      8.4896      8.5613      8.7791    
  9.1464      9.6765      10.389      11.321      12.519      14.044      15.957      18.301      21.101      24.314    
  21.665      24.284      26.968      29.605      32.046      34.110      35.615      36.408      36.408      35.614    
  34.109      32.044      29.605      26.971      24.284      21.662      19.228      17.061      15.200      13.646    
  12.375      11.349      10.531      9.8846      9.3867      9.0207      8.7791      8.6584      8.6588      8.7790    
  9.0212      9.3866      9.8852      10.530      11.350      12.375      13.645      15.201      17.060      19.226    
  17.449      19.203      21.050      22.892      24.618      26.119      27.288      28.035      28.292      28.035    
  27.289      26.120      24.620      22.890      21.048      19.204      17.451      15.853      14.446      13.242    
  12.233      11.399      10.716      10.164      9.7238      9.3867      9.1468      9.0031      8.9547      9.0029    
  9.1464      9.3866      9.7234      10.164      10.716      11.399      12.234      13.242      14.447      15.854    
  14.729      15.836      17.022      18.239      19.423      20.498      21.388      22.024      22.355      22.355    
  22.023      21.387      20.497      19.423      18.240      17.023      15.836      14.727      13.730      12.857    
  12.109      11.478      10.951      10.517      10.164      9.8847      9.6765      9.5372      9.4679      9.4678    
  9.5379      9.6765      9.8852      10.164      10.517      10.952      11.478      12.109      12.856      13.729    
  13.074      13.716      14.419      15.155      15.893      16.588      17.195      17.670      17.972      18.076    
  17.972      17.671      17.197      16.589      15.892      15.154      14.418      13.717      13.075      12.505    
  12.011      11.592      11.241      10.951      10.716      10.531      10.389      10.290      10.231      10.212    
  10.231      10.290      10.389      10.530      10.716      10.951      11.241      11.592      12.012      12.506    
  12.199      12.496      12.835      13.209      13.599      13.985      14.342      14.639      14.854      14.967    
  14.967      14.854      14.638      14.341      13.985      13.600      13.209      12.836      12.495      12.198    
  11.948      11.747      11.592      11.478      11.399      11.349      11.321      11.307      11.302      11.301    
  11.301      11.302      11.308      11.321      11.350      11.400      11.478      11.592      11.746      11.948    
  11.923      11.939      11.995      12.084      12.200      12.333      12.470      12.598      12.702      12.770    
  12.794      12.770      12.703      12.598      12.470      12.333      12.200      12.083      11.994      11.940    
  11.924      11.948      12.011      12.109      12.233      12.374      12.519      12.654      12.762      12.833    
  12.857      12.833      12.761      12.653      12.519      12.374      12.233      12.109      12.012      11.949    
  12.199      11.940      11.731      11.570      11.451      11.368      11.316      11.285      11.270      11.264    