Pt-hcc                                  
   1.00000000000000     
     2.780502    0.000000    0.000000
    -1.390251    2.407985    0.000000
     0.000000    0.000000    4.817155
   Pt
     2
Direct
  0.000000  0.000000  0.000000
  0.333333  0.666667  0.500000
 
   40   40   72
 0.28233388115E+03 0.28198756274E+03 0.28030949249E+03 0.27561635269E+03 0.26582391746E+03
 0.24927927381E+03 0.22550982250E+03 0.19559215727E+03 0.16202161362E+03 0.12807465484E+03
 0.96958287241E+02 0.71003536289E+02 0.51237009774E+02 0.37357366847E+02 0.28110052366E+02
 0.21841505071E+02 0.17577179877E+02 0.14825011361E+02 0.13151380950E+02 0.12266861208E+02
 0.11988267147E+02 0.12266801110E+02 0.13151494412E+02 0.14824891380E+02 0.17577140476E+02
 0.21842633946E+02 0.28107177570E+02 0.37359813524E+02 0.51236235454E+02 0.71003885991E+02
 0.96957985498E+02 0.12807508080E+03 0.16202120914E+03 0.19559264182E+03 0.22550942109E+03
 0.24927982633E+03 0.26582362407E+03 0.27561647162E+03 0.28030944362E+03 0.28198745541E+03
 0.28198745541E+03 0.28198752907E+03 0.28096800581E+03 0.27774587844E+03 0.27040574731E+03
 0.25705162020E+03 0.23661846254E+03 0.20944220378E+03 0.17737481272E+03 0.14338042970E+03
 0.11076615902E+03 0.82321227163E+02 0.59705495224E+02 0.43215100829E+02 0.32008284845E+02
 0.24520287018E+02 0.19379011826E+02 0.15962404463E+02 0.13816250565E+02 0.12576959303E+02
 0.12015304673E+02 0.12014268677E+02 0.12578053793E+02 0.13814952699E+02 0.15964044546E+02
 0.19376602247E+02 0.24522888656E+02 0.32007578165E+02 0.43214372121E+02 0.59705987304E+02
 0.82320810408E+02 0.11076645875E+03 0.14338006169E+03 0.17737518119E+03 0.20944193688E+03
 0.23661866052E+03 0.25705173633E+03 0.27040567912E+03 0.27774598469E+03 0.28096819437E+03
 0.28030944362E+03 0.28097506394E+03 0.28030915502E+03 0.27774607967E+03 0.27180428400E+03
 0.26068632889E+03 0.24303943216E+03 0.21863205452E+03 0.18866838912E+03 0.15562541634E+03
 0.12264096620E+03 0.92708343931E+02 0.67937926240E+02 0.49186247918E+02 0.36058325028E+02
 0.27279325626E+02 0.21274742691E+02 0.17185081476E+02 0.14542759097E+02 0.12933133363E+02
 0.12080513425E+02 0.11812050382E+02 0.12080380339E+02 0.12933348191E+02 0.14542368980E+02
 0.17185536262E+02 0.21275016652E+02 0.27277283120E+02 0.36060893420E+02 0.49184368560E+02
 0.67939574806E+02 0.92707145289E+02 0.12264179576E+03 0.15562478059E+03 0.18866867966E+03
 0.21863205021E+03 0.24303932638E+03 0.26068662604E+03 0.27180472180E+03 0.27774598469E+03
 0.27561647162E+03 0.27776354982E+03 0.27776378864E+03 0.27561643310E+03 0.27040556830E+03
 0.26068651927E+03 0.24512707319E+03 0.22318189128E+03 0.19552809323E+03 0.16411048693E+03
 0.13172149755E+03 0.10131324167E+03 0.75246269654E+02 0.54802731051E+02 0.40028015215E+02
 0.29989086561E+02 0.23166839067E+02 0.18443555379E+02 0.15305390457E+02 0.13325277928E+02
 0.12179355190E+02 0.11657294075E+02 0.11656795162E+02 0.12179867280E+02 0.13324599250E+02
 0.15306264704E+02 0.18441853809E+02 0.23169649892E+02 0.29986663072E+02 0.40029576789E+02
 0.54801818893E+02 0.75246481101E+02 0.10131305513E+03 0.13172155905E+03 0.16411051669E+03
 0.19552805930E+03 0.22318234654E+03 0.24512705362E+03 0.26068662604E+03 0.27040567912E+03
 0.26582362407E+03 0.27043414865E+03 0.27184351942E+03 0.27043371864E+03 0.26582336741E+03
 0.25705160165E+03 0.24303958673E+03 0.22318169658E+03 0.19782378022E+03 0.16843811790E+03
 0.13740120434E+03 0.10744622178E+03 0.80985738530E+02 0.59564746687E+02 0.43603407147E+02
 0.32498408444E+02 0.24946593997E+02 0.19667878808E+02 0.16070561818E+02 0.13734618257E+02
 0.12306337129E+02 0.11543002340E+02 0.11304027619E+02 0.11542783706E+02 0.12306739253E+02
 0.13733889161E+02 0.16071825785E+02 0.19666164524E+02 0.24947644828E+02 0.32498304105E+02
 0.43603031107E+02 0.59565337989E+02 0.80985411430E+02 0.10744652520E+03 0.13740064103E+03
 0.16843865400E+03 0.19782284105E+03 0.22318234654E+03 0.24303932638E+03 0.25705173633E+03
 0.24927982633E+03 0.25708439044E+03 0.26074101276E+03 0.26074078505E+03 0.25708529327E+03
 0.24927958018E+03 0.23661866856E+03 0.21863164195E+03 0.19552877600E+03 0.16843760174E+03
 0.13933192356E+03 0.11063183017E+03 0.84646311626E+02 0.63024111144E+02 0.46452010273E+02
 0.34623854307E+02 0.26496619405E+02 0.20779704579E+02 0.16793524890E+02 0.14139359533E+02
 0.12449388730E+02 0.11465216960E+02 0.11012070954E+02 0.11012909442E+02 0.11464335535E+02
 0.12450295492E+02 0.14138227008E+02 0.16794668407E+02 0.20779378059E+02 0.26496260264E+02
 0.34624601869E+02 0.46451352796E+02 0.63024670678E+02 0.84645542133E+02 0.11063256518E+03
 0.13933108251E+03 0.16843865400E+03 0.19552805930E+03 0.21863205021E+03 0.23661866052E+03
 0.22550942109E+03 0.23664891893E+03 0.24309642198E+03 0.24519437152E+03 0.24309618643E+03
 0.23664847007E+03 0.22550972192E+03 0.20944227145E+03 0.18866912075E+03 0.16410993146E+03
 0.13740169042E+03 0.11063191685E+03 0.85902764509E+02 0.64843275372E+02 0.48289330416E+02
 0.36173558020E+02 0.27705240980E+02 0.21699223128E+02 0.17426089446E+02 0.14511457987E+02
 0.12596545014E+02 0.11415752006E+02 0.10775572843E+02 0.10575374482E+02 0.10775618081E+02
 0.11415658869E+02 0.12596751812E+02 0.14511303678E+02 0.17425611342E+02 0.21700148779E+02
 0.27704202962E+02 0.36174398739E+02 0.48288613855E+02 0.64843874544E+02 0.85902272698E+02
 0.11063256518E+03 0.13740064103E+03 0.16411051669E+03 0.18866867966E+03 0.20944193688E+03
 0.19559264182E+03 0.20946056282E+03 0.21867442840E+03 0.22324043881E+03 0.22324074949E+03
 0.21867445413E+03 0.20946120225E+03 0.19559245004E+03 0.17737492130E+03 0.15562458055E+03
 0.13172242359E+03 0.10744542858E+03 0.84646475290E+02 0.64843324288E+02 0.48924033947E+02
 0.36991778224E+02 0.28476059805E+02 0.22356338199E+02 0.17920174551E+02 0.14822498058E+02
 0.12733140007E+02 0.11387316789E+02 0.10589062550E+02 0.10219113384E+02 0.10219065516E+02
 0.10589108400E+02 0.11387246337E+02 0.12733119968E+02 0.14823017951E+02 0.17919379946E+02
 0.22357140478E+02 0.28475518999E+02 0.36992235825E+02 0.48923764942E+02 0.64843874544E+02
 0.84645542133E+02 0.10744652520E+03 0.13172155905E+03 0.15562478059E+03 0.17737518119E+03
 0.16202120914E+03 0.17737630667E+03 0.18868325640E+03 0.19555679155E+03 0.19785812324E+03
 0.19555706338E+03 0.18868338453E+03 0.17737604641E+03 0.16202160063E+03 0.14338073688E+03
 0.12264183142E+03 0.10131227844E+03 0.80986256035E+02 0.63023821555E+02 0.48289201447E+02
 0.36992057205E+02 0.28740861877E+02 0.22699473310E+02 0.18234262479E+02 0.15047432675E+02
 0.12843277453E+02 0.11374246587E+02 0.10446837895E+02 0.99386588063E+01 0.97755783944E+01
 0.99386925152E+01 0.10446857403E+02 0.11374335667E+02 0.12842835783E+02 0.15047982312E+02
 0.18233685465E+02 0.22699723539E+02 0.28740584087E+02 0.36992235825E+02 0.48288613855E+02
 0.63024670678E+02 0.80985411430E+02 0.10131305513E+03 0.12264179576E+03 0.14338006169E+03
 0.12807508080E+03 0.14336239425E+03 0.15560378902E+03 0.16409439236E+03 0.16842747775E+03
 0.16842704464E+03 0.16409406115E+03 0.15560368852E+03 0.14336290731E+03 0.12807477071E+03
 0.11076585716E+03 0.92707188725E+02 0.75247619795E+02 0.59564012058E+02 0.46452252557E+02
 0.36173587654E+02 0.28475769958E+02 0.22699465598E+02 0.18342247808E+02 0.15165157858E+02
 0.12915418473E+02 0.11369100395E+02 0.10347486914E+02 0.97285309311E+01 0.94364386508E+01
 0.94363522692E+01 0.97286051186E+01 0.10347385955E+02 0.11369503657E+02 0.12914971902E+02
 0.15165594361E+02 0.18342016541E+02 0.22699723539E+02 0.28475518999E+02 0.36174398739E+02
 0.46451352796E+02 0.59565337989E+02 0.75246481101E+02 0.92707145289E+02 0.11076645875E+03
 0.96957985498E+02 0.11073166221E+03 0.12258656356E+03 0.13165676090E+03 0.13733406658E+03
 0.13926421944E+03 0.13733468588E+03 0.13165749951E+03 0.12258663034E+03 0.11073116087E+03
 0.96958105724E+02 0.82321608921E+02 0.67938855212E+02 0.54800725450E+02 0.43604560172E+02
 0.34623326075E+02 0.27705294675E+02 0.22356745246E+02 0.18234084361E+02 0.15165436866E+02
 0.12940111334E+02 0.11368250677E+02 0.10287970019E+02 0.95889559835E+01 0.91945433016E+01
 0.90683184868E+01 0.91945641885E+01 0.95890416264E+01 0.10287686757E+02 0.11368574029E+02
 0.12939705278E+02 0.15165594361E+02 0.18233685465E+02 0.22357140478E+02 0.27704202962E+02
 0.34624601869E+02 0.43603031107E+02 0.54801818893E+02 0.67939574806E+02 0.82320810408E+02
 0.71003885991E+02 0.82276048176E+02 0.92625973427E+02 0.10120787703E+03 0.10732720803E+03
 0.11050724366E+03 0.11050692229E+03 0.10732632956E+03 0.10120682748E+03 0.92626040774E+02
 0.82276629094E+02 0.71003827497E+02 0.59704887568E+02 0.49185317140E+02 0.40030218545E+02
 0.32496645505E+02 0.26497782004E+02 0.21698645305E+02 0.17920185812E+02 0.15047274631E+02
 0.12915410058E+02 0.11367948768E+02 0.10268683918E+02 0.95184416032E+01 0.90500526281E+01
 0.88244365089E+01 0.88246945752E+01 0.90497495545E+01 0.95189520403E+01 0.10268208593E+02
 0.11368574029E+02 0.12914971902E+02 0.15047982312E+02 0.17919379946E+02 0.21700148779E+02
 0.26496260264E+02 0.32498304105E+02 0.40029576789E+02 0.49184368560E+02 0.59705987304E+02
 0.51236235454E+02 0.59656072515E+02 0.67844894600E+02 0.75115071598E+02 0.80828533644E+02
 0.84473631777E+02 0.85725946096E+02 0.84474220912E+02 0.80829569578E+02 0.75116205267E+02
 0.67844333980E+02 0.59655063853E+02 0.51235798902E+02 0.43216303235E+02 0.36058859921E+02
 0.29986819013E+02 0.24948770875E+02 0.20778077741E+02 0.17427144138E+02 0.14822199696E+02
 0.12843613921E+02 0.11369100727E+02 0.10288228807E+02 0.95186189290E+01 0.90014144135E+01
 0.87034735066E+01 0.86053224374E+01 0.87035816142E+01 0.90011219460E+01 0.95189520403E+01
 0.10287686757E+02 0.11369503657E+02 0.12842835783E+02 0.14823017951E+02 0.17425611342E+02
 0.20779378059E+02 0.24947644828E+02 0.29986663072E+02 0.36060893420E+02 0.43214372121E+02
 0.37359813524E+02 0.43167361633E+02 0.49089793551E+02 0.54663714404E+02 0.59392336202E+02
 0.62827642653E+02 0.64634717683E+02 0.64634377306E+02 0.62826758521E+02 0.59390910081E+02
 0.54662499057E+02 0.49090662660E+02 0.43169255116E+02 0.37359107087E+02 0.32005358985E+02
 0.27280485418E+02 0.23168133300E+02 0.19666197363E+02 0.16795211772E+02 0.14510173761E+02
 0.12733715922E+02 0.11373593012E+02 0.10347770924E+02 0.95883991824E+01 0.90501688029E+01
 0.87030983064E+01 0.85331420249E+01 0.85327900183E+01 0.87035816142E+01 0.90497495545E+01
 0.95890416264E+01 0.10347385955E+02 0.11374335667E+02 0.12733119968E+02 0.14511303678E+02
 0.16794668407E+02 0.19666164524E+02 0.23169649892E+02 0.27277283120E+02 0.32007578165E+02
 0.28107177570E+02 0.31966762518E+02 0.35974457239E+02 0.39898485508E+02 0.43433049543E+02
 0.46251451392E+02 0.48069918498E+02 0.48698727804E+02 0.48070496822E+02 0.46252484351E+02
 0.43434712266E+02 0.39899326862E+02 0.35972463752E+02 0.31964637709E+02 0.28110030738E+02
 0.24523313238E+02 0.21272501761E+02 0.18443708379E+02 0.16071166834E+02 0.14138393294E+02
 0.12597376529E+02 0.11387086113E+02 0.10447255911E+02 0.97285492959E+01 0.91949031415E+01
 0.88246155291E+01 0.86055006042E+01 0.85331420249E+01 0.86053224374E+01 0.88246945752E+01
 0.91945641885E+01 0.97286051186E+01 0.10446857403E+02 0.11387246337E+02 0.12596751812E+02
 0.14138227008E+02 0.16071825785E+02 0.18441853809E+02 0.21275016652E+02 0.24522888656E+02
 0.21842633946E+02 0.24489852498E+02 0.27204817188E+02 0.29874740348E+02 0.32349073224E+02
 0.34442985684E+02 0.35969514905E+02 0.36775024117E+02 0.36774919468E+02 0.35968600918E+02
 0.34441649577E+02 0.32347295005E+02 0.29874822825E+02 0.27208033875E+02 0.24490199543E+02
 0.21839794601E+02 0.19377670700E+02 0.17186880260E+02 0.15305174917E+02 0.13734370570E+02
 0.12450118862E+02 0.11414977435E+02 0.10589263618E+02 0.99381870723E+01 0.94364917343E+01
 0.90678610681E+01 0.88246155291E+01 0.87030983064E+01 0.87034735066E+01 0.88244365089E+01
 0.90683184868E+01 0.94363522692E+01 0.99386925152E+01 0.10589108400E+02 0.11415658869E+02
 0.12450295492E+02 0.13733889161E+02 0.15306264704E+02 0.17185536262E+02 0.19376602247E+02
 0.17577140476E+02 0.19350699493E+02 0.21217821001E+02 0.23079503471E+02 0.24824188187E+02
 0.26340774059E+02 0.27524202860E+02 0.28280084039E+02 0.28540277247E+02 0.28280434281E+02
 0.27525428366E+02 0.26342357882E+02 0.24825564267E+02 0.23077994475E+02 0.21215402917E+02
 0.19351792545E+02 0.17578972295E+02 0.15963139891E+02 0.14541489561E+02 0.13325399945E+02
 0.12306328289E+02 0.11464661144E+02 0.10776190559E+02 0.10219095849E+02 0.97759743263E+01
 0.94364917343E+01 0.91949031415E+01 0.90501688029E+01 0.90014144135E+01 0.90500526281E+01
 0.91945433016E+01 0.94364386508E+01 0.97755783944E+01 0.10219065516E+02 0.10775618081E+02
 0.11464335535E+02 0.12306739253E+02 0.13324599250E+02 0.14542368980E+02 0.15964044546E+02
 0.14824891380E+02 0.15944366353E+02 0.17142091608E+02 0.18372149188E+02 0.19568990776E+02
 0.20655923102E+02 0.21555277532E+02 0.22197492184E+02 0.22532363602E+02 0.22532167997E+02
 0.22196856602E+02 0.21553810573E+02 0.20654404958E+02 0.19568979616E+02 0.18373930051E+02
 0.17143394613E+02 0.15943422056E+02 0.14823649156E+02 0.13815772837E+02 0.12934074367E+02
 0.12179376613E+02 0.11543022560E+02 0.11012560609E+02 0.10574700677E+02 0.10219095849E+02
 0.99381870723E+01 0.97285492959E+01 0.95883991824E+01 0.95186189290E+01 0.95184416032E+01
 0.95889559835E+01 0.97285309311E+01 0.99386588063E+01 0.10219113384E+02 0.10575374482E+02
 0.11012909442E+02 0.11542783706E+02 0.12179867280E+02 0.12933348191E+02 0.13814952699E+02
 0.13151494412E+02 0.13799907249E+02 0.14509519290E+02 0.15253524874E+02 0.15998095509E+02
 0.16700741903E+02 0.17314198703E+02 0.17793469111E+02 0.18098333485E+02 0.18203204722E+02
 0.18098801578E+02 0.17794307214E+02 0.17315877232E+02 0.16701367746E+02 0.15997520772E+02
 0.15252440075E+02 0.14508653192E+02 0.13800730409E+02 0.13152501163E+02 0.12577414658E+02
 0.12079616254E+02 0.11657123660E+02 0.11303784934E+02 0.11012560609E+02 0.10776190559E+02
 0.10589263618E+02 0.10447255911E+02 0.10347770924E+02 0.10288228807E+02 0.10268683918E+02
 0.10287970019E+02 0.10347486914E+02 0.10446837895E+02 0.10589062550E+02 0.10775572843E+02
 0.11012070954E+02 0.11304027619E+02 0.11656795162E+02 0.12080380339E+02 0.12578053793E+02
 0.12266801110E+02 0.12566090393E+02 0.12907993770E+02 0.13284748898E+02 0.13679015271E+02
 0.14068793257E+02 0.14428322815E+02 0.14728601696E+02 0.14945644452E+02 0.15059269636E+02
 0.15059047630E+02 0.14944983029E+02 0.14727541097E+02 0.14427178156E+02 0.14068805521E+02
 0.13679444871E+02 0.13285467840E+02 0.12908684354E+02 0.12565412847E+02 0.12265794916E+02
 0.12014800155E+02 0.11812730915E+02 0.11657123660E+02 0.11543022560E+02 0.11464661144E+02
 0.11414977435E+02 0.11387086113E+02 0.11373593012E+02 0.11369100727E+02 0.11367948768E+02
 0.11368250677E+02 0.11369100395E+02 0.11374246587E+02 0.11387316789E+02 0.11415752006E+02
 0.11465216960E+02 0.11543002340E+02 0.11657294075E+02 0.11812050382E+02 0.12014268677E+02
 0.11988267147E+02 0.12003743138E+02 0.12059318748E+02 0.12148290772E+02 0.12264851716E+02
 0.12398597723E+02 0.12536174376E+02 0.12665111342E+02 0.12769589470E+02 0.12838127793E+02
 0.12862087205E+02 0.12838481328E+02 0.12770531617E+02 0.12665759556E+02 0.12536887357E+02
 0.12398459193E+02 0.12264485929E+02 0.12147789309E+02 0.12058574496E+02 0.12004280809E+02
 0.11989153146E+02 0.12014800155E+02 0.12079616254E+02 0.12179376613E+02 0.12306328289E+02
 0.12450118862E+02 0.12597376529E+02 0.12733715922E+02 0.12843613921E+02 0.12915410058E+02
 0.12940111334E+02 0.12915418473E+02 0.12843277453E+02 0.12733140007E+02 0.12596545014E+02
 0.12449388730E+02 0.12306337129E+02 0.12179355190E+02 0.12080513425E+02 0.12015304673E+02
 0.12266861208E+02 0.12004795264E+02 0.11792433716E+02 0.11629324786E+02 0.11508582260E+02
 0.11424460688E+02 0.11371073255E+02 0.11339151935E+02 0.11323468962E+02 0.11316783186E+02
 0.11314669299E+02 0.11314570946E+02 0.11316145255E+02 0.11322794369E+02 0.11338844313E+02
 0.11370390559E+02 0.11424673160E+02 0.11508795053E+02 0.11629602196E+02 0.11793110944E+02
 0.12004280809E+02 0.12265794916E+02 0.12577414658E+02 0.12934074367E+02 0.13325399945E+02
 0.13734370570E+02 0.14138393294E+02 0.14510173761E+02 0.14822199696E+02 0.15047274631E+02
 0.15165436866E+02 0.15165157858E+02 0.15047432675E+02 0.14822498058E+02 0.14511457987E+02
 0.14139359533E+02 0.13734618257E+02 0.13325277928E+02 0.12933133363E+02 0.12576959303E+02
 0.13151380950E+02 0.12564941559E+02 0.12059423725E+02 0.11629753848E+02 0.11272224941E+02
 0.10978595163E+02 0.10740226760E+02 0.10553531839E+02 0.10411839215E+02 0.10313057800E+02
 0.10254635463E+02 0.10235285760E+02 0.10255042765E+02 0.10313482951E+02 0.10412309458E+02
 0.10553749148E+02 0.10740868379E+02 0.10978273184E+02 0.11272047339E+02 0.11629602196E+02
 0.12058574496E+02 0.12565412847E+02 0.13152501163E+02 0.13815772837E+02 0.14541489561E+02
 0.15305174917E+02 0.16071166834E+02 0.16795211772E+02 0.17427144138E+02 0.17920185812E+02
 0.18234084361E+02 0.18342247808E+02 0.18234262479E+02 0.17920174551E+02 0.17426089446E+02
 0.16793524890E+02 0.16070561818E+02 0.15305390457E+02 0.14542759097E+02 0.13816250565E+02
 0.14825011361E+02 0.13801206768E+02 0.12907718132E+02 0.12147780882E+02 0.11508760487E+02
 0.10977862192E+02 0.10543046375E+02 0.10189930949E+02 0.99130708425E+01 0.97066775881E+01
 0.95693542296E+01 0.95007630740E+01 0.95004110002E+01 0.95691658354E+01 0.97064424042E+01
 0.99126571588E+01 0.10189818946E+02 0.10542403445E+02 0.10978273184E+02 0.11508795053E+02
 0.12147789309E+02 0.12908684354E+02 0.13800730409E+02 0.14823649156E+02 0.15963139891E+02
 0.17186880260E+02 0.18443708379E+02 0.19666197363E+02 0.20778077741E+02 0.21698645305E+02
 0.22356745246E+02 0.22699465598E+02 0.22699473310E+02 0.22356338199E+02 0.21699223128E+02
 0.20779704579E+02 0.19667878808E+02 0.18443555379E+02 0.17185081476E+02 0.15962404463E+02
 0.17577179877E+02 0.15942678379E+02 0.14509874493E+02 0.13285318086E+02 0.12264415356E+02
 0.11425201529E+02 0.10740203094E+02 0.10189792815E+02 0.97531111964E+01 0.94200631932E+01
 0.91839940556E+01 0.90424440979E+01 0.89956419462E+01 0.90426627915E+01 0.91840866757E+01
 0.94202993593E+01 0.97535318720E+01 0.10189818946E+02 0.10740868379E+02 0.11424673160E+02
 0.12264485929E+02 0.13285467840E+02 0.14508653192E+02 0.15943422056E+02 0.17578972295E+02
 0.19377670700E+02 0.21272501761E+02 0.23168133300E+02 0.24948770875E+02 0.26497782004E+02
 0.27705294675E+02 0.28475769958E+02 0.28740861877E+02 0.28476059805E+02 0.27705240980E+02
 0.26496619405E+02 0.24946593997E+02 0.23166839067E+02 0.21274742691E+02 0.19379011826E+02
 0.21841505071E+02 0.19353126673E+02 0.17141605685E+02 0.15252673836E+02 0.13679680235E+02
 0.12397791311E+02 0.11371110074E+02 0.10553706846E+02 0.99130082371E+01 0.94205189096E+01
 0.90599151699E+01 0.88225759262E+01 0.87039815824E+01 0.87041756694E+01 0.88224067260E+01
 0.90599043885E+01 0.94202993593E+01 0.99126571588E+01 0.10553749148E+02 0.11370390559E+02
 0.12398459193E+02 0.13679444871E+02 0.15252440075E+02 0.17143394613E+02 0.19351792545E+02
 0.21839794601E+02 0.24523313238E+02 0.27280485418E+02 0.29986819013E+02 0.32496645505E+02
 0.34623326075E+02 0.36173587654E+02 0.36992057205E+02 0.36991778224E+02 0.36173558020E+02
 0.34623854307E+02 0.32498408444E+02 0.29989086561E+02 0.27279325626E+02 0.24520287018E+02
 0.28110052366E+02 0.24487225337E+02 0.21217629321E+02 0.18373771533E+02 0.15996855277E+02
 0.14069757740E+02 0.12536047722E+02 0.11339026545E+02 0.10411948107E+02 0.97062809661E+01
 0.91840436446E+01 0.88222245476E+01 0.86090743879E+01 0.85382711320E+01 0.86088549759E+01
 0.88224067260E+01 0.91840866757E+01 0.97064424042E+01 0.10412309458E+02 0.11338844313E+02
 0.12536887357E+02 0.14068805521E+02 0.15997520772E+02 0.18373930051E+02 0.21215402917E+02
 0.24490199543E+02 0.28110030738E+02 0.32005358985E+02 0.36058859921E+02 0.40030218545E+02
 0.43604560172E+02 0.46452252557E+02 0.48289201447E+02 0.48924033947E+02 0.48289330416E+02
 0.46452010273E+02 0.43603407147E+02 0.40028015215E+02 0.36058325028E+02 0.32008284845E+02
 0.37357366847E+02 0.31967597441E+02 0.27206827028E+02 0.23076785869E+02 0.19570695515E+02
 0.16699772426E+02 0.14428370496E+02 0.12665354705E+02 0.11323279875E+02 0.10313543892E+02
 0.95692427235E+01 0.90428194636E+01 0.87040059148E+01 0.85381730051E+01 0.85382711320E+01
 0.87041756694E+01 0.90426627915E+01 0.95691658354E+01 0.10313482951E+02 0.11322794369E+02
 0.12665759556E+02 0.14427178156E+02 0.16701367746E+02 0.19568979616E+02 0.23077994475E+02
 0.27208033875E+02 0.31964637709E+02 0.37359107087E+02 0.43216303235E+02 0.49185317140E+02
 0.54800725450E+02 0.59564012058E+02 0.63023821555E+02 0.64843324288E+02 0.64843275372E+02
 0.63024111144E+02 0.59564746687E+02 0.54802731051E+02 0.49186247918E+02 0.43215100829E+02
 0.51237009774E+02 0.43168039333E+02 0.35971938544E+02 0.29877204159E+02 0.24823297234E+02
 0.20656015262E+02 0.17314849019E+02 0.14727788265E+02 0.12770273127E+02 0.11315956079E+02
 0.10255146003E+02 0.95001420965E+01 0.89958957164E+01 0.87040059148E+01 0.86090743879E+01
 0.87039815824E+01 0.89956419462E+01 0.95004110002E+01 0.10255042765E+02 0.11316145255E+02
 0.12770531617E+02 0.14727541097E+02 0.17315877232E+02 0.20654404958E+02 0.24825564267E+02
 0.29874822825E+02 0.35972463752E+02 0.43169255116E+02 0.51235798902E+02 0.59704887568E+02
 0.67938855212E+02 0.75247619795E+02 0.80986256035E+02 0.84646475290E+02 0.85902764509E+02
 0.84646311626E+02 0.80985738530E+02 0.75246269654E+02 0.67937926240E+02 0.59705495224E+02
 0.71003536289E+02 0.59655640867E+02 0.49091643390E+02 0.39897159323E+02 0.32348973029E+02
 0.26341501082E+02 0.21554148457E+02 0.17794598674E+02 0.14944709975E+02 0.12839107161E+02
 0.11314040486E+02 0.10235988917E+02 0.95001420965E+01 0.90428194636E+01 0.88222245476E+01
 0.88225759262E+01 0.90424440979E+01 0.95007630740E+01 0.10235285760E+02 0.11314570946E+02
 0.12838481328E+02 0.14944983029E+02 0.17794307214E+02 0.21553810573E+02 0.26342357882E+02
 0.32347295005E+02 0.39899326862E+02 0.49090662660E+02 0.59655063853E+02 0.71003827497E+02
 0.82321608921E+02 0.92707188725E+02 0.10131227844E+03 0.10744542858E+03 0.11063191685E+03
 0.11063183017E+03 0.10744622178E+03 0.10131324167E+03 0.92708343931E+02 0.82321227163E+02
 0.96958287241E+02 0.82276247874E+02 0.67843440891E+02 0.54664397999E+02 0.43433664171E+02
 0.34442081162E+02 0.27525393169E+02 0.22196336393E+02 0.18099178896E+02 0.15058361434E+02
 0.12862625760E+02 0.11314040486E+02 0.10255146003E+02 0.95692427235E+01 0.91840436446E+01
 0.90599151699E+01 0.91839940556E+01 0.95693542296E+01 0.10254635463E+02 0.11314669299E+02
 0.12862087205E+02 0.15059047630E+02 0.18098801578E+02 0.22196856602E+02 0.27525428366E+02
 0.34441649577E+02 0.43434712266E+02 0.54662499057E+02 0.67844333980E+02 0.82276629094E+02
 0.96958105724E+02 0.11076585716E+03 0.12264183142E+03 0.13172242359E+03 0.13740169042E+03
 0.13933192356E+03 0.13740120434E+03 0.13172149755E+03 0.12264096620E+03 0.11076615902E+03
 0.12807465484E+03 0.11073159313E+03 0.92626950516E+02 0.75114989319E+02 0.59391493186E+02
 0.46252536956E+02 0.35968242734E+02 0.28281265121E+02 0.22531424304E+02 0.18204125034E+02
 0.15058361434E+02 0.12839107161E+02 0.11315956079E+02 0.10313543892E+02 0.97062809661E+01
 0.94205189096E+01 0.94200631932E+01 0.97066775881E+01 0.10313057800E+02 0.11316783186E+02
 0.12838127793E+02 0.15059269636E+02 0.18203204722E+02 0.22532167997E+02 0.28280434281E+02
 0.35968600918E+02 0.46252484351E+02 0.59390910081E+02 0.75116205267E+02 0.92626040774E+02
 0.11073116087E+03 0.12807477071E+03 0.14338073688E+03 0.15562458055E+03 0.16410993146E+03
 0.16843760174E+03 0.16843811790E+03 0.16411048693E+03 0.15562541634E+03 0.14338042970E+03
 0.16202161362E+03 0.14336242684E+03 0.12258579758E+03 0.10120767665E+03 0.80829258259E+02
 0.62826626863E+02 0.48071026917E+02 0.36774094831E+02 0.28540943240E+02 0.22531424304E+02
 0.18099178896E+02 0.14944709975E+02 0.12770273127E+02 0.11323279875E+02 0.10411948107E+02
 0.99130082371E+01 0.97531111964E+01 0.99130708425E+01 0.10411839215E+02 0.11323468962E+02
 0.12769589470E+02 0.14945644452E+02 0.18098333485E+02 0.22532363602E+02 0.28540277247E+02
 0.36774919468E+02 0.48070496822E+02 0.62826758521E+02 0.80829569578E+02 0.10120682748E+03
 0.12258663034E+03 0.14336290731E+03 0.16202160063E+03 0.17737492130E+03 0.18866912075E+03
 0.19552877600E+03 0.19782378022E+03 0.19552809323E+03 0.18866838912E+03 0.17737481272E+03
 0.19559215727E+03 0.17737639266E+03 0.15560408553E+03 0.13165710938E+03 0.10732636694E+03
 0.84474742818E+02 0.64633651404E+02 0.48699723571E+02 0.36774094831E+02 0.28281265121E+02
 0.22196336393E+02 0.17794598674E+02 0.14727788265E+02 0.12665354705E+02 0.11339026545E+02
 0.10553706846E+02 0.10189792815E+02 0.10189930949E+02 0.10553531839E+02 0.11339151935E+02
 0.12665111342E+02 0.14728601696E+02 0.17793469111E+02 0.22197492184E+02 0.28280084039E+02
 0.36775024117E+02 0.48698727804E+02 0.64634377306E+02 0.84474220912E+02 0.10732632956E+03
 0.13165749951E+03 0.15560368852E+03 0.17737604641E+03 0.19559245004E+03 0.20944227145E+03
 0.21863164195E+03 0.22318169658E+03 0.22318189128E+03 0.21863205452E+03 0.20944220378E+03
 0.22550982250E+03 0.20946063300E+03 0.18868292255E+03 0.16409419908E+03 0.13733458497E+03
 0.11050630240E+03 0.85726716937E+02 0.64633651404E+02 0.48071026917E+02 0.35968242734E+02
 0.27525393169E+02 0.21554148457E+02 0.17314849019E+02 0.14428370496E+02 0.12536047722E+02
 0.11371110074E+02 0.10740203094E+02 0.10543046375E+02 0.10740226760E+02 0.11371073255E+02
 0.12536174376E+02 0.14428322815E+02 0.17314198703E+02 0.21555277532E+02 0.27524202860E+02
 0.35969514905E+02 0.48069918498E+02 0.64634717683E+02 0.85725946096E+02 0.11050692229E+03
 0.13733468588E+03 0.16409406115E+03 0.18868338453E+03 0.20946120225E+03 0.22550972192E+03
 0.23661866856E+03 0.24303958673E+03 0.24512707319E+03 0.24303943216E+03 0.23661846254E+03
 0.24927927381E+03 0.23664900913E+03 0.21867458574E+03 0.19555711801E+03 0.16842680231E+03
 0.13926507516E+03 0.11050630240E+03 0.84474742818E+02 0.62826626863E+02 0.46252536956E+02
 0.34442081162E+02 0.26341501082E+02 0.20656015262E+02 0.16699772426E+02 0.14069757740E+02
 0.12397791311E+02 0.11425201529E+02 0.10977862192E+02 0.10978595163E+02 0.11424460688E+02
 0.12398597723E+02 0.14068793257E+02 0.16700741903E+02 0.20655923102E+02 0.26340774059E+02
 0.34442985684E+02 0.46251451392E+02 0.62827642653E+02 0.84473631777E+02 0.11050724366E+03
 0.13926421944E+03 0.16842704464E+03 0.19555706338E+03 0.21867445413E+03 0.23664847007E+03
 0.24927958018E+03 0.25705160165E+03 0.26068651927E+03 0.26068632889E+03 0.25705162020E+03
 0.26582391746E+03 0.25708498003E+03 0.24309608273E+03 0.22324076689E+03 0.19785819768E+03
 0.16842680231E+03 0.13733458497E+03 0.10732636694E+03 0.80829258259E+02 0.59391493186E+02
 0.43433664171E+02 0.32348973029E+02 0.24823297234E+02 0.19570695515E+02 0.15996855277E+02
 0.13679680235E+02 0.12264415356E+02 0.11508760487E+02 0.11272224941E+02 0.11508582260E+02
 0.12264851716E+02 0.13679015271E+02 0.15998095509E+02 0.19568990776E+02 0.24824188187E+02
 0.32349073224E+02 0.43433049543E+02 0.59392336202E+02 0.80828533644E+02 0.10732720803E+03
 0.13733406658E+03 0.16842747775E+03 0.19785812324E+03 0.22324074949E+03 0.24309618643E+03
 0.25708529327E+03 0.26582336741E+03 0.27040556830E+03 0.27180428400E+03 0.27040574731E+03
 0.27561635269E+03 0.27043368751E+03 0.26074140723E+03 0.24519429783E+03 0.22324076689E+03
 0.19555711801E+03 0.16409419908E+03 0.13165710938E+03 0.10120767665E+03 0.75114989319E+02
 0.54664397999E+02 0.39897159323E+02 0.29877204159E+02 0.23076785869E+02 0.18373771533E+02
 0.15252673836E+02 0.13285318086E+02 0.12147780882E+02 0.11629753848E+02 0.11629324786E+02
 0.12148290772E+02 0.13284748898E+02 0.15253524874E+02 0.18372149188E+02 0.23079503471E+02
 0.29874740348E+02 0.39898485508E+02 0.54663714404E+02 0.75115071598E+02 0.10120787703E+03
 0.13165676090E+03 0.16409439236E+03 0.19555679155E+03 0.22324043881E+03 0.24519437152E+03
 0.26074078505E+03 0.27043371864E+03 0.27561643310E+03 0.27774607967E+03 0.27774587844E+03
 0.28030949249E+03 0.27776404221E+03 0.27184356066E+03 0.26074140723E+03 0.24309608273E+03
 0.21867458574E+03 0.18868292255E+03 0.15560408553E+03 0.12258579758E+03 0.92626950516E+02
 0.67843440891E+02 0.49091643390E+02 0.35971938544E+02 0.27206827028E+02 0.21217629321E+02
 0.17141605685E+02 0.14509874493E+02 0.12907718132E+02 0.12059423725E+02 0.11792433716E+02
 0.12059318748E+02 0.12907993770E+02 0.14509519290E+02 0.17142091608E+02 0.21217821001E+02
 0.27204817188E+02 0.35974457239E+02 0.49089793551E+02 0.67844894600E+02 0.92625973427E+02
 0.12258656356E+03 0.15560378902E+03 0.18868325640E+03 0.21867442840E+03 0.24309642198E+03
 0.26074101276E+03 0.27184351942E+03 0.27776378864E+03 0.28030915502E+03 0.28096800581E+03
 0.28198756274E+03 0.28097479870E+03 0.27776404221E+03 0.27043368751E+03 0.25708498003E+03
 0.23664900913E+03 0.20946063300E+03 0.17737639266E+03 0.14336242684E+03 0.11073159313E+03
 0.82276247874E+02 0.59655640867E+02 0.43168039333E+02 0.31967597441E+02 0.24487225337E+02
 0.19353126673E+02 0.15942678379E+02 0.13801206768E+02 0.12564941559E+02 0.12004795264E+02
 0.12003743138E+02 0.12566090393E+02 0.13799907249E+02 0.15944366353E+02 0.19350699493E+02
 0.24489852498E+02 0.31966762518E+02 0.43167361633E+02 0.59656072515E+02 0.82276048176E+02
 0.11073166221E+03 0.14336239425E+03 0.17737630667E+03 0.20946056282E+03 0.23664891893E+03
 0.25708439044E+03 0.27043414865E+03 0.27776354982E+03 0.28097506394E+03 0.28198752907E+03
 0.28217692448E+03 0.28175580928E+03 0.27986733645E+03 0.27486861950E+03 0.26473571652E+03
 0.24788469671E+03 0.22390399170E+03 0.19391181538E+03 0.16041210664E+03 0.12665916101E+03
 0.95813368480E+02 0.70150890664E+02 0.50649298452E+02 0.36974593994E+02 0.27858855317E+02
 0.21664163289E+02 0.17449272394E+02 0.14728697578E+02 0.13073765037E+02 0.12198591533E+02
 0.11923039770E+02 0.12198510406E+02 0.13073926790E+02 0.14728491180E+02 0.17449387885E+02
 0.21664908369E+02 0.27856194539E+02 0.36977247503E+02 0.50648347334E+02 0.70151218674E+02