Pt-hcc                                  
   1.00000000000000     
     2.768182    0.000000    0.000000
    -1.384091    2.397316    0.000000
     0.000000    0.000000    4.795811
   Pt
     2
Direct
  0.000000  0.000000  0.000000
  0.333333  0.666667  0.500000
 
   40   40   72
 0.27859226787E+03 0.27825420243E+03 0.27662002665E+03 0.27205398803E+03 0.26252546119E+03
 0.24641123924E+03 0.22322455173E+03 0.19397779768E+03 0.16107052519E+03 0.12768221284E+03
 0.96955070165E+02 0.71205362656E+02 0.51494785704E+02 0.37587183002E+02 0.28300615330E+02
 0.22016416006E+02 0.17732346232E+02 0.14960357745E+02 0.13272387137E+02 0.12379665200E+02
 0.12098326442E+02 0.12379650516E+02 0.13272401717E+02 0.14960410427E+02 0.17732021025E+02
 0.22018175446E+02 0.28297533105E+02 0.37589158670E+02 0.51494346367E+02 0.71205572812E+02
 0.96954822725E+02 0.12768256297E+03 0.16107017937E+03 0.19397818944E+03 0.22322421032E+03
 0.24641173665E+03 0.26252518548E+03 0.27205414459E+03 0.27661998284E+03 0.27825404966E+03
 0.27825404966E+03 0.27825420259E+03 0.27726091075E+03 0.27412548847E+03 0.26698384131E+03
 0.25398320847E+03 0.23406514247E+03 0.20752527718E+03 0.17613189123E+03 0.14275089740E+03
 0.11060610276E+03 0.82449244894E+02 0.59951446067E+02 0.43463983731E+02 0.32213756715E+02
 0.24702271796E+02 0.19544610454E+02 0.16106487672E+02 0.13943628733E+02 0.12692919120E+02
 0.12126141600E+02 0.12125016351E+02 0.12694105295E+02 0.13942240500E+02 0.16108207726E+02
 0.19542139297E+02 0.24704313295E+02 0.32213856688E+02 0.43462954232E+02 0.59952048103E+02
 0.82448755198E+02 0.11060650865E+03 0.14275045289E+03 0.17613236756E+03 0.20752490420E+03
 0.23406547220E+03 0.25398320669E+03 0.26698385674E+03 0.27412554856E+03 0.27726111885E+03
 0.27661998284E+03 0.27726803723E+03 0.27661962391E+03 0.27412560371E+03 0.26834456613E+03
 0.25752237816E+03 0.24032681574E+03 0.21650526710E+03 0.18719688830E+03 0.15478695098E+03
 0.12232429363E+03 0.92745903087E+02 0.68153927276E+02 0.49443168420E+02 0.36282284239E+02
 0.27467113527E+02 0.21447746849E+02 0.17337928672E+02 0.14676513428E+02 0.13053070485E+02
 0.12192826268E+02 0.11921679584E+02 0.12192739482E+02 0.13053188006E+02 0.14676304567E+02
 0.17338099335E+02 0.21448685366E+02 0.27464626801E+02 0.36284746347E+02 0.49441441206E+02
 0.68155393974E+02 0.92744862974E+02 0.12232497692E+03 0.15478638806E+03 0.18719713942E+03
 0.21650526133E+03 0.24032665874E+03 0.25752272407E+03 0.26834485434E+03 0.27412554856E+03
 0.27205414459E+03 0.27414315242E+03 0.27414348502E+03 0.27205414384E+03 0.26698376153E+03
 0.25752250445E+03 0.24236186406E+03 0.22094851014E+03 0.19391205339E+03 0.16311793934E+03
 0.13127242370E+03 0.10126144007E+03 0.75421990520E+02 0.55056734188E+02 0.40267025141E+02
 0.30185351551E+02 0.23344680335E+02 0.18604062693E+02 0.15445064628E+02 0.13449601581E+02
 0.12293386800E+02 0.11766916915E+02 0.11766231279E+02 0.12294096534E+02 0.13448706925E+02
 0.15446165113E+02 0.18602033355E+02 0.23347435969E+02 0.30183326200E+02 0.40268245695E+02
 0.55056172284E+02 0.75421965864E+02 0.10126140880E+03 0.13127243735E+03 0.16311799871E+03
 0.19391202191E+03 0.22094899246E+03 0.24236179913E+03 0.25752272407E+03 0.26698385674E+03
 0.26252518548E+03 0.26701254379E+03 0.26838408083E+03 0.26701209751E+03 0.26252493674E+03
 0.25398306533E+03 0.24032705769E+03 0.22094831793E+03 0.19615848317E+03 0.16736418950E+03
 0.13686420129E+03 0.10732356991E+03 0.81121409654E+02 0.59809288899E+02 0.43851954608E+02
 0.32705367986E+02 0.25127838931E+02 0.19833876782E+02 0.16215641378E+02 0.13862840225E+02
 0.12422363578E+02 0.11652951683E+02 0.11411621915E+02 0.11652735480E+02 0.12422764683E+02
 0.13862146704E+02 0.16216888573E+02 0.19832479685E+02 0.25128418745E+02 0.32705646990E+02
 0.43851235301E+02 0.59810043241E+02 0.81120995809E+02 0.10732390332E+03 0.13686362741E+03
 0.16736468922E+03 0.19615753916E+03 0.22094899246E+03 0.24032665874E+03 0.25398320669E+03
 0.24641173665E+03 0.25401640520E+03 0.25757776431E+03 0.25757752518E+03 0.25401721332E+03
 0.24641155654E+03 0.23406542977E+03 0.21650477805E+03 0.19391270577E+03 0.16736370395E+03
 0.13876401945E+03 0.11047012693E+03 0.84752906134E+02 0.63257831405E+02 0.46704989068E+02
 0.34840109169E+02 0.26680330137E+02 0.20949030299E+02 0.16943156893E+02 0.14270571538E+02
 0.12567411639E+02 0.11575318162E+02 0.11118756083E+02 0.11119472601E+02 0.11574565702E+02
 0.12568153281E+02 0.14269604155E+02 0.16943919451E+02 0.20949151020E+02 0.26679613533E+02
 0.34841086031E+02 0.46704282793E+02 0.63258398291E+02 0.84752188793E+02 0.11047076941E+03
 0.13876333484E+03 0.16736468922E+03 0.19391202191E+03 0.21650526133E+03 0.23406547220E+03
 0.22322421032E+03 0.23409640438E+03 0.24038492382E+03 0.24243042476E+03 0.24038479797E+03
 0.23409602765E+03 0.22322445676E+03 0.20752525287E+03 0.18719765262E+03 0.16311745149E+03
 0.13686459376E+03 0.11047033510E+03 0.85998677097E+02 0.65070214039E+02 0.48543725793E+02
 0.36396615571E+02 0.27891384853E+02 0.21870460095E+02 0.17578896986E+02 0.14644997623E+02
 0.12715869461E+02 0.11526055747E+02 0.10881339992E+02 0.10679804342E+02 0.10881359331E+02
 0.11526034730E+02 0.12715998730E+02 0.14645077801E+02 0.17578164914E+02 0.21871520661E+02
 0.27890364893E+02 0.36397334711E+02 0.48543132756E+02 0.65070638950E+02 0.85998390050E+02
 0.11047076941E+03 0.13686362741E+03 0.16311799871E+03 0.18719713942E+03 0.20752490420E+03
 0.19397818944E+03 0.20754461115E+03 0.21654937118E+03 0.22100919777E+03 0.22100938510E+03
 0.21654931425E+03 0.20754509971E+03 0.19397810525E+03 0.17613205967E+03 0.15478611468E+03
 0.13127321783E+03 0.10732290723E+03 0.84752893411E+02 0.65070327548E+02 0.49178568564E+02
 0.37218150088E+02 0.28664221869E+02 0.22528541894E+02 0.18075016813E+02 0.14957509401E+02
 0.12853286606E+02 0.11497419649E+02 0.10694066723E+02 0.10321823665E+02 0.10321887058E+02
 0.10693983066E+02 0.11497457045E+02 0.12853060835E+02 0.14958215044E+02 0.18074166666E+02
 0.22529269341E+02 0.28663800458E+02 0.37218453042E+02 0.49178509752E+02 0.65070638950E+02
 0.84752188793E+02 0.10732390332E+03 0.13127243735E+03 0.15478638806E+03 0.17613236756E+03
 0.16107017937E+03 0.17613468191E+03 0.18721377582E+03 0.19394339488E+03 0.19619563337E+03
 0.19394374615E+03 0.18721404755E+03 0.17613449994E+03 0.16107047257E+03 0.14275111066E+03
 0.12232516517E+03 0.10126066976E+03 0.81121746982E+02 0.63257778658E+02 0.48543475533E+02
 0.37218512936E+02 0.28929795253E+02 0.22872147271E+02 0.18390122895E+02 0.15183319345E+02
 0.12963742564E+02 0.11483961866E+02 0.10550981731E+02 0.10040030040E+02 0.98764373475E+01
 0.10040079416E+02 0.10551001157E+02 0.11484123472E+02 0.12963247719E+02 0.15183811106E+02
 0.18389704930E+02 0.22872224276E+02 0.28929745166E+02 0.37218453042E+02 0.48543132756E+02
 0.63258398291E+02 0.81120995809E+02 0.10126140880E+03 0.12232497692E+03 0.14275045289E+03
 0.12768256297E+03 0.14273397061E+03 0.15476771186E+03 0.16310497784E+03 0.16735699781E+03
 0.16735655898E+03 0.16310453702E+03 0.15476747264E+03 0.14273438034E+03 0.12768236815E+03
 0.11060590734E+03 0.92744706542E+02 0.75423126841E+02 0.59808821064E+02 0.46704917884E+02
 0.36396807567E+02 0.28663821121E+02 0.22872192947E+02 0.18498371268E+02 0.15301474722E+02
 0.13035899977E+02 0.11478435237E+02 0.10450738939E+02 0.98288918145E+01 0.95358894944E+01
 0.95357943889E+01 0.98289527424E+01 0.10450594736E+02 0.11478859033E+02 0.13035533311E+02
 0.15301750823E+02 0.18498310154E+02 0.22872224276E+02 0.28663800458E+02 0.36397334711E+02
 0.46704282793E+02 0.59810043241E+02 0.75421965864E+02 0.92744862974E+02 0.11060650865E+03
 0.96954822725E+02 0.11057284223E+03 0.12227185639E+03 0.13121063585E+03 0.13680047522E+03
 0.13870009128E+03 0.13680112317E+03 0.13121143370E+03 0.12227211507E+03 0.11057241228E+03
 0.96954873759E+02 0.82449498555E+02 0.68154977934E+02 0.55054898420E+02 0.43852808912E+02
 0.34840017180E+02 0.27891143042E+02 0.22529142732E+02 0.18389835894E+02 0.15301780810E+02
 0.13060586773E+02 0.11477288061E+02 0.10390640768E+02 0.96884679438E+01 0.92931948390E+01
 0.91666354163E+01 0.92932364481E+01 0.96885665077E+01 0.10390365065E+02 0.11477506579E+02
 0.13060364047E+02 0.15301750823E+02 0.18389704930E+02 0.22529269341E+02 0.27890364893E+02
 0.34841086031E+02 0.43851235301E+02 0.55056172284E+02 0.68155393974E+02 0.82448755198E+02
 0.71205572812E+02 0.82404656459E+02 0.92665318487E+02 0.10115865401E+03 0.10720765431E+03
 0.11034883367E+03 0.11034856401E+03 0.10720675046E+03 0.10115756795E+03 0.92665138884E+02
 0.82405153119E+02 0.71205603102E+02 0.59951067762E+02 0.49442038804E+02 0.40269170759E+02
 0.32703805641E+02 0.26681090735E+02 0.21870228309E+02 0.18074744865E+02 0.15183367167E+02
 0.13035774684E+02 0.11477089000E+02 0.10371029573E+02 0.96176171016E+01 0.91480916429E+01
 0.89223729380E+01 0.89225399730E+01 0.91478466327E+01 0.96180632481E+01 0.10370699399E+02
 0.11477506579E+02 0.13035533311E+02 0.15183811106E+02 0.18074166666E+02 0.21871520661E+02
 0.26679613533E+02 0.32705646990E+02 0.40268245695E+02 0.49441441206E+02 0.59952048103E+02
 0.51494346367E+02 0.59902483054E+02 0.68061789282E+02 0.75292158076E+02 0.80966292585E+02
 0.84582628885E+02 0.85824544748E+02 0.84583143370E+02 0.80967326636E+02 0.75293377895E+02
 0.68061558452E+02 0.59901605584E+02 0.51493705402E+02 0.43464711309E+02 0.36283261777E+02
 0.30182987778E+02 0.25129900698E+02 0.20947729833E+02 0.17579644959E+02 0.14957491338E+02
 0.12963858726E+02 0.11478561009E+02 0.10390777737E+02 0.96178031433E+01 0.90992941091E+01
 0.88012238662E+01 0.87030782696E+01 0.88013424248E+01 0.90989924430E+01 0.96180632481E+01
 0.10390365065E+02 0.11478859033E+02 0.12963247719E+02 0.14958215044E+02 0.17578164914E+02
 0.20949151020E+02 0.25128418745E+02 0.30183326200E+02 0.36284746347E+02 0.43462954232E+02
 0.37589158670E+02 0.43416090859E+02 0.49346982891E+02 0.54918602579E+02 0.59637812292E+02
 0.63062517748E+02 0.64862712459E+02 0.64862494784E+02 0.63061679010E+02 0.59636475235E+02
 0.54917125174E+02 0.49347529285E+02 0.43417769668E+02 0.37589143586E+02 0.32211318424E+02
 0.27467482956E+02 0.23346496763E+02 0.19831977086E+02 0.16944756690E+02 0.14643834369E+02
 0.12853708374E+02 0.11483442800E+02 0.10450966290E+02 0.96879905539E+01 0.91482355253E+01
 0.88008228126E+01 0.86308923889E+01 0.86305288234E+01 0.88013424248E+01 0.91478466327E+01
 0.96885665077E+01 0.10450594736E+02 0.11484123472E+02 0.12853060835E+02 0.14645077801E+02
 0.16943919451E+02 0.19832479685E+02 0.23347435969E+02 0.27464626801E+02 0.32213856688E+02
 0.28297533105E+02 0.32172733016E+02 0.36197737139E+02 0.40136885573E+02 0.43681066723E+02
 0.46504333825E+02 0.48324311597E+02 0.48953414682E+02 0.48324787322E+02 0.46505215983E+02
 0.43682788224E+02 0.40138043237E+02 0.36196281388E+02 0.32170327845E+02 0.28299745672E+02
 0.24705544163E+02 0.21445877217E+02 0.18603738473E+02 0.16216550780E+02 0.14269586979E+02
 0.12716689086E+02 0.11497259404E+02 0.10551324462E+02 0.98289098775E+01 0.92935076062E+01
 0.89224911133E+01 0.87033008877E+01 0.86308923889E+01 0.87030782696E+01 0.89225399730E+01
 0.92932364481E+01 0.98289527424E+01 0.10551001157E+02 0.11497457045E+02 0.12715998730E+02
 0.14269604155E+02 0.16216888573E+02 0.18602033355E+02 0.21448685366E+02 0.24704313295E+02
 0.22018175446E+02 0.24670804923E+02 0.27391382466E+02 0.30070685312E+02 0.32555145273E+02
 0.34658035392E+02 0.36190898484E+02 0.36999678134E+02 0.36999623957E+02 0.36190149326E+02
 0.34656825535E+02 0.32553194835E+02 0.30070234674E+02 0.27394252727E+02 0.24671925708E+02
 0.22015222038E+02 0.19542799161E+02 0.17339747760E+02 0.15445068567E+02 0.13862408615E+02
 0.12568091288E+02 0.11525323199E+02 0.10694168738E+02 0.10039667381E+02 0.95359135294E+01
 0.91662670705E+01 0.89224911133E+01 0.88008228126E+01 0.88012238662E+01 0.89223729380E+01
 0.91666354163E+01 0.95357943889E+01 0.10040079416E+02 0.10693983066E+02 0.11526034730E+02
 0.12568153281E+02 0.13862146704E+02 0.15446165113E+02 0.17338099335E+02 0.19542139297E+02
 0.17732021025E+02 0.19515764214E+02 0.21390495039E+02 0.23256093276E+02 0.25002825356E+02
 0.26521871320E+02 0.27708262948E+02 0.28466391482E+02 0.28727329104E+02 0.28466623084E+02
 0.27709309239E+02 0.26523412102E+02 0.25004570247E+02 0.23255182658E+02 0.21387792353E+02
 0.19516467168E+02 0.17734072758E+02 0.16107437283E+02 0.14675232092E+02 0.13449518543E+02
 0.12422567635E+02 0.11574780298E+02 0.10881975518E+02 0.10321850901E+02 0.98767675936E+01
 0.95359135294E+01 0.92935076062E+01 0.91482355253E+01 0.90992941091E+01 0.91480916429E+01
 0.92931948390E+01 0.95358894944E+01 0.98764373475E+01 0.10321887058E+02 0.10881359331E+02
 0.11574565702E+02 0.12422764683E+02 0.13448706925E+02 0.14676304567E+02 0.16108207726E+02
 0.14960410427E+02 0.16088041521E+02 0.17293639206E+02 0.18530882402E+02 0.19733269536E+02
 0.20823433545E+02 0.21724436587E+02 0.22367280821E+02 0.22702330015E+02 0.22702203684E+02
 0.22366805977E+02 0.21723088704E+02 0.20821815991E+02 0.19732688609E+02 0.18532505620E+02
 0.17295232526E+02 0.16087227602E+02 0.14959047533E+02 0.13942964922E+02 0.13054099163E+02
 0.12293532505E+02 0.11652809548E+02 0.11119181788E+02 0.10679129971E+02 0.10321850901E+02
 0.10039667381E+02 0.98289098775E+01 0.96879905539E+01 0.96178031433E+01 0.96176171016E+01
 0.96884679438E+01 0.98288918145E+01 0.10040030040E+02 0.10321823665E+02 0.10679804342E+02
 0.11119472601E+02 0.11652735480E+02 0.12294096534E+02 0.13053188006E+02 0.13942240500E+02
 0.13272401717E+02 0.13926736589E+02 0.14642486823E+02 0.15391981545E+02 0.16141133250E+02
 0.16847683985E+02 0.17463908652E+02 0.17944932773E+02 0.18250720269E+02 0.18355815200E+02
 0.18251063171E+02 0.17945637028E+02 0.17465577751E+02 0.16848592263E+02 0.16140915188E+02
 0.15390893433E+02 0.14641441491E+02 0.13927462250E+02 0.13273534691E+02 0.12693473228E+02
 0.12191851606E+02 0.11766630760E+02 0.11411565480E+02 0.11119181788E+02 0.10881975518E+02
 0.10694168738E+02 0.10551324462E+02 0.10450966290E+02 0.10390777737E+02 0.10371029573E+02
 0.10390640768E+02 0.10450738939E+02 0.10550981731E+02 0.10694066723E+02 0.10881339992E+02
 0.11118756083E+02 0.11411621915E+02 0.11766231279E+02 0.12192739482E+02 0.12694105295E+02
 0.12379650516E+02 0.12681714264E+02 0.13026957634E+02 0.13407482503E+02 0.13805407658E+02
 0.14197855735E+02 0.14559316095E+02 0.14860779128E+02 0.15078432140E+02 0.15192355938E+02
 0.15192188839E+02 0.15077899135E+02 0.14859766058E+02 0.14558029980E+02 0.14197681955E+02
 0.13805593768E+02 0.13408213723E+02 0.13027829024E+02 0.12681048443E+02 0.12378574620E+02
 0.12125562527E+02 0.11922487170E+02 0.11766630760E+02 0.11652809548E+02 0.11574780298E+02
 0.11525323199E+02 0.11497259404E+02 0.11483442800E+02 0.11478561009E+02 0.11477089000E+02
 0.11477288061E+02 0.11478435237E+02 0.11483961866E+02 0.11497419649E+02 0.11526055747E+02
 0.11575318162E+02 0.11652951683E+02 0.11766916915E+02 0.11921679584E+02 0.12125016351E+02
 0.12098326442E+02 0.12114097858E+02 0.12170850789E+02 0.12261254274E+02 0.12379112830E+02
 0.12514273964E+02 0.12652748364E+02 0.12782123252E+02 0.12886710074E+02 0.12955142583E+02
 0.12979014098E+02 0.12955424233E+02 0.12887583196E+02 0.12782839601E+02 0.12653567119E+02
 0.12514247455E+02 0.12378988047E+02 0.12260673731E+02 0.12169991655E+02 0.12114643686E+02
 0.12099289017E+02 0.12125562527E+02 0.12191851606E+02 0.12293532505E+02 0.12422567635E+02
 0.12568091288E+02 0.12716689086E+02 0.12853708374E+02 0.12963858726E+02 0.13035774684E+02
 0.13060586773E+02 0.13035899977E+02 0.12963742564E+02 0.12853286606E+02 0.12715869461E+02
 0.12567411639E+02 0.12422363578E+02 0.12293386800E+02 0.12192826268E+02 0.12126141600E+02
 0.12379665200E+02 0.12115224867E+02 0.11901273891E+02 0.11737545120E+02 0.11616918571E+02
 0.11532627064E+02 0.11479014347E+02 0.11446608515E+02 0.11430247640E+02 0.11422980331E+02
 0.11420524888E+02 0.11420452926E+02 0.11422369014E+02 0.11429565274E+02 0.11446239696E+02
 0.11478269188E+02 0.11532729243E+02 0.11616949924E+02 0.11737900405E+02 0.11902072587E+02
 0.12114643686E+02 0.12378574620E+02 0.12693473228E+02 0.13054099163E+02 0.13449518543E+02
 0.13862408615E+02 0.14269586979E+02 0.14643834369E+02 0.14957491338E+02 0.15183367167E+02
 0.15301780810E+02 0.15301474722E+02 0.15183319345E+02 0.14957509401E+02 0.14644997623E+02
 0.14270571538E+02 0.13862840225E+02 0.13449601581E+02 0.13053070485E+02 0.12692919120E+02
 0.13272387137E+02 0.12680491886E+02 0.12170911261E+02 0.11738181011E+02 0.11378204378E+02
 0.11083187004E+02 0.10843592192E+02 0.10655755985E+02 0.10512981854E+02 0.10413165980E+02
 0.10354009005E+02 0.10334378465E+02 0.10354422989E+02 0.10413610866E+02 0.10513459378E+02
 0.10656006281E+02 0.10844317170E+02 0.11082912885E+02 0.11378235078E+02 0.11737900405E+02
 0.12169991655E+02 0.12681048443E+02 0.13273534691E+02 0.13942964922E+02 0.14675232092E+02
 0.15445068567E+02 0.16216550780E+02 0.16944756690E+02 0.17579644959E+02 0.18074744865E+02
 0.18389835894E+02 0.18498371268E+02 0.18390122895E+02 0.18075016813E+02 0.17578896986E+02
 0.16943156893E+02 0.16215641378E+02 0.15445064628E+02 0.14676513428E+02 0.13943628733E+02
 0.14960357745E+02 0.13928108984E+02 0.13026784020E+02 0.12260529745E+02 0.11617097447E+02
 0.11082558731E+02 0.10645216748E+02 0.10290178985E+02 0.10011728360E+02 0.98041205324E+01
 0.96659041953E+01 0.95968434714E+01 0.95964595294E+01 0.96656880308E+01 0.98038541863E+01
 0.10011337671E+02 0.10289997060E+02 0.10644540360E+02 0.11082912885E+02 0.11616949924E+02
 0.12260673731E+02 0.13027829024E+02 0.13927462250E+02 0.14959047533E+02 0.16107437283E+02
 0.17339747760E+02 0.18603738473E+02 0.19831977086E+02 0.20947729833E+02 0.21870228309E+02
 0.22529142732E+02 0.22872192947E+02 0.22872147271E+02 0.22528541894E+02 0.21870460095E+02
 0.20949030299E+02 0.19833876782E+02 0.18604062693E+02 0.17337928672E+02 0.16106487672E+02
 0.17732346232E+02 0.16086298904E+02 0.14642663491E+02 0.13408293845E+02 0.12378679708E+02
 0.11533257870E+02 0.10843590686E+02 0.10289943131E+02 0.98511343103E+01 0.95165923901E+01
 0.92795558407E+01 0.91374358866E+01 0.90904880562E+01 0.91376853410E+01 0.92796910468E+01
 0.95168239201E+01 0.98515689422E+01 0.10289997060E+02 0.10844317170E+02 0.11532729243E+02
 0.12378988047E+02 0.13408213723E+02 0.14641441491E+02 0.16087227602E+02 0.17734072758E+02
 0.19542799161E+02 0.21445877217E+02 0.23346496763E+02 0.25129900698E+02 0.26681090735E+02
 0.27891143042E+02 0.28663821121E+02 0.28929795253E+02 0.28664221869E+02 0.27891384853E+02
 0.26680330137E+02 0.25127838931E+02 0.23344680335E+02 0.21447746849E+02 0.19544610454E+02
 0.22016416006E+02 0.19518233156E+02 0.17293430323E+02 0.15390884996E+02 0.13806036206E+02
 0.12513618030E+02 0.11478984606E+02 0.10656046244E+02 0.10011644089E+02 0.95170924685E+01
 0.91553612739E+01 0.89175318541E+01 0.87986945647E+01 0.87989159484E+01 0.89172996770E+01
 0.91553560126E+01 0.95168239201E+01 0.10011337671E+02 0.10656006281E+02 0.11478269188E+02
 0.12514247455E+02 0.13805593768E+02 0.15390893433E+02 0.17295232526E+02 0.19516467168E+02
 0.22015222038E+02 0.24705544163E+02 0.27467482956E+02 0.30182987778E+02 0.32703805641E+02
 0.34840017180E+02 0.36396807567E+02 0.37218512936E+02 0.37218150088E+02 0.36396615571E+02
 0.34840109169E+02 0.32705367986E+02 0.30185351551E+02 0.27467113527E+02 0.24702271796E+02
 0.28300615330E+02 0.24668745282E+02 0.21389649399E+02 0.18532860098E+02 0.16139919731E+02
 0.14198672667E+02 0.12652689454E+02 0.11446385283E+02 0.10513095807E+02 0.98036984238E+01
 0.92796008898E+01 0.89171080805E+01 0.87038441098E+01 0.86330235067E+01 0.87036342242E+01
 0.89172996770E+01 0.92796910468E+01 0.98038541863E+01 0.10513459378E+02 0.11446239696E+02
 0.12653567119E+02 0.14197681955E+02 0.16140915188E+02 0.18532505620E+02 0.21387792353E+02
 0.24671925708E+02 0.28299745672E+02 0.32211318424E+02 0.36283261777E+02 0.40269170759E+02
 0.43852808912E+02 0.46704917884E+02 0.48543475533E+02 0.49178568564E+02 0.48543725793E+02
 0.46704989068E+02 0.43851954608E+02 0.40267025141E+02 0.36282284239E+02 0.32213756715E+02
 0.37587183002E+02 0.32172762038E+02 0.27393828761E+02 0.23253402003E+02 0.19734631997E+02
 0.16847073852E+02 0.14559146525E+02 0.12782555931E+02 0.11429978472E+02 0.10413726395E+02
 0.96657486775E+01 0.91379106190E+01 0.87986922126E+01 0.86329906442E+01 0.86330235067E+01
 0.87989159484E+01 0.91376853410E+01 0.96656880308E+01 0.10413610866E+02 0.11429565274E+02
 0.12782839601E+02 0.14558029980E+02 0.16848592263E+02 0.19732688609E+02 0.23255182658E+02
 0.27394252727E+02 0.32170327845E+02 0.37589143586E+02 0.43464711309E+02 0.49442038804E+02
 0.55054898420E+02 0.59808821064E+02 0.63257778658E+02 0.65070327548E+02 0.65070214039E+02
 0.63257831405E+02 0.59809288899E+02 0.55056734188E+02 0.49443168420E+02 0.43463983731E+02
 0.51494785704E+02 0.43417050526E+02 0.36195322023E+02 0.30072759245E+02 0.25002426009E+02
 0.20823132401E+02 0.17464770957E+02 0.14859810820E+02 0.12887439123E+02 0.11422112720E+02
 0.10354537354E+02 0.95961478531E+01 0.90907632741E+01 0.87986922126E+01 0.87038441098E+01
 0.87986945647E+01 0.90904880562E+01 0.95964595294E+01 0.10354422989E+02 0.11422369014E+02
 0.12887583196E+02 0.14859766058E+02 0.17465577751E+02 0.20821815991E+02 0.25004570247E+02
 0.30070234674E+02 0.36196281388E+02 0.43417769668E+02 0.51493705402E+02 0.59951067762E+02
 0.68154977934E+02 0.75423126841E+02 0.81121746982E+02 0.84752893411E+02 0.85998677097E+02
 0.84752906134E+02 0.81121409654E+02 0.75421990520E+02 0.68153927276E+02 0.59951446067E+02
 0.71205362656E+02 0.59901939421E+02 0.49348716732E+02 0.40135874208E+02 0.32554671623E+02
 0.26522866314E+02 0.21723195119E+02 0.17946124067E+02 0.15077519010E+02 0.12956113906E+02
 0.11419898441E+02 0.10335148549E+02 0.95961478531E+01 0.91379106190E+01 0.89171080805E+01
 0.89175318541E+01 0.91374358866E+01 0.95968434714E+01 0.10334378465E+02 0.11420452926E+02
 0.12955424233E+02 0.15077899135E+02 0.17945637028E+02 0.21723088704E+02 0.26523412102E+02
 0.32553194835E+02 0.40138043237E+02 0.49347529285E+02 0.59901605584E+02 0.71205603102E+02
 0.82449498555E+02 0.92744706542E+02 0.10126066976E+03 0.10732290723E+03 0.11047033510E+03
 0.11047012693E+03 0.10732356991E+03 0.10126144007E+03 0.92745903087E+02 0.82449244894E+02
 0.96955070165E+02 0.82404959923E+02 0.68060481683E+02 0.54918932093E+02 0.43682002331E+02
 0.34656953672E+02 0.27709469937E+02 0.22366164732E+02 0.18251470901E+02 0.15191521727E+02
 0.12979504434E+02 0.11419898441E+02 0.10354537354E+02 0.96657486775E+01 0.92796008898E+01
 0.91553612739E+01 0.92795558407E+01 0.96659041953E+01 0.10354009005E+02 0.11420524888E+02
 0.12979014098E+02 0.15192188839E+02 0.18251063171E+02 0.22366805977E+02 0.27709309239E+02
 0.34656825535E+02 0.43682788224E+02 0.54917125174E+02 0.68061558452E+02 0.82405153119E+02
 0.96954873759E+02 0.11060590734E+03 0.12232516517E+03 0.13127321783E+03 0.13686459376E+03
 0.13876401945E+03 0.13686420129E+03 0.13127242370E+03 0.12232429363E+03 0.11060610276E+03
 0.12768221284E+03 0.11057266746E+03 0.92666125758E+02 0.75292340143E+02 0.59636836816E+02
 0.46505451133E+02 0.36189693150E+02 0.28467481137E+02 0.22701498973E+02 0.18356670781E+02
 0.15191521727E+02 0.12956113906E+02 0.11422112720E+02 0.10413726395E+02 0.98036984238E+01
 0.95170924685E+01 0.95165923901E+01 0.98041205324E+01 0.10413165980E+02 0.11422980331E+02
 0.12955142583E+02 0.15192355938E+02 0.18355815200E+02 0.22702203684E+02 0.28466623084E+02
 0.36190149326E+02 0.46505215983E+02 0.59636475235E+02 0.75293377895E+02 0.92665138884E+02
 0.11057241228E+03 0.12768236815E+03 0.14275111066E+03 0.15478611468E+03 0.16311745149E+03
 0.16736370395E+03 0.16736418950E+03 0.16311793934E+03 0.15478695098E+03 0.14275089740E+03
 0.16107052519E+03 0.14273406931E+03 0.12227125154E+03 0.10115830877E+03 0.80967092389E+02
 0.63061437015E+02 0.48325377615E+02 0.36998825682E+02 0.28727920023E+02 0.22701498973E+02
 0.18251470901E+02 0.15077519010E+02 0.12887439123E+02 0.11429978472E+02 0.10513095807E+02
 0.10011644089E+02 0.98511343103E+01 0.10011728360E+02 0.10512981854E+02 0.11430247640E+02
 0.12886710074E+02 0.15078432140E+02 0.18250720269E+02 0.22702330015E+02 0.28727329104E+02
 0.36999623957E+02 0.48324787322E+02 0.63061679010E+02 0.80967326636E+02 0.10115756795E+03
 0.12227211507E+03 0.14273438034E+03 0.16107047257E+03 0.17613205967E+03 0.18719765262E+03
 0.19391270577E+03 0.19615848317E+03 0.19391205339E+03 0.18719688830E+03 0.17613189123E+03
 0.19397779768E+03 0.17613470370E+03 0.15476790507E+03 0.13121109439E+03 0.10720670578E+03
 0.84583807055E+02 0.64861731583E+02 0.48954336089E+02 0.36998825682E+02 0.28467481137E+02
 0.22366164732E+02 0.17946124067E+02 0.14859810820E+02 0.12782555931E+02 0.11446385283E+02
 0.10656046244E+02 0.10289943131E+02 0.10290178985E+02 0.10655755985E+02 0.11446608515E+02
 0.12782123252E+02 0.14860779128E+02 0.17944932773E+02 0.22367280821E+02 0.28466391482E+02
 0.36999678134E+02 0.48953414682E+02 0.64862494784E+02 0.84583143370E+02 0.10720675046E+03
 0.13121143370E+03 0.15476747264E+03 0.17613449994E+03 0.19397810525E+03 0.20752525287E+03
 0.21650477805E+03 0.22094831793E+03 0.22094851014E+03 0.21650526710E+03 0.20752527718E+03
 0.22322455173E+03 0.20754466799E+03 0.18721356903E+03 0.16310464090E+03 0.13680112208E+03
 0.11034786874E+03 0.85825255489E+02 0.64861731583E+02 0.48325377615E+02 0.36189693150E+02
 0.27709469937E+02 0.21723195119E+02 0.17464770957E+02 0.14559146525E+02 0.12652689454E+02
 0.11478984606E+02 0.10843590686E+02 0.10645216748E+02 0.10843592192E+02 0.11479014347E+02
 0.12652748364E+02 0.14559316095E+02 0.17463908652E+02 0.21724436587E+02 0.27708262948E+02
 0.36190898484E+02 0.48324311597E+02 0.64862712459E+02 0.85824544748E+02 0.11034856401E+03
 0.13680112317E+03 0.16310453702E+03 0.18721404755E+03 0.20754509971E+03 0.22322445676E+03
 0.23406542977E+03 0.24032705769E+03 0.24236186406E+03 0.24032681574E+03 0.23406514247E+03
 0.24641123924E+03 0.23409651841E+03 0.21654943903E+03 0.19394385793E+03 0.16735620828E+03
 0.13870101299E+03 0.11034786874E+03 0.84583807055E+02 0.63061437015E+02 0.46505451133E+02
 0.34656953672E+02 0.26522866314E+02 0.20823132401E+02 0.16847073852E+02 0.14198672667E+02
 0.12513618030E+02 0.11533257870E+02 0.11082558731E+02 0.11083187004E+02 0.11532627064E+02
 0.12514273964E+02 0.14197855735E+02 0.16847683985E+02 0.20823433545E+02 0.26521871320E+02
 0.34658035392E+02 0.46504333825E+02 0.63062517748E+02 0.84582628885E+02 0.11034883367E+03
 0.13870009128E+03 0.16735655898E+03 0.19394374615E+03 0.21654931425E+03 0.23409602765E+03
 0.24641155654E+03 0.25398306533E+03 0.25752250445E+03 0.25752237816E+03 0.25398320847E+03
 0.26252546119E+03 0.25401693200E+03 0.24038467212E+03 0.22100932659E+03 0.19619585397E+03
 0.16735620828E+03 0.13680112208E+03 0.10720670578E+03 0.80967092389E+02 0.59636836816E+02
 0.43682002331E+02 0.32554671623E+02 0.25002426009E+02 0.19734631997E+02 0.16139919731E+02
 0.13806036206E+02 0.12378679708E+02 0.11617097447E+02 0.11378204378E+02 0.11616918571E+02
 0.12379112830E+02 0.13805407658E+02 0.16141133250E+02 0.19733269536E+02 0.25002825356E+02
 0.32555145273E+02 0.43681066723E+02 0.59637812292E+02 0.80966292585E+02 0.10720765431E+03
 0.13680047522E+03 0.16735699781E+03 0.19619563337E+03 0.22100938510E+03 0.24038479797E+03
 0.25401721332E+03 0.26252493674E+03 0.26698376153E+03 0.26834456613E+03 0.26698384131E+03
 0.27205398803E+03 0.26701213728E+03 0.25757807044E+03 0.24243051007E+03 0.22100932659E+03
 0.19394385793E+03 0.16310464090E+03 0.13121109439E+03 0.10115830877E+03 0.75292340143E+02
 0.54918932093E+02 0.40135874208E+02 0.30072759245E+02 0.23253402003E+02 0.18532860098E+02
 0.15390884996E+02 0.13408293845E+02 0.12260529745E+02 0.11738181011E+02 0.11737545120E+02
 0.12261254274E+02 0.13407482503E+02 0.15391981545E+02 0.18530882402E+02 0.23256093276E+02
 0.30070685312E+02 0.40136885573E+02 0.54918602579E+02 0.75292158076E+02 0.10115865401E+03
 0.13121063585E+03 0.16310497784E+03 0.19394339488E+03 0.22100919777E+03 0.24243042476E+03
 0.25757752518E+03 0.26701209751E+03 0.27205414384E+03 0.27412560371E+03 0.27412548847E+03
 0.27662002665E+03 0.27414371724E+03 0.26838406908E+03 0.25757807044E+03 0.24038467212E+03
 0.21654943903E+03 0.18721356903E+03 0.15476790507E+03 0.12227125154E+03 0.92666125758E+02
 0.68060481683E+02 0.49348716732E+02 0.36195322023E+02 0.27393828761E+02 0.21389649399E+02
 0.17293430323E+02 0.14642663491E+02 0.13026784020E+02 0.12170911261E+02 0.11901273891E+02
 0.12170850789E+02 0.13026957634E+02 0.14642486823E+02 0.17293639206E+02 0.21390495039E+02
 0.27391382466E+02 0.36197737139E+02 0.49346982891E+02 0.68061789282E+02 0.92665318487E+02
 0.12227185639E+03 0.15476771186E+03 0.18721377582E+03 0.21654937118E+03 0.24038492382E+03
 0.25757776431E+03 0.26838408083E+03 0.27414348502E+03 0.27661962391E+03 0.27726091075E+03
 0.27825420243E+03 0.27726767567E+03 0.27414371724E+03 0.26701213728E+03 0.25401693200E+03
 0.23409651841E+03 0.20754466799E+03 0.17613470370E+03 0.14273406931E+03 0.11057266746E+03
 0.82404959923E+02 0.59901939421E+02 0.43417050526E+02 0.32172762038E+02 0.24668745282E+02
 0.19518233156E+02 0.16086298904E+02 0.13928108984E+02 0.12680491886E+02 0.12115224867E+02
 0.12114097858E+02 0.12681714264E+02 0.13926736589E+02 0.16088041521E+02 0.19515764214E+02
 0.24670804923E+02 0.32172733016E+02 0.43416090859E+02 0.59902483054E+02 0.82404656459E+02
 0.11057284223E+03 0.14273397061E+03 0.17613468191E+03 0.20754461115E+03 0.23409640438E+03
 0.25401640520E+03 0.26701254379E+03 0.27414315242E+03 0.27726803723E+03 0.27825420259E+03
 0.27844048168E+03 0.27802985080E+03 0.27619146359E+03 0.27132857331E+03 0.26146834558E+03
 0.24505439184E+03 0.22165897900E+03 0.19233540024E+03 0.15949241550E+03 0.12628905769E+03
 0.95823108735E+02 0.70358009439E+02 0.50907469276E+02 0.37202910285E+02 0.28048583970E+02
 0.21838498220E+02 0.17603614323E+02 0.14863442916E+02 0.13194246455E+02 0.12311079726E+02
 0.12032750382E+02 0.12311043091E+02 0.13194311258E+02 0.14863407676E+02 0.17603443881E+02
 0.21839909849E+02 0.28045633635E+02 0.37205147396E+02 0.50906832897E+02 0.70358200463E+02