   2   2   1   0
  0.1612641E+02  0.2780502E-09  0.2780502E-09  0.4817155E-09  0.5000000E-15
  1.000000000000000E-004
  CAR 
 Pt-hcc                                  
     35.21577427    -45.64949357  301     10.74252800      1.00000000
    -45.649  0.0000E+00  0.0000E+00
    -45.380  0.0000E+00  0.0000E+00
    -45.110  0.0000E+00  0.0000E+00
    -44.841  0.0000E+00  0.0000E+00
    -44.571  0.0000E+00  0.0000E+00
    -44.302  0.0000E+00  0.0000E+00
    -44.032  0.0000E+00  0.0000E+00
    -43.763  0.0000E+00  0.0000E+00
    -43.493  0.0000E+00  0.0000E+00
    -43.224  0.0000E+00  0.0000E+00
    -42.954  0.0000E+00  0.0000E+00
    -42.684  0.0000E+00  0.0000E+00
    -42.415  0.0000E+00  0.0000E+00
    -42.145  0.1536E-08  0.4140E-09
    -41.876  0.7326E-01  0.1975E-01
    -41.606  0.2570E+00  0.8902E-01
    -41.337  0.1149E+00  0.1200E+00
    -41.067  0.1047E-07  0.1200E+00
    -40.798  0.0000E+00  0.1200E+00
    -40.528  0.0000E+00  0.1200E+00
    -40.258  0.0000E+00  0.1200E+00
    -39.989  0.0000E+00  0.1200E+00
    -39.719  0.0000E+00  0.1200E+00
    -39.450  0.0000E+00  0.1200E+00
    -39.180  0.0000E+00  0.1200E+00
    -38.911  0.0000E+00  0.1200E+00
    -38.641  0.0000E+00  0.1200E+00
    -38.372  0.0000E+00  0.1200E+00
    -38.102  0.0000E+00  0.1200E+00
    -37.833  0.0000E+00  0.1200E+00
    -37.563  0.0000E+00  0.1200E+00
    -37.293  0.0000E+00  0.1200E+00
    -37.024  0.0000E+00  0.1200E+00
    -36.754  0.0000E+00  0.1200E+00
    -36.485  0.0000E+00  0.1200E+00
    -36.215  0.0000E+00  0.1200E+00
    -35.946  0.0000E+00  0.1200E+00
    -35.676  0.0000E+00  0.1200E+00
    -35.407  0.0000E+00  0.1200E+00
    -35.137  0.0000E+00  0.1200E+00
    -34.867  0.0000E+00  0.1200E+00
    -34.598  0.0000E+00  0.1200E+00
    -34.328  0.0000E+00  0.1200E+00
    -34.059  0.0000E+00  0.1200E+00
    -33.789  0.0000E+00  0.1200E+00
    -33.520  0.0000E+00  0.1200E+00
    -33.250  0.0000E+00  0.1200E+00
    -32.981  0.0000E+00  0.1200E+00
    -32.711  0.0000E+00  0.1200E+00
    -32.441  0.0000E+00  0.1200E+00
    -32.172  0.0000E+00  0.1200E+00
    -31.902  0.0000E+00  0.1200E+00
    -31.633  0.0000E+00  0.1200E+00
    -31.363  0.0000E+00  0.1200E+00
    -31.094  0.0000E+00  0.1200E+00
    -30.824  0.0000E+00  0.1200E+00
    -30.555  0.0000E+00  0.1200E+00
    -30.285  0.0000E+00  0.1200E+00
    -30.016  0.0000E+00  0.1200E+00
    -29.746  0.0000E+00  0.1200E+00
    -29.476  0.0000E+00  0.1200E+00
    -29.207  0.0000E+00  0.1200E+00
    -28.937  0.0000E+00  0.1200E+00
    -28.668  0.0000E+00  0.1200E+00
    -28.398  0.0000E+00  0.1200E+00
    -28.129  0.0000E+00  0.1200E+00
    -27.859  0.0000E+00  0.1200E+00
    -27.590  0.0000E+00  0.1200E+00
    -27.320  0.0000E+00  0.1200E+00
    -27.050  0.0000E+00  0.1200E+00
    -26.781  0.0000E+00  0.1200E+00
    -26.511  0.0000E+00  0.1200E+00
    -26.242  0.0000E+00  0.1200E+00
    -25.972  0.0000E+00  0.1200E+00
    -25.703  0.0000E+00  0.1200E+00
    -25.433  0.0000E+00  0.1200E+00
    -25.164  0.0000E+00  0.1200E+00
    -24.894  0.0000E+00  0.1200E+00
    -24.625  0.0000E+00  0.1200E+00
    -24.355  0.0000E+00  0.1200E+00
    -24.085  0.0000E+00  0.1200E+00
    -23.816  0.0000E+00  0.1200E+00
    -23.546  0.0000E+00  0.1200E+00
    -23.277  0.0000E+00  0.1200E+00
    -23.007  0.0000E+00  0.1200E+00
    -22.738  0.0000E+00  0.1200E+00
    -22.468  0.0000E+00  0.1200E+00
    -22.199  0.0000E+00  0.1200E+00
    -21.929  0.0000E+00  0.1200E+00
    -21.659  0.0000E+00  0.1200E+00
    -21.390  0.0000E+00  0.1200E+00
    -21.120  0.0000E+00  0.1200E+00
    -20.851  0.0000E+00  0.1200E+00
    -20.581  0.0000E+00  0.1200E+00
    -20.312  0.0000E+00  0.1200E+00
    -20.042  0.0000E+00  0.1200E+00
    -19.773  0.0000E+00  0.1200E+00
    -19.503  0.0000E+00  0.1200E+00
    -19.234  0.0000E+00  0.1200E+00
    -18.964  0.0000E+00  0.1200E+00
    -18.694  0.0000E+00  0.1200E+00
    -18.425  0.0000E+00  0.1200E+00
    -18.155  0.0000E+00  0.1200E+00
    -17.886  0.0000E+00  0.1200E+00
    -17.616  0.0000E+00  0.1200E+00
    -17.347  0.0000E+00  0.1200E+00
    -17.077  0.0000E+00  0.1200E+00
    -16.808  0.0000E+00  0.1200E+00
    -16.538  0.0000E+00  0.1200E+00
    -16.268  0.0000E+00  0.1200E+00
    -15.999  0.0000E+00  0.1200E+00
    -15.729  0.0000E+00  0.1200E+00
    -15.460  0.0000E+00  0.1200E+00
    -15.190  0.0000E+00  0.1200E+00
    -14.921  0.0000E+00  0.1200E+00
    -14.651  0.0000E+00  0.1200E+00
    -14.382  0.0000E+00  0.1200E+00
    -14.112  0.0000E+00  0.1200E+00
    -13.842  0.0000E+00  0.1200E+00
    -13.573  0.0000E+00  0.1200E+00
    -13.303  0.0000E+00  0.1200E+00
    -13.034  0.0000E+00  0.1200E+00
    -12.764  0.0000E+00  0.1200E+00
    -12.495  0.0000E+00  0.1200E+00
    -12.225  0.0000E+00  0.1200E+00
    -11.956  0.0000E+00  0.1200E+00
    -11.686  0.0000E+00  0.1200E+00
    -11.417  0.0000E+00  0.1200E+00
    -11.147  0.0000E+00  0.1200E+00
    -10.877  0.0000E+00  0.1200E+00
    -10.608  0.0000E+00  0.1200E+00
    -10.338  0.0000E+00  0.1200E+00
    -10.069  0.0000E+00  0.1200E+00
     -9.799  0.0000E+00  0.1200E+00
     -9.530  0.0000E+00  0.1200E+00
     -9.260  0.0000E+00  0.1200E+00
     -8.991  0.0000E+00  0.1200E+00
     -8.721  0.0000E+00  0.1200E+00
     -8.451  0.0000E+00  0.1200E+00
     -8.182  0.0000E+00  0.1200E+00
     -7.912  0.0000E+00  0.1200E+00
     -7.643  0.0000E+00  0.1200E+00
     -7.373  0.0000E+00  0.1200E+00
     -7.104  0.0000E+00  0.1200E+00
     -6.834  0.0000E+00  0.1200E+00
     -6.565  0.0000E+00  0.1200E+00
     -6.295  0.0000E+00  0.1200E+00
     -6.026  0.0000E+00  0.1200E+00
     -5.756  0.0000E+00  0.1200E+00
     -5.486  0.0000E+00  0.1200E+00
     -5.217  0.0000E+00  0.1200E+00
     -4.947  0.0000E+00  0.1200E+00
     -4.678  0.0000E+00  0.1200E+00
     -4.408  0.0000E+00  0.1200E+00
     -4.139  0.0000E+00  0.1200E+00
     -3.869  0.0000E+00  0.1200E+00
     -3.600  0.0000E+00  0.1200E+00
     -3.330  0.0000E+00  0.1200E+00
     -3.060  0.0000E+00  0.1200E+00
     -2.791  0.0000E+00  0.1200E+00
     -2.521  0.0000E+00  0.1200E+00
     -2.252  0.0000E+00  0.1200E+00
     -1.982  0.0000E+00  0.1200E+00
     -1.713  0.0000E+00  0.1200E+00
     -1.443  0.0000E+00  0.1200E+00
     -1.174  0.0000E+00  0.1200E+00
     -0.904  0.0000E+00  0.1200E+00
     -0.634  0.0000E+00  0.1200E+00
     -0.365  0.0000E+00  0.1200E+00
     -0.095  0.0000E+00  0.1200E+00
      0.174  0.0000E+00  0.1200E+00
      0.444  0.0000E+00  0.1200E+00
      0.713  0.0000E+00  0.1200E+00
      0.983  0.3707E-18  0.1200E+00
      1.252  0.4111E-04  0.1200E+00
      1.522  0.2404E-03  0.1201E+00
      1.791  0.1726E-02  0.1205E+00
      2.061  0.2102E-03  0.1206E+00
      2.331  0.1655E-02  0.1210E+00
      2.600  0.1665E-02  0.1215E+00
      2.870  0.3459E-02  0.1224E+00
      3.139  0.1298E-02  0.1228E+00
      3.409  0.2541E-02  0.1235E+00
      3.678  0.4330E-02  0.1246E+00
      3.948  0.6493E-02  0.1264E+00
      4.217  0.6508E-02  0.1281E+00
      4.487  0.1290E-01  0.1316E+00
      4.757  0.2665E-01  0.1388E+00
      5.026  0.2019E-01  0.1442E+00
      5.296  0.2617E-01  0.1513E+00
      5.565  0.1718E-01  0.1559E+00
      5.835  0.3092E-01  0.1643E+00
      6.104  0.3604E-01  0.1740E+00
      6.374  0.2682E-01  0.1812E+00
      6.643  0.3412E-01  0.1904E+00
      6.913  0.2663E-01  0.1976E+00
      7.182  0.2836E-01  0.2052E+00
      7.452  0.3721E-01  0.2152E+00
      7.722  0.3915E-01  0.2258E+00
      7.991  0.3046E-01  0.2340E+00
      8.261  0.4548E-01  0.2463E+00
      8.530  0.3220E-01  0.2550E+00
      8.800  0.2664E-01  0.2621E+00
      9.069  0.2363E-01  0.2685E+00
      9.339  0.2348E-01  0.2748E+00
      9.608  0.3032E-01  0.2830E+00
      9.878  0.2555E-01  0.2899E+00
     10.148  0.2632E-01  0.2970E+00
     10.417  0.2686E-01  0.3042E+00
     10.687  0.5075E-01  0.3179E+00
     10.956  0.3133E-01  0.3263E+00
     11.226  0.2513E-01  0.3331E+00
     11.495  0.6253E-02  0.3348E+00
     11.765  0.5735E-02  0.3364E+00
     12.034  0.1996E-02  0.3369E+00
     12.304  0.1426E-02  0.3373E+00
     12.573  0.5941E-02  0.3389E+00
     12.843  0.1310E-01  0.3424E+00
     13.113  0.7473E-02  0.3444E+00
     13.382  0.3451E-02  0.3454E+00
     13.652  0.2285E-02  0.3460E+00
     13.921  0.6620E-02  0.3478E+00
     14.191  0.3419E-02  0.3487E+00
     14.460  0.7001E-02  0.3506E+00
     14.730  0.3117E-02  0.3514E+00
     14.999  0.5177E-02  0.3528E+00
     15.269  0.8708E-02  0.3551E+00
     15.539  0.5883E-02  0.3567E+00
     15.808  0.4959E-02  0.3581E+00
     16.078  0.3921E-02  0.3591E+00
     16.347  0.2943E-02  0.3599E+00
     16.617  0.1447E-02  0.3603E+00
     16.886  0.4951E-02  0.3616E+00
     17.156  0.7793E-02  0.3637E+00
     17.425  0.1271E-01  0.3672E+00
     17.695  0.7275E-02  0.3691E+00
     17.965  0.8303E-02  0.3714E+00
     18.234  0.5372E-02  0.3728E+00
     18.504  0.9435E-02  0.3754E+00
     18.773  0.5349E-02  0.3768E+00
     19.043  0.5420E-02  0.3783E+00
     19.312  0.6632E-02  0.3800E+00
     19.582  0.9265E-02  0.3825E+00
     19.851  0.9681E-02  0.3852E+00
     20.121  0.7462E-02  0.3872E+00
     20.390  0.2832E-02  0.3879E+00
     20.660  0.6912E-02  0.3898E+00
     20.930  0.9980E-02  0.3925E+00
     21.199  0.8213E-02  0.3947E+00
     21.469  0.3097E-02  0.3955E+00
     21.738  0.4357E-02  0.3967E+00
     22.008  0.1014E-01  0.3994E+00
     22.277  0.4448E-02  0.4006E+00
     22.547  0.3684E-02  0.4016E+00
     22.816  0.1168E-01  0.4048E+00
     23.086  0.1220E-01  0.4081E+00
     23.356  0.9897E-02  0.4107E+00
     23.625  0.5782E-02  0.4123E+00
     23.895  0.8540E-02  0.4146E+00
     24.164  0.3849E-02  0.4156E+00
     24.434  0.6944E-02  0.4175E+00
     24.703  0.1837E-01  0.4225E+00
     24.973  0.1833E-01  0.4274E+00
     25.242  0.1507E-01  0.4315E+00
     25.512  0.1561E-01  0.4357E+00
     25.781  0.1138E-01  0.4387E+00
     26.051  0.1088E-01  0.4417E+00
     26.321  0.1197E-01  0.4449E+00
     26.590  0.2059E-01  0.4504E+00
     26.860  0.1437E-01  0.4543E+00
     27.129  0.1512E-01  0.4584E+00
     27.399  0.1135E-01  0.4615E+00
     27.668  0.1354E-01  0.4651E+00
     27.938  0.1034E-01  0.4679E+00
     28.207  0.6939E-02  0.4698E+00
     28.477  0.7450E-02  0.4718E+00
     28.747  0.6438E-02  0.4735E+00
     29.016  0.3704E-02  0.4745E+00
     29.286  0.6071E-02  0.4761E+00
     29.555  0.4020E-02  0.4772E+00
     29.825  0.2110E-02  0.4778E+00
     30.094  0.5544E-02  0.4793E+00
     30.364  0.1170E-02  0.4796E+00
     30.633  0.7157E-03  0.4798E+00
     30.903  0.3762E-04  0.4798E+00
     31.173  0.5450E-03  0.4799E+00
     31.442  0.6417E-06  0.4800E+00
     31.712  0.1850E-03  0.4800E+00
     31.981  0.0000E+00  0.4800E+00
     32.251  0.0000E+00  0.4800E+00
     32.520  0.0000E+00  0.4800E+00
     32.790  0.0000E+00  0.4800E+00
     33.059  0.0000E+00  0.4800E+00
     33.329  0.0000E+00  0.4800E+00
     33.598  0.0000E+00  0.4800E+00
     33.868  0.0000E+00  0.4800E+00
     34.138  0.0000E+00  0.4800E+00
     34.407  0.0000E+00  0.4800E+00
     34.677  0.0000E+00  0.4800E+00
     34.946  0.0000E+00  0.4800E+00
     35.216  0.0000E+00  0.4800E+00
     35.21577427    -45.64949357  301     10.74252800      1.00000000
    -45.649  0.0000E+00  0.0000E+00  0.0000E+00  0.0000E+00  0.0000E+00  0.0000E+00  0.0000E+00  0.0000E+00  0.0000E+00
    -45.380  0.0000E+00  0.0000E+00  0.0000E+00  0.0000E+00  0.0000E+00  0.0000E+00  0.0000E+00  0.0000E+00  0.0000E+00
    -45.110  0.0000E+00  0.0000E+00  0.0000E+00  0.0000E+00  0.0000E+00  0.0000E+00  0.0000E+00  0.0000E+00  0.0000E+00
    -44.841  0.0000E+00  0.0000E+00  0.0000E+00  0.0000E+00  0.0000E+00  0.0000E+00  0.0000E+00  0.0000E+00  0.0000E+00
    -44.571  0.0000E+00  0.0000E+00  0.0000E+00  0.0000E+00  0.0000E+00  0.0000E+00  0.0000E+00  0.0000E+00  0.0000E+00
    -44.302  0.0000E+00  0.0000E+00  0.0000E+00  0.0000E+00  0.0000E+00  0.0000E+00  0.0000E+00  0.0000E+00  0.0000E+00
    -44.032  0.0000E+00  0.0000E+00  0.0000E+00  0.0000E+00  0.0000E+00  0.0000E+00  0.0000E+00  0.0000E+00  0.0000E+00
    -43.763  0.0000E+00  0.0000E+00  0.0000E+00  0.0000E+00  0.0000E+00  0.0000E+00  0.0000E+00  0.0000E+00  0.0000E+00
    -43.493  0.0000E+00  0.0000E+00  0.0000E+00  0.0000E+00  0.0000E+00  0.0000E+00  0.0000E+00  0.0000E+00  0.0000E+00
    -43.224  0.0000E+00  0.0000E+00  0.0000E+00  0.0000E+00  0.0000E+00  0.0000E+00  0.0000E+00  0.0000E+00  0.0000E+00
    -42.954  0.0000E+00  0.0000E+00  0.0000E+00  0.0000E+00  0.0000E+00  0.0000E+00  0.0000E+00  0.0000E+00  0.0000E+00
    -42.684  0.0000E+00  0.0000E+00  0.0000E+00  0.0000E+00  0.0000E+00  0.0000E+00  0.0000E+00  0.0000E+00  0.0000E+00
    -42.415  0.0000E+00  0.0000E+00  0.0000E+00  0.0000E+00  0.0000E+00  0.0000E+00  0.0000E+00  0.0000E+00  0.0000E+00
    -42.145  0.3376E-12  0.3702E-07  0.1515E-08  0.3702E-07  0.8257E-13  0.2449E-13  0.3539E-12  0.2449E-13  0.8257E-13
    -41.876  0.6461E-04  0.1765E+01  0.8028E-01  0.1765E+01  0.2857E-04  0.2417E-05  0.3635E-04  0.2417E-05  0.2857E-04
    -41.606  0.1854E-03  0.5147E+01  0.2440E+01  0.5147E+01  0.1270E-03  0.3173E-04  0.8622E-04  0.3173E-04  0.1270E-03
    -41.337  0.1763E-04  0.4376E+00  0.4830E+01  0.4376E+00  0.5372E-05  0.2187E-04  0.2472E-04  0.2187E-04  0.5372E-05
    -41.067  0.1963E-27  0.1587E-22  0.5209E-06  0.1587E-22  0.1963E-25  0.4264E-26  0.3942E-28  0.4264E-26  0.1963E-25
    -40.798  0.0000E+00  0.0000E+00  0.0000E+00  0.0000E+00  0.0000E+00  0.0000E+00  0.0000E+00  0.0000E+00  0.0000E+00
    -40.528  0.0000E+00  0.0000E+00  0.0000E+00  0.0000E+00  0.0000E+00  0.0000E+00  0.0000E+00  0.0000E+00  0.0000E+00
    -40.258  0.0000E+00  0.0000E+00  0.0000E+00  0.0000E+00  0.0000E+00  0.0000E+00  0.0000E+00  0.0000E+00  0.0000E+00
    -39.989  0.0000E+00  0.0000E+00  0.0000E+00  0.0000E+00  0.0000E+00  0.0000E+00  0.0000E+00  0.0000E+00  0.0000E+00
    -39.719  0.0000E+00  0.0000E+00  0.0000E+00  0.0000E+00  0.0000E+00  0.0000E+00  0.0000E+00  0.0000E+00  0.0000E+00
    -39.450  0.0000E+00  0.0000E+00  0.0000E+00  0.0000E+00  0.0000E+00  0.0000E+00  0.0000E+00  0.0000E+00  0.0000E+00
    -39.180  0.0000E+00  0.0000E+00  0.0000E+00  0.0000E+00  0.0000E+00  0.0000E+00  0.0000E+00  0.0000E+00  0.0000E+00
    -38.911  0.0000E+00  0.0000E+00  0.0000E+00  0.0000E+00  0.0000E+00  0.0000E+00  0.0000E+00  0.0000E+00  0.0000E+00
    -38.641  0.0000E+00  0.0000E+00  0.0000E+00  0.0000E+00  0.0000E+00  0.0000E+00  0.0000E+00  0.0000E+00  0.0000E+00
    -38.372  0.0000E+00  0.0000E+00  0.0000E+00  0.0000E+00  0.0000E+00  0.0000E+00  0.0000E+00  0.0000E+00  0.0000E+00
    -38.102  0.0000E+00  0.0000E+00  0.0000E+00  0.0000E+00  0.0000E+00  0.0000E+00  0.0000E+00  0.0000E+00  0.0000E+00
    -37.833  0.0000E+00  0.0000E+00  0.0000E+00  0.0000E+00  0.0000E+00  0.0000E+00  0.0000E+00  0.0000E+00  0.0000E+00
    -37.563  0.0000E+00  0.0000E+00  0.0000E+00  0.0000E+00  0.0000E+00  0.0000E+00  0.0000E+00  0.0000E+00  0.0000E+00
    -37.293  0.0000E+00  0.0000E+00  0.0000E+00  0.0000E+00  0.0000E+00  0.0000E+00  0.0000E+00  0.0000E+00  0.0000E+00
    -37.024  0.0000E+00  0.0000E+00  0.0000E+00  0.0000E+00  0.0000E+00  0.0000E+00  0.0000E+00  0.0000E+00  0.0000E+00
    -36.754  0.0000E+00  0.0000E+00  0.0000E+00  0.0000E+00  0.0000E+00  0.0000E+00  0.0000E+00  0.0000E+00  0.0000E+00
    -36.485  0.0000E+00  0.0000E+00  0.0000E+00  0.0000E+00  0.0000E+00  0.0000E+00  0.0000E+00  0.0000E+00  0.0000E+00
    -36.215  0.0000E+00  0.0000E+00  0.0000E+00  0.0000E+00  0.0000E+00  0.0000E+00  0.0000E+00  0.0000E+00  0.0000E+00
    -35.946  0.0000E+00  0.0000E+00  0.0000E+00  0.0000E+00  0.0000E+00  0.0000E+00  0.0000E+00  0.0000E+00  0.0000E+00
    -35.676  0.0000E+00  0.0000E+00  0.0000E+00  0.0000E+00  0.0000E+00  0.0000E+00  0.0000E+00  0.0000E+00  0.0000E+00
    -35.407  0.0000E+00  0.0000E+00  0.0000E+00  0.0000E+00  0.0000E+00  0.0000E+00  0.0000E+00  0.0000E+00  0.0000E+00
    -35.137  0.0000E+00  0.0000E+00  0.0000E+00  0.0000E+00  0.0000E+00  0.0000E+00  0.0000E+00  0.0000E+00  0.0000E+00
    -34.867  0.0000E+00  0.0000E+00  0.0000E+00  0.0000E+00  0.0000E+00  0.0000E+00  0.0000E+00  0.0000E+00  0.0000E+00
    -34.598  0.0000E+00  0.0000E+00  0.0000E+00  0.0000E+00  0.0000E+00  0.0000E+00  0.0000E+00  0.0000E+00  0.0000E+00
    -34.328  0.0000E+00  0.0000E+00  0.0000E+00  0.0000E+00  0.0000E+00  0.0000E+00  0.0000E+00  0.0000E+00  0.0000E+00
    -34.059  0.0000E+00  0.0000E+00  0.0000E+00  0.0000E+00  0.0000E+00  0.0000E+00  0.0000E+00  0.0000E+00  0.0000E+00
    -33.789  0.0000E+00  0.0000E+00  0.0000E+00  0.0000E+00  0.0000E+00  0.0000E+00  0.0000E+00  0.0000E+00  0.0000E+00
    -33.520  0.0000E+00  0.0000E+00  0.0000E+00  0.0000E+00  0.0000E+00  0.0000E+00  0.0000E+00  0.0000E+00  0.0000E+00
    -33.250  0.0000E+00  0.0000E+00  0.0000E+00  0.0000E+00  0.0000E+00  0.0000E+00  0.0000E+00  0.0000E+00  0.0000E+00
    -32.981  0.0000E+00  0.0000E+00  0.0000E+00  0.0000E+00  0.0000E+00  0.0000E+00  0.0000E+00  0.0000E+00  0.0000E+00
    -32.711  0.0000E+00  0.0000E+00  0.0000E+00  0.0000E+00  0.0000E+00  0.0000E+00  0.0000E+00  0.0000E+00  0.0000E+00
    -32.441  0.0000E+00  0.0000E+00  0.0000E+00  0.0000E+00  0.0000E+00  0.0000E+00  0.0000E+00  0.0000E+00  0.0000E+00
    -32.172  0.0000E+00  0.0000E+00  0.0000E+00  0.0000E+00  0.0000E+00  0.0000E+00  0.0000E+00  0.0000E+00  0.0000E+00
    -31.902  0.0000E+00  0.0000E+00  0.0000E+00  0.0000E+00  0.0000E+00  0.0000E+00  0.0000E+00  0.0000E+00  0.0000E+00
    -31.633  0.0000E+00  0.0000E+00  0.0000E+00  0.0000E+00  0.0000E+00  0.0000E+00  0.0000E+00  0.0000E+00  0.0000E+00
    -31.363  0.0000E+00  0.0000E+00  0.0000E+00  0.0000E+00  0.0000E+00  0.0000E+00  0.0000E+00  0.0000E+00  0.0000E+00
    -31.094  0.0000E+00  0.0000E+00  0.0000E+00  0.0000E+00  0.0000E+00  0.0000E+00  0.0000E+00  0.0000E+00  0.0000E+00
    -30.824  0.0000E+00  0.0000E+00  0.0000E+00  0.0000E+00  0.0000E+00  0.0000E+00  0.0000E+00  0.0000E+00  0.0000E+00
    -30.555  0.0000E+00  0.0000E+00  0.0000E+00  0.0000E+00  0.0000E+00  0.0000E+00  0.0000E+00  0.0000E+00  0.0000E+00
    -30.285  0.0000E+00  0.0000E+00  0.0000E+00  0.0000E+00  0.0000E+00  0.0000E+00  0.0000E+00  0.0000E+00  0.0000E+00
    -30.016  0.0000E+00  0.0000E+00  0.0000E+00  0.0000E+00  0.0000E+00  0.0000E+00  0.0000E+00  0.0000E+00  0.0000E+00
    -29.746  0.0000E+00  0.0000E+00  0.0000E+00  0.0000E+00  0.0000E+00  0.0000E+00  0.0000E+00  0.0000E+00  0.0000E+00
    -29.476  0.0000E+00  0.0000E+00  0.0000E+00  0.0000E+00  0.0000E+00  0.0000E+00  0.0000E+00  0.0000E+00  0.0000E+00
    -29.207  0.0000E+00  0.0000E+00  0.0000E+00  0.0000E+00  0.0000E+00  0.0000E+00  0.0000E+00  0.0000E+00  0.0000E+00
    -28.937  0.0000E+00  0.0000E+00  0.0000E+00  0.0000E+00  0.0000E+00  0.0000E+00  0.0000E+00  0.0000E+00  0.0000E+00
    -28.668  0.0000E+00  0.0000E+00  0.0000E+00  0.0000E+00  0.0000E+00  0.0000E+00  0.0000E+00  0.0000E+00  0.0000E+00
    -28.398  0.0000E+00  0.0000E+00  0.0000E+00  0.0000E+00  0.0000E+00  0.0000E+00  0.0000E+00  0.0000E+00  0.0000E+00
    -28.129  0.0000E+00  0.0000E+00  0.0000E+00  0.0000E+00  0.0000E+00  0.0000E+00  0.0000E+00  0.0000E+00  0.0000E+00
    -27.859  0.0000E+00  0.0000E+00  0.0000E+00  0.0000E+00  0.0000E+00  0.0000E+00  0.0000E+00  0.0000E+00  0.0000E+00
    -27.590  0.0000E+00  0.0000E+00  0.0000E+00  0.0000E+00  0.0000E+00  0.0000E+00  0.0000E+00  0.0000E+00  0.0000E+00
    -27.320  0.0000E+00  0.0000E+00  0.0000E+00  0.0000E+00  0.0000E+00  0.0000E+00  0.0000E+00  0.0000E+00  0.0000E+00
    -27.050  0.0000E+00  0.0000E+00  0.0000E+00  0.0000E+00  0.0000E+00  0.0000E+00  0.0000E+00  0.0000E+00  0.0000E+00
    -26.781  0.0000E+00  0.0000E+00  0.0000E+00  0.0000E+00  0.0000E+00  0.0000E+00  0.0000E+00  0.0000E+00  0.0000E+00
    -26.511  0.0000E+00  0.0000E+00  0.0000E+00  0.0000E+00  0.0000E+00  0.0000E+00  0.0000E+00  0.0000E+00  0.0000E+00
    -26.242  0.0000E+00  0.0000E+00  0.0000E+00  0.0000E+00  0.0000E+00  0.0000E+00  0.0000E+00  0.0000E+00  0.0000E+00
    -25.972  0.0000E+00  0.0000E+00  0.0000E+00  0.0000E+00  0.0000E+00  0.0000E+00  0.0000E+00  0.0000E+00  0.0000E+00
    -25.703  0.0000E+00  0.0000E+00  0.0000E+00  0.0000E+00  0.0000E+00  0.0000E+00  0.0000E+00  0.0000E+00  0.0000E+00
    -25.433  0.0000E+00  0.0000E+00  0.0000E+00  0.0000E+00  0.0000E+00  0.0000E+00  0.0000E+00  0.0000E+00  0.0000E+00
    -25.164  0.0000E+00  0.0000E+00  0.0000E+00  0.0000E+00  0.0000E+00  0.0000E+00  0.0000E+00  0.0000E+00  0.0000E+00
    -24.894  0.0000E+00  0.0000E+00  0.0000E+00  0.0000E+00  0.0000E+00  0.0000E+00  0.0000E+00  0.0000E+00  0.0000E+00
    -24.625  0.0000E+00  0.0000E+00  0.0000E+00  0.0000E+00  0.0000E+00  0.0000E+00  0.0000E+00  0.0000E+00  0.0000E+00
    -24.355  0.0000E+00  0.0000E+00  0.0000E+00  0.0000E+00  0.0000E+00  0.0000E+00  0.0000E+00  0.0000E+00  0.0000E+00
    -24.085  0.0000E+00  0.0000E+00  0.0000E+00  0.0000E+00  0.0000E+00  0.0000E+00  0.0000E+00  0.0000E+00  0.0000E+00
    -23.816  0.0000E+00  0.0000E+00  0.0000E+00  0.0000E+00  0.0000E+00  0.0000E+00  0.0000E+00  0.0000E+00  0.0000E+00
    -23.546  0.0000E+00  0.0000E+00  0.0000E+00  0.0000E+00  0.0000E+00  0.0000E+00  0.0000E+00  0.0000E+00  0.0000E+00
    -23.277  0.0000E+00  0.0000E+00  0.0000E+00  0.0000E+00  0.0000E+00  0.0000E+00  0.0000E+00  0.0000E+00  0.0000E+00
    -23.007  0.0000E+00  0.0000E+00  0.0000E+00  0.0000E+00  0.0000E+00  0.0000E+00  0.0000E+00  0.0000E+00  0.0000E+00
    -22.738  0.0000E+00  0.0000E+00  0.0000E+00  0.0000E+00  0.0000E+00  0.0000E+00  0.0000E+00  0.0000E+00  0.0000E+00
    -22.468  0.0000E+00  0.0000E+00  0.0000E+00  0.0000E+00  0.0000E+00  0.0000E+00  0.0000E+00  0.0000E+00  0.0000E+00
    -22.199  0.0000E+00  0.0000E+00  0.0000E+00  0.0000E+00  0.0000E+00  0.0000E+00  0.0000E+00  0.0000E+00  0.0000E+00
    -21.929  0.0000E+00  0.0000E+00  0.0000E+00  0.0000E+00  0.0000E+00  0.0000E+00  0.0000E+00  0.0000E+00  0.0000E+00
    -21.659  0.0000E+00  0.0000E+00  0.0000E+00  0.0000E+00  0.0000E+00  0.0000E+00  0.0000E+00  0.0000E+00  0.0000E+00
    -21.390  0.0000E+00  0.0000E+00  0.0000E+00  0.0000E+00  0.0000E+00  0.0000E+00  0.0000E+00  0.0000E+00  0.0000E+00
    -21.120  0.0000E+00  0.0000E+00  0.0000E+00  0.0000E+00  0.0000E+00  0.0000E+00  0.0000E+00  0.0000E+00  0.0000E+00
    -20.851  0.0000E+00  0.0000E+00  0.0000E+00  0.0000E+00  0.0000E+00  0.0000E+00  0.0000E+00  0.0000E+00  0.0000E+00
    -20.581  0.0000E+00  0.0000E+00  0.0000E+00  0.0000E+00  0.0000E+00  0.0000E+00  0.0000E+00  0.0000E+00  0.0000E+00
    -20.312  0.0000E+00  0.0000E+00  0.0000E+00  0.0000E+00  0.0000E+00  0.0000E+00  0.0000E+00  0.0000E+00  0.0000E+00
    -20.042  0.0000E+00  0.0000E+00  0.0000E+00  0.0000E+00  0.0000E+00  0.0000E+00  0.0000E+00  0.0000E+00  0.0000E+00
    -19.773  0.0000E+00  0.0000E+00  0.0000E+00  0.0000E+00  0.0000E+00  0.0000E+00  0.0000E+00  0.0000E+00  0.0000E+00
    -19.503  0.0000E+00  0.0000E+00  0.0000E+00  0.0000E+00  0.0000E+00  0.0000E+00  0.0000E+00  0.0000E+00  0.0000E+00
    -19.234  0.0000E+00  0.0000E+00  0.0000E+00  0.0000E+00  0.0000E+00  0.0000E+00  0.0000E+00  0.0000E+00  0.0000E+00
    -18.964  0.0000E+00  0.0000E+00  0.0000E+00  0.0000E+00  0.0000E+00  0.0000E+00  0.0000E+00  0.0000E+00  0.0000E+00
    -18.694  0.0000E+00  0.0000E+00  0.0000E+00  0.0000E+00  0.0000E+00  0.0000E+00  0.0000E+00  0.0000E+00  0.0000E+00
    -18.425  0.0000E+00  0.0000E+00  0.0000E+00  0.0000E+00  0.0000E+00  0.0000E+00  0.0000E+00  0.0000E+00  0.0000E+00
    -18.155  0.0000E+00  0.0000E+00  0.0000E+00  0.0000E+00  0.0000E+00  0.0000E+00  0.0000E+00  0.0000E+00  0.0000E+00
    -17.886  0.0000E+00  0.0000E+00  0.0000E+00  0.0000E+00  0.0000E+00  0.0000E+00  0.0000E+00  0.0000E+00  0.0000E+00
    -17.616  0.0000E+00  0.0000E+00  0.0000E+00  0.0000E+00  0.0000E+00  0.0000E+00  0.0000E+00  0.0000E+00  0.0000E+00
    -17.347  0.0000E+00  0.0000E+00  0.0000E+00  0.0000E+00  0.0000E+00  0.0000E+00  0.0000E+00  0.0000E+00  0.0000E+00
    -17.077  0.0000E+00  0.0000E+00  0.0000E+00  0.0000E+00  0.0000E+00  0.0000E+00  0.0000E+00  0.0000E+00  0.0000E+00
    -16.808  0.0000E+00  0.0000E+00  0.0000E+00  0.0000E+00  0.0000E+00  0.0000E+00  0.0000E+00  0.0000E+00  0.0000E+00
    -16.538  0.0000E+00  0.0000E+00  0.0000E+00  0.0000E+00  0.0000E+00  0.0000E+00  0.0000E+00  0.0000E+00  0.0000E+00
    -16.268  0.0000E+00  0.0000E+00  0.0000E+00  0.0000E+00  0.0000E+00  0.0000E+00  0.0000E+00  0.0000E+00  0.0000E+00
    -15.999  0.0000E+00  0.0000E+00  0.0000E+00  0.0000E+00  0.0000E+00  0.0000E+00  0.0000E+00  0.0000E+00  0.0000E+00
    -15.729  0.0000E+00  0.0000E+00  0.0000E+00  0.0000E+00  0.0000E+00  0.0000E+00  0.0000E+00  0.0000E+00  0.0000E+00
    -15.460  0.0000E+00  0.0000E+00  0.0000E+00  0.0000E+00  0.0000E+00  0.0000E+00  0.0000E+00  0.0000E+00  0.0000E+00
    -15.190  0.0000E+00  0.0000E+00  0.0000E+00  0.0000E+00  0.0000E+00  0.0000E+00  0.0000E+00  0.0000E+00  0.0000E+00
    -14.921  0.0000E+00  0.0000E+00  0.0000E+00  0.0000E+00  0.0000E+00  0.0000E+00  0.0000E+00  0.0000E+00  0.0000E+00
    -14.651  0.0000E+00  0.0000E+00  0.0000E+00  0.0000E+00  0.0000E+00  0.0000E+00  0.0000E+00  0.0000E+00  0.0000E+00
    -14.382  0.0000E+00  0.0000E+00  0.0000E+00  0.0000E+00  0.0000E+00  0.0000E+00  0.0000E+00  0.0000E+00  0.0000E+00
    -14.112  0.0000E+00  0.0000E+00  0.0000E+00  0.0000E+00  0.0000E+00  0.0000E+00  0.0000E+00  0.0000E+00  0.0000E+00
    -13.842  0.0000E+00  0.0000E+00  0.0000E+00  0.0000E+00  0.0000E+00  0.0000E+00  0.0000E+00  0.0000E+00  0.0000E+00
    -13.573  0.0000E+00  0.0000E+00  0.0000E+00  0.0000E+00  0.0000E+00  0.0000E+00  0.0000E+00  0.0000E+00  0.0000E+00
    -13.303  0.0000E+00  0.0000E+00  0.0000E+00  0.0000E+00  0.0000E+00  0.0000E+00  0.0000E+00  0.0000E+00  0.0000E+00
    -13.034  0.0000E+00  0.0000E+00  0.0000E+00  0.0000E+00  0.0000E+00  0.0000E+00  0.0000E+00  0.0000E+00  0.0000E+00
    -12.764  0.0000E+00  0.0000E+00  0.0000E+00  0.0000E+00  0.0000E+00  0.0000E+00  0.0000E+00  0.0000E+00  0.0000E+00
    -12.495  0.0000E+00  0.0000E+00  0.0000E+00  0.0000E+00  0.0000E+00  0.0000E+00  0.0000E+00  0.0000E+00  0.0000E+00
    -12.225  0.0000E+00  0.0000E+00  0.0000E+00  0.0000E+00  0.0000E+00  0.0000E+00  0.0000E+00  0.0000E+00  0.0000E+00
    -11.956  0.0000E+00  0.0000E+00  0.0000E+00  0.0000E+00  0.0000E+00  0.0000E+00  0.0000E+00  0.0000E+00  0.0000E+00
    -11.686  0.0000E+00  0.0000E+00  0.0000E+00  0.0000E+00  0.0000E+00  0.0000E+00  0.0000E+00  0.0000E+00  0.0000E+00
    -11.417  0.0000E+00  0.0000E+00  0.0000E+00  0.0000E+00  0.0000E+00  0.0000E+00  0.0000E+00  0.0000E+00  0.0000E+00
    -11.147  0.0000E+00  0.0000E+00  0.0000E+00  0.0000E+00  0.0000E+00  0.0000E+00  0.0000E+00  0.0000E+00  0.0000E+00
    -10.877  0.0000E+00  0.0000E+00  0.0000E+00  0.0000E+00  0.0000E+00  0.0000E+00  0.0000E+00  0.0000E+00  0.0000E+00
    -10.608  0.0000E+00  0.0000E+00  0.0000E+00  0.0000E+00  0.0000E+00  0.0000E+00  0.0000E+00  0.0000E+00  0.0000E+00
    -10.338  0.0000E+00  0.0000E+00  0.0000E+00  0.0000E+00  0.0000E+00  0.0000E+00  0.0000E+00  0.0000E+00  0.0000E+00
    -10.069  0.0000E+00  0.0000E+00  0.0000E+00  0.0000E+00  0.0000E+00  0.0000E+00  0.0000E+00  0.0000E+00  0.0000E+00
     -9.799  0.0000E+00  0.0000E+00  0.0000E+00  0.0000E+00  0.0000E+00  0.0000E+00  0.0000E+00  0.0000E+00  0.0000E+00
     -9.530  0.0000E+00  0.0000E+00  0.0000E+00  0.0000E+00  0.0000E+00  0.0000E+00  0.0000E+00  0.0000E+00  0.0000E+00
     -9.260  0.0000E+00  0.0000E+00  0.0000E+00  0.0000E+00  0.0000E+00  0.0000E+00  0.0000E+00  0.0000E+00  0.0000E+00
     -8.991  0.0000E+00  0.0000E+00  0.0000E+00  0.0000E+00  0.0000E+00  0.0000E+00  0.0000E+00  0.0000E+00  0.0000E+00
     -8.721  0.0000E+00  0.0000E+00  0.0000E+00  0.0000E+00  0.0000E+00  0.0000E+00  0.0000E+00  0.0000E+00  0.0000E+00
     -8.451  0.0000E+00  0.0000E+00  0.0000E+00  0.0000E+00  0.0000E+00  0.0000E+00  0.0000E+00  0.0000E+00  0.0000E+00
     -8.182  0.0000E+00  0.0000E+00  0.0000E+00  0.0000E+00  0.0000E+00  0.0000E+00  0.0000E+00  0.0000E+00  0.0000E+00
     -7.912  0.0000E+00  0.0000E+00  0.0000E+00  0.0000E+00  0.0000E+00  0.0000E+00  0.0000E+00  0.0000E+00  0.0000E+00
     -7.643  0.0000E+00  0.0000E+00  0.0000E+00  0.0000E+00  0.0000E+00  0.0000E+00  0.0000E+00  0.0000E+00  0.0000E+00
     -7.373  0.0000E+00  0.0000E+00  0.0000E+00  0.0000E+00  0.0000E+00  0.0000E+00  0.0000E+00  0.0000E+00  0.0000E+00
     -7.104  0.0000E+00  0.0000E+00  0.0000E+00  0.0000E+00  0.0000E+00  0.0000E+00  0.0000E+00  0.0000E+00  0.0000E+00
     -6.834  0.0000E+00  0.0000E+00  0.0000E+00  0.0000E+00  0.0000E+00  0.0000E+00  0.0000E+00  0.0000E+00  0.0000E+00
     -6.565  0.0000E+00  0.0000E+00  0.0000E+00  0.0000E+00  0.0000E+00  0.0000E+00  0.0000E+00  0.0000E+00  0.0000E+00
     -6.295  0.0000E+00  0.0000E+00  0.0000E+00  0.0000E+00  0.0000E+00  0.0000E+00  0.0000E+00  0.0000E+00  0.0000E+00
     -6.026  0.0000E+00  0.0000E+00  0.0000E+00  0.0000E+00  0.0000E+00  0.0000E+00  0.0000E+00  0.0000E+00  0.0000E+00
     -5.756  0.0000E+00  0.0000E+00  0.0000E+00  0.0000E+00  0.0000E+00  0.0000E+00  0.0000E+00  0.0000E+00  0.0000E+00
     -5.486  0.0000E+00  0.0000E+00  0.0000E+00  0.0000E+00  0.0000E+00  0.0000E+00  0.0000E+00  0.0000E+00  0.0000E+00
     -5.217  0.0000E+00  0.0000E+00  0.0000E+00  0.0000E+00  0.0000E+00  0.0000E+00  0.0000E+00  0.0000E+00  0.0000E+00
     -4.947  0.0000E+00  0.0000E+00  0.0000E+00  0.0000E+00  0.0000E+00  0.0000E+00  0.0000E+00  0.0000E+00  0.0000E+00
     -4.678  0.0000E+00  0.0000E+00  0.0000E+00  0.0000E+00  0.0000E+00  0.0000E+00  0.0000E+00  0.0000E+00  0.0000E+00
     -4.408  0.0000E+00  0.0000E+00  0.0000E+00  0.0000E+00  0.0000E+00  0.0000E+00  0.0000E+00  0.0000E+00  0.0000E+00
     -4.139  0.0000E+00  0.0000E+00  0.0000E+00  0.0000E+00  0.0000E+00  0.0000E+00  0.0000E+00  0.0000E+00  0.0000E+00
     -3.869  0.0000E+00  0.0000E+00  0.0000E+00  0.0000E+00  0.0000E+00  0.0000E+00  0.0000E+00  0.0000E+00  0.0000E+00
     -3.600  0.0000E+00  0.0000E+00  0.0000E+00  0.0000E+00  0.0000E+00  0.0000E+00  0.0000E+00  0.0000E+00  0.0000E+00