    2    2  100    1
  0.1591300E+02  0.2768182E-09  0.2768182E-09  0.4795811E-09  0.5000000E-15
  1.000000000000000E-004
  CAR 
 Pt-hcc                                  
     32     70     24
 
  0.0000000E+00  0.0000000E+00  0.0000000E+00  0.1250000E-02
      1        -41.580458   1.000000
      2        -41.417686   1.000000
      3        -41.417685   1.000000
      4        -41.378146   1.000000
      5        -41.378145   1.000000
      6        -41.258882   1.000000
      7          1.363355   1.000000
      8          4.009677   1.000000
      9          7.127010   1.000000
     10          7.617626   1.000000
     11          7.617627   1.000000
     12          7.980408   1.000000
     13          7.980409   1.000000
     14          9.221063   1.000000
     15          9.221063   1.000000
     16         10.330899   1.000000
     17         10.788531   1.000000
     18         10.788531   1.000000
     19         15.649539   0.000000
     20         26.094335   0.000000
     21         26.701485   0.000000
     22         28.243169   0.000000
     23         31.932187   0.000000
     24         31.932187   0.000000
 
  0.1000000E+00  0.0000000E+00  0.0000000E+00  0.7500000E-02
      1        -41.568548   1.000000
      2        -41.451959   1.000000
      3        -41.427077   1.000000
      4        -41.413561   1.000000
      5        -41.385049   1.000000
      6        -41.261306   1.000000
      7          1.721593   1.000000
      8          4.333747   1.000000
      9          7.059046   1.000000
     10          7.630422   1.000000
     11          7.834990   1.000000
     12          7.890451   1.000000
     13          8.239375   1.000000
     14          8.656898   1.000000
     15          9.053439   1.000000
     16          9.209855   1.000000
     17         10.850748   0.999961
     18         12.550496   0.000000
     19         15.614676   0.000000
     20         26.512028   0.000000
     21         27.222980   0.000000
     22         28.543600   0.000000
     23         30.336090   0.000000
     24         30.431973   0.000000
 
  0.2000000E+00  0.0000000E+00  0.0000000E+00  0.7500000E-02
      1        -41.543475   1.000000
      2        -41.536853   1.000000
      3        -41.505791   1.000000
      4        -41.453374   1.000000
      5        -41.404077   1.000000
      6        -41.269752   1.000000
      7          2.699235   1.000000
      8          5.047334   1.000000
      9          6.832531   1.000000
     10          7.312527   1.000000
     11          7.352436   1.000000
     12          8.244803   1.000000
     13          8.661007   1.000000
     14          8.680820   1.000000
     15          8.701883   1.000000
     16          8.966368   1.000000
     17         10.949405   0.877017
     18         14.707594   0.000000
     19         15.550543   0.000000
     20         24.951153   0.000000
     21         27.825599   0.000000
     22         28.015572   0.000000
     23         28.932743   0.000000
     24         29.150467   0.000000
 
  0.3000000E+00  0.2775558E-16  0.0000000E+00  0.7500000E-02
      1        -41.656140   1.000000
      2        -41.617488   1.000000
      3        -41.492180   1.000000
      4        -41.484845   1.000000
      5        -41.428537   1.000000
      6        -41.285529   1.000000
      7          3.899534   1.000000
      8          5.175598   1.000000
      9          6.270639   1.000000
     10          7.093453   1.000000
     11          7.446026   1.000000
     12          8.201087   1.000000
     13          8.295682   1.000000
     14          9.377401   1.000000
     15          9.766906   1.000000
     16          9.995109   1.000000
     17         11.003346   0.357381
     18         15.678033   0.000000
     19         16.907040   0.000000
     20         21.230967   0.000000
     21         25.648050   0.000000
     22         26.261214   0.000000
     23         27.760246   0.000000
     24         28.919520   0.000000
 
  0.4000000E+00 -0.2775558E-16  0.0000000E+00  0.7500000E-02
      1        -41.747801   1.000000
      2        -41.706309   1.000000
      3        -41.510049   1.000000
      4        -41.448466   1.000000
      5        -41.447598   1.000000
      6        -41.306910   1.000000
      7          4.564674   1.000000
      8          4.865813   1.000000
      9          5.625523   1.000000
     10          7.605882   1.000000
     11          7.833891   1.000000
     12          8.022019   1.000000
     13          8.244465   1.000000
     14         10.830792   0.999997
     15         11.006418   0.325510
     16         11.015692   0.237410
     17         11.223237   0.000000
     18         16.490465   0.000000
     19         17.602218   0.000000
     20         18.865965   0.000000
     21         23.322955   0.000000
     22         23.756155   0.000000
     23         24.902256   0.000000
     24         27.644930   0.000000
 
  0.5000000E+00 -0.5551115E-16  0.0000000E+00  0.3750000E-02
      1        -41.782271   1.000000
      2        -41.740394   1.000000
      3        -41.519916   1.000000
      4        -41.456186   1.000000
      5        -41.425632   1.000000
      6        -41.320642   1.000000
      7          4.664345   1.000000
      8          4.733862   1.000000
      9          5.407073   1.000000
     10          7.700973   1.000000
     11          7.923796   1.000000
     12          8.122128   1.000000
     13          8.446588   1.000000
     14         11.014999   0.243509
     15         11.277978   0.000000
     16         11.477206   0.000000
     17         13.249141   0.000000
     18         14.708785   0.000000
     19         18.228364   0.000000
     20         19.815269   0.000000
     21         20.435794   0.000000
     22         22.984900   0.000000
     23         24.248228   0.000000
     24         27.075493   0.000000
 
  0.1000000E+00  0.1000000E+00  0.0000000E+00  0.7500000E-02
      1        -41.547021   1.000000
      2        -41.509240   1.000000
      3        -41.484080   1.000000
      4        -41.439814   1.000000
      5        -41.403281   1.000000
      6        -41.267112   1.000000
      7          2.397687   1.000000
      8          4.899660   1.000000
      9          6.793488   1.000000
     10          7.544690   1.000000
     11          7.710829   1.000000
     12          7.850049   1.000000
     13          8.465616   1.000000
     14          8.483089   1.000000
     15          8.818552   1.000000
     16          9.118150   1.000000
     17         10.872613   0.999569
     18         14.137752   0.000000
     19         15.567056   0.000000
     20         26.391278   0.000000
     21         26.964852   0.000000
     22         28.115927   0.000000
     23         29.105552   0.000000
     24         29.816270   0.000000
 
  0.2000000E+00  0.1000000E+00  0.0000000E+00  0.1500000E-01
      1        -41.604023   1.000000
      2        -41.578812   1.000000
      3        -41.508801   1.000000
      4        -41.476537   1.000000
      5        -41.431995   1.000000
      6        -41.279196   1.000000
      7          3.559456   1.000000
      8          5.506736   1.000000
      9          6.616665   1.000000
     10          6.675286   1.000000
     11          7.278799   1.000000
     12          7.998057   1.000000
     13          8.452324   1.000000
     14          8.757810   1.000000
     15          9.506660   1.000000
     16          9.904045   1.000000
     17         10.874273   0.999491
     18         15.618079   0.000000
     19         16.209599   0.000000
     20         23.128128   0.000000
     21         25.034633   0.000000
     22         27.246559   0.000000
     23         29.127471   0.000000
     24         29.725835   0.000000
 
  0.3000000E+00  0.1000000E+00  0.0000000E+00  0.1500000E-01
      1        -41.702376   1.000000
      2        -41.667825   1.000000
      3        -41.514198   1.000000
      4        -41.462871   1.000000
      5        -41.459509   1.000000
      6        -41.298781   1.000000
      7          4.615038   1.000000
      8          5.274256   1.000000
      9          5.912427   1.000000
     10          7.106207   1.000000
     11          7.706912   1.000000
     12          7.719469   1.000000
     13          8.276323   1.000000
     14          9.533315   1.000000
     15         10.572374   1.000000
     16         10.862580   0.999850
     17         11.306887   0.000000
     18         16.214346   0.000000
     19         18.329985   0.000000
     20         19.315736   0.000000
     21         22.939394   0.000000
     22         25.788365   0.000000
     23         26.023772   0.000000
     24         28.057961   0.000000
 
  0.4000000E+00  0.1000000E+00  0.0000000E+00  0.1500000E-01
      1        -41.762967   1.000000
      2        -41.721938   1.000000
      3        -41.537071   1.000000
      4        -41.476348   1.000000
      5        -41.425579   1.000000
      6        -41.320282   1.000000
      7          4.930791   1.000000
      8          5.018547   1.000000
      9          5.515593   1.000000
     10          7.653405   1.000000
     11          7.881181   1.000000
     12          7.885433   1.000000
     13          8.211411   1.000000
     14         10.746153   1.000000
     15         10.846359   0.999977
     16         11.117663   0.000160
     17         12.993924   0.000000
     18         15.926694   0.000000
     19         17.885864   0.000000
     20         19.994353   0.000000
     21         20.742207   0.000000
     22         23.081060   0.000000
     23         24.709696   0.000000
     24         26.996247   0.000000
 
  0.2000000E+00  0.2000000E+00  0.0000000E+00  0.7500000E-02
      1        -41.659715   1.000000
      2        -41.659089   1.000000
      3        -41.519383   1.000000
      4        -41.480152   1.000000
      5        -41.468720   1.000000
      6        -41.295985   1.000000
      7          4.761634   1.000000
      8          6.104341   1.000000
      9          6.111982   1.000000
     10          6.173102   1.000000
     11          7.490374   1.000000
     12          7.519290   1.000000
     13          8.466445   1.000000
     14          8.808147   1.000000
     15         10.557093   1.000000
     16         10.698434   1.000000
     17         11.386279   0.000000
     18         16.186319   0.000000
     19         18.204016   0.000000
     20         20.768552   0.000000
     21         21.684205   0.000000
     22         26.529969   0.000000
     23         27.674359   0.000000
     24         28.193818   0.000000
 
  0.3000000E+00  0.2000000E+00  0.0000000E+00  0.1500000E-01
      1        -41.718939   1.000000
      2        -41.690894   1.000000
      3        -41.568643   1.000000
      4        -41.521403   1.000000
      5        -41.425984   1.000000
      6        -41.319824   1.000000
      7          5.544893   1.000000
      8          5.732631   1.000000
      9          5.764994   1.000000
     10          6.895128   1.000000
     11          7.376800   1.000000
     12          7.988559   1.000000
     13          8.032079   1.000000
     14          9.587038   1.000000
     15         10.564257   1.000000
     16         10.990702   0.496874
     17         13.040321   0.000000
     18         17.176921   0.000000
     19         18.120431   0.000000
     20         19.745478   0.000000
     21         20.277298   0.000000
     22         24.645341   0.000000
     23         25.731747   0.000000
     24         26.707115   0.000000
 
  0.4000000E+00  0.2000000E+00  0.0000000E+00  0.7500000E-02
      1        -41.741131   1.000000
      2        -41.699313   1.000000
      3        -41.592498   1.000000
      4        -41.537194   1.000000
      5        -41.401824   1.000000
      6        -41.336864   1.000000
      7          5.599080   1.000000
      8          5.615247   1.000000
      9          5.662888   1.000000
     10          7.461058   1.000000
     11          7.511763   1.000000
     12          7.619123   1.000000
     13          8.295603   1.000000
     14         10.336137   1.000000
     15         10.515202   1.000000
     16         10.801105   1.000000
     17         14.630372   0.000000
     18         15.133673   0.000000
     19         18.450246   0.000000
     20         20.011265   0.000000
     21         21.483909   0.000000
     22         22.483008   0.000000
     23         24.913753   0.000000
     24         26.220364   0.000000
 
  0.3000000E+00  0.3000000E+00  0.0000000E+00  0.7500000E-02
      1        -41.706354   1.000000
      2        -41.674655   1.000000
      3        -41.629006   1.000000
      4        -41.588753   1.000000
      5        -41.388244   1.000000
      6        -41.347886   1.000000
      7          5.690937   1.000000
      8          6.092437   1.000000
      9          6.346275   1.000000
     10          6.781360   1.000000
     11          7.330006   1.000000
     12          7.594766   1.000000
     13          8.384591   1.000000
     14          9.941952   1.000000
     15         10.351914   1.000000
     16         10.644135   1.000000
     17         14.635838   0.000000
     18         15.902697   0.000000
     19         17.328646   0.000000
     20         20.830501   0.000000
     21         22.398938   0.000000
     22         23.603192   0.000000
     23         24.405814   0.000000
     24         24.812106   0.000000
 
  0.0000000E+00  0.0000000E+00  0.1250000E+00  0.2500000E-02
      1        -41.567646   1.000000
      2        -41.415677   1.000000
      3        -41.415676   1.000000
      4        -41.379446   1.000000
      5        -41.379445   1.000000
      6        -41.270979   1.000000
      7          1.496443   1.000000
      8          3.989991   1.000000
      9          7.094151   1.000000
     10          7.598500   1.000000
     11          7.598500   1.000000
     12          7.942151   1.000000
     13          7.942152   1.000000
     14          9.318479   1.000000
     15          9.318479   1.000000
     16          9.713419   1.000000
     17         10.762115   1.000000
     18         10.762116   1.000000
     19         16.517474   0.000000
     20         25.642628   0.000000
     21         27.196665   0.000000
     22         27.958970   0.000000
     23         31.405496   0.000000
     24         31.405496   0.000000
 
  0.1000000E+00  0.0000000E+00  0.1250000E+00  0.1500000E-01
      1        -41.557702   1.000000
      2        -41.449617   1.000000
      3        -41.425651   1.000000
      4        -41.415754   1.000000
      5        -41.386659   1.000000
      6        -41.272420   1.000000
      7          1.852098   1.000000
      8          4.320333   1.000000
      9          7.062182   1.000000
     10          7.544793   1.000000
     11          7.733135   1.000000
     12          7.862039   1.000000
     13          8.196725   1.000000
     14          8.609982   1.000000
     15          9.168304   1.000000
     16          9.205035   1.000000
     17         10.812814   1.000000
     18         12.010085   0.000000
     19         16.605867   0.000000
     20         26.130838   0.000000
     21         27.610282   0.000000
     22         28.324535   0.000000
     23         29.743179   0.000000
     24         30.360509   0.000000
 
  0.2000000E+00  0.0000000E+00  0.1250000E+00  0.1500000E-01
      1        -41.553955   1.000000
      2        -41.516400   1.000000
      3        -41.506876   1.000000
      4        -41.451623   1.000000
      5        -41.406057   1.000000
      6        -41.278562   1.000000
      7          2.814657   1.000000
      8          5.056631   1.000000
      9          6.863729   1.000000
     10          7.058713   1.000000
     11          7.359151   1.000000
     12          8.133241   1.000000
     13          8.500181   1.000000
     14          8.841616   1.000000
     15          8.909843   1.000000
     16          9.014324   1.000000
     17         10.890139   0.997720
     18         13.520407   0.000000
     19         17.018911   0.000000
     20         25.049324   0.000000
     21         27.602488   0.000000
     22         28.172120   0.000000
     23         28.424327   0.000000
     24         29.557259   0.000000
 
  0.3000000E+00  0.2775558E-16  0.1250000E+00  0.1500000E-01
      1        -41.658378   1.000000
      2        -41.621148   1.000000
      3        -41.482682   1.000000
      4        -41.480823   1.000000
      5        -41.430543   1.000000
      6        -41.291418   1.000000
      7          3.953362   1.000000
      8          5.203561   1.000000
      9          6.250634   1.000000
     10          6.931434   1.000000
     11          7.471735   1.000000
     12          8.305584   1.000000
     13          8.356880   1.000000
     14          9.430744   1.000000
     15          9.788247   1.000000
     16          9.947170   1.000000
     17         10.934248   0.943962
     18         14.605890   0.000000
     19         18.012080   0.000000
     20         21.500932   0.000000
     21         25.885960   0.000000
     22         25.962019   0.000000
     23         27.501047   0.000000
     24         29.376126   0.000000
 
  0.4000000E+00 -0.2775558E-16  0.1250000E+00  0.1500000E-01
      1        -41.748834   1.000000
      2        -41.710151   1.000000
      3        -41.507751   1.000000
      4        -41.450854   1.000000
      5        -41.439500   1.000000
      6        -41.310339   1.000000
      7          4.500956   1.000000
      8          4.874456   1.000000
      9          5.778276   1.000000
     10          6.980785   1.000000
     11          8.046503   1.000000
     12          8.105789   1.000000
     13          8.789041   1.000000
     14         10.756558   1.000000
     15         10.846262   0.999977
     16         11.106451   0.000516
     17         11.136785   0.000017
     18         15.638648   0.000000
     19         17.646497   0.000000
     20         19.678875   0.000000
     21         23.052384   0.000000
     22         24.030506   0.000000
     23         25.223029   0.000000
     24         27.869487   0.000000
 
  0.5000000E+00 -0.5551115E-16  0.1250000E+00  0.7500000E-02
      1        -41.783202   1.000000
      2        -41.744007   1.000000
      3        -41.517298   1.000000
      4        -41.458663   1.000000
      5        -41.418319   1.000000
      6        -41.322537   1.000000
      7          4.580283   1.000000
      8          4.693773   1.000000
      9          5.627896   1.000000
     10          7.043777   1.000000
     11          8.012630   1.000000
     12          8.194831   1.000000
     13          9.235521   1.000000
     14         10.839996   0.999990
     15         11.298143   0.000000
     16         11.471051   0.000000
     17         13.017669   0.000000
     18         14.600174   0.000000
     19         18.085155   0.000000
     20         18.820624   0.000000
     21         21.684616   0.000000
     22         23.272815   0.000000
     23         24.382017   0.000000
     24         27.355947   0.000000
 
  0.1000000E+00  0.1000000E+00  0.1250000E+00  0.1500000E-01
      1        -41.543627   1.000000
      2        -41.500361   1.000000
      3        -41.485296   1.000000
      4        -41.439478   1.000000
      5        -41.404908   1.000000
      6        -41.276146   1.000000
      7          2.520213   1.000000
      8          4.901463   1.000000
      9          6.824489   1.000000
     10          7.269654   1.000000
     11          7.626934   1.000000
     12          7.851827   1.000000
     13          8.398123   1.000000
     14          8.616890   1.000000
     15          8.906062   1.000000
     16          9.188200   1.000000
     17         10.822218   0.999999
     18         13.170574   0.000000
     19         16.863283   0.000000
     20         26.353121   0.000000
     21         27.034901   0.000000
     22         27.996964   0.000000
     23         28.650717   0.000000
     24         30.081456   0.000000
 
  0.2000000E+00  0.1000000E+00  0.1250000E+00  0.3000000E-01
      1        -41.607418   1.000000
      2        -41.581683   1.000000
      3        -41.495502   1.000000
      4        -41.475035   1.000000
      5        -41.433706   1.000000
      6        -41.286053   1.000000
      7          3.650213   1.000000
      8          5.540600   1.000000
      9          6.497761   1.000000
     10          6.682393   1.000000
     11          7.249762   1.000000
     12          7.898709   1.000000
     13          8.599081   1.000000
     14          8.745382   1.000000
     15          9.616364   1.000000
     16          9.852325   1.000000
     17         10.824285   0.999999
     18         14.331919   0.000000
     19         17.663738   0.000000
     20         23.307502   0.000000
     21         25.164240   0.000000
     22         27.153825   0.000000
     23         28.508931   0.000000
     24         30.329225   0.000000
 
  0.3000000E+00  0.1000000E+00  0.1250000E+00  0.3000000E-01
      1        -41.703856   1.000000
      2        -41.671357   1.000000
      3        -41.512911   1.000000
      4        -41.462930   1.000000
      5        -41.452090   1.000000
      6        -41.302813   1.000000
      7          4.600190   1.000000
      8          5.308601   1.000000
      9          5.974809   1.000000
     10          6.834744   1.000000
     11          7.677240   1.000000
     12          8.053179   1.000000
     13          8.290555   1.000000
     14          9.549542   1.000000
     15         10.618685   1.000000
     16         10.676226   1.000000
     17         11.365811   0.000000
     18         15.420719   0.000000
     19         18.579378   0.000000
     20         20.079705   0.000000
     21         23.049144   0.000000
     22         25.220710   0.000000
     23         26.420335   0.000000
     24         28.251778   0.000000
 
  0.4000000E+00  0.1000000E+00  0.1250000E+00  0.3000000E-01
      1        -41.764005   1.000000
      2        -41.725697   1.000000
      3        -41.535491   1.000000
      4        -41.479278   1.000000
      5        -41.418252   1.000000
      6        -41.321822   1.000000
      7          4.806035   1.000000
      8          5.010312   1.000000
      9          5.768104   1.000000
     10          6.985367   1.000000
     11          7.758267   1.000000
     12          8.316381   1.000000
     13          8.716327   1.000000
     14         10.637896   1.000000
     15         10.751621   1.000000
     16         11.159425   0.000001
     17         12.948380   0.000000
     18         15.740547   0.000000
     19         17.524769   0.000000
     20         19.877953   0.000000
     21         21.248338   0.000000
     22         23.346812   0.000000
     23         24.926230   0.000000
     24         27.073876   0.000000
 
  0.2000000E+00  0.2000000E+00  0.1250000E+00  0.1500000E-01
      1        -41.661867   1.000000
      2        -41.660664   1.000000
      3        -41.518918   1.000000
      4        -41.484041   1.000000
      5        -41.456467   1.000000
      6        -41.300257   1.000000
      7          4.796250   1.000000
      8          5.949752   1.000000
      9          6.191927   1.000000
     10          6.269242   1.000000
     11          7.500673   1.000000
     12          7.501981   1.000000
     13          8.349344   1.000000
     14          8.958086   1.000000
     15         10.488375   1.000000
     16         10.666571   1.000000
     17         11.457541   0.000000
     18         15.413860   0.000000
     19         18.816684   0.000000
     20         21.210962   0.000000
     21         21.845737   0.000000
     22         26.360149   0.000000
     23         26.832701   0.000000
     24         28.847924   0.000000
 
  0.3000000E+00  0.2000000E+00  0.1250000E+00  0.3000000E-01
      1        -41.719506   1.000000
      2        -41.693993   1.000000
      3        -41.568759   1.000000
      4        -41.524537   1.000000
      5        -41.417987   1.000000
      6        -41.321069   1.000000
      7          5.391250   1.000000
      8          5.778185   1.000000
      9          5.945163   1.000000
     10          6.698850   1.000000
     11          7.513540   1.000000
     12          7.886051   1.000000
     13          8.169212   1.000000
     14          9.647489   1.000000
     15         10.365091   1.000000
     16         11.091576   0.002112
     17         13.083614   0.000000
     18         17.192056   0.000000
     19         17.463775   0.000000
     20         19.822113   0.000000
     21         21.094119   0.000000
     22         24.146677   0.000000
     23         25.729703   0.000000
     24         26.750482   0.000000
 
  0.4000000E+00  0.2000000E+00  0.1250000E+00  0.1500000E-01
      1        -41.741189   1.000000
      2        -41.702972   1.000000
      3        -41.592110   1.000000
      4        -41.540231   1.000000
      5        -41.395863   1.000000
      6        -41.336140   1.000000
      7          5.340802   1.000000
      8          5.661051   1.000000
      9          6.035761   1.000000
     10          6.916361   1.000000
     11          7.375683   1.000000
     12          8.074981   1.000000
     13          8.459572   1.000000
     14         10.308543   1.000000
     15         10.361263   1.000000
     16         10.875656   0.999415
     17         14.710827   0.000000
     18         15.168202   0.000000
     19         18.521354   0.000000
     20         19.690645   0.000000
     21         20.661439   0.000000
     22         23.597636   0.000000
     23         25.172323   0.000000
     24         25.443980   0.000000
 
  0.3000000E+00  0.3000000E+00  0.1250000E+00  0.1500000E-01
      1        -41.705033   1.000000
      2        -41.677894   1.000000
      3        -41.630850   1.000000
      4        -41.591862   1.000000
      5        -41.383064   1.000000
      6        -41.345911   1.000000
      7          5.724685   1.000000
      8          6.072220   1.000000
      9          6.380232   1.000000
     10          6.669144   1.000000
     11          7.454116   1.000000
     12          7.496095   1.000000
     13          8.393625   1.000000
     14         10.032979   1.000000
     15         10.143760   1.000000
     16         10.736784   1.000000
     17         14.731212   0.000000
     18         16.046145   0.000000
     19         17.578020   0.000000
     20         19.962085   0.000000
     21         22.581110   0.000000
     22         22.687028   0.000000
     23         24.531282   0.000000
     24         25.835694   0.000000
 
  0.0000000E+00  0.0000000E+00  0.2500000E+00  0.2500000E-02
      1        -41.533465   1.000000
      2        -41.411160   1.000000
      3        -41.411159   1.000000
      4        -41.383540   1.000000
      5        -41.383540   1.000000
      6        -41.306142   1.000000
      7          1.879272   1.000000
      8          3.892374   1.000000
      9          7.019095   1.000000
     10          7.567993   1.000000
     11          7.567994   1.000000
     12          7.843917   1.000000
     13          7.843917   1.000000
     14          8.569822   1.000000
     15          9.570088   1.000000
     16          9.570088   1.000000
     17         10.669027   1.000000
     18         10.669027   1.000000
     19         18.428991   0.000000
     20         25.117324   0.000000
     21         27.347728   0.000000
     22         27.474120   0.000000
     23         30.910572   0.000000
     24         30.910572   0.000000
 
  0.1000000E+00  0.0000000E+00  0.2500000E+00  0.1500000E-01
      1        -41.528066   1.000000
      2        -41.442489   1.000000
      3        -41.422052   1.000000
      4        -41.421239   1.000000
      5        -41.391269   1.000000
      6        -41.303743   1.000000
      7          2.228437   1.000000
      8          4.237297   1.000000
      9          7.047816   1.000000
     10          7.393524   1.000000
     11          7.470077   1.000000
     12          7.817252   1.000000
     13          8.092329   1.000000
     14          8.211706   1.000000
     15          9.452519   1.000000
     16          9.456173   1.000000
     17         10.691205   1.000000
     18         11.294603   0.000000
     19         18.583511   0.000000
     20         25.610283   0.000000
     21         27.724901   0.000000
     22         27.845466   0.000000
     23         29.463103   0.000000
     24         30.326694   0.000000
 
  0.2000000E+00  0.0000000E+00  0.2500000E+00  0.1500000E-01
      1        -41.557023   1.000000
      2        -41.517697   1.000000
      3        -41.477919   1.000000
      4        -41.446188   1.000000
      5        -41.411462   1.000000
      6        -41.303447   1.000000
      7          3.148949   1.000000
      8          5.029099   1.000000
      9          6.685589   1.000000
     10          6.971034   1.000000
     11          7.134454   1.000000
     12          7.937324   1.000000
     13          8.418439   1.000000
     14          8.770638   1.000000
     15          9.315136   1.000000
     16          9.341852   1.000000
     17         10.715187   1.000000
     18         12.302211   0.000000
     19         19.041652   0.000000
     20         25.336146   0.000000
     21         27.011519   0.000000
     22         27.750757   0.000000
     23         28.643719   0.000000
     24         29.693222   0.000000
 
  0.3000000E+00  0.2775558E-16  0.2500000E+00  0.1500000E-01
      1        -41.661063   1.000000
      2        -41.630831   1.000000
      3        -41.476557   1.000000
      4        -41.451490   1.000000
      5        -41.436600   1.000000
      6        -41.309081   1.000000
      7          4.116159   1.000000