    2    2  100    1
  0.1612641E+02  0.2780502E-09  0.2780502E-09  0.4817155E-09  0.5000000E-15
  1.000000000000000E-004
  CAR 
 Pt-hcc                                  
     32     70     24
 
  0.0000000E+00  0.0000000E+00  0.0000000E+00  0.1250000E-02
      1        -41.772432   1.000000
      2        -41.625207   1.000000
      3        -41.625206   1.000000
      4        -41.587504   1.000000
      5        -41.587504   1.000000
      6        -41.467078   1.000000
      7          1.257418   1.000000
      8          3.890954   1.000000
      9          6.963713   1.000000
     10          7.443141   1.000000
     11          7.443142   1.000000
     12          7.797402   1.000000
     13          7.797403   1.000000
     14          9.013701   1.000000
     15          9.013701   1.000000
     16         10.143027   1.000000
     17         10.546187   1.000000
     18         10.546188   1.000000
     19         15.317921   0.000000
     20         25.865221   0.000000
     21         26.453060   0.000000
     22         27.990171   0.000000
     23         31.540080   0.000000
     24         31.540080   0.000000
 
  0.1000000E+00  0.0000000E+00  0.0000000E+00  0.7500000E-02
      1        -41.761390   1.000000
      2        -41.657706   1.000000
      3        -41.634425   1.000000
      4        -41.621141   1.000000
      5        -41.594100   1.000000
      6        -41.469466   1.000000
      7          1.611070   1.000000
      8          4.210239   1.000000
      9          6.897051   1.000000
     10          7.456334   1.000000
     11          7.655660   1.000000
     12          7.710544   1.000000
     13          8.051154   1.000000
     14          8.469254   1.000000
     15          8.850214   1.000000
     16          9.010420   1.000000
     17         10.606116   0.999943
     18         12.303273   0.000000
     19         15.284930   0.000000
     20         26.257672   0.000000
     21         26.967669   0.000000
     22         28.248896   0.000000
     23         29.986738   0.000000
     24         30.049051   0.000000
 
  0.2000000E+00  0.0000000E+00  0.0000000E+00  0.7500000E-02
      1        -41.744721   1.000000
      2        -41.731392   1.000000
      3        -41.709091   1.000000
      4        -41.659084   1.000000
      5        -41.612297   1.000000
      6        -41.477668   1.000000
      7          2.577544   1.000000
      8          4.915346   1.000000
      9          6.675300   1.000000
     10          7.151146   1.000000
     11          7.183951   1.000000
     12          8.058003   1.000000
     13          8.465580   1.000000
     14          8.486294   1.000000
     15          8.509687   1.000000
     16          8.762946   1.000000
     17         10.702091   0.873635
     18         14.434016   0.000000
     19         15.227209   0.000000
     20         24.597670   0.000000
     21         27.567179   0.000000
     22         27.652262   0.000000
     23         28.624102   0.000000
     24         28.850725   0.000000
 
  0.3000000E+00  0.2775558E-16  0.0000000E+00  0.7500000E-02
      1        -41.852594   1.000000
      2        -41.815129   1.000000
      3        -41.689099   1.000000
      4        -41.688836   1.000000
      5        -41.635985   1.000000
      6        -41.492657   1.000000
      7          3.769153   1.000000
      8          5.047890   1.000000
      9          6.128782   1.000000
     10          6.930909   1.000000
     11          7.274961   1.000000
     12          8.018975   1.000000
     13          8.109670   1.000000
     14          9.167173   1.000000
     15          9.547168   1.000000
     16          9.769293   1.000000
     17         10.754393   0.368592
     18         15.364721   0.000000
     19         16.610904   0.000000
     20         20.882624   0.000000
     21         25.310244   0.000000
     22         25.996094   0.000000
     23         27.344757   0.000000
     24         28.584369   0.000000
 
  0.4000000E+00 -0.2775558E-16  0.0000000E+00  0.7500000E-02
      1        -41.939046   1.000000
      2        -41.899587   1.000000
      3        -41.712987   1.000000
      4        -41.654630   1.000000
      5        -41.646329   1.000000
      6        -41.513041   1.000000
      7          4.437927   1.000000
      8          4.744173   1.000000
      9          5.496309   1.000000
     10          7.433146   1.000000
     11          7.659503   1.000000
     12          7.841804   1.000000
     13          8.060978   1.000000
     14         10.586152   0.999995
     15         10.757313   0.337907
     16         10.766418   0.249611
     17         10.978571   0.000000
     18         16.191396   0.000000
     19         17.269626   0.000000
     20         18.557817   0.000000
     21         22.939005   0.000000
     22         23.445751   0.000000
     23         24.617744   0.000000
     24         27.314138   0.000000
 
  0.5000000E+00 -0.2775558E-16  0.0000000E+00  0.3750000E-02
      1        -41.971755   1.000000
      2        -41.932113   1.000000
      3        -41.722421   1.000000
      4        -41.661903   1.000000
      5        -41.625492   1.000000
      6        -41.525735   1.000000
      7          4.548116   1.000000
      8          4.606848   1.000000
      9          5.282208   1.000000
     10          7.529257   1.000000
     11          7.745886   1.000000
     12          7.938376   1.000000
     13          8.263788   1.000000
     14         10.765713   0.255989
     15         11.021732   0.000000
     16         11.216066   0.000000
     17         12.977790   0.000000
     18         14.414782   0.000000
     19         17.916019   0.000000
     20         19.506630   0.000000
     21         20.067486   0.000000
     22         22.688210   0.000000
     23         23.944879   0.000000
     24         26.757058   0.000000
 
  0.1000000E+00  0.1000000E+00  0.0000000E+00  0.7500000E-02
      1        -41.741143   1.000000
      2        -41.712331   1.000000
      3        -41.688353   1.000000
      4        -41.646633   1.000000
      5        -41.611579   1.000000
      6        -41.475145   1.000000
      7          2.279042   1.000000
      8          4.768284   1.000000
      9          6.637483   1.000000
     10          7.371780   1.000000
     11          7.542323   1.000000
     12          7.671717   1.000000
     13          8.273933   1.000000
     14          8.293832   1.000000
     15          8.618195   1.000000
     16          8.915540   1.000000
     17         10.627375   0.999437
     18         13.870291   0.000000
     19         15.241381   0.000000
     20         26.073292   0.000000
     21         26.591177   0.000000
     22         27.850338   0.000000
     23         28.823199   0.000000
     24         29.493437   0.000000
 
  0.2000000E+00  0.1000000E+00  0.0000000E+00  0.1500000E-01
      1        -41.802274   1.000000
      2        -41.778617   1.000000
      3        -41.704449   1.000000
      4        -41.681160   1.000000
      5        -41.638863   1.000000
      6        -41.486603   1.000000
      7          3.429067   1.000000
      8          5.370591   1.000000
      9          6.463873   1.000000
     10          6.525603   1.000000
     11          7.110957   1.000000
     12          7.820036   1.000000
     13          8.261434   1.000000
     14          8.562774   1.000000
     15          9.293450   1.000000
     16          9.680882   1.000000
     17         10.629005   0.999338
     18         15.300208   0.000000
     19         15.918326   0.000000
     20         22.774166   0.000000
     21         24.685185   0.000000
     22         26.974021   0.000000
     23         28.821585   0.000000
     24         29.344453   0.000000
 
  0.3000000E+00  0.1000000E+00  0.0000000E+00  0.1500000E-01
      1        -41.896063   1.000000
      2        -41.863201   1.000000
      3        -41.717244   1.000000
      4        -41.665026   1.000000
      5        -41.661161   1.000000
      6        -41.505133   1.000000
      7          4.480504   1.000000
      8          5.145955   1.000000
      9          5.777583   1.000000
     10          6.943071   1.000000
     11          7.535100   1.000000
     12          7.543249   1.000000
     13          8.091616   1.000000
     14          9.319556   1.000000
     15         10.334908   1.000000
     16         10.617140   0.999805
     17         11.054911   0.000000
     18         15.902232   0.000000
     19         18.019694   0.000000
     20         18.982736   0.000000
     21         22.610063   0.000000
     22         25.506087   0.000000
     23         25.633662   0.000000
     24         27.717181   0.000000
 
  0.4000000E+00  0.1000000E+00  0.0000000E+00  0.1500000E-01
      1        -41.953978   1.000000
      2        -41.914837   1.000000
      3        -41.738801   1.000000
      4        -41.681509   1.000000
      5        -41.625530   1.000000
      6        -41.525609   1.000000
      7          4.804528   1.000000
      8          4.890538   1.000000
      9          5.388779   1.000000
     10          7.482500   1.000000
     11          7.704568   1.000000
     12          7.708756   1.000000
     13          8.027352   1.000000
     14         10.504656   1.000000
     15         10.601501   0.999967
     16         10.866329   0.000231
     17         12.718644   0.000000
     18         15.619695   0.000000
     19         17.567729   0.000000
     20         19.677217   0.000000
     21         20.411595   0.000000
     22         22.740919   0.000000
     23         24.397714   0.000000
     24         26.675047   0.000000
 
  0.2000000E+00  0.2000000E+00  0.0000000E+00  0.7500000E-02
      1        -41.855345   1.000000
      2        -41.854897   1.000000
      3        -41.722128   1.000000
      4        -41.684913   1.000000
      5        -41.666586   1.000000
      6        -41.502507   1.000000
      7          4.620135   1.000000
      8          5.959615   1.000000
      9          5.973229   1.000000
     10          6.029169   1.000000
     11          7.317542   1.000000
     12          7.351494   1.000000
     13          8.277968   1.000000
     14          8.610087   1.000000
     15         10.320635   1.000000
     16         10.457538   1.000000
     17         11.132905   0.000000
     18         15.869769   0.000000
     19         17.890761   0.000000
     20         20.435482   0.000000
     21         21.354169   0.000000
     22         26.244282   0.000000
     23         27.289542   0.000000
     24         27.841271   0.000000
 
  0.3000000E+00  0.2000000E+00  0.0000000E+00  0.1500000E-01
      1        -41.911879   1.000000
      2        -41.885101   1.000000
      3        -41.769080   1.000000
      4        -41.723826   1.000000
      5        -41.626103   1.000000
      6        -41.525222   1.000000
      7          5.401952   1.000000
      8          5.602106   1.000000
      9          5.627529   1.000000
     10          6.735344   1.000000
     11          7.211815   1.000000
     12          7.810741   1.000000
     13          7.849585   1.000000
     14          9.371927   1.000000
     15         10.326558   1.000000
     16         10.743555   0.488409
     17         12.759079   0.000000
     18         16.855127   0.000000
     19         17.807186   0.000000
     20         19.438713   0.000000
     21         19.946543   0.000000
     22         24.269854   0.000000
     23         25.413915   0.000000
     24         26.364112   0.000000
 
  0.4000000E+00  0.2000000E+00  0.0000000E+00  0.7500000E-02
      1        -41.932891   1.000000
      2        -41.893627   1.000000
      3        -41.792102   1.000000
      4        -41.739033   1.000000
      5        -41.603314   1.000000
      6        -41.541299   1.000000
      7          5.471408   1.000000
      8          5.480694   1.000000
      9          5.520764   1.000000
     10          7.292058   1.000000
     11          7.343809   1.000000
     12          7.449074   1.000000
     13          8.108268   1.000000
     14         10.104028   1.000000
     15         10.278600   1.000000
     16         10.557774   1.000000
     17         14.343716   0.000000
     18         14.827766   0.000000
     19         18.148457   0.000000
     20         19.681136   0.000000
     21         21.148617   0.000000
     22         22.115242   0.000000
     23         24.555580   0.000000
     24         25.910969   0.000000
 
  0.3000000E+00  0.3000000E+00  0.0000000E+00  0.7500000E-02
      1        -41.899689   1.000000
      2        -41.869669   1.000000
      3        -41.826464   1.000000
      4        -41.787996   1.000000
      5        -41.590569   1.000000
      6        -41.551768   1.000000
      7          5.562218   1.000000
      8          5.945211   1.000000
      9          6.195968   1.000000
     10          6.624193   1.000000
     11          7.166096   1.000000
     12          7.425322   1.000000
     13          8.195033   1.000000
     14          9.718863   1.000000
     15         10.119550   1.000000
     16         10.404873   1.000000
     17         14.340751   0.000000
     18         15.607634   0.000000
     19         17.035908   0.000000
     20         20.480372   0.000000
     21         22.049110   0.000000
     22         23.232086   0.000000
     23         24.019144   0.000000
     24         24.446204   0.000000
 
  0.0000000E+00  0.0000000E+00  0.1250000E+00  0.2500000E-02
      1        -41.760496   1.000000
      2        -41.623757   1.000000
      3        -41.623756   1.000000
      4        -41.588885   1.000000
      5        -41.588884   1.000000
      6        -41.478620   1.000000
      7          1.388778   1.000000
      8          3.870414   1.000000
      9          6.931721   1.000000
     10          7.424139   1.000000
     11          7.424140   1.000000
     12          7.759978   1.000000
     13          7.759978   1.000000
     14          9.108665   1.000000
     15          9.108665   1.000000
     16          9.524806   1.000000
     17         10.519609   1.000000
     18         10.519609   1.000000
     19         16.186463   0.000000
     20         25.413049   0.000000
     21         26.935426   0.000000
     22         27.709769   0.000000
     23         31.052349   0.000000
     24         31.052349   0.000000
 
  0.1000000E+00  0.0000000E+00  0.1250000E+00  0.1500000E-01
      1        -41.750983   1.000000
      2        -41.655521   1.000000
      3        -41.632934   1.000000
      4        -41.623399   1.000000
      5        -41.595797   1.000000
      6        -41.480130   1.000000
      7          1.739917   1.000000
      8          4.195953   1.000000
      9          6.900281   1.000000
     10          7.372747   1.000000
     11          7.556697   1.000000
     12          7.682541   1.000000
     13          8.009419   1.000000
     14          8.424882   1.000000
     15          8.962232   1.000000
     16          9.001145   1.000000
     17         10.569140   1.000000
     18         11.758524   0.000000
     19         16.277828   0.000000
     20         25.883436   0.000000
     21         27.332477   0.000000
     22         28.047107   0.000000
     23         29.410560   0.000000
     24         29.989601   0.000000
 
  0.2000000E+00  0.0000000E+00  0.1250000E+00  0.1500000E-01
      1        -41.752668   1.000000
      2        -41.715526   1.000000
      3        -41.708230   1.000000
      4        -41.657457   1.000000
      5        -41.614314   1.000000
      6        -41.486015   1.000000
      7          2.691768   1.000000
      8          4.923584   1.000000
      9          6.706077   1.000000
     10          6.899427   1.000000
     11          7.192577   1.000000
     12          7.950359   1.000000
     13          8.308533   1.000000
     14          8.642232   1.000000
     15          8.711441   1.000000
     16          8.810983   1.000000
     17         10.644130   0.997308
     18         13.242580   0.000000
     19         16.700499   0.000000
     20         24.697266   0.000000
     21         27.334854   0.000000
     22         27.808470   0.000000
     23         28.116868   0.000000
     24         29.241501   0.000000
 
  0.3000000E+00  0.2775558E-16  0.1250000E+00  0.1500000E-01
      1        -41.854075   1.000000
      2        -41.818834   1.000000
      3        -41.687040   1.000000
      4        -41.678281   1.000000
      5        -41.637881   1.000000
      6        -41.498177   1.000000
      7          3.823594   1.000000
      8          5.074734   1.000000
      9          6.107750   1.000000
     10          6.773002   1.000000
     11          7.300527   1.000000
     12          8.120826   1.000000
     13          8.169653   1.000000
     14          9.219123   1.000000
     15          9.568306   1.000000
     16          9.722486   1.000000
     17         10.686951   0.942020
     18         14.311275   0.000000
     19         17.702130   0.000000
     20         21.148750   0.000000
     21         25.544476   0.000000
     22         25.645869   0.000000
     23         27.156258   0.000000
     24         29.026654   0.000000
 
  0.4000000E+00 -0.2775558E-16  0.1250000E+00  0.1500000E-01
      1        -41.940173   1.000000
      2        -41.903380   1.000000
      3        -41.710962   1.000000
      4        -41.657008   1.000000
      5        -41.638949   1.000000
      6        -41.516231   1.000000
      7          4.376600   1.000000
      8          4.753374   1.000000
      9          5.644120   1.000000
     10          6.821831   1.000000
     11          7.865051   1.000000
     12          7.923886   1.000000
     13          8.597587   1.000000
     14         10.513870   1.000000
     15         10.601171   0.999968
     16         10.854348   0.000781
     17         10.893537   0.000010
     18         15.349790   0.000000
     19         17.313643   0.000000
     20         19.363302   0.000000
     21         22.672611   0.000000
     22         23.715156   0.000000
     23         24.933994   0.000000
     24         27.539705   0.000000
 
  0.5000000E+00 -0.2775558E-16  0.1250000E+00  0.7500000E-02
      1        -41.972758   1.000000
      2        -41.935904   1.000000
      3        -41.720173   1.000000
      4        -41.664351   1.000000
      5        -41.619129   1.000000
      6        -41.528059   1.000000
      7          4.458611   1.000000
      8          4.576642   1.000000
      9          5.496400   1.000000
     10          6.884385   1.000000
     11          7.832742   1.000000
     12          8.010184   1.000000
     13          9.037890   1.000000
     14         10.595001   0.999985
     15         11.041343   0.000000
     16         11.209685   0.000000
     17         12.753462   0.000000
     18         14.310314   0.000000
     19         17.768117   0.000000
     20         18.485272   0.000000
     21         21.341770   0.000000
     22         22.970709   0.000000
     23         24.079711   0.000000
     24         27.035436   0.000000
 
  0.1000000E+00  0.1000000E+00  0.1250000E+00  0.1500000E-01
      1        -41.739153   1.000000
      2        -41.702600   1.000000
      3        -41.689400   1.000000
      4        -41.646033   1.000000
      5        -41.613075   1.000000
      6        -41.483772   1.000000
      7          2.400150   1.000000
      8          4.769087   1.000000
      9          6.667814   1.000000
     10          7.105373   1.000000
     11          7.454070   1.000000
     12          7.676604   1.000000
     13          8.208273   1.000000
     14          8.422942   1.000000
     15          8.705157   1.000000
     16          8.983150   1.000000
     17         10.578303   0.999998
     18         12.898884   0.000000
     19         16.541569   0.000000
     20         26.044440   0.000000
     21         26.664294   0.000000
     22         27.709173   0.000000
     23         28.367292   0.000000
     24         29.759331   0.000000
 
  0.2000000E+00  0.1000000E+00  0.1250000E+00  0.3000000E-01
      1        -41.805250   1.000000
      2        -41.781009   1.000000
      3        -41.692272   1.000000
      4        -41.679666   1.000000
      5        -41.640441   1.000000
      6        -41.493061   1.000000
      7          3.519319   1.000000
      8          5.403279   1.000000
      9          6.350009   1.000000
     10          6.528399   1.000000
     11          7.084029   1.000000
     12          7.721185   1.000000
     13          8.406655   1.000000
     14          8.549876   1.000000
     15          9.400818   1.000000
     16          9.630540   1.000000
     17         10.580008   0.999998
     18         14.038903   0.000000
     19         17.350259   0.000000
     20         22.951696   0.000000
     21         24.813594   0.000000
     22         26.862985   0.000000
     23         28.179338   0.000000
     24         29.964667   0.000000
 
  0.3000000E+00  0.1000000E+00  0.1250000E+00  0.3000000E-01
      1        -41.897211   1.000000
      2        -41.866373   1.000000
      3        -41.715802   1.000000
      4        -41.668034   1.000000
      5        -41.651435   1.000000
      6        -41.509204   1.000000
      7          4.468069   1.000000
      8          5.179488   1.000000
      9          5.836767   1.000000
     10          6.678310   1.000000
     11          7.502935   1.000000
     12          7.872634   1.000000
     13          8.105452   1.000000
     14          9.335376   1.000000
     15         10.380310   1.000000
     16         10.436341   1.000000
     17         11.111801   0.000000
     18         15.120110   0.000000
     19         18.262779   0.000000
     20         19.743331   0.000000
     21         22.713004   0.000000
     22         24.868806   0.000000
     23         26.108351   0.000000
     24         27.897828   0.000000
 
  0.4000000E+00  0.1000000E+00  0.1250000E+00  0.3000000E-01
      1        -41.954722   1.000000
      2        -41.918382   1.000000
      3        -41.737273   1.000000
      4        -41.683866   1.000000
      5        -41.618681   1.000000
      6        -41.527255   1.000000
      7          4.680621   1.000000
      8          4.887193   1.000000
      9          5.633429   1.000000
     10          6.826758   1.000000
     11          7.584097   1.000000
     12          8.129476   1.000000
     13          8.526026   1.000000
     14         10.398648   1.000000
     15         10.510063   1.000000
     16         10.907003   0.000002
     17         12.675191   0.000000
     18         15.443440   0.000000
     19         17.197838   0.000000
     20         19.550888   0.000000
     21         20.924932   0.000000
     22         23.004799   0.000000
     23         24.617769   0.000000
     24         26.739661   0.000000
 
  0.2000000E+00  0.2000000E+00  0.1250000E+00  0.1500000E-01
      1        -41.857597   1.000000
      2        -41.856311   1.000000
      3        -41.721723   1.000000
      4        -41.687959   1.000000
      5        -41.655535   1.000000
      6        -41.506700   1.000000
      7          4.655539   1.000000
      8          5.812509   1.000000
      9          6.047896   1.000000
     10          6.121917   1.000000
     11          7.328173   1.000000
     12          7.333430   1.000000
     13          8.163191   1.000000
     14          8.757418   1.000000
     15         10.252911   1.000000
     16         10.427163   1.000000
     17         11.202044   0.000000
     18         15.108211   0.000000
     19         18.500580   0.000000
     20         20.870194   0.000000
     21         21.512635   0.000000
     22         26.057053   0.000000
     23         26.450553   0.000000
     24         28.489655   0.000000
 
  0.3000000E+00  0.2000000E+00  0.1250000E+00  0.3000000E-01
      1        -41.912347   1.000000
      2        -41.888211   1.000000
      3        -41.769117   1.000000
      4        -41.726909   1.000000
      5        -41.618454   1.000000
      6        -41.526381   1.000000
      7          5.256354   1.000000
      8          5.641035   1.000000
      9          5.804778   1.000000
     10          6.544744   1.000000
     11          7.344440   1.000000
     12          7.709573   1.000000
     13          7.984761   1.000000
     14          9.431299   1.000000
     15         10.132809   1.000000
     16         10.841629   0.002531
     17         12.801652   0.000000
     18         16.863833   0.000000
     19         17.162079   0.000000
     20         19.511143   0.000000
     21         20.759895   0.000000
     22         23.773251   0.000000
     23         25.410988   0.000000
     24         26.375606   0.000000
 
  0.4000000E+00  0.2000000E+00  0.1250000E+00  0.1500000E-01
      1        -41.933013   1.000000
      2        -41.896759   1.000000
      3        -41.791515   1.000000
      4        -41.742086   1.000000
      5        -41.597439   1.000000
      6        -41.540864   1.000000
      7          5.211439   1.000000
      8          5.525709   1.000000
      9          5.893484   1.000000
     10          6.758548   1.000000
     11          7.209996   1.000000
     12          7.895395   1.000000
     13          8.269311   1.000000
     14         10.077493   1.000000
     15         10.128701   1.000000
     16         10.630528   0.999232
     17         14.424835   0.000000
     18         14.862861   0.000000
     19         18.207684   0.000000
     20         19.359236   0.000000
     21         20.329744   0.000000
     22         23.235214   0.000000
     23         24.805881   0.000000
     24         25.113239   0.000000
 
  0.3000000E+00  0.3000000E+00  0.1250000E+00  0.1500000E-01
      1        -41.898619   1.000000
      2        -41.872618   1.000000
      3        -41.827842   1.000000
      4        -41.790878   1.000000
      5        -41.585249   1.000000
      6        -41.550245   1.000000
      7          5.594529   1.000000
      8          5.925820   1.000000
      9          6.230703   1.000000
     10          6.515409   1.000000
     11          7.286265   1.000000
     12          7.328061   1.000000
     13          8.204258   1.000000
     14          9.808003   1.000000
     15          9.916844   1.000000
     16         10.495358   1.000000
     17         14.434899   0.000000
     18         15.750052   0.000000
     19         17.279913   0.000000
     20         19.617914   0.000000
     21         22.216739   0.000000
     22         22.334857   0.000000
     23         24.156968   0.000000
     24         25.466433   0.000000
 
  0.0000000E+00  0.0000000E+00  0.2500000E+00  0.2500000E-02
      1        -41.727745   1.000000
      2        -41.619226   1.000000
      3        -41.619225   1.000000
      4        -41.592936   1.000000
      5        -41.592935   1.000000
      6        -41.512290   1.000000
      7          1.766837   1.000000
      8          3.770373   1.000000
      9          6.858593   1.000000
     10          7.394244   1.000000
     11          7.394245   1.000000
     12          7.663923   1.000000
     13          7.663924   1.000000
     14          8.388345   1.000000
     15          9.354317   1.000000
     16          9.354317   1.000000
     17         10.428615   1.000000
     18         10.428615   1.000000
     19         18.090978   0.000000
     20         24.876739   0.000000
     21         27.106143   0.000000
     22         27.181048   0.000000
     23         30.580632   0.000000
     24         30.580633   0.000000
 
  0.1000000E+00  0.0000000E+00  0.2500000E+00  0.1500000E-01
      1        -41.723240   1.000000
      2        -41.648671   1.000000
      3        -41.629217   1.000000
      4        -41.628659   1.000000
      5        -41.600114   1.000000
      6        -41.509975   1.000000
      7          2.111681   1.000000
      8          4.110424   1.000000
      9          6.886568   1.000000
     10          7.224583   1.000000
     11          7.300840   1.000000
     12          7.638906   1.000000
     13          7.907614   1.000000
     14          8.030323   1.000000
     15          9.239857   1.000000
     16          9.244044   1.000000
     17         10.449962   1.000000
     18         11.045738   0.000000
     19         18.247725   0.000000
     20         25.354961   0.000000
     21         27.446837   0.000000
     22         27.551382   0.000000
     23         29.128901   0.000000
     24         29.974428   0.000000
 
  0.2000000E+00  0.0000000E+00  0.2500000E+00  0.1500000E-01
      1        -41.755823   1.000000
      2        -41.719975   1.000000
      3        -41.676898   1.000000
      4        -41.652358   1.000000
      5        -41.619337   1.000000
      6        -41.509579   1.000000
      7          3.022665   1.000000
      8          4.893101   1.000000
      9          6.533426   1.000000
     10          6.810801   1.000000
     11          6.972634   1.000000
     12          7.758044   1.000000
     13          8.228617   1.000000
     14          8.572212   1.000000
     15          9.105833   1.000000
     16          9.133168   1.000000
     17         10.473265   1.000000
     18         12.037285   0.000000
     19         18.713228   0.000000
     20         24.988818   0.000000
     21         26.710193   0.000000
     22         27.433929   0.000000
     23         28.278296   0.000000
     24         29.358755   0.000000
 
  0.3000000E+00  0.2775558E-16  0.2500000E+00  0.1500000E-01
      1        -41.856417   1.000000
      2        -41.827765   1.000000
      3        -41.681481   1.000000
      4        -41.650564   1.000000
      5        -41.643510   1.000000
      6        -41.515365   1.000000
      7          3.987351   1.000000