 vasp.6.3.2 27Jun22 (build Aug 12 2022 00:53:59) complex                        
  
 executed on               tv2STD date 2024.11.30  17:15:51
 running   24 mpi-ranks, with    1 threads/rank
 distrk:  each k-point on   24 cores,    1 groups
 distr:  one band on NCORE=   1 cores,   24 groups


--------------------------------------------------------------------------------------------------------


 INCAR:
   SYSTEM = Pt-hcc
   NWRITE = 2    write-flag
   ISTART = 0    job   : 0-new, 1-cont, 2-samecut
   ICHARG = 2    charge: 0-wave, 1-file, 2-atom, >10-const
   INIWAV = 1    electr: 0-lowe 1-rand  2-diag
   ENCUT = 450.0     energy cutoff in eV
   PREC = Accurate      normal | accurate
   ADDGRID = .FALSE.  (use fine grid)
   NELM = 100     number of ELM steps
   EDIFF = 1E-06    energy stopping-criterion for ELM
   LREAL = .FALSE.      real-space projection (.FALSE., .TRUE., On, Auto)
   ALGO = Normal     Normal, Fast, Very_Fast
   LWAVE = .TRUE.
   LCHARG = .TRUE.
   NSW = 100       max number of geometry steps
   IBRION = 2     ionic relax: 0-MD, 1-quasi-Newton, 2-CG, 3-Damped MD
   EDIFFG = -0.02  force (eV/A) stopping-criterion for geometry steps
   ISIF = 2     (1:force\=y stress\=trace only ions\=y shape\=n volume\=n)
   ISYM = 1     (1-use symmetry, 0-no symmetry)
   ISMEAR = 0     (-1-Fermi, 1-Methfessel/Paxton)
   SIGMA = 0.05   broadening in eV
   LORBIT = 11

 POTCAR:    PAW_PBE Pt_pv 12Dec2005               
 POTCAR:    PAW_PBE Pt_pv 12Dec2005               
   SHA256 =  e5abf7e8cd8db70d0153315afc5ad66b6e3eeee29cc2d5b91b16730957c1d208 Pt_pv/POTCAR          
   COPYR  = (c) Copyright 12Dec2005 Georg Kresse                                                    
   COPYR  = This file is part of the software VASP. Any use, copying, and all other rights are regul
   COPYR  = If you do not have a valid VASP license, you may not use, copy or distribute this file. 
   VRHFIN =Pt: 5ps1d9                                                                               
   LEXCH  = PE                                                                                      
   EATOM  =  2428.2504 eV,  178.4714 Ry                                                             
                                                                                                    
   TITEL  = PAW_PBE Pt_pv 12Dec2005                                                                 
   LULTRA =        F    use ultrasoft PP ?                                                          
   IUNSCR =        1    unscreen: 0-lin 1-nonlin 2-no                                               
   RPACOR =    2.000    partial core radius                                                         
   POMASS =  195.080; ZVAL   =   16.000    mass and valenz                                          
   RCORE  =    2.200    outmost cutoff radius                                                       
   RWIGS  =    2.200; RWIGS  =    1.164    wigner-seitz radius (au A)                               
   ENMAX  =  294.607; ENMIN  =  220.955 eV                                                          
   ICORE  =        3    local potential                                                             
   LCOR   =        T    correct aug charges                                                         
   LPAW   =        T    paw PP                                                                      
   EAUG   =  527.014                                                                                
   DEXC   =    0.000                                                                                
   RMAX   =    2.247    core radius for proj-oper                                                   
   RAUG   =    1.300    factor for augmentation sphere                                              
   RDEP   =    2.279    radius for radial grids                                                     
   RDEPT  =    1.878    core radius for aug-charge                                                  
                                                                                                    
   Atomic configuration                                                                             
   16 entries                                                                                       
     n  l   j            E        occ.                                                              
     1  0  0.50    -78401.1885   2.0000                                                             
     2  0  0.50    -13770.7750   2.0000                                                             
     2  1  1.50    -11931.0468   6.0000                                                             
     3  0  0.50     -3234.7234   2.0000                                                             
     3  1  1.50     -2699.2216   6.0000                                                             
     3  2  2.50     -2119.5714  10.0000                                                             
     4  0  0.50      -695.1528   2.0000                                                             
     4  1  1.50      -519.6034   6.0000                                                             
     4  2  2.50      -306.6786  10.0000                                                             
     4  3  3.50       -70.1041  14.0000                                                             
     5  0  0.50      -101.7747   2.0000                                                             
     5  1  1.50       -55.9873   6.0000                                                             
     6  1  1.50        -6.8029   0.0000                                                             
     5  2  2.50        -6.1423   9.0000                                                             
     6  0  0.50        -5.6573   1.0000                                                             
     5  3  2.50        -1.3606   0.0000                                                             
   Description                                                                                      
     l       E           TYP  RCUT    TYP  RCUT                                                     
     1    -55.9873477     23  2.000                                                                 
     1     27.2116520     23  2.000                                                                 
     2     -6.1423404     23  2.200                                                                 
     2     -4.6754623     23  2.200                                                                 
     0     -5.6573207     23  2.200                                                                 
     0     47.6203910     23  2.200                                                                 
     3      6.8029130     23  2.200                                                                 
  local pseudopotential read in
  partial core-charges read in
  partial kinetic energy density read in
  atomic valenz-charges read in
  non local Contribution for L=           1  read in
    real space projection operators read in
  non local Contribution for L=           1  read in
    real space projection operators read in
  non local Contribution for L=           2  read in
    real space projection operators read in
  non local Contribution for L=           2  read in
    real space projection operators read in
  non local Contribution for L=           0  read in
    real space projection operators read in
  non local Contribution for L=           0  read in
    real space projection operators read in
    PAW grid and wavefunctions read in
 
   number of l-projection  operators is LMAX  =           6
   number of lm-projection operators is LMMAX =          18
 
  PAW_PBE Pt_pv 12Dec2005               :
 energy of atom  1       EATOM=-2428.2504
 kinetic energy error for atom=    0.0356 (will be added to EATOM!!)
 
 
 POSCAR: Pt
  positions in cartesian coordinates
  No initial velocities read in
 exchange correlation table for  LEXCH =        8
   RHO(1)=    0.500       N(1)  =     2000
   RHO(2)=  100.500       N(2)  =     4000
 


--------------------------------------------------------------------------------------------------------


 ion  position               nearest neighbor table
   1  0.000  0.000  0.000-
   2  0.333  0.667  0.500-
 
  LATTYP: Found a hexagonal cell.
 ALAT       =     2.7681822213
 C/A-ratio  =     1.7324766951
  
  Lattice vectors:
  
 A1 = (   2.7681822213,   0.0000000000,   0.0000000000)
 A2 = (  -1.3840911107,   2.3973161260,   0.0000000000)
 A3 = (   0.0000000000,   0.0000000000,   4.7958111864)


Analysis of symmetry for initial positions (statically):
=====================================================================
 Subroutine PRICEL returns:
 Original cell was already a primitive cell.
 

 Routine SETGRP: Setting up the symmetry group for a 
 hexagonal supercell.


 Subroutine GETGRP returns: Found 24 space group operations
 (whereof 12 operations were pure point group operations)
 out of a pool of 24 trial point group operations.


The static configuration has the point symmetry D_3h.
 The point group associated with its full space group is D_6h.


Analysis of symmetry for dynamics (positions and initial velocities):
=====================================================================
 Subroutine PRICEL returns:
 Original cell was already a primitive cell.
 

 Routine SETGRP: Setting up the symmetry group for a 
 hexagonal supercell.


 Subroutine GETGRP returns: Found 24 space group operations
 (whereof 12 operations were pure point group operations)
 out of a pool of 24 trial point group operations.


The dynamic configuration has the point symmetry D_3h.
 The point group associated with its full space group is D_6h.


 Subroutine INISYM returns: Found 24 space group operations
 (whereof 12 operations are pure point group operations),
 and found     1 'primitive' translations


----------------------------------------------------------------------------------------

                                     Primitive cell                                     

  volume of cell :      31.8260

  direct lattice vectors                    reciprocal lattice vectors
     2.768182221  0.000000000  0.000000000     0.361247895  0.208566569  0.000000000
    -1.384091111  2.397316126  0.000000000     0.000000000  0.417133139  0.000000000
     0.000000000  0.000000000  4.795811186     0.000000000  0.000000000  0.208515298

  length of vectors
     2.768182221  2.768182221  4.795811186     0.417133139  0.417133139  0.208515298

  position of ions in fractional coordinates (direct lattice)
     0.000000000  0.000000000  0.000000000
     0.333333333  0.666666667  0.500000000

  ion indices of the primitive-cell ions
   primitive index   ion index
                 1           1
                 2           2

----------------------------------------------------------------------------------------

 
 
 KPOINTS: Automatic mesh                          

Automatic generation of k-mesh.
 Grid dimensions read from file:
 generate k-points for:   10   10    8

 Generating k-lattice:

  Cartesian coordinates                     Fractional coordinates (reciprocal lattice)
     0.036124789  0.020856657  0.000000000     0.100000000  0.000000000  0.000000000
     0.000000000  0.041713314  0.000000000     0.000000000  0.100000000  0.000000000
     0.000000000  0.000000000  0.026064412     0.000000000  0.000000000  0.125000000

  Length of vectors
     0.041713314  0.041713314  0.026064412

  Shift w.r.t. Gamma in fractional coordinates (k-lattice)
     0.000000000  0.000000000  0.000000000

 
 Subroutine IBZKPT returns following result:
 ===========================================
 
 Found     70 irreducible k-points:
 
 Following reciprocal coordinates:
            Coordinates               Weight
  0.000000  0.000000  0.000000      1.000000
  0.100000  0.000000  0.000000      6.000000
  0.200000  0.000000  0.000000      6.000000
  0.300000  0.000000  0.000000      6.000000
  0.400000 -0.000000  0.000000      6.000000
  0.500000 -0.000000  0.000000      3.000000
  0.100000  0.100000  0.000000      6.000000
  0.200000  0.100000  0.000000     12.000000
  0.300000  0.100000  0.000000     12.000000
  0.400000  0.100000  0.000000     12.000000
  0.200000  0.200000  0.000000      6.000000
  0.300000  0.200000  0.000000     12.000000
  0.400000  0.200000  0.000000      6.000000
  0.300000  0.300000  0.000000      6.000000
  0.000000  0.000000  0.125000      2.000000
  0.100000  0.000000  0.125000     12.000000
  0.200000  0.000000  0.125000     12.000000
  0.300000  0.000000  0.125000     12.000000
  0.400000 -0.000000  0.125000     12.000000
  0.500000 -0.000000  0.125000      6.000000
  0.100000  0.100000  0.125000     12.000000
  0.200000  0.100000  0.125000     24.000000
  0.300000  0.100000  0.125000     24.000000
  0.400000  0.100000  0.125000     24.000000
  0.200000  0.200000  0.125000     12.000000
  0.300000  0.200000  0.125000     24.000000
  0.400000  0.200000  0.125000     12.000000
  0.300000  0.300000  0.125000     12.000000
  0.000000  0.000000  0.250000      2.000000
  0.100000  0.000000  0.250000     12.000000
  0.200000  0.000000  0.250000     12.000000
  0.300000  0.000000  0.250000     12.000000
  0.400000 -0.000000  0.250000     12.000000
  0.500000 -0.000000  0.250000      6.000000
  0.100000  0.100000  0.250000     12.000000
  0.200000  0.100000  0.250000     24.000000
  0.300000  0.100000  0.250000     24.000000
  0.400000  0.100000  0.250000     24.000000
  0.200000  0.200000  0.250000     12.000000
  0.300000  0.200000  0.250000     24.000000
  0.400000  0.200000  0.250000     12.000000
  0.300000  0.300000  0.250000     12.000000
  0.000000  0.000000  0.375000      2.000000
  0.100000  0.000000  0.375000     12.000000
  0.200000  0.000000  0.375000     12.000000
  0.300000  0.000000  0.375000     12.000000
  0.400000 -0.000000  0.375000     12.000000
  0.500000 -0.000000  0.375000      6.000000
  0.100000  0.100000  0.375000     12.000000
  0.200000  0.100000  0.375000     24.000000
  0.300000  0.100000  0.375000     24.000000
  0.400000  0.100000  0.375000     24.000000
  0.200000  0.200000  0.375000     12.000000
  0.300000  0.200000  0.375000     24.000000
  0.400000  0.200000  0.375000     12.000000
  0.300000  0.300000  0.375000     12.000000
  0.000000  0.000000  0.500000      1.000000
  0.100000  0.000000  0.500000      6.000000
  0.200000  0.000000  0.500000      6.000000
  0.300000  0.000000  0.500000      6.000000
  0.400000 -0.000000  0.500000      6.000000
  0.500000 -0.000000  0.500000      3.000000
  0.100000  0.100000  0.500000      6.000000
  0.200000  0.100000  0.500000     12.000000
  0.300000  0.100000  0.500000     12.000000
  0.400000  0.100000  0.500000     12.000000
  0.200000  0.200000  0.500000      6.000000
  0.300000  0.200000  0.500000     12.000000
  0.400000  0.200000  0.500000      6.000000
  0.300000  0.300000  0.500000      6.000000
 
 Following cartesian coordinates:
            Coordinates               Weight
  0.000000  0.000000  0.000000      1.000000
  0.036125  0.020857  0.000000      6.000000
  0.072250  0.041713  0.000000      6.000000
  0.108374  0.062570  0.000000      6.000000
  0.144499  0.083427  0.000000      6.000000
  0.180624  0.104283  0.000000      3.000000
  0.036125  0.062570  0.000000      6.000000
  0.072250  0.083427  0.000000     12.000000
  0.108374  0.104283  0.000000     12.000000
  0.144499  0.125140  0.000000     12.000000
  0.072250  0.125140  0.000000      6.000000
  0.108374  0.145997  0.000000     12.000000
  0.144499  0.166853  0.000000      6.000000
  0.108374  0.187710  0.000000      6.000000
  0.000000  0.000000  0.026064      2.000000
  0.036125  0.020857  0.026064     12.000000
  0.072250  0.041713  0.026064     12.000000
  0.108374  0.062570  0.026064     12.000000
  0.144499  0.083427  0.026064     12.000000
  0.180624  0.104283  0.026064      6.000000
  0.036125  0.062570  0.026064     12.000000
  0.072250  0.083427  0.026064     24.000000
  0.108374  0.104283  0.026064     24.000000
  0.144499  0.125140  0.026064     24.000000
  0.072250  0.125140  0.026064     12.000000
  0.108374  0.145997  0.026064     24.000000
  0.144499  0.166853  0.026064     12.000000
  0.108374  0.187710  0.026064     12.000000
  0.000000  0.000000  0.052129      2.000000
  0.036125  0.020857  0.052129     12.000000
  0.072250  0.041713  0.052129     12.000000
  0.108374  0.062570  0.052129     12.000000
  0.144499  0.083427  0.052129     12.000000
  0.180624  0.104283  0.052129      6.000000
  0.036125  0.062570  0.052129     12.000000
  0.072250  0.083427  0.052129     24.000000
  0.108374  0.104283  0.052129     24.000000
  0.144499  0.125140  0.052129     24.000000
  0.072250  0.125140  0.052129     12.000000
  0.108374  0.145997  0.052129     24.000000
  0.144499  0.166853  0.052129     12.000000
  0.108374  0.187710  0.052129     12.000000
  0.000000  0.000000  0.078193      2.000000
  0.036125  0.020857  0.078193     12.000000
  0.072250  0.041713  0.078193     12.000000
  0.108374  0.062570  0.078193     12.000000
  0.144499  0.083427  0.078193     12.000000
  0.180624  0.104283  0.078193      6.000000
  0.036125  0.062570  0.078193     12.000000
  0.072250  0.083427  0.078193     24.000000
  0.108374  0.104283  0.078193     24.000000
  0.144499  0.125140  0.078193     24.000000
  0.072250  0.125140  0.078193     12.000000
  0.108374  0.145997  0.078193     24.000000
  0.144499  0.166853  0.078193     12.000000
  0.108374  0.187710  0.078193     12.000000
  0.000000  0.000000  0.104258      1.000000
  0.036125  0.020857  0.104258      6.000000
  0.072250  0.041713  0.104258      6.000000
  0.108374  0.062570  0.104258      6.000000
  0.144499  0.083427  0.104258      6.000000
  0.180624  0.104283  0.104258      3.000000
  0.036125  0.062570  0.104258      6.000000
  0.072250  0.083427  0.104258     12.000000
  0.108374  0.104283  0.104258     12.000000
  0.144499  0.125140  0.104258     12.000000
  0.072250  0.125140  0.104258      6.000000
  0.108374  0.145997  0.104258     12.000000
  0.144499  0.166853  0.104258      6.000000
  0.108374  0.187710  0.104258      6.000000
 


--------------------------------------------------------------------------------------------------------




 Dimension of arrays:
   k-points           NKPTS =     70   k-points in BZ     NKDIM =     70   number of bands    NBANDS=     24
   number of dos      NEDOS =    301   number of ions     NIONS =      2
   non local maximal  LDIM  =      6   non local SUM 2l+1 LMDIM =     18
   total plane-waves  NPLWV =  14400
   max r-space proj   IRMAX =      1   max aug-charges    IRDMAX=  15603
   dimension x,y,z NGX =    20 NGY =   20 NGZ =   36
   dimension x,y,z NGXF=    40 NGYF=   40 NGZF=   72
   support grid    NGXF=    40 NGYF=   40 NGZF=   72
   ions per type =               2
   NGX,Y,Z   is equivalent  to a cutoff of  12.01, 12.01, 12.48 a.u.
   NGXF,Y,Z  is equivalent  to a cutoff of  24.02, 24.02, 24.96 a.u.

 SYSTEM =  Pt-hcc                                  
 POSCAR =  Pt                                      

 Startparameter for this run:
   NWRITE =      2    write-flag & timer
   PREC   = accura    normal or accurate (medium, high low for compatibility)
   ISTART =      0    job   : 0-new  1-cont  2-samecut
   ICHARG =      2    charge: 1-file 2-atom 10-const
   ISPIN  =      1    spin polarized calculation?
   LNONCOLLINEAR =      F non collinear calculations
   LSORBIT =      F    spin-orbit coupling
   INIWAV =      1    electr: 0-lowe 1-rand  2-diag
   LASPH  =      F    aspherical Exc in radial PAW
 Electronic Relaxation 1
   ENCUT  =  450.0 eV  33.07 Ry    5.75 a.u.   4.79  4.79  8.30*2*pi/ulx,y,z
   ENINI  =  450.0     initial cutoff
   ENAUG  =  527.0 eV  augmentation charge cutoff
   NELM   =    100;   NELMIN=  2; NELMDL= -5     # of ELM steps 
   EDIFF  = 0.1E-05   stopping-criterion for ELM
   LREAL  =      F    real-space projection
   NLSPLINE    = F    spline interpolate recip. space projectors
   LCOMPAT=      F    compatible to vasp.4.4
   GGA_COMPAT  = T    GGA compatible to vasp.4.4-vasp.4.6
   LMAXPAW     = -100 max onsite density
   LMAXMIX     =    2 max onsite mixed and CHGCAR
   VOSKOWN=      0    Vosko Wilk Nusair interpolation
   ROPT   =    0.00000
 Ionic relaxation
   EDIFFG = -.2E-01   stopping-criterion for IOM
   NSW    =    100    number of steps for IOM
   NBLOCK =      1;   KBLOCK =    100    inner block; outer block 
   IBRION =      2    ionic relax: 0-MD 1-quasi-New 2-CG
   NFREE  =      1    steps in history (QN), initial steepest desc. (CG)
   ISIF   =      2    stress and relaxation
   IWAVPR =     11    prediction:  0-non 1-charg 2-wave 3-comb
   ISYM   =      1    0-nonsym 1-usesym 2-fastsym
   LCORR  =      T    Harris-Foulkes like correction to forces

   POTIM  = 0.5000    time-step for ionic-motion
   TEIN   =    0.0    initial temperature
   TEBEG  =    0.0;   TEEND  =   0.0 temperature during run
   SMASS  =  -3.00    Nose mass-parameter (am)
   estimated Nose-frequenzy (Omega)   =  0.10E-29 period in steps = 0.13E+47 mass=  -0.175E-27a.u.
   SCALEE = 1.0000    scale energy and forces
   NPACO  =    256;   APACO  = 10.0  distance and # of slots for P.C.
   PSTRESS=    0.0 pullay stress

  Mass of Ions in am
   POMASS = 195.08
  Ionic Valenz
   ZVAL   =  16.00
  Atomic Wigner-Seitz radii
   RWIGS  =  -1.00
  virtual crystal weights 
   VCA    =   1.00
   NELECT =      32.0000    total number of electrons
   NUPDOWN=      -1.0000    fix difference up-down

 DOS related values:
   EMIN   =  10.00;   EMAX   =-10.00  energy-range for DOS
   EFERMI =   0.00
   ISMEAR =     0;   SIGMA  =   0.05  broadening in eV -4-tet -1-fermi 0-gaus

 Electronic relaxation 2 (details)
   IALGO  =     38    algorithm
   LDIAG  =      T    sub-space diagonalisation (order eigenvalues)
   LSUBROT=      F    optimize rotation matrix (better conditioning)
   TURBO    =      0    0=normal 1=particle mesh
   IRESTART =      0    0=no restart 2=restart with 2 vectors
   NREBOOT  =      0    no. of reboots
   NMIN     =      0    reboot dimension
   EREF     =   0.00    reference energy to select bands
   IMIX   =      4    mixing-type and parameters
     AMIX     =   0.40;   BMIX     =  1.00
     AMIX_MAG =   1.60;   BMIX_MAG =  1.00
     AMIN     =   0.10
     WC   =   100.;   INIMIX=   1;  MIXPRE=   1;  MAXMIX= -45

 Intra band minimization:
   WEIMIN = 0.0010     energy-eigenvalue tresh-hold
   EBREAK =  0.10E-07  absolut break condition
   DEPER  =   0.30     relativ break condition  

   TIME   =   0.40     timestep for ELM

  volume/ion in A,a.u.               =      15.91       107.39
  Fermi-wavevector in a.u.,A,eV,Ry     =   1.640077  3.099295 36.597649  2.689851
  Thomas-Fermi vector in A             =   2.730775
 
 Write flags
   LWAVE        =      T    write WAVECAR
   LDOWNSAMPLE  =      F    k-point downsampling of WAVECAR
   LCHARG       =      T    write CHGCAR
   LVTOT        =      F    write LOCPOT, total local potential
   LVHAR        =      F    write LOCPOT, Hartree potential only
   LELF         =      F    write electronic localiz. function (ELF)
   LORBIT       =     11    0 simple, 1 ext, 2 COOP (PROOUT), +10 PAW based schemes


 Dipole corrections
   LMONO  =      F    monopole corrections only (constant potential shift)
   LDIPOL =      F    correct potential (dipole corrections)
   IDIPOL =      0    1-x, 2-y, 3-z, 4-all directions 
   EPSILON=  1.0000000 bulk dielectric constant

 Exchange correlation treatment:
   GGA     =    --    GGA type
   LEXCH   =     8    internal setting for exchange type
   LIBXC   =     F    Libxc                    
   VOSKOWN =     0    Vosko Wilk Nusair interpolation
   LHFCALC =     F    Hartree Fock is set to
   LHFONE  =     F    Hartree Fock one center treatment
   AEXX    =    0.0000 exact exchange contribution

 Linear response parameters
   LEPSILON=     F    determine dielectric tensor
   LRPA    =     F    only Hartree local field effects (RPA)
   LNABLA  =     F    use nabla operator in PAW spheres
   LVEL    =     F    velocity operator in full k-point grid
   CSHIFT  =0.1000    complex shift for real part using Kramers Kronig
   OMEGAMAX=  -1.0    maximum frequency
   DEG_THRESHOLD= 0.2000000E-02 threshold for treating states as degnerate
   RTIME   =   -0.100 relaxation time in fs
  (WPLASMAI=    0.000 imaginary part of plasma frequency in eV, 0.658/RTIME)
   DFIELD  = 0.0000000 0.0000000 0.0000000 field for delta impulse in time
 
  Optional k-point grid parameters
   LKPOINTS_OPT  =     F    use optional k-point grid
   KPOINTS_OPT_MODE=     1    mode for optional k-point grid
 
 Orbital magnetization related:
   ORBITALMAG=     F  switch on orbital magnetization
   LCHIMAG   =     F  perturbation theory with respect to B field
   DQ        =  0.001000  dq finite difference perturbation B field
   LLRAUG    =     F  two centre corrections for induced B field



--------------------------------------------------------------------------------------------------------


 conjugate gradient relaxation of ions
 charge density and potential will be updated during run
 non-spin polarized calculation
 Variant of blocked Davidson
 Davidson routine will perform the subspace rotation
 perform sub-space diagonalisation
    after iterative eigenvector-optimisation
 modified Broyden-mixing scheme, WC =      100.0
 initial mixing is a Kerker type mixing with AMIX =  0.4000 and BMIX =      1.0000
 Hartree-type preconditioning will be used
 using additional bands            8
 reciprocal scheme for non local part
 use partial core corrections
 calculate Harris-corrections to forces 
   (improved forces if not selfconsistent)
 use gradient corrections 
 use of overlap-Matrix (Vanderbilt PP)
 Gauss-broadening in eV      SIGMA  =   0.05


--------------------------------------------------------------------------------------------------------


  energy-cutoff  :      450.00
  volume of cell :       31.83
      direct lattice vectors                 reciprocal lattice vectors
     2.768182221  0.000000000  0.000000000     0.361247895  0.208566569  0.000000000
    -1.384091111  2.397316126  0.000000000     0.000000000  0.417133139  0.000000000
     0.000000000  0.000000000  4.795811186     0.000000000  0.000000000  0.208515298

  length of vectors
     2.768182221  2.768182221  4.795811186     0.417133139  0.417133139  0.208515298


 
 k-points in units of 2pi/SCALE and weight: Automatic mesh                          
   0.00000000  0.00000000  0.00000000       0.001
   0.03612479  0.02085666  0.00000000       0.007
   0.07224958  0.04171331  0.00000000       0.007
   0.10837437  0.06256997  0.00000000       0.007
   0.14449916  0.08342663  0.00000000       0.007
   0.18062395  0.10428328  0.00000000       0.004
   0.03612479  0.06256997  0.00000000       0.007
   0.07224958  0.08342663  0.00000000       0.015
   0.10837437  0.10428328  0.00000000       0.015
   0.14449916  0.12513994  0.00000000       0.015
   0.07224958  0.12513994  0.00000000       0.007
   0.10837437  0.14599660  0.00000000       0.015
   0.14449916  0.16685326  0.00000000       0.007
   0.10837437  0.18770991  0.00000000       0.007
   0.00000000  0.00000000  0.02606441       0.003
   0.03612479  0.02085666  0.02606441       0.015
   0.07224958  0.04171331  0.02606441       0.015
   0.10837437  0.06256997  0.02606441       0.015
   0.14449916  0.08342663  0.02606441       0.015
   0.18062395  0.10428328  0.02606441       0.007
   0.03612479  0.06256997  0.02606441       0.015
   0.07224958  0.08342663  0.02606441       0.030
   0.10837437  0.10428328  0.02606441       0.030
   0.14449916  0.12513994  0.02606441       0.030
   0.07224958  0.12513994  0.02606441       0.015
   0.10837437  0.14599660  0.02606441       0.030
   0.14449916  0.16685326  0.02606441       0.015
   0.10837437  0.18770991  0.02606441       0.015
   0.00000000  0.00000000  0.05212882       0.003
   0.03612479  0.02085666  0.05212882       0.015
   0.07224958  0.04171331  0.05212882       0.015
   0.10837437  0.06256997  0.05212882       0.015
   0.14449916  0.08342663  0.05212882       0.015
   0.18062395  0.10428328  0.05212882       0.007
   0.03612479  0.06256997  0.05212882       0.015
   0.07224958  0.08342663  0.05212882       0.030
   0.10837437  0.10428328  0.05212882       0.030
   0.14449916  0.12513994  0.05212882       0.030
   0.07224958  0.12513994  0.05212882       0.015
   0.10837437  0.14599660  0.05212882       0.030
   0.14449916  0.16685326  0.05212882       0.015
   0.10837437  0.18770991  0.05212882       0.015
   0.00000000  0.00000000  0.07819324       0.003
   0.03612479  0.02085666  0.07819324       0.015
   0.07224958  0.04171331  0.07819324       0.015
   0.10837437  0.06256997  0.07819324       0.015
   0.14449916  0.08342663  0.07819324       0.015
   0.18062395  0.10428328  0.07819324       0.007
   0.03612479  0.06256997  0.07819324       0.015
   0.07224958  0.08342663  0.07819324       0.030
   0.10837437  0.10428328  0.07819324       0.030
   0.14449916  0.12513994  0.07819324       0.030
   0.07224958  0.12513994  0.07819324       0.015
   0.10837437  0.14599660  0.07819324       0.030
   0.14449916  0.16685326  0.07819324       0.015
   0.10837437  0.18770991  0.07819324       0.015
   0.00000000  0.00000000  0.10425765       0.001
   0.03612479  0.02085666  0.10425765       0.007
   0.07224958  0.04171331  0.10425765       0.007
   0.10837437  0.06256997  0.10425765       0.007
   0.14449916  0.08342663  0.10425765       0.007
   0.18062395  0.10428328  0.10425765       0.004
   0.03612479  0.06256997  0.10425765       0.007
   0.07224958  0.08342663  0.10425765       0.015
   0.10837437  0.10428328  0.10425765       0.015
   0.14449916  0.12513994  0.10425765       0.015
   0.07224958  0.12513994  0.10425765       0.007
   0.10837437  0.14599660  0.10425765       0.015
   0.14449916  0.16685326  0.10425765       0.007
   0.10837437  0.18770991  0.10425765       0.007
 
 k-points in reciprocal lattice and weights: Automatic mesh                          
   0.00000000  0.00000000  0.00000000       0.001
   0.10000000  0.00000000  0.00000000       0.007
   0.20000000  0.00000000  0.00000000       0.007
   0.30000000  0.00000000  0.00000000       0.007
   0.40000000 -0.00000000  0.00000000       0.007
   0.50000000 -0.00000000  0.00000000       0.004
   0.10000000  0.10000000  0.00000000       0.007
   0.20000000  0.10000000  0.00000000       0.015
   0.30000000  0.10000000  0.00000000       0.015
   0.40000000  0.10000000  0.00000000       0.015
   0.20000000  0.20000000  0.00000000       0.007
   0.30000000  0.20000000  0.00000000       0.015
   0.40000000  0.20000000  0.00000000       0.007
   0.30000000  0.30000000  0.00000000       0.007
   0.00000000  0.00000000  0.12500000       0.003
   0.10000000  0.00000000  0.12500000       0.015
   0.20000000  0.00000000  0.12500000       0.015
   0.30000000  0.00000000  0.12500000       0.015
   0.40000000 -0.00000000  0.12500000       0.015
   0.50000000 -0.00000000  0.12500000       0.007
   0.10000000  0.10000000  0.12500000       0.015
   0.20000000  0.10000000  0.12500000       0.030
   0.30000000  0.10000000  0.12500000       0.030
   0.40000000  0.10000000  0.12500000       0.030
   0.20000000  0.20000000  0.12500000       0.015
   0.30000000  0.20000000  0.12500000       0.030
   0.40000000  0.20000000  0.12500000       0.015
   0.30000000  0.30000000  0.12500000       0.015
   0.00000000  0.00000000  0.25000000       0.003
   0.10000000  0.00000000  0.25000000       0.015
   0.20000000  0.00000000  0.25000000       0.015
   0.30000000  0.00000000  0.25000000       0.015
   0.40000000 -0.00000000  0.25000000       0.015
   0.50000000 -0.00000000  0.25000000       0.007
   0.10000000  0.10000000  0.25000000       0.015
   0.20000000  0.10000000  0.25000000       0.030
   0.30000000  0.10000000  0.25000000       0.030
   0.40000000  0.10000000  0.25000000       0.030
   0.20000000  0.20000000  0.25000000       0.015
   0.30000000  0.20000000  0.25000000       0.030
   0.40000000  0.20000000  0.25000000       0.015
   0.30000000  0.30000000  0.25000000       0.015
   0.00000000  0.00000000  0.37500000       0.003
   0.10000000  0.00000000  0.37500000       0.015
   0.20000000  0.00000000  0.37500000       0.015
   0.30000000  0.00000000  0.37500000       0.015
   0.40000000 -0.00000000  0.37500000       0.015
   0.50000000 -0.00000000  0.37500000       0.007
   0.10000000  0.10000000  0.37500000       0.015
   0.20000000  0.10000000  0.37500000       0.030
   0.30000000  0.10000000  0.37500000       0.030
   0.40000000  0.10000000  0.37500000       0.030
   0.20000000  0.20000000  0.37500000       0.015
   0.30000000  0.20000000  0.37500000       0.030
   0.40000000  0.20000000  0.37500000       0.015
   0.30000000  0.30000000  0.37500000       0.015
   0.00000000  0.00000000  0.50000000       0.001
   0.10000000  0.00000000  0.50000000       0.007
   0.20000000  0.00000000  0.50000000       0.007
   0.30000000  0.00000000  0.50000000       0.007
   0.40000000 -0.00000000  0.50000000       0.007
   0.50000000 -0.00000000  0.50000000       0.004
   0.10000000  0.10000000  0.50000000       0.007
   0.20000000  0.10000000  0.50000000       0.015
   0.30000000  0.10000000  0.50000000       0.015
   0.40000000  0.10000000  0.50000000       0.015
   0.20000000  0.20000000  0.50000000       0.007
   0.30000000  0.20000000  0.50000000       0.015
   0.40000000  0.20000000  0.50000000       0.007
   0.30000000  0.30000000  0.50000000       0.007
 
 position of ions in fractional coordinates (direct lattice) 
   0.00000000  0.00000000  0.00000000
   0.33333333  0.66666667  0.50000000
 
 position of ions in cartesian coordinates  (Angst):
   0.00000000  0.00000000  0.00000000
   0.00000000  1.59821075  2.39790559
 


--------------------------------------------------------------------------------------------------------


 k-point   1 :   0.0000 0.0000 0.0000  plane waves:     713
 k-point   2 :   0.1000 0.0000 0.0000  plane waves:     693
 k-point   3 :   0.2000 0.0000 0.0000  plane waves:     690
 k-point   4 :   0.3000 0.0000 0.0000  plane waves:     686
 k-point   5 :   0.4000-0.0000 0.0000  plane waves:     690
 k-point   6 :   0.5000-0.0000 0.0000  plane waves:     700
 k-point   7 :   0.1000 0.1000 0.0000  plane waves:     695
 k-point   8 :   0.2000 0.1000 0.0000  plane waves:     693
 k-point   9 :   0.3000 0.1000 0.0000  plane waves:     689
 k-point  10 :   0.4000 0.1000 0.0000  plane waves:     687
 k-point  11 :   0.2000 0.2000 0.0000  plane waves:     693
 k-point  12 :   0.3000 0.2000 0.0000  plane waves:     684
 k-point  13 :   0.4000 0.2000 0.0000  plane waves:     690
 k-point  14 :   0.3000 0.3000 0.0000  plane waves:     697
 k-point  15 :   0.0000 0.0000 0.1250  plane waves:     695
 k-point  16 :   0.1000 0.0000 0.1250  plane waves:     692
 k-point  17 :   0.2000 0.0000 0.1250  plane waves:     689
 k-point  18 :   0.3000 0.0000 0.1250  plane waves:     687
 k-point  19 :   0.4000-0.0000 0.1250  plane waves:     693
 k-point  20 :   0.5000-0.0000 0.1250  plane waves:     694
 k-point  21 :   0.1000 0.1000 0.1250  plane waves:     687
 k-point  22 :   0.2000 0.1000 0.1250  plane waves:     692
 k-point  23 :   0.3000 0.1000 0.1250  plane waves:     692
 k-point  24 :   0.4000 0.1000 0.1250  plane waves:     690
 k-point  25 :   0.2000 0.2000 0.1250  plane waves:     687
 k-point  26 :   0.3000 0.2000 0.1250  plane waves:     686
 k-point  27 :   0.4000 0.2000 0.1250  plane waves:     689
 k-point  28 :   0.3000 0.3000 0.1250  plane waves:     697
 k-point  29 :   0.0000 0.0000 0.2500  plane waves:     689
 k-point  30 :   0.1000 0.0000 0.2500  plane waves:     693
 k-point  31 :   0.2000 0.0000 0.2500  plane waves:     686
 k-point  32 :   0.3000 0.0000 0.2500  plane waves:     690
 k-point  33 :   0.4000-0.0000 0.2500  plane waves:     688
 k-point  34 :   0.5000-0.0000 0.2500  plane waves:     696
 k-point  35 :   0.1000 0.1000 0.2500  plane waves:     683
 k-point  36 :   0.2000 0.1000 0.2500  plane waves:     690
 k-point  37 :   0.3000 0.1000 0.2500  plane waves:     691
 k-point  38 :   0.4000 0.1000 0.2500  plane waves:     692
 k-point  39 :   0.2000 0.2000 0.2500  plane waves:     687
 k-point  40 :   0.3000 0.2000 0.2500  plane waves:     689
 k-point  41 :   0.4000 0.2000 0.2500  plane waves:     689
 k-point  42 :   0.3000 0.3000 0.2500  plane waves:     687
 k-point  43 :   0.0000 0.0000 0.3750  plane waves:     688
 k-point  44 :   0.1000 0.0000 0.3750  plane waves:     683
 k-point  45 :   0.2000 0.0000 0.3750  plane waves:     679
 k-point  46 :   0.3000 0.0000 0.3750  plane waves:     689
 k-point  47 :   0.4000-0.0000 0.3750  plane waves:     691
 k-point  48 :   0.5000-0.0000 0.3750  plane waves:     698
 k-point  49 :   0.1000 0.1000 0.3750  plane waves:     682
 k-point  50 :   0.2000 0.1000 0.3750  plane waves:     685
 k-point  51 :   0.3000 0.1000 0.3750  plane waves:     692
 k-point  52 :   0.4000 0.1000 0.3750  plane waves:     692
 k-point  53 :   0.2000 0.2000 0.3750  plane waves:     689
 k-point  54 :   0.3000 0.2000 0.3750  plane waves:     691
 k-point  55 :   0.4000 0.2000 0.3750  plane waves:     696
 k-point  56 :   0.3000 0.3000 0.3750  plane waves:     692
 k-point  57 :   0.0000 0.0000 0.5000  plane waves:     688
 k-point  58 :   0.1000 0.0000 0.5000  plane waves:     692
 k-point  59 :   0.2000 0.0000 0.5000  plane waves:     684
 k-point  60 :   0.3000 0.0000 0.5000  plane waves:     688
 k-point  61 :   0.4000-0.0000 0.5000  plane waves:     680
 k-point  62 :   0.5000-0.0000 0.5000  plane waves:     676
 k-point  63 :   0.1000 0.1000 0.5000  plane waves:     680
 k-point  64 :   0.2000 0.1000 0.5000  plane waves:     686
 k-point  65 :   0.3000 0.1000 0.5000  plane waves:     694
 k-point  66 :   0.4000 0.1000 0.5000  plane waves:     698
 k-point  67 :   0.2000 0.2000 0.5000  plane waves:     694
 k-point  68 :   0.3000 0.2000 0.5000  plane waves:     696
 k-point  69 :   0.4000 0.2000 0.5000  plane waves:     694
 k-point  70 :   0.3000 0.3000 0.5000  plane waves:     694

 maximum and minimum number of plane-waves per node :       713      676

 maximum number of plane-waves:       713
 maximum index in each direction: 
   IXMAX=    4   IYMAX=    4   IZMAX=    8
   IXMIN=   -5   IYMIN=   -5   IZMIN=   -8


 serial   3D FFT for wavefunctions
 parallel 3D FFT for charge:
    minimum data exchange during FFTs selected (reduces bandwidth)


 total amount of memory used by VASP MPI-rank0    39289. kBytes
=======================================================================

   base      :      30000. kBytes
   nonl-proj :       7280. kBytes
   fftplans  :        254. kBytes
   grid      :        864. kBytes
   one-center:         31. kBytes
   wavefun   :        860. kBytes
 
     INWAV:  cpu time      0.0000: real time      0.0001
 Broyden mixing: mesh for mixing (old mesh)
   NGX =  9   NGY =  9   NGZ = 17
  (NGX  = 40   NGY  = 40   NGZ  = 72)
  gives a total of   1377 points

 initial charge density was supplied:
 charge density of overlapping atoms calculated
 number of electron      32.0000000 magnetization 
 keeping initial charge density in first step


--------------------------------------------------------------------------------------------------------


 Maximum index for augmentation-charges          722 (set IRDMAX)


--------------------------------------------------------------------------------------------------------


 First call to EWALD:  gamma=   0.559
 Maximum number of real-space cells 3x 3x 2
 Maximum number of reciprocal cells 2x 2x 4

    FEWALD:  cpu time      0.0015: real time      0.0015


--------------------------------------- Iteration      1(   1)  ---------------------------------------


    POTLOK:  cpu time      0.0037: real time      0.0038
    SETDIJ:  cpu time      0.0023: real time      0.0023
     EDDAV:  cpu time      0.3184: real time      0.3201
       DOS:  cpu time      0.0005: real time      0.0005
    --------------------------------------------
      LOOP:  cpu time      0.3250: real time      0.3267

 eigenvalue-minimisations  :  3384
 total energy-change (2. order) : 0.1399298E+03  (-0.2307436E+04)
 number of electron      32.0000000 magnetization 
 augmentation part       32.0000000 magnetization 

 Free energy of the ion-electron system (eV)
  ---------------------------------------------------
  alpha Z        PSCENC =       301.55452290
  Ewald energy   TEWEN  =     -4230.75431297
  -Hartree energ DENC   =      -824.11795860
  -exchange      EXHF   =         0.00000000
  -V(xc)+E(xc)   XCENC  =       127.25783016
  PAW double counting   =      4131.50523274    -4061.67189606
  entropy T*S    EENTRO =        -0.00160665
  eigenvalues    EBANDS =      -160.27167461
  atomic energy  EATOM  =      4856.42966544
  Solvation  Ediel_sol  =         0.00000000
  ---------------------------------------------------
  free energy    TOTEN  =       139.92980237 eV

  energy without entropy =      139.93140901  energy(sigma->0) =      139.93060569


--------------------------------------------------------------------------------------------------------




--------------------------------------- Iteration      1(   2)  ---------------------------------------


     EDDAV:  cpu time      0.3304: real time      0.3326
       DOS:  cpu time      0.0004: real time      0.0004
    --------------------------------------------
      LOOP:  cpu time      0.3307: real time      0.3330

 eigenvalue-minimisations  :  3480
 total energy-change (2. order) :-0.1512783E+03  (-0.1502792E+03)
 number of electron      32.0000000 magnetization 
 augmentation part       32.0000000 magnetization 

 Free energy of the ion-electron system (eV)
  ---------------------------------------------------
  alpha Z        PSCENC =       301.55452290
  Ewald energy   TEWEN  =     -4230.75431297
  -Hartree energ DENC   =      -824.11795860
  -exchange      EXHF   =         0.00000000
  -V(xc)+E(xc)   XCENC  =       127.25783016
  PAW double counting   =      4131.50523274    -4061.67189606
  entropy T*S    EENTRO =        -0.00383870
  eigenvalues    EBANDS =      -311.54778439
  atomic energy  EATOM  =      4856.42966544
  Solvation  Ediel_sol  =         0.00000000
  ---------------------------------------------------
  free energy    TOTEN  =       -11.34853947 eV

  energy without entropy =      -11.34470077  energy(sigma->0) =      -11.34662012


--------------------------------------------------------------------------------------------------------




--------------------------------------- Iteration      1(   3)  ---------------------------------------


     EDDAV:  cpu time      0.5744: real time      0.5771
       DOS:  cpu time      0.0004: real time      0.0004
    --------------------------------------------
      LOOP:  cpu time      0.5747: real time      0.5775

 eigenvalue-minimisations  :  4896
 total energy-change (2. order) :-0.1397391E+01  (-0.1393606E+01)
 number of electron      32.0000000 magnetization 
 augmentation part       32.0000000 magnetization 

 Free energy of the ion-electron system (eV)
  ---------------------------------------------------
  alpha Z        PSCENC =       301.55452290
  Ewald energy   TEWEN  =     -4230.75431297
  -Hartree energ DENC   =      -824.11795860
  -exchange      EXHF   =         0.00000000
  -V(xc)+E(xc)   XCENC  =       127.25783016
  PAW double counting   =      4131.50523274    -4061.67189606
  entropy T*S    EENTRO =        -0.00444500
  eigenvalues    EBANDS =      -312.94456890
  atomic energy  EATOM  =      4856.42966544
  Solvation  Ediel_sol  =         0.00000000
  ---------------------------------------------------
  free energy    TOTEN  =       -12.74593029 eV

  energy without entropy =      -12.74148529  energy(sigma->0) =      -12.74370779


--------------------------------------------------------------------------------------------------------




--------------------------------------- Iteration      1(   4)  ---------------------------------------


     EDDAV:  cpu time      0.5033: real time      0.5058
       DOS:  cpu time      0.0004: real time      0.0004
    --------------------------------------------
      LOOP:  cpu time      0.5037: real time      0.5062

 eigenvalue-minimisations  :  4440
 total energy-change (2. order) :-0.3175020E-02  (-0.3174297E-02)
 number of electron      32.0000000 magnetization 
 augmentation part       32.0000000 magnetization 

 Free energy of the ion-electron system (eV)
  ---------------------------------------------------
  alpha Z        PSCENC =       301.55452290
  Ewald energy   TEWEN  =     -4230.75431297
  -Hartree energ DENC   =      -824.11795860
  -exchange      EXHF   =         0.00000000
  -V(xc)+E(xc)   XCENC  =       127.25783016
  PAW double counting   =      4131.50523274    -4061.67189606
  entropy T*S    EENTRO =        -0.00443809
  eigenvalues    EBANDS =      -312.94775083
  atomic energy  EATOM  =      4856.42966544
  Solvation  Ediel_sol  =         0.00000000
  ---------------------------------------------------
  free energy    TOTEN  =       -12.74910531 eV

  energy without entropy =      -12.74466721  energy(sigma->0) =      -12.74688626


--------------------------------------------------------------------------------------------------------




--------------------------------------- Iteration      1(   5)  ---------------------------------------


     EDDAV:  cpu time      0.5958: real time      0.5988
       DOS:  cpu time      0.0004: real time      0.0004
    CHARGE:  cpu time      0.0242: real time      0.0243
    MIXING:  cpu time      0.0009: real time      0.0009
    --------------------------------------------
      LOOP:  cpu time      0.6213: real time      0.6243

 eigenvalue-minimisations  :  5016
 total energy-change (2. order) :-0.1978034E-05  (-0.1978715E-05)
 number of electron      31.9999997 magnetization 
 augmentation part        7.9521842 magnetization 

 Broyden mixing:
  rms(total) = 0.19365E+01    rms(broyden)= 0.19363E+01
  rms(prec ) = 0.21587E+01
  weight for this iteration     100.00

 Free energy of the ion-electron system (eV)
  ---------------------------------------------------
  alpha Z        PSCENC =       301.55452290
  Ewald energy   TEWEN  =     -4230.75431297
  -Hartree energ DENC   =      -824.11795860
  -exchange      EXHF   =         0.00000000
  -V(xc)+E(xc)   XCENC  =       127.25783016
  PAW double counting   =      4131.50523274    -4061.67189606
  entropy T*S    EENTRO =        -0.00443810
  eigenvalues    EBANDS =      -312.94775281
  atomic energy  EATOM  =      4856.42966544
  Solvation  Ediel_sol  =         0.00000000
  ---------------------------------------------------
  free energy    TOTEN  =       -12.74910728 eV

  energy without entropy =      -12.74466919  energy(sigma->0) =      -12.74688824


--------------------------------------------------------------------------------------------------------




--------------------------------------- Iteration      1(   6)  ---------------------------------------


    POTLOK:  cpu time      0.0039: real time      0.0040
    SETDIJ:  cpu time      0.0022: real time      0.0022
     EDDAV:  cpu time      0.3319: real time      0.3335
       DOS:  cpu time      0.0004: real time      0.0004
    CHARGE:  cpu time      0.0229: real time      0.0229
    MIXING:  cpu time      0.0003: real time      0.0003
    --------------------------------------------
      LOOP:  cpu time      0.3616: real time      0.3634

 eigenvalue-minimisations  :  3504
 total energy-change (2. order) : 0.6766348E+00  (-0.2681552E+00)
 number of electron      31.9999997 magnetization 
 augmentation part        8.1865938 magnetization 

 Broyden mixing:
  rms(total) = 0.57955E+00    rms(broyden)= 0.57953E+00
  rms(prec ) = 0.61957E+00
  weight for this iteration     100.00

 eigenvalues of (default mixing * dielectric matrix)
  average eigenvalue GAMMA=   1.3983
  1.3983

 Free energy of the ion-electron system (eV)
  ---------------------------------------------------
  alpha Z        PSCENC =       301.55452290
  Ewald energy   TEWEN  =     -4230.75431297
  -Hartree energ DENC   =      -792.81488544
  -exchange      EXHF   =         0.00000000
  -V(xc)+E(xc)   XCENC  =       125.91831005
  PAW double counting   =      4430.09617638    -4364.28160941
  entropy T*S    EENTRO =        -0.00454451
  eigenvalues    EBANDS =      -338.21579492
  atomic energy  EATOM  =      4856.42966544
  Solvation  Ediel_sol  =         0.00000000
  ---------------------------------------------------
  free energy    TOTEN  =       -12.07247246 eV

  energy without entropy =      -12.06792796  energy(sigma->0) =      -12.07020021


--------------------------------------------------------------------------------------------------------




--------------------------------------- Iteration      1(   7)  ---------------------------------------


    POTLOK:  cpu time      0.0033: real time      0.0035
    SETDIJ:  cpu time      0.0020: real time      0.0020
     EDDAV:  cpu time      0.5095: real time      0.5118
       DOS:  cpu time      0.0004: real time      0.0004
    CHARGE:  cpu time      0.0225: real time      0.0226
    MIXING:  cpu time      0.0004: real time      0.0004
    --------------------------------------------
      LOOP:  cpu time      0.5380: real time      0.5406

 eigenvalue-minimisations  :  4656
 total energy-change (2. order) : 0.3218865E-01  (-0.1407203E-01)
 number of electron      31.9999997 magnetization 
 augmentation part        8.2352453 magnetization 

 Broyden mixing:
  rms(total) = 0.18133E+00    rms(broyden)= 0.18133E+00
  rms(prec ) = 0.19333E+00
  weight for this iteration     100.00

 eigenvalues of (default mixing * dielectric matrix)
  average eigenvalue GAMMA=   1.9197
  1.1614  2.6780

 Free energy of the ion-electron system (eV)
  ---------------------------------------------------
  alpha Z        PSCENC =       301.55452290
  Ewald energy   TEWEN  =     -4230.75431297
  -Hartree energ DENC   =      -785.33917413
  -exchange      EXHF   =         0.00000000
  -V(xc)+E(xc)   XCENC  =       125.57764426
  PAW double counting   =      4544.79810593    -4479.97364366
  entropy T*S    EENTRO =        -0.00479318
  eigenvalues    EBANDS =      -344.32829842
  atomic energy  EATOM  =      4856.42966544
  Solvation  Ediel_sol  =         0.00000000
  ---------------------------------------------------
  free energy    TOTEN  =       -12.04028382 eV

  energy without entropy =      -12.03549064  energy(sigma->0) =      -12.03788723


--------------------------------------------------------------------------------------------------------




--------------------------------------- Iteration      1(   8)  ---------------------------------------


    POTLOK:  cpu time      0.0033: real time      0.0035
    SETDIJ:  cpu time      0.0019: real time      0.0019
     EDDAV:  cpu time      0.3469: real time      0.3486
       DOS:  cpu time      0.0004: real time      0.0004
    CHARGE:  cpu time      0.0225: real time      0.0226
    MIXING:  cpu time      0.0003: real time      0.0003
    --------------------------------------------
      LOOP:  cpu time      0.3753: real time      0.3773

 eigenvalue-minimisations  :  3624
 total energy-change (2. order) : 0.2232145E-02  (-0.7201323E-03)
 number of electron      31.9999997 magnetization 
 augmentation part        8.2284150 magnetization 

 Broyden mixing:
  rms(total) = 0.24313E-01    rms(broyden)= 0.24301E-01
  rms(prec ) = 0.26402E-01
  weight for this iteration     100.00

 eigenvalues of (default mixing * dielectric matrix)
  average eigenvalue GAMMA=   1.5820
  1.0892  1.2482  2.4088

 Free energy of the ion-electron system (eV)
  ---------------------------------------------------
  alpha Z        PSCENC =       301.55452290
  Ewald energy   TEWEN  =     -4230.75431297
  -Hartree energ DENC   =      -785.05127393
  -exchange      EXHF   =         0.00000000
  -V(xc)+E(xc)   XCENC  =       125.53959674
  PAW double counting   =      4613.07626897    -4548.28142101
  entropy T*S    EENTRO =        -0.00485003
  eigenvalues    EBANDS =      -344.54624780
  atomic energy  EATOM  =      4856.42966544
  Solvation  Ediel_sol  =         0.00000000
  ---------------------------------------------------
  free energy    TOTEN  =       -12.03805167 eV

  energy without entropy =      -12.03320164  energy(sigma->0) =      -12.03562666


--------------------------------------------------------------------------------------------------------




--------------------------------------- Iteration      1(   9)  ---------------------------------------


    POTLOK:  cpu time      0.0032: real time      0.0034
    SETDIJ:  cpu time      0.0019: real time      0.0019
     EDDAV:  cpu time      0.5166: real time      0.5189
       DOS:  cpu time      0.0004: real time      0.0004
    CHARGE:  cpu time      0.0231: real time      0.0232
    MIXING:  cpu time      0.0004: real time      0.0004
    --------------------------------------------
      LOOP:  cpu time      0.5456: real time      0.5481

 eigenvalue-minimisations  :  4512
 total energy-change (2. order) : 0.1672149E-03  (-0.2341291E-04)
 number of electron      31.9999997 magnetization 
 augmentation part        8.2275852 magnetization 

 Broyden mixing:
  rms(total) = 0.29706E-02    rms(broyden)= 0.29692E-02
  rms(prec ) = 0.35636E-02
  weight for this iteration     100.00

 eigenvalues of (default mixing * dielectric matrix)
  average eigenvalue GAMMA=   1.6721
  2.5301  1.0326  1.1931  1.9325

 Free energy of the ion-electron system (eV)
  ---------------------------------------------------
  alpha Z        PSCENC =       301.55452290
  Ewald energy   TEWEN  =     -4230.75431297
  -Hartree energ DENC   =      -785.33356679
  -exchange      EXHF   =         0.00000000
  -V(xc)+E(xc)   XCENC  =       125.55373815
  PAW double counting   =      4606.66781210    -4541.80203041
  entropy T*S    EENTRO =        -0.00482212
  eigenvalues    EBANDS =      -344.34889076
  atomic energy  EATOM  =      4856.42966544
  Solvation  Ediel_sol  =         0.00000000
  ---------------------------------------------------
  free energy    TOTEN  =       -12.03788446 eV

  energy without entropy =      -12.03306233  energy(sigma->0) =      -12.03547340


--------------------------------------------------------------------------------------------------------




--------------------------------------- Iteration      1(  10)  ---------------------------------------


    POTLOK:  cpu time      0.0034: real time      0.0036
    SETDIJ:  cpu time      0.0020: real time      0.0020
     EDDAV:  cpu time      0.4164: real time      0.4184
       DOS:  cpu time      0.0004: real time      0.0004
    CHARGE:  cpu time      0.0226: real time      0.0226
    MIXING:  cpu time      0.0004: real time      0.0004
    --------------------------------------------
      LOOP:  cpu time      0.4450: real time      0.4473

 eigenvalue-minimisations  :  3984
 total energy-change (2. order) :-0.1458679E-04  (-0.1050758E-05)
 number of electron      31.9999997 magnetization 
 augmentation part        8.2277375 magnetization 

 Broyden mixing:
  rms(total) = 0.10338E-02    rms(broyden)= 0.10335E-02
  rms(prec ) = 0.12090E-02
  weight for this iteration     100.00

 eigenvalues of (default mixing * dielectric matrix)
  average eigenvalue GAMMA=   1.7204
  2.6486  2.2828  0.9903  1.1904  1.4901

 Free energy of the ion-electron system (eV)
  ---------------------------------------------------
  alpha Z        PSCENC =       301.55452290
  Ewald energy   TEWEN  =     -4230.75431297
  -Hartree energ DENC   =      -785.34908544
  -exchange      EXHF   =         0.00000000
  -V(xc)+E(xc)   XCENC  =       125.55402808
  PAW double counting   =      4609.39445103    -4544.49585681
  entropy T*S    EENTRO =        -0.00481816
  eigenvalues    EBANDS =      -344.36649312
  atomic energy  EATOM  =      4856.42966544
  Solvation  Ediel_sol  =         0.00000000
  ---------------------------------------------------
  free energy    TOTEN  =       -12.03789905 eV

  energy without entropy =      -12.03308089  energy(sigma->0) =      -12.03548997


--------------------------------------------------------------------------------------------------------




--------------------------------------- Iteration      1(  11)  ---------------------------------------


    POTLOK:  cpu time      0.0032: real time      0.0034
    SETDIJ:  cpu time      0.0019: real time      0.0019
     EDDAV:  cpu time      0.3781: real time      0.3799
       DOS:  cpu time      0.0004: real time      0.0004
    --------------------------------------------
      LOOP:  cpu time      0.3836: real time      0.3856

 eigenvalue-minimisations  :  3720
 total energy-change (2. order) : 0.3741061E-06  (-0.1221738E-06)
 number of electron      31.9999997 magnetization 
 augmentation part        8.2277375 magnetization 

 Free energy of the ion-electron system (eV)
  ---------------------------------------------------
  alpha Z        PSCENC =       301.55452290
  Ewald energy   TEWEN  =     -4230.75431297
  -Hartree energ DENC   =      -785.36413709
  -exchange      EXHF   =         0.00000000
  -V(xc)+E(xc)   XCENC  =       125.55463591
  PAW double counting   =      4609.87574523    -4544.96190695
  entropy T*S    EENTRO =        -0.00481892
  eigenvalues    EBANDS =      -344.36729224
  atomic energy  EATOM  =      4856.42966544
  Solvation  Ediel_sol  =         0.00000000
  ---------------------------------------------------
  free energy    TOTEN  =       -12.03789867 eV

  energy without entropy =      -12.03307976  energy(sigma->0) =      -12.03548921


--------------------------------------------------------------------------------------------------------




 average (electrostatic) potential at core
  the test charge radii are     0.9952
  (the norm of the test charge is              1.0000)
       1 -89.5945       2 -89.5945
 
 
 
 E-fermi :  10.9904     XC(G=0): -13.6536     alpha+bet :-16.4851

 Fermi energy:        10.9904248362

 k-point     1 :       0.0000    0.0000    0.0000
  band No.  band energies     occupation 
      1     -41.5805      2.00000
      2     -41.4177      2.00000
      3     -41.4177      2.00000
      4     -41.3781      2.00000
      5     -41.3781      2.00000
      6     -41.2589      2.00000
      7       1.3634      2.00000
      8       4.0097      2.00000
      9       7.1270      2.00000
     10       7.6176      2.00000
     11       7.6176      2.00000
     12       7.9804      2.00000
     13       7.9804      2.00000
     14       9.2211      2.00000
     15       9.2211      2.00000
     16      10.3309      2.00000
     17      10.7885      2.00000
     18      10.7885      2.00000
     19      15.6495      0.00000
     20      26.0943      0.00000
     21      26.7015      0.00000
     22      28.2432      0.00000
     23      31.9322      0.00000
     24      31.9322      0.00000

 k-point     2 :       0.1000    0.0000    0.0000
  band No.  band energies     occupation 
      1     -41.5685      2.00000
      2     -41.4520      2.00000
      3     -41.4271      2.00000
      4     -41.4136      2.00000
      5     -41.3850      2.00000
      6     -41.2613      2.00000
      7       1.7216      2.00000
      8       4.3337      2.00000
      9       7.0590      2.00000
     10       7.6304      2.00000
     11       7.8350      2.00000
     12       7.8905      2.00000
     13       8.2394      2.00000
     14       8.6569      2.00000
     15       9.0534      2.00000
     16       9.2099      2.00000
     17      10.8507      1.99992
     18      12.5505      0.00000
     19      15.6147      0.00000
     20      26.5120      0.00000
     21      27.2230      0.00000
     22      28.5436      0.00000
     23      30.3361      0.00000
     24      30.4320      0.00000

 k-point     3 :       0.2000    0.0000    0.0000
  band No.  band energies     occupation 
      1     -41.5435      2.00000
      2     -41.5369      2.00000
      3     -41.5058      2.00000
      4     -41.4534      2.00000
      5     -41.4041      2.00000
      6     -41.2698      2.00000
      7       2.6992      2.00000
      8       5.0473      2.00000
      9       6.8325      2.00000
     10       7.3125      2.00000
     11       7.3524      2.00000
     12       8.2448      2.00000
     13       8.6610      2.00000
     14       8.6808      2.00000
     15       8.7019      2.00000
     16       8.9664      2.00000
     17      10.9494      1.75403
     18      14.7076      0.00000
     19      15.5505      0.00000
     20      24.9512      0.00000
     21      27.8256      0.00000
     22      28.0156      0.00000
     23      28.9327      0.00000
     24      29.1505      0.00000

 k-point     4 :       0.3000    0.0000    0.0000
  band No.  band energies     occupation 
      1     -41.6561      2.00000
      2     -41.6175      2.00000
      3     -41.4922      2.00000
      4     -41.4848      2.00000
      5     -41.4285      2.00000
      6     -41.2855      2.00000
      7       3.8995      2.00000
      8       5.1756      2.00000
      9       6.2706      2.00000
     10       7.0935      2.00000
     11       7.4460      2.00000
     12       8.2011      2.00000
     13       8.2957      2.00000
     14       9.3774      2.00000
     15       9.7669      2.00000
     16       9.9951      2.00000
     17      11.0033      0.71476
     18      15.6780      0.00000
     19      16.9070      0.00000
     20      21.2310      0.00000
     21      25.6481      0.00000
     22      26.2612      0.00000
     23      27.7602      0.00000
     24      28.9195      0.00000

 k-point     5 :       0.4000   -0.0000    0.0000
  band No.  band energies     occupation 
      1     -41.7478      2.00000
      2     -41.7063      2.00000
      3     -41.5100      2.00000
      4     -41.4485      2.00000
      5     -41.4476      2.00000
      6     -41.3069      2.00000
      7       4.5647      2.00000
      8       4.8658      2.00000
      9       5.6255      2.00000
     10       7.6059      2.00000
     11       7.8339      2.00000
     12       8.0220      2.00000
     13       8.2445      2.00000
     14      10.8308      1.99999
     15      11.0064      0.65102
     16      11.0157      0.47482
     17      11.2232      0.00000
     18      16.4905      0.00000
     19      17.6022      0.00000
     20      18.8660      0.00000
     21      23.3230      0.00000
     22      23.7562      0.00000
     23      24.9023      0.00000
     24      27.6449      0.00000

 k-point     6 :       0.5000   -0.0000    0.0000
  band No.  band energies     occupation 
      1     -41.7823      2.00000
      2     -41.7404      2.00000
      3     -41.5199      2.00000
      4     -41.4562      2.00000
      5     -41.4256      2.00000
      6     -41.3206      2.00000
      7       4.6643      2.00000
      8       4.7339      2.00000
      9       5.4071      2.00000
     10       7.7010      2.00000
     11       7.9238      2.00000
     12       8.1221      2.00000
     13       8.4466      2.00000
     14      11.0150      0.48702
     15      11.2780      0.00000
     16      11.4772      0.00000
     17      13.2491      0.00000
     18      14.7088      0.00000
     19      18.2284      0.00000
     20      19.8153      0.00000
     21      20.4358      0.00000
     22      22.9849      0.00000
     23      24.2482      0.00000
     24      27.0755      0.00000

 k-point     7 :       0.1000    0.1000    0.0000
  band No.  band energies     occupation 
      1     -41.5470      2.00000
      2     -41.5092      2.00000
      3     -41.4841      2.00000
      4     -41.4398      2.00000
      5     -41.4033      2.00000
      6     -41.2671      2.00000
      7       2.3977      2.00000
      8       4.8997      2.00000
      9       6.7935      2.00000
     10       7.5447      2.00000
     11       7.7108      2.00000
     12       7.8500      2.00000
     13       8.4656      2.00000
     14       8.4831      2.00000
     15       8.8186      2.00000
     16       9.1181      2.00000
     17      10.8726      1.99914
     18      14.1378      0.00000
     19      15.5671      0.00000
     20      26.3913      0.00000
     21      26.9649      0.00000
     22      28.1159      0.00000
     23      29.1056      0.00000
     24      29.8163      0.00000

 k-point     8 :       0.2000    0.1000    0.0000
  band No.  band energies     occupation 
      1     -41.6040      2.00000
      2     -41.5788      2.00000
      3     -41.5088      2.00000
      4     -41.4765      2.00000
      5     -41.4320      2.00000
      6     -41.2792      2.00000
      7       3.5595      2.00000
      8       5.5067      2.00000
      9       6.6167      2.00000
     10       6.6753      2.00000
     11       7.2788      2.00000
     12       7.9981      2.00000
     13       8.4523      2.00000
     14       8.7578      2.00000
     15       9.5067      2.00000
     16       9.9040      2.00000
     17      10.8743      1.99898
     18      15.6181      0.00000
     19      16.2096      0.00000
     20      23.1281      0.00000
     21      25.0346      0.00000
     22      27.2466      0.00000
     23      29.1275      0.00000
     24      29.7258      0.00000

 k-point     9 :       0.3000    0.1000    0.0000
  band No.  band energies     occupation 
      1     -41.7024      2.00000
      2     -41.6678      2.00000
      3     -41.5142      2.00000
      4     -41.4629      2.00000
      5     -41.4595      2.00000
      6     -41.2988      2.00000
      7       4.6150      2.00000
      8       5.2743      2.00000
      9       5.9124      2.00000
     10       7.1062      2.00000
     11       7.7069      2.00000
     12       7.7195      2.00000
     13       8.2763      2.00000
     14       9.5333      2.00000
     15      10.5724      2.00000
     16      10.8626      1.99970
     17      11.3069      0.00000
     18      16.2143      0.00000
     19      18.3300      0.00000
     20      19.3157      0.00000
     21      22.9394      0.00000
     22      25.7884      0.00000
     23      26.0238      0.00000
     24      28.0580      0.00000

 k-point    10 :       0.4000    0.1000    0.0000
  band No.  band energies     occupation 
      1     -41.7630      2.00000
      2     -41.7219      2.00000
      3     -41.5371      2.00000
      4     -41.4763      2.00000
      5     -41.4256      2.00000
      6     -41.3203      2.00000
      7       4.9308      2.00000
      8       5.0185      2.00000
      9       5.5156      2.00000
     10       7.6534      2.00000
     11       7.8812      2.00000
     12       7.8854      2.00000
     13       8.2114      2.00000
     14      10.7462      2.00000
     15      10.8464      1.99995
     16      11.1177      0.00032
     17      12.9939      0.00000
     18      15.9267      0.00000
     19      17.8859      0.00000
     20      19.9944      0.00000
     21      20.7422      0.00000
     22      23.0811      0.00000
     23      24.7097      0.00000
     24      26.9962      0.00000

 k-point    11 :       0.2000    0.2000    0.0000
  band No.  band energies     occupation 
      1     -41.6597      2.00000
      2     -41.6591      2.00000
      3     -41.5194      2.00000
      4     -41.4802      2.00000
      5     -41.4687      2.00000
      6     -41.2960      2.00000
      7       4.7616      2.00000
      8       6.1043      2.00000
      9       6.1120      2.00000
     10       6.1731      2.00000
     11       7.4904      2.00000
     12       7.5193      2.00000
     13       8.4664      2.00000
     14       8.8081      2.00000
     15      10.5571      2.00000
     16      10.6984      2.00000
     17      11.3863      0.00000
     18      16.1863      0.00000
     19      18.2040      0.00000
     20      20.7686      0.00000
     21      21.6842      0.00000
     22      26.5300      0.00000
     23      27.6744      0.00000
     24      28.1938      0.00000

 k-point    12 :       0.3000    0.2000    0.0000
  band No.  band energies     occupation 
      1     -41.7189      2.00000
      2     -41.6909      2.00000
      3     -41.5686      2.00000
      4     -41.5214      2.00000
      5     -41.4260      2.00000
      6     -41.3198      2.00000
      7       5.5449      2.00000
      8       5.7326      2.00000
      9       5.7650      2.00000
     10       6.8951      2.00000
     11       7.3768      2.00000
     12       7.9886      2.00000
     13       8.0321      2.00000
     14       9.5870      2.00000
     15      10.5643      2.00000
     16      10.9907      0.99375
     17      13.0403      0.00000
     18      17.1769      0.00000
     19      18.1204      0.00000
     20      19.7455      0.00000
     21      20.2773      0.00000
     22      24.6453      0.00000
     23      25.7317      0.00000
     24      26.7071      0.00000

 k-point    13 :       0.4000    0.2000    0.0000
  band No.  band energies     occupation 
      1     -41.7411      2.00000
      2     -41.6993      2.00000
      3     -41.5925      2.00000
      4     -41.5372      2.00000
      5     -41.4018      2.00000
      6     -41.3369      2.00000
      7       5.5991      2.00000
      8       5.6152      2.00000
      9       5.6629      2.00000
     10       7.4611      2.00000
     11       7.5118      2.00000
     12       7.6191      2.00000
     13       8.2956      2.00000
     14      10.3361      2.00000
     15      10.5152      2.00000
     16      10.8011      2.00000
     17      14.6304      0.00000
     18      15.1337      0.00000
     19      18.4502      0.00000
     20      20.0113      0.00000
     21      21.4839      0.00000
     22      22.4830      0.00000
     23      24.9138      0.00000
     24      26.2204      0.00000

 k-point    14 :       0.3000    0.3000    0.0000
  band No.  band energies     occupation 
      1     -41.7064      2.00000
      2     -41.6747      2.00000
      3     -41.6290      2.00000
      4     -41.5888      2.00000
      5     -41.3882      2.00000
      6     -41.3479      2.00000
      7       5.6909      2.00000
      8       6.0924      2.00000
      9       6.3463      2.00000
     10       6.7814      2.00000
     11       7.3300      2.00000
     12       7.5948      2.00000
     13       8.3846      2.00000
     14       9.9420      2.00000
     15      10.3519      2.00000
     16      10.6441      2.00000
     17      14.6358      0.00000
     18      15.9027      0.00000
     19      17.3286      0.00000
     20      20.8305      0.00000
     21      22.3989      0.00000
     22      23.6032      0.00000
     23      24.4058      0.00000
     24      24.8121      0.00000

 k-point    15 :       0.0000    0.0000    0.1250
  band No.  band energies     occupation 
      1     -41.5676      2.00000
      2     -41.4157      2.00000
      3     -41.4157      2.00000
      4     -41.3794      2.00000
      5     -41.3794      2.00000
      6     -41.2710      2.00000
      7       1.4964      2.00000
      8       3.9900      2.00000
      9       7.0942      2.00000
     10       7.5985      2.00000
     11       7.5985      2.00000
     12       7.9422      2.00000
     13       7.9422      2.00000
     14       9.3185      2.00000
     15       9.3185      2.00000
     16       9.7134      2.00000
     17      10.7621      2.00000
     18      10.7621      2.00000
     19      16.5175      0.00000
     20      25.6426      0.00000
     21      27.1967      0.00000
     22      27.9590      0.00000
     23      31.4055      0.00000
     24      31.4055      0.00000

 k-point    16 :       0.1000    0.0000    0.1250
  band No.  band energies     occupation 
      1     -41.5577      2.00000
      2     -41.4496      2.00000
      3     -41.4257      2.00000
      4     -41.4158      2.00000
      5     -41.3867      2.00000
      6     -41.2724      2.00000
      7       1.8521      2.00000
      8       4.3203      2.00000
      9       7.0622      2.00000
     10       7.5448      2.00000
     11       7.7331      2.00000
     12       7.8620      2.00000
     13       8.1967      2.00000
     14       8.6100      2.00000
     15       9.1683      2.00000
     16       9.2050      2.00000
     17      10.8128      2.00000
     18      12.0101      0.00000
     19      16.6059      0.00000
     20      26.1308      0.00000
     21      27.6103      0.00000
     22      28.3245      0.00000
     23      29.7432      0.00000
     24      30.3605      0.00000

 k-point    17 :       0.2000    0.0000    0.1250
  band No.  band energies     occupation 
      1     -41.5540      2.00000
      2     -41.5164      2.00000
      3     -41.5069      2.00000
      4     -41.4516      2.00000
      5     -41.4061      2.00000
      6     -41.2786      2.00000
      7       2.8147      2.00000
      8       5.0566      2.00000
      9       6.8637      2.00000
     10       7.0587      2.00000
     11       7.3592      2.00000
     12       8.1332      2.00000
     13       8.5002      2.00000
     14       8.8416      2.00000
     15       8.9098      2.00000
     16       9.0143      2.00000
     17      10.8901      1.99544
     18      13.5204      0.00000
     19      17.0189      0.00000
     20      25.0493      0.00000
     21      27.6025      0.00000
     22      28.1721      0.00000
     23      28.4243      0.00000
     24      29.5573      0.00000

 k-point    18 :       0.3000    0.0000    0.1250
  band No.  band energies     occupation 
      1     -41.6584      2.00000
      2     -41.6211      2.00000
      3     -41.4827      2.00000
      4     -41.4808      2.00000
      5     -41.4305      2.00000
      6     -41.2914      2.00000
      7       3.9534      2.00000
      8       5.2036      2.00000
      9       6.2506      2.00000
     10       6.9314      2.00000
     11       7.4717      2.00000
     12       8.3056      2.00000
     13       8.3569      2.00000
     14       9.4307      2.00000
     15       9.7882      2.00000
     16       9.9472      2.00000
     17      10.9342      1.88792
     18      14.6059      0.00000
     19      18.0121      0.00000
     20      21.5009      0.00000
     21      25.8860      0.00000
     22      25.9620      0.00000
     23      27.5010      0.00000
     24      29.3761      0.00000

 k-point    19 :       0.4000   -0.0000    0.1250
  band No.  band energies     occupation 
      1     -41.7488      2.00000
      2     -41.7102      2.00000
      3     -41.5078      2.00000
      4     -41.4509      2.00000
      5     -41.4395      2.00000
      6     -41.3103      2.00000
      7       4.5010      2.00000
      8       4.8745      2.00000
      9       5.7783      2.00000
     10       6.9808      2.00000
     11       8.0465      2.00000
     12       8.1058      2.00000
     13       8.7890      2.00000
     14      10.7566      2.00000
     15      10.8463      1.99995
     16      11.1065      0.00103
     17      11.1368      0.00003
     18      15.6386      0.00000
     19      17.6465      0.00000
     20      19.6789      0.00000
     21      23.0524      0.00000
     22      24.0305      0.00000
     23      25.2230      0.00000
     24      27.8695      0.00000

 k-point    20 :       0.5000   -0.0000    0.1250
  band No.  band energies     occupation 
      1     -41.7832      2.00000
      2     -41.7440      2.00000
      3     -41.5173      2.00000
      4     -41.4587      2.00000
      5     -41.4183      2.00000
      6     -41.3225      2.00000
      7       4.5803      2.00000
      8       4.6938      2.00000
      9       5.6279      2.00000
     10       7.0438      2.00000
     11       8.0126      2.00000
     12       8.1948      2.00000
     13       9.2355      2.00000
     14      10.8400      1.99998
     15      11.2981      0.00000
     16      11.4711      0.00000
     17      13.0177      0.00000
     18      14.6002      0.00000
     19      18.0852      0.00000
     20      18.8206      0.00000
     21      21.6846      0.00000
     22      23.2728      0.00000
     23      24.3820      0.00000
     24      27.3559      0.00000

 k-point    21 :       0.1000    0.1000    0.1250
  band No.  band energies     occupation 
      1     -41.5436      2.00000
      2     -41.5004      2.00000
      3     -41.4853      2.00000
      4     -41.4395      2.00000
      5     -41.4049      2.00000
      6     -41.2761      2.00000
      7       2.5202      2.00000
      8       4.9015      2.00000
      9       6.8245      2.00000
     10       7.2697      2.00000
     11       7.6269      2.00000
     12       7.8518      2.00000
     13       8.3981      2.00000
     14       8.6169      2.00000
     15       8.9061      2.00000
     16       9.1882      2.00000
     17      10.8222      2.00000
     18      13.1706      0.00000
     19      16.8633      0.00000
     20      26.3531      0.00000
     21      27.0349      0.00000
     22      27.9970      0.00000
     23      28.6507      0.00000
     24      30.0815      0.00000

 k-point    22 :       0.2000    0.1000    0.1250
  band No.  band energies     occupation 
      1     -41.6074      2.00000
      2     -41.5817      2.00000
      3     -41.4955      2.00000
      4     -41.4750      2.00000
      5     -41.4337      2.00000
      6     -41.2861      2.00000
      7       3.6502      2.00000
      8       5.5406      2.00000
      9       6.4978      2.00000
     10       6.6824      2.00000
     11       7.2498      2.00000
     12       7.8987      2.00000
     13       8.5991      2.00000
     14       8.7454      2.00000
     15       9.6164      2.00000
     16       9.8523      2.00000
     17      10.8243      2.00000
     18      14.3319      0.00000
     19      17.6637      0.00000
     20      23.3075      0.00000
     21      25.1642      0.00000
     22      27.1538      0.00000
     23      28.5089      0.00000
     24      30.3292      0.00000

 k-point    23 :       0.3000    0.1000    0.1250
  band No.  band energies     occupation 
      1     -41.7039      2.00000
      2     -41.6714      2.00000
      3     -41.5129      2.00000
      4     -41.4629      2.00000
      5     -41.4521      2.00000
      6     -41.3028      2.00000
      7       4.6002      2.00000
      8       5.3086      2.00000
      9       5.9748      2.00000
     10       6.8347      2.00000
     11       7.6772      2.00000
     12       8.0532      2.00000
     13       8.2906      2.00000
     14       9.5495      2.00000
     15      10.6187      2.00000
     16      10.6762      2.00000
     17      11.3658      0.00000
     18      15.4207      0.00000
     19      18.5794      0.00000
     20      20.0797      0.00000
     21      23.0491      0.00000
     22      25.2207      0.00000
     23      26.4203      0.00000
     24      28.2518      0.00000

 k-point    24 :       0.4000    0.1000    0.1250
  band No.  band energies     occupation 
      1     -41.7640      2.00000
      2     -41.7257      2.00000
      3     -41.5355      2.00000
      4     -41.4793      2.00000
      5     -41.4183      2.00000
      6     -41.3218      2.00000
      7       4.8060      2.00000
      8       5.0103      2.00000
      9       5.7681      2.00000
     10       6.9854      2.00000
     11       7.7583      2.00000
     12       8.3164      2.00000
     13       8.7163      2.00000
     14      10.6379      2.00000
     15      10.7516      2.00000
[...]
      1     -41.6534      2.00000
      2     -41.6534      2.00000
      3     -41.4566      2.00000
      4     -41.4566      2.00000
      5     -41.3729      2.00000
      6     -41.3729      2.00000
      7       4.7360      2.00000
      8       4.7360      2.00000
      9       6.2512      2.00000
     10       6.2512      2.00000
     11       8.0934      2.00000
     12       8.0934      2.00000
     13       9.1275      2.00000
     14       9.1275      2.00000
     15      10.2882      2.00000
     16      10.2882      2.00000
     17      10.9228      1.94426
     18      10.9228      1.94425
     19      22.2745      0.00000
     20      22.2745      0.00000
     21      25.1671      0.00000
     22      25.1671      0.00000
     23      28.9317      0.00000
     24      28.9317      0.00000

 k-point    61 :       0.4000   -0.0000    0.5000
  band No.  band energies     occupation 
      1     -41.7426      2.00000
      2     -41.7426      2.00000
      3     -41.4790      2.00000
      4     -41.4790      2.00000
      5     -41.3610      2.00000
      6     -41.3610      2.00000
      7       4.6357      2.00000
      8       4.6357      2.00000
      9       5.9867      2.00000
     10       5.9867      2.00000
     11       9.2403      2.00000
     12       9.2403      2.00000
     13       9.6133      2.00000
     14       9.6133      2.00000
     15      11.0057      0.66516
     16      11.0057      0.66513
     17      11.6561      0.00000
     18      11.6561      0.00000
     19      19.2938      0.00000
     20      19.2938      0.00000
     21      25.1007      0.00000
     22      25.1007      0.00000
     23      27.2515      0.00000
     24      27.2515      0.00000

 k-point    62 :       0.5000   -0.0000    0.5000
  band No.  band energies     occupation 
      1     -41.7763      2.00000
      2     -41.7763      2.00000
      3     -41.4873      2.00000
      4     -41.4873      2.00000
      5     -41.3566      2.00000
      6     -41.3566      2.00000
      7       4.5467      2.00000
      8       4.5467      2.00000
      9       5.8824      2.00000
     10       5.8824      2.00000
     11       9.2251      2.00000
     12       9.2251      2.00000
     13      10.1739      2.00000
     14      10.1739      2.00000
     15      11.3932      0.00000
     16      11.3932      0.00000
     17      12.7057      0.00000
     18      12.7057      0.00000
     19      17.3887      0.00000
     20      17.3887      0.00000
     21      25.1214      0.00000
     22      25.1214      0.00000
     23      26.5297      0.00000
     24      26.5297      0.00000

 k-point    63 :       0.1000    0.1000    0.5000
  band No.  band energies     occupation 
      1     -41.5109      2.00000
      2     -41.5109      2.00000
      3     -41.4255      2.00000
      4     -41.4255      2.00000
      5     -41.3888      2.00000
      6     -41.3888      2.00000
      7       4.0533      2.00000
      8       4.0533      2.00000
      9       6.6548      2.00000
     10       6.6548      2.00000
     11       7.3216      2.00000
     12       7.3216      2.00000
     13       8.3528      2.00000
     14       8.3528      2.00000
     15      10.0826      2.00000
     16      10.0826      2.00000
     17      10.5065      2.00000
     18      10.5065      2.00000
     19      23.3913      0.00000
     20      23.3913      0.00000
     21      27.2698      0.00000
     22      27.2698      0.00000
     23      28.1869      0.00000
     24      28.1869      0.00000

 k-point    64 :       0.2000    0.1000    0.5000
  band No.  band energies     occupation 
      1     -41.6061      2.00000
      2     -41.6061      2.00000
      3     -41.4578      2.00000
      4     -41.4578      2.00000
      5     -41.3758      2.00000
      6     -41.3758      2.00000
      7       4.8242      2.00000
      8       4.8242      2.00000
      9       6.4293      2.00000
     10       6.4293      2.00000
     11       7.2537      2.00000
     12       7.2537      2.00000
     13       8.9711      2.00000
     14       8.9711      2.00000
     15      10.2684      2.00000
     16      10.2684      2.00000
     17      10.8360      1.99999
     18      10.8360      1.99999
     19      23.3364      0.00000
     20      23.3364      0.00000
     21      25.6041      0.00000
     22      25.6041      0.00000
     23      27.2722      0.00000
     24      27.2722      0.00000

 k-point    65 :       0.3000    0.1000    0.5000
  band No.  band energies     occupation 
      1     -41.7002      2.00000
      2     -41.7002      2.00000
      3     -41.4901      2.00000
      4     -41.4901      2.00000
      5     -41.3628      2.00000
      6     -41.3628      2.00000
      7       4.9455      2.00000
      8       4.9455      2.00000
      9       6.2099      2.00000
     10       6.2099      2.00000
     11       8.2189      2.00000
     12       8.2189      2.00000
     13       9.0877      2.00000
     14       9.0877      2.00000
     15      10.8907      1.99520
     16      10.8907      1.99520
     17      11.6903      0.00000
     18      11.6903      0.00000
     19      20.9142      0.00000
     20      20.9142      0.00000
     21      25.1215      0.00000
     22      25.1215      0.00000
     23      26.2025      0.00000
     24      26.2025      0.00000

 k-point    66 :       0.4000    0.1000    0.5000
  band No.  band energies     occupation 
      1     -41.7578      2.00000
      2     -41.7578      2.00000
      3     -41.5099      2.00000
      4     -41.5099      2.00000
      5     -41.3548      2.00000
      6     -41.3548      2.00000
      7       4.8125      2.00000
      8       4.8125      2.00000
      9       6.0392      2.00000
     10       6.0392      2.00000
     11       8.7010      2.00000
     12       8.7010      2.00000
     13       9.7859      2.00000
     14       9.7859      2.00000
     15      10.9819      1.19123
     16      10.9819      1.19118
     17      13.3563      0.00000
     18      13.3563      0.00000
     19      18.0274      0.00000
     20      18.0274      0.00000
     21      24.9120      0.00000
     22      24.9120      0.00000
     23      25.6211      0.00000
     24      25.6211      0.00000

 k-point    67 :       0.2000    0.2000    0.5000
  band No.  band energies     occupation 
      1     -41.6719      2.00000
      2     -41.6719      2.00000
      3     -41.5074      2.00000
      4     -41.5074      2.00000
      5     -41.3624      2.00000
      6     -41.3624      2.00000
      7       5.3039      2.00000
      8       5.3039      2.00000
      9       6.5732      2.00000
     10       6.5732      2.00000
     11       7.1445      2.00000
     12       7.1445      2.00000
     13       8.8405      2.00000
     14       8.8405      2.00000
     15      10.9853      1.11580
     16      10.9853      1.11575
     17      11.8003      0.00000
     18      11.8003      0.00000
     19      22.1466      0.00000
     20      22.1466      0.00000
     21      24.2338      0.00000
     22      24.2338      0.00000
     23      25.8873      0.00000
     24      25.8873      0.00000

 k-point    68 :       0.3000    0.2000    0.5000
  band No.  band energies     occupation 
      1     -41.7176      2.00000
      2     -41.7176      2.00000
      3     -41.5539      2.00000
      4     -41.5539      2.00000
      5     -41.3518      2.00000
      6     -41.3518      2.00000
      7       5.3885      2.00000
      8       5.3885      2.00000
      9       6.4672      2.00000
     10       6.4672      2.00000
     11       7.7401      2.00000
     12       7.7401      2.00000
     13       8.7855      2.00000
     14       8.7855      2.00000
     15      11.0536      0.07395
     16      11.0536      0.07394
     17      13.8512      0.00000
     18      13.8512      0.00000
     19      19.4715      0.00000
     20      19.4715      0.00000
     21      22.8489      0.00000
     22      22.8489      0.00000
     23      26.3200      0.00000
     24      26.3200      0.00000

 k-point    69 :       0.4000    0.2000    0.5000
  band No.  band energies     occupation 
      1     -41.7333      2.00000
      2     -41.7333      2.00000
      3     -41.5730      2.00000
      4     -41.5730      2.00000
      5     -41.3479      2.00000
      6     -41.3479      2.00000
      7       5.3821      2.00000
      8       5.3821      2.00000
      9       6.3962      2.00000
     10       6.3962      2.00000
     11       7.8287      2.00000
     12       7.8287      2.00000
     13       9.2043      2.00000
     14       9.2043      2.00000
     15      10.9133      1.97094
     16      10.9133      1.97094
     17      15.5381      0.00000
     18      15.5381      0.00000
     19      17.4963      0.00000
     20      17.4963      0.00000
     21      22.2564      0.00000
     22      22.2564      0.00000
     23      26.7333      0.00000
     24      26.7333      0.00000

 k-point    70 :       0.3000    0.3000    0.5000
  band No.  band energies     occupation 
      1     -41.6978      2.00000
      2     -41.6978      2.00000
      3     -41.6233      2.00000
      4     -41.6233      2.00000
      5     -41.3454      2.00000
      6     -41.3454      2.00000
      7       5.8337      2.00000
      8       5.8337      2.00000
      9       6.6496      2.00000
     10       6.6496      2.00000
     11       7.4023      2.00000
     12       7.4023      2.00000
     13       8.6670      2.00000
     14       8.6670      2.00000
     15      10.8972      1.99160
     16      10.8972      1.99160
     17      16.2920      0.00000
     18      16.2920      0.00000
     19      18.2342      0.00000
     20      18.2342      0.00000
     21      20.4472      0.00000
     22      20.4472      0.00000
     23      27.7856      0.00000
     24      27.7856      0.00000


--------------------------------------------------------------------------------------------------------


 soft charge-density along one line, spin component           1
         0         1         2         3         4         5         6         7         8         9
 total charge-density along one line
 
 pseudopotential strength for first ion, spin component:           1
-31.723  -0.000   0.000  10.777   0.000  -0.000  -0.000  -0.000
 -0.000 -31.659  -0.000   0.000  10.713   0.000   0.000   0.000
  0.000  -0.000 -31.723  -0.000   0.000  10.777  -0.000   0.000
 10.777   0.000  -0.000  16.233  -0.000   0.000   0.000   0.000
  0.000  10.713   0.000  -0.000  16.256  -0.000  -0.000  -0.000
 -0.000   0.000  10.777   0.000  -0.000  16.233   0.000  -0.000
 -0.000   0.000  -0.000   0.000  -0.000   0.000  -3.745   0.000
 -0.000   0.000   0.000   0.000  -0.000  -0.000   0.000  -3.702
 -0.000  -0.000   0.000   0.000   0.000  -0.000  -0.000   0.000
  0.000  -0.000   0.000  -0.000   0.000  -0.000  -0.000   0.000
 -0.000   0.000  -0.000   0.000  -0.000   0.000  -0.000   0.000
 -0.000   0.000  -0.000   0.000  -0.000   0.000  -3.979   0.000
 -0.000   0.000   0.000   0.000  -0.000  -0.000   0.000  -3.930
 -0.000  -0.000   0.000   0.000   0.000  -0.000  -0.000   0.000
  0.000  -0.000   0.000  -0.000   0.000  -0.000  -0.000   0.000
 -0.000   0.000  -0.000   0.000  -0.000   0.000  -0.000   0.000
 -0.000   0.000   0.000  -0.000   0.000   0.000  -0.000   0.000
  0.000  -0.000  -0.000   0.000  -0.000  -0.000   0.000  -0.000
 total augmentation occupancy for first ion, spin component:           1
  2.002  -0.000   0.000  -0.021  -0.000  -0.000   0.000   0.000  -0.000   0.000   0.004   0.000  -0.000   0.000   0.000  -0.004
  0.000   2.002   0.000   0.000  -0.019   0.000   0.000   0.000   0.000   0.000  -0.000   0.000   0.000   0.000   0.000   0.000
  0.000   0.000   2.002   0.000   0.000  -0.021   0.004   0.000  -0.000   0.000   0.000  -0.004   0.000   0.000   0.000  -0.000
 -0.021   0.000  -0.000   0.049  -0.000  -0.000   0.000   0.000   0.000   0.000  -0.025  -0.000   0.000  -0.000   0.000   0.024
  0.000  -0.019   0.000   0.000   0.041   0.000   0.000  -0.000   0.000   0.000   0.000   0.000   0.000   0.000  -0.000   0.000
 -0.000   0.000  -0.021   0.000   0.000   0.049  -0.025   0.000   0.000   0.000  -0.000   0.024   0.000  -0.000   0.000   0.000
  0.000   0.000   0.004   0.000   0.000  -0.025   4.893  -0.000  -0.000  -0.000   0.000  -2.635  -0.000   0.000   0.000  -0.000
  0.000   0.000   0.000   0.000  -0.000   0.000   0.000   4.176  -0.000  -0.000  -0.000   0.000  -2.246  -0.000   0.000   0.000
 -0.000   0.000  -0.000   0.000   0.000   0.000  -0.000  -0.000   4.949   0.000  -0.000   0.000   0.000  -2.688   0.000   0.000
  0.000  -0.000   0.000   0.000   0.000   0.000  -0.000   0.000   0.000   4.176   0.000   0.000   0.000   0.000  -2.246   0.000
  0.004   0.000   0.000  -0.025   0.000  -0.000   0.000   0.000  -0.000  -0.000   4.893  -0.000  -0.000   0.000   0.000  -2.635
  0.000   0.000  -0.004  -0.000   0.000   0.024  -2.635   0.000   0.000  -0.000  -0.000   2.111  -0.000  -0.000   0.000   0.000
  0.000   0.000   0.000   0.000   0.000   0.000   0.000  -2.246   0.000  -0.000  -0.000   0.000   2.159  -0.000   0.000   0.000
  0.000   0.000   0.000  -0.000   0.000  -0.000   0.000  -0.000  -2.688   0.000   0.000  -0.000  -0.000   2.148   0.000  -0.000
  0.000   0.000   0.000   0.000  -0.000   0.000  -0.000   0.000   0.000  -2.246   0.000  -0.000   0.000  -0.000   2.159   0.000
 -0.004   0.000  -0.000   0.024  -0.000  -0.000  -0.000   0.000   0.000   0.000  -2.635   0.000  -0.000  -0.000  -0.000   2.111
  0.000   0.000   0.000   0.000   0.000   0.000   0.000   0.000  -0.208   0.000   0.000   0.000  -0.000   0.191  -0.000  -0.000
  0.000   0.000   0.000   0.000   0.000  -0.000   0.000  -0.000   0.004   0.000   0.000   0.000  -0.000   0.001   0.000  -0.000


------------------------ aborting loop because EDIFF is reached ----------------------------------------





 total charge

# of ion       s       p       d       tot
------------------------------------------
    1        0.334   6.074   7.063  13.472
    2        0.334   6.074   7.063  13.472
--------------------------------------------------
tot          0.669  12.148  14.127  26.943
 
    CHARGE:  cpu time      0.0223: real time      0.0224
    FORLOC:  cpu time      0.0009: real time      0.0009
    FORNL :  cpu time      0.0162: real time      0.0162
    STRESS:  cpu time      0.1774: real time      0.1780
    FORCOR:  cpu time      0.0030: real time      0.0030
    FORHAR:  cpu time      0.0006: real time      0.0006
    MIXING:  cpu time      0.0002: real time      0.0002
    OFIELD:  cpu time      0.0000: real time      0.0000

  FORCE on cell =-STRESS in cart. coord.  units (eV):
  Direction    XX          YY          ZZ          XY          YZ          ZX
  --------------------------------------------------------------------------------------
  Alpha Z   301.55452   301.55452   301.55452
  Ewald   -1372.32197 -1372.32197 -1486.11235     0.00000     0.00000    -0.00000
  Hartree   278.60244   278.60244   228.16111    -0.00000    -0.00000    -0.00000
  E(xc)    -170.70255  -170.70256  -170.93531    -0.00000    -0.00000    -0.00000
  Local     182.78803   182.78801   335.02820    -0.00001    -0.00000    -0.00000
  n-local   -59.41250   -61.78224   -62.67473   -13.07123     3.57207     3.33850
  augment   145.56448   145.56449   149.06693     0.00001    -0.00000    -0.00000
  Kinetic   697.31516   691.22369   705.16213   -16.59671     3.57234     1.03290
  Fock        0.00000     0.00000     0.00000     0.00000     0.00000     0.00000
  -------------------------------------------------------------------------------------
  Total      -0.84300    -0.84300    -0.74950    -0.00000    -0.00000     0.00000
  in kB     -42.43817   -42.43817   -37.73120    -0.00000    -0.00000     0.00000
  external pressure =      -40.87 kB  Pullay stress =        0.00 kB


 VOLUME and BASIS-vectors are now :
 -----------------------------------------------------------------------------
  energy-cutoff  :      450.00
  volume of cell :       31.83
      direct lattice vectors                 reciprocal lattice vectors
     2.768182221  0.000000000  0.000000000     0.361247895  0.208566569  0.000000000
    -1.384091111  2.397316126  0.000000000     0.000000000  0.417133139  0.000000000
     0.000000000  0.000000000  4.795811186     0.000000000  0.000000000  0.208515298

  length of vectors
     2.768182221  2.768182221  4.795811186     0.417133139  0.417133139  0.208515298


 FORCES acting on ions
    electron-ion (+dipol)            ewald-force                    non-local-force                 convergence-correction
 -----------------------------------------------------------------------------------------------
   0.345E-06 -.199E-06 0.162E-12   0.181E-11 -.105E-11 -.678E-13   -.139E-16 0.000E+00 0.000E+00   -.610E-08 0.352E-08 -.440E-13
   -.261E-06 0.151E-06 -.280E-11   -.178E-11 0.104E-11 0.678E-13   0.104E-16 0.000E+00 0.000E+00   0.609E-08 -.351E-08 -.197E-13
 -----------------------------------------------------------------------------------------------
   0.844E-07 -.487E-07 -.264E-11   0.318E-13 -.967E-14 0.000E+00   -.347E-17 0.000E+00 0.000E+00   -.777E-11 0.422E-11 -.637E-13
 
 
 POSITION                                       TOTAL-FORCE (eV/Angst)
 -----------------------------------------------------------------------------------
      0.00000      0.00000      0.00000         0.000000     -0.000000      0.000000
      0.00000      1.59821      2.39791        -0.000000      0.000000      0.000000
 -----------------------------------------------------------------------------------
    total drift:                                0.000000     -0.000000     -0.000000


--------------------------------------------------------------------------------------------------------



  FREE ENERGIE OF THE ION-ELECTRON SYSTEM (eV)
  ---------------------------------------------------
  free  energy   TOTEN  =       -12.03789867 eV

  energy  without entropy=      -12.03307976  energy(sigma->0) =      -12.03548921
 


--------------------------------------------------------------------------------------------------------


    POTLOK:  cpu time      0.0055: real time      0.0055


--------------------------------------------------------------------------------------------------------




--------------------------------------------------------------------------------------------------------


  
 reached required accuracy - stopping structural energy minimisation
 writing wavefunctions
     LOOP+:  cpu time      5.3732: real time      5.5222
    4ORBIT:  cpu time      0.0000: real time      0.0000



 total charge

# of ion       s       p       d       tot
------------------------------------------
    1        0.334   6.074   7.063  13.472
    2        0.334   6.074   7.063  13.472
--------------------------------------------------
tot          0.669  12.148  14.127  26.943
 

 total amount of memory used by VASP MPI-rank0    39289. kBytes
=======================================================================

   base      :      30000. kBytes
   nonl-proj :       7280. kBytes
   fftplans  :        254. kBytes
   grid      :        864. kBytes
   one-center:         31. kBytes
   wavefun   :        860. kBytes
 
  
  
 General timing and accounting informations for this job:
 ========================================================
  
                  Total CPU time used (sec):        6.311
                            User time (sec):        5.802
                          System time (sec):        0.509
                         Elapsed time (sec):        7.897
  
                   Maximum memory used (kb):      237360.
                   Average memory used (kb):          N/A
  
                          Minor page faults:        29666
                          Major page faults:           73
                 Voluntary context switches:         2163
