 vasp.6.3.2 27Jun22 (build Aug 12 2022 00:53:59) complex                        
  
 executed on               tv2STD date 2024.12.03  02:19:48
 running   24 mpi-ranks, with    1 threads/rank
 distrk:  each k-point on   24 cores,    1 groups
 distr:  one band on NCORE=   1 cores,   24 groups


--------------------------------------------------------------------------------------------------------


 INCAR:
   SYSTEM = Pt-hcc
   NWRITE = 2    write-flag
   ISTART = 0    job   : 0-new, 1-cont, 2-samecut
   ICHARG = 2    charge: 0-wave, 1-file, 2-atom, >10-const
   INIWAV = 1    electr: 0-lowe 1-rand  2-diag
   ENCUT = 450.0     energy cutoff in eV
   PREC = Accurate      normal | accurate
   ADDGRID = .FALSE.  (use fine grid)
   NELM = 100     number of ELM steps
   EDIFF = 1E-06    energy stopping-criterion for ELM
   LREAL = .FALSE.      real-space projection (.FALSE., .TRUE., On, Auto)
   ALGO = Normal     Normal, Fast, Very_Fast
   LWAVE = .TRUE.
   LCHARG = .TRUE.
   NSW = 100       max number of geometry steps
   IBRION = 2     ionic relax: 0-MD, 1-quasi-Newton, 2-CG, 3-Damped MD
   EDIFFG = -0.02  force (eV/A) stopping-criterion for geometry steps
   ISIF = 2     (1:force\=y stress\=trace only ions\=y shape\=n volume\=n)
   ISYM = 1     (1-use symmetry, 0-no symmetry)
   ISMEAR = 0     (-1-Fermi, 1-Methfessel/Paxton)
   SIGMA = 0.05   broadening in eV
   LORBIT = 11

 POTCAR:    PAW_PBE Pt_pv 12Dec2005               
 POTCAR:    PAW_PBE Pt_pv 12Dec2005               
   SHA256 =  e5abf7e8cd8db70d0153315afc5ad66b6e3eeee29cc2d5b91b16730957c1d208 Pt_pv/POTCAR          
   COPYR  = (c) Copyright 12Dec2005 Georg Kresse                                                    
   COPYR  = This file is part of the software VASP. Any use, copying, and all other rights are regul
   COPYR  = If you do not have a valid VASP license, you may not use, copy or distribute this file. 
   VRHFIN =Pt: 5ps1d9                                                                               
   LEXCH  = PE                                                                                      
   EATOM  =  2428.2504 eV,  178.4714 Ry                                                             
                                                                                                    
   TITEL  = PAW_PBE Pt_pv 12Dec2005                                                                 
   LULTRA =        F    use ultrasoft PP ?                                                          
   IUNSCR =        1    unscreen: 0-lin 1-nonlin 2-no                                               
   RPACOR =    2.000    partial core radius                                                         
   POMASS =  195.080; ZVAL   =   16.000    mass and valenz                                          
   RCORE  =    2.200    outmost cutoff radius                                                       
   RWIGS  =    2.200; RWIGS  =    1.164    wigner-seitz radius (au A)                               
   ENMAX  =  294.607; ENMIN  =  220.955 eV                                                          
   ICORE  =        3    local potential                                                             
   LCOR   =        T    correct aug charges                                                         
   LPAW   =        T    paw PP                                                                      
   EAUG   =  527.014                                                                                
   DEXC   =    0.000                                                                                
   RMAX   =    2.247    core radius for proj-oper                                                   
   RAUG   =    1.300    factor for augmentation sphere                                              
   RDEP   =    2.279    radius for radial grids                                                     
   RDEPT  =    1.878    core radius for aug-charge                                                  
                                                                                                    
   Atomic configuration                                                                             
   16 entries                                                                                       
     n  l   j            E        occ.                                                              
     1  0  0.50    -78401.1885   2.0000                                                             
     2  0  0.50    -13770.7750   2.0000                                                             
     2  1  1.50    -11931.0468   6.0000                                                             
     3  0  0.50     -3234.7234   2.0000                                                             
     3  1  1.50     -2699.2216   6.0000                                                             
     3  2  2.50     -2119.5714  10.0000                                                             
     4  0  0.50      -695.1528   2.0000                                                             
     4  1  1.50      -519.6034   6.0000                                                             
     4  2  2.50      -306.6786  10.0000                                                             
     4  3  3.50       -70.1041  14.0000                                                             
     5  0  0.50      -101.7747   2.0000                                                             
     5  1  1.50       -55.9873   6.0000                                                             
     6  1  1.50        -6.8029   0.0000                                                             
     5  2  2.50        -6.1423   9.0000                                                             
     6  0  0.50        -5.6573   1.0000                                                             
     5  3  2.50        -1.3606   0.0000                                                             
   Description                                                                                      
     l       E           TYP  RCUT    TYP  RCUT                                                     
     1    -55.9873477     23  2.000                                                                 
     1     27.2116520     23  2.000                                                                 
     2     -6.1423404     23  2.200                                                                 
     2     -4.6754623     23  2.200                                                                 
     0     -5.6573207     23  2.200                                                                 
     0     47.6203910     23  2.200                                                                 
     3      6.8029130     23  2.200                                                                 
  local pseudopotential read in
  partial core-charges read in
  partial kinetic energy density read in
  atomic valenz-charges read in
  non local Contribution for L=           1  read in
    real space projection operators read in
  non local Contribution for L=           1  read in
    real space projection operators read in
  non local Contribution for L=           2  read in
    real space projection operators read in
  non local Contribution for L=           2  read in
    real space projection operators read in
  non local Contribution for L=           0  read in
    real space projection operators read in
  non local Contribution for L=           0  read in
    real space projection operators read in
    PAW grid and wavefunctions read in
 
   number of l-projection  operators is LMAX  =           6
   number of lm-projection operators is LMMAX =          18
 
  PAW_PBE Pt_pv 12Dec2005               :
 energy of atom  1       EATOM=-2428.2504
 kinetic energy error for atom=    0.0356 (will be added to EATOM!!)
 
 
 POSCAR: Pt
  positions in cartesian coordinates
  No initial velocities read in
 exchange correlation table for  LEXCH =        8
   RHO(1)=    0.500       N(1)  =     2000
   RHO(2)=  100.500       N(2)  =     4000
 


--------------------------------------------------------------------------------------------------------


 ion  position               nearest neighbor table
   1  0.000  0.000  0.000-
   2  0.333  0.667  0.500-
 
  LATTYP: Found a hexagonal cell.
 ALAT       =     2.7805018431
 C/A-ratio  =     1.7324766951
  
  Lattice vectors:
  
 A1 = (   2.7805018431,   0.0000000000,   0.0000000000)
 A2 = (  -1.3902509216,   2.4079852314,   0.0000000000)
 A3 = (   0.0000000000,   0.0000000000,   4.8171546441)


Analysis of symmetry for initial positions (statically):
=====================================================================
 Subroutine PRICEL returns:
 Original cell was already a primitive cell.
 

 Routine SETGRP: Setting up the symmetry group for a 
 hexagonal supercell.


 Subroutine GETGRP returns: Found 24 space group operations
 (whereof 12 operations were pure point group operations)
 out of a pool of 24 trial point group operations.


The static configuration has the point symmetry D_3h.
 The point group associated with its full space group is D_6h.


Analysis of symmetry for dynamics (positions and initial velocities):
=====================================================================
 Subroutine PRICEL returns:
 Original cell was already a primitive cell.
 

 Routine SETGRP: Setting up the symmetry group for a 
 hexagonal supercell.


 Subroutine GETGRP returns: Found 24 space group operations
 (whereof 12 operations were pure point group operations)
 out of a pool of 24 trial point group operations.


The dynamic configuration has the point symmetry D_3h.
 The point group associated with its full space group is D_6h.


 Subroutine INISYM returns: Found 24 space group operations
 (whereof 12 operations are pure point group operations),
 and found     1 'primitive' translations


----------------------------------------------------------------------------------------

                                     Primitive cell                                     

  volume of cell :      32.2528

  direct lattice vectors                    reciprocal lattice vectors
     2.780501843  0.000000000  0.000000000     0.359647307  0.207642470  0.000000000
    -1.390250922  2.407985231  0.000000000     0.000000000  0.415284939  0.000000000
     0.000000000  0.000000000  4.817154644     0.000000000  0.000000000  0.207591426

  length of vectors
     2.780501843  2.780501843  4.817154644     0.415284939  0.415284939  0.207591426

  position of ions in fractional coordinates (direct lattice)
     0.000000000  0.000000000  0.000000000
     0.333333333  0.666666667  0.500000000

  ion indices of the primitive-cell ions
   primitive index   ion index
                 1           1
                 2           2

----------------------------------------------------------------------------------------

 
 
 KPOINTS: Automatic mesh                          

Automatic generation of k-mesh.
 Grid dimensions read from file:
 generate k-points for:   10   10    8

 Generating k-lattice:

  Cartesian coordinates                     Fractional coordinates (reciprocal lattice)
     0.035964731  0.020764247  0.000000000     0.100000000  0.000000000  0.000000000
     0.000000000  0.041528494  0.000000000     0.000000000  0.100000000  0.000000000
     0.000000000  0.000000000  0.025948928     0.000000000  0.000000000  0.125000000

  Length of vectors
     0.041528494  0.041528494  0.025948928

  Shift w.r.t. Gamma in fractional coordinates (k-lattice)
     0.000000000  0.000000000  0.000000000

 
 Subroutine IBZKPT returns following result:
 ===========================================
 
 Found     70 irreducible k-points:
 
 Following reciprocal coordinates:
            Coordinates               Weight
  0.000000  0.000000  0.000000      1.000000
  0.100000  0.000000  0.000000      6.000000
  0.200000  0.000000  0.000000      6.000000
  0.300000  0.000000  0.000000      6.000000
  0.400000 -0.000000  0.000000      6.000000
  0.500000 -0.000000  0.000000      3.000000
  0.100000  0.100000  0.000000      6.000000
  0.200000  0.100000  0.000000     12.000000
  0.300000  0.100000  0.000000     12.000000
  0.400000  0.100000  0.000000     12.000000
  0.200000  0.200000  0.000000      6.000000
  0.300000  0.200000  0.000000     12.000000
  0.400000  0.200000  0.000000      6.000000
  0.300000  0.300000  0.000000      6.000000
  0.000000  0.000000  0.125000      2.000000
  0.100000  0.000000  0.125000     12.000000
  0.200000  0.000000  0.125000     12.000000
  0.300000  0.000000  0.125000     12.000000
  0.400000 -0.000000  0.125000     12.000000
  0.500000 -0.000000  0.125000      6.000000
  0.100000  0.100000  0.125000     12.000000
  0.200000  0.100000  0.125000     24.000000
  0.300000  0.100000  0.125000     24.000000
  0.400000  0.100000  0.125000     24.000000
  0.200000  0.200000  0.125000     12.000000
  0.300000  0.200000  0.125000     24.000000
  0.400000  0.200000  0.125000     12.000000
  0.300000  0.300000  0.125000     12.000000
  0.000000  0.000000  0.250000      2.000000
  0.100000  0.000000  0.250000     12.000000
  0.200000  0.000000  0.250000     12.000000
  0.300000  0.000000  0.250000     12.000000
  0.400000 -0.000000  0.250000     12.000000
  0.500000 -0.000000  0.250000      6.000000
  0.100000  0.100000  0.250000     12.000000
  0.200000  0.100000  0.250000     24.000000
  0.300000  0.100000  0.250000     24.000000
  0.400000  0.100000  0.250000     24.000000
  0.200000  0.200000  0.250000     12.000000
  0.300000  0.200000  0.250000     24.000000
  0.400000  0.200000  0.250000     12.000000
  0.300000  0.300000  0.250000     12.000000
  0.000000  0.000000  0.375000      2.000000
  0.100000  0.000000  0.375000     12.000000
  0.200000  0.000000  0.375000     12.000000
  0.300000  0.000000  0.375000     12.000000
  0.400000 -0.000000  0.375000     12.000000
  0.500000 -0.000000  0.375000      6.000000
  0.100000  0.100000  0.375000     12.000000
  0.200000  0.100000  0.375000     24.000000
  0.300000  0.100000  0.375000     24.000000
  0.400000  0.100000  0.375000     24.000000
  0.200000  0.200000  0.375000     12.000000
  0.300000  0.200000  0.375000     24.000000
  0.400000  0.200000  0.375000     12.000000
  0.300000  0.300000  0.375000     12.000000
  0.000000  0.000000  0.500000      1.000000
  0.100000  0.000000  0.500000      6.000000
  0.200000  0.000000  0.500000      6.000000
  0.300000  0.000000  0.500000      6.000000
  0.400000 -0.000000  0.500000      6.000000
  0.500000 -0.000000  0.500000      3.000000
  0.100000  0.100000  0.500000      6.000000
  0.200000  0.100000  0.500000     12.000000
  0.300000  0.100000  0.500000     12.000000
  0.400000  0.100000  0.500000     12.000000
  0.200000  0.200000  0.500000      6.000000
  0.300000  0.200000  0.500000     12.000000
  0.400000  0.200000  0.500000      6.000000
  0.300000  0.300000  0.500000      6.000000
 
 Following cartesian coordinates:
            Coordinates               Weight
  0.000000  0.000000  0.000000      1.000000
  0.035965  0.020764  0.000000      6.000000
  0.071929  0.041528  0.000000      6.000000
  0.107894  0.062293  0.000000      6.000000
  0.143859  0.083057  0.000000      6.000000
  0.179824  0.103821  0.000000      3.000000
  0.035965  0.062293  0.000000      6.000000
  0.071929  0.083057  0.000000     12.000000
  0.107894  0.103821  0.000000     12.000000
  0.143859  0.124585  0.000000     12.000000
  0.071929  0.124585  0.000000      6.000000
  0.107894  0.145350  0.000000     12.000000
  0.143859  0.166114  0.000000      6.000000
  0.107894  0.186878  0.000000      6.000000
  0.000000  0.000000  0.025949      2.000000
  0.035965  0.020764  0.025949     12.000000
  0.071929  0.041528  0.025949     12.000000
  0.107894  0.062293  0.025949     12.000000
  0.143859  0.083057  0.025949     12.000000
  0.179824  0.103821  0.025949      6.000000
  0.035965  0.062293  0.025949     12.000000
  0.071929  0.083057  0.025949     24.000000
  0.107894  0.103821  0.025949     24.000000
  0.143859  0.124585  0.025949     24.000000
  0.071929  0.124585  0.025949     12.000000
  0.107894  0.145350  0.025949     24.000000
  0.143859  0.166114  0.025949     12.000000
  0.107894  0.186878  0.025949     12.000000
  0.000000  0.000000  0.051898      2.000000
  0.035965  0.020764  0.051898     12.000000
  0.071929  0.041528  0.051898     12.000000
  0.107894  0.062293  0.051898     12.000000
  0.143859  0.083057  0.051898     12.000000
  0.179824  0.103821  0.051898      6.000000
  0.035965  0.062293  0.051898     12.000000
  0.071929  0.083057  0.051898     24.000000
  0.107894  0.103821  0.051898     24.000000
  0.143859  0.124585  0.051898     24.000000
  0.071929  0.124585  0.051898     12.000000
  0.107894  0.145350  0.051898     24.000000
  0.143859  0.166114  0.051898     12.000000
  0.107894  0.186878  0.051898     12.000000
  0.000000  0.000000  0.077847      2.000000
  0.035965  0.020764  0.077847     12.000000
  0.071929  0.041528  0.077847     12.000000
  0.107894  0.062293  0.077847     12.000000
  0.143859  0.083057  0.077847     12.000000
  0.179824  0.103821  0.077847      6.000000
  0.035965  0.062293  0.077847     12.000000
  0.071929  0.083057  0.077847     24.000000
  0.107894  0.103821  0.077847     24.000000
  0.143859  0.124585  0.077847     24.000000
  0.071929  0.124585  0.077847     12.000000
  0.107894  0.145350  0.077847     24.000000
  0.143859  0.166114  0.077847     12.000000
  0.107894  0.186878  0.077847     12.000000
  0.000000  0.000000  0.103796      1.000000
  0.035965  0.020764  0.103796      6.000000
  0.071929  0.041528  0.103796      6.000000
  0.107894  0.062293  0.103796      6.000000
  0.143859  0.083057  0.103796      6.000000
  0.179824  0.103821  0.103796      3.000000
  0.035965  0.062293  0.103796      6.000000
  0.071929  0.083057  0.103796     12.000000
  0.107894  0.103821  0.103796     12.000000
  0.143859  0.124585  0.103796     12.000000
  0.071929  0.124585  0.103796      6.000000
  0.107894  0.145350  0.103796     12.000000
  0.143859  0.166114  0.103796      6.000000
  0.107894  0.186878  0.103796      6.000000
 


--------------------------------------------------------------------------------------------------------




 Dimension of arrays:
   k-points           NKPTS =     70   k-points in BZ     NKDIM =     70   number of bands    NBANDS=     24
   number of dos      NEDOS =    301   number of ions     NIONS =      2
   non local maximal  LDIM  =      6   non local SUM 2l+1 LMDIM =     18
   total plane-waves  NPLWV =  14400
   max r-space proj   IRMAX =      1   max aug-charges    IRDMAX=  15399
   dimension x,y,z NGX =    20 NGY =   20 NGZ =   36
   dimension x,y,z NGXF=    40 NGYF=   40 NGZF=   72
   support grid    NGXF=    40 NGYF=   40 NGZF=   72
   ions per type =               2
   NGX,Y,Z   is equivalent  to a cutoff of  11.96, 11.96, 12.42 a.u.
   NGXF,Y,Z  is equivalent  to a cutoff of  23.92, 23.92, 24.85 a.u.

 SYSTEM =  Pt-hcc                                  
 POSCAR =  Pt                                      

 Startparameter for this run:
   NWRITE =      2    write-flag & timer
   PREC   = accura    normal or accurate (medium, high low for compatibility)
   ISTART =      0    job   : 0-new  1-cont  2-samecut
   ICHARG =      2    charge: 1-file 2-atom 10-const
   ISPIN  =      1    spin polarized calculation?
   LNONCOLLINEAR =      F non collinear calculations
   LSORBIT =      F    spin-orbit coupling
   INIWAV =      1    electr: 0-lowe 1-rand  2-diag
   LASPH  =      F    aspherical Exc in radial PAW
 Electronic Relaxation 1
   ENCUT  =  450.0 eV  33.07 Ry    5.75 a.u.   4.81  4.81  8.33*2*pi/ulx,y,z
   ENINI  =  450.0     initial cutoff
   ENAUG  =  527.0 eV  augmentation charge cutoff
   NELM   =    100;   NELMIN=  2; NELMDL= -5     # of ELM steps 
   EDIFF  = 0.1E-05   stopping-criterion for ELM
   LREAL  =      F    real-space projection
   NLSPLINE    = F    spline interpolate recip. space projectors
   LCOMPAT=      F    compatible to vasp.4.4
   GGA_COMPAT  = T    GGA compatible to vasp.4.4-vasp.4.6
   LMAXPAW     = -100 max onsite density
   LMAXMIX     =    2 max onsite mixed and CHGCAR
   VOSKOWN=      0    Vosko Wilk Nusair interpolation
   ROPT   =    0.00000
 Ionic relaxation
   EDIFFG = -.2E-01   stopping-criterion for IOM
   NSW    =    100    number of steps for IOM
   NBLOCK =      1;   KBLOCK =    100    inner block; outer block 
   IBRION =      2    ionic relax: 0-MD 1-quasi-New 2-CG
   NFREE  =      1    steps in history (QN), initial steepest desc. (CG)
   ISIF   =      2    stress and relaxation
   IWAVPR =     11    prediction:  0-non 1-charg 2-wave 3-comb
   ISYM   =      1    0-nonsym 1-usesym 2-fastsym
   LCORR  =      T    Harris-Foulkes like correction to forces

   POTIM  = 0.5000    time-step for ionic-motion
   TEIN   =    0.0    initial temperature
   TEBEG  =    0.0;   TEEND  =   0.0 temperature during run
   SMASS  =  -3.00    Nose mass-parameter (am)
   estimated Nose-frequenzy (Omega)   =  0.10E-29 period in steps = 0.13E+47 mass=  -0.177E-27a.u.
   SCALEE = 1.0000    scale energy and forces
   NPACO  =    256;   APACO  = 10.0  distance and # of slots for P.C.
   PSTRESS=    0.0 pullay stress

  Mass of Ions in am
   POMASS = 195.08
  Ionic Valenz
   ZVAL   =  16.00
  Atomic Wigner-Seitz radii
   RWIGS  =  -1.00
  virtual crystal weights 
   VCA    =   1.00
   NELECT =      32.0000    total number of electrons
   NUPDOWN=      -1.0000    fix difference up-down

 DOS related values:
   EMIN   =  10.00;   EMAX   =-10.00  energy-range for DOS
   EFERMI =   0.00
   ISMEAR =     0;   SIGMA  =   0.05  broadening in eV -4-tet -1-fermi 0-gaus

 Electronic relaxation 2 (details)
   IALGO  =     38    algorithm
   LDIAG  =      T    sub-space diagonalisation (order eigenvalues)
   LSUBROT=      F    optimize rotation matrix (better conditioning)
   TURBO    =      0    0=normal 1=particle mesh
   IRESTART =      0    0=no restart 2=restart with 2 vectors
   NREBOOT  =      0    no. of reboots
   NMIN     =      0    reboot dimension
   EREF     =   0.00    reference energy to select bands
   IMIX   =      4    mixing-type and parameters
     AMIX     =   0.40;   BMIX     =  1.00
     AMIX_MAG =   1.60;   BMIX_MAG =  1.00
     AMIN     =   0.10
     WC   =   100.;   INIMIX=   1;  MIXPRE=   1;  MAXMIX= -45

 Intra band minimization:
   WEIMIN = 0.0010     energy-eigenvalue tresh-hold
   EBREAK =  0.10E-07  absolut break condition
   DEPER  =   0.30     relativ break condition  

   TIME   =   0.40     timestep for ELM

  volume/ion in A,a.u.               =      16.13       108.83
  Fermi-wavevector in a.u.,A,eV,Ry     =   1.632810  3.085563 36.274060  2.666068
  Thomas-Fermi vector in A             =   2.724719
 
 Write flags
   LWAVE        =      T    write WAVECAR
   LDOWNSAMPLE  =      F    k-point downsampling of WAVECAR
   LCHARG       =      T    write CHGCAR
   LVTOT        =      F    write LOCPOT, total local potential
   LVHAR        =      F    write LOCPOT, Hartree potential only
   LELF         =      F    write electronic localiz. function (ELF)
   LORBIT       =     11    0 simple, 1 ext, 2 COOP (PROOUT), +10 PAW based schemes


 Dipole corrections
   LMONO  =      F    monopole corrections only (constant potential shift)
   LDIPOL =      F    correct potential (dipole corrections)
   IDIPOL =      0    1-x, 2-y, 3-z, 4-all directions 
   EPSILON=  1.0000000 bulk dielectric constant

 Exchange correlation treatment:
   GGA     =    --    GGA type
   LEXCH   =     8    internal setting for exchange type
   LIBXC   =     F    Libxc                    
   VOSKOWN =     0    Vosko Wilk Nusair interpolation
   LHFCALC =     F    Hartree Fock is set to
   LHFONE  =     F    Hartree Fock one center treatment
   AEXX    =    0.0000 exact exchange contribution

 Linear response parameters
   LEPSILON=     F    determine dielectric tensor
   LRPA    =     F    only Hartree local field effects (RPA)
   LNABLA  =     F    use nabla operator in PAW spheres
   LVEL    =     F    velocity operator in full k-point grid
   CSHIFT  =0.1000    complex shift for real part using Kramers Kronig
   OMEGAMAX=  -1.0    maximum frequency
   DEG_THRESHOLD= 0.2000000E-02 threshold for treating states as degnerate
   RTIME   =   -0.100 relaxation time in fs
  (WPLASMAI=    0.000 imaginary part of plasma frequency in eV, 0.658/RTIME)
   DFIELD  = 0.0000000 0.0000000 0.0000000 field for delta impulse in time
 
  Optional k-point grid parameters
   LKPOINTS_OPT  =     F    use optional k-point grid
   KPOINTS_OPT_MODE=     1    mode for optional k-point grid
 
 Orbital magnetization related:
   ORBITALMAG=     F  switch on orbital magnetization
   LCHIMAG   =     F  perturbation theory with respect to B field
   DQ        =  0.001000  dq finite difference perturbation B field
   LLRAUG    =     F  two centre corrections for induced B field



--------------------------------------------------------------------------------------------------------


 conjugate gradient relaxation of ions
 charge density and potential will be updated during run
 non-spin polarized calculation
 Variant of blocked Davidson
 Davidson routine will perform the subspace rotation
 perform sub-space diagonalisation
    after iterative eigenvector-optimisation
 modified Broyden-mixing scheme, WC =      100.0
 initial mixing is a Kerker type mixing with AMIX =  0.4000 and BMIX =      1.0000
 Hartree-type preconditioning will be used
 using additional bands            8
 reciprocal scheme for non local part
 use partial core corrections
 calculate Harris-corrections to forces 
   (improved forces if not selfconsistent)
 use gradient corrections 
 use of overlap-Matrix (Vanderbilt PP)
 Gauss-broadening in eV      SIGMA  =   0.05


--------------------------------------------------------------------------------------------------------


  energy-cutoff  :      450.00
  volume of cell :       32.25
      direct lattice vectors                 reciprocal lattice vectors
     2.780501843  0.000000000  0.000000000     0.359647307  0.207642470  0.000000000
    -1.390250922  2.407985231  0.000000000     0.000000000  0.415284939  0.000000000
     0.000000000  0.000000000  4.817154644     0.000000000  0.000000000  0.207591426

  length of vectors
     2.780501843  2.780501843  4.817154644     0.415284939  0.415284939  0.207591426


 
 k-points in units of 2pi/SCALE and weight: Automatic mesh                          
   0.00000000  0.00000000  0.00000000       0.001
   0.03596473  0.02076425  0.00000000       0.007
   0.07192946  0.04152849  0.00000000       0.007
   0.10789419  0.06229274  0.00000000       0.007
   0.14385892  0.08305699  0.00000000       0.007
   0.17982365  0.10382123  0.00000000       0.004
   0.03596473  0.06229274  0.00000000       0.007
   0.07192946  0.08305699  0.00000000       0.015
   0.10789419  0.10382123  0.00000000       0.015
   0.14385892  0.12458548  0.00000000       0.015
   0.07192946  0.12458548  0.00000000       0.007
   0.10789419  0.14534973  0.00000000       0.015
   0.14385892  0.16611398  0.00000000       0.007
   0.10789419  0.18687822  0.00000000       0.007
   0.00000000  0.00000000  0.02594893       0.003
   0.03596473  0.02076425  0.02594893       0.015
   0.07192946  0.04152849  0.02594893       0.015
   0.10789419  0.06229274  0.02594893       0.015
   0.14385892  0.08305699  0.02594893       0.015
   0.17982365  0.10382123  0.02594893       0.007
   0.03596473  0.06229274  0.02594893       0.015
   0.07192946  0.08305699  0.02594893       0.030
   0.10789419  0.10382123  0.02594893       0.030
   0.14385892  0.12458548  0.02594893       0.030
   0.07192946  0.12458548  0.02594893       0.015
   0.10789419  0.14534973  0.02594893       0.030
   0.14385892  0.16611398  0.02594893       0.015
   0.10789419  0.18687822  0.02594893       0.015
   0.00000000  0.00000000  0.05189786       0.003
   0.03596473  0.02076425  0.05189786       0.015
   0.07192946  0.04152849  0.05189786       0.015
   0.10789419  0.06229274  0.05189786       0.015
   0.14385892  0.08305699  0.05189786       0.015
   0.17982365  0.10382123  0.05189786       0.007
   0.03596473  0.06229274  0.05189786       0.015
   0.07192946  0.08305699  0.05189786       0.030
   0.10789419  0.10382123  0.05189786       0.030
   0.14385892  0.12458548  0.05189786       0.030
   0.07192946  0.12458548  0.05189786       0.015
   0.10789419  0.14534973  0.05189786       0.030
   0.14385892  0.16611398  0.05189786       0.015
   0.10789419  0.18687822  0.05189786       0.015
   0.00000000  0.00000000  0.07784678       0.003
   0.03596473  0.02076425  0.07784678       0.015
   0.07192946  0.04152849  0.07784678       0.015
   0.10789419  0.06229274  0.07784678       0.015
   0.14385892  0.08305699  0.07784678       0.015
   0.17982365  0.10382123  0.07784678       0.007
   0.03596473  0.06229274  0.07784678       0.015
   0.07192946  0.08305699  0.07784678       0.030
   0.10789419  0.10382123  0.07784678       0.030
   0.14385892  0.12458548  0.07784678       0.030
   0.07192946  0.12458548  0.07784678       0.015
   0.10789419  0.14534973  0.07784678       0.030
   0.14385892  0.16611398  0.07784678       0.015
   0.10789419  0.18687822  0.07784678       0.015
   0.00000000  0.00000000  0.10379571       0.001
   0.03596473  0.02076425  0.10379571       0.007
   0.07192946  0.04152849  0.10379571       0.007
   0.10789419  0.06229274  0.10379571       0.007
   0.14385892  0.08305699  0.10379571       0.007
   0.17982365  0.10382123  0.10379571       0.004
   0.03596473  0.06229274  0.10379571       0.007
   0.07192946  0.08305699  0.10379571       0.015
   0.10789419  0.10382123  0.10379571       0.015
   0.14385892  0.12458548  0.10379571       0.015
   0.07192946  0.12458548  0.10379571       0.007
   0.10789419  0.14534973  0.10379571       0.015
   0.14385892  0.16611398  0.10379571       0.007
   0.10789419  0.18687822  0.10379571       0.007
 
 k-points in reciprocal lattice and weights: Automatic mesh                          
   0.00000000  0.00000000  0.00000000       0.001
   0.10000000  0.00000000  0.00000000       0.007
   0.20000000  0.00000000  0.00000000       0.007
   0.30000000  0.00000000  0.00000000       0.007
   0.40000000 -0.00000000  0.00000000       0.007
   0.50000000 -0.00000000  0.00000000       0.004
   0.10000000  0.10000000  0.00000000       0.007
   0.20000000  0.10000000  0.00000000       0.015
   0.30000000  0.10000000  0.00000000       0.015
   0.40000000  0.10000000  0.00000000       0.015
   0.20000000  0.20000000  0.00000000       0.007
   0.30000000  0.20000000  0.00000000       0.015
   0.40000000  0.20000000  0.00000000       0.007
   0.30000000  0.30000000  0.00000000       0.007
   0.00000000  0.00000000  0.12500000       0.003
   0.10000000  0.00000000  0.12500000       0.015
   0.20000000  0.00000000  0.12500000       0.015
   0.30000000  0.00000000  0.12500000       0.015
   0.40000000 -0.00000000  0.12500000       0.015
   0.50000000 -0.00000000  0.12500000       0.007
   0.10000000  0.10000000  0.12500000       0.015
   0.20000000  0.10000000  0.12500000       0.030
   0.30000000  0.10000000  0.12500000       0.030
   0.40000000  0.10000000  0.12500000       0.030
   0.20000000  0.20000000  0.12500000       0.015
   0.30000000  0.20000000  0.12500000       0.030
   0.40000000  0.20000000  0.12500000       0.015
   0.30000000  0.30000000  0.12500000       0.015
   0.00000000  0.00000000  0.25000000       0.003
   0.10000000  0.00000000  0.25000000       0.015
   0.20000000  0.00000000  0.25000000       0.015
   0.30000000  0.00000000  0.25000000       0.015
   0.40000000 -0.00000000  0.25000000       0.015
   0.50000000 -0.00000000  0.25000000       0.007
   0.10000000  0.10000000  0.25000000       0.015
   0.20000000  0.10000000  0.25000000       0.030
   0.30000000  0.10000000  0.25000000       0.030
   0.40000000  0.10000000  0.25000000       0.030
   0.20000000  0.20000000  0.25000000       0.015
   0.30000000  0.20000000  0.25000000       0.030
   0.40000000  0.20000000  0.25000000       0.015
   0.30000000  0.30000000  0.25000000       0.015
   0.00000000  0.00000000  0.37500000       0.003
   0.10000000  0.00000000  0.37500000       0.015
   0.20000000  0.00000000  0.37500000       0.015
   0.30000000  0.00000000  0.37500000       0.015
   0.40000000 -0.00000000  0.37500000       0.015
   0.50000000 -0.00000000  0.37500000       0.007
   0.10000000  0.10000000  0.37500000       0.015
   0.20000000  0.10000000  0.37500000       0.030
   0.30000000  0.10000000  0.37500000       0.030
   0.40000000  0.10000000  0.37500000       0.030
   0.20000000  0.20000000  0.37500000       0.015
   0.30000000  0.20000000  0.37500000       0.030
   0.40000000  0.20000000  0.37500000       0.015
   0.30000000  0.30000000  0.37500000       0.015
   0.00000000  0.00000000  0.50000000       0.001
   0.10000000  0.00000000  0.50000000       0.007
   0.20000000  0.00000000  0.50000000       0.007
   0.30000000  0.00000000  0.50000000       0.007
   0.40000000 -0.00000000  0.50000000       0.007
   0.50000000 -0.00000000  0.50000000       0.004
   0.10000000  0.10000000  0.50000000       0.007
   0.20000000  0.10000000  0.50000000       0.015
   0.30000000  0.10000000  0.50000000       0.015
   0.40000000  0.10000000  0.50000000       0.015
   0.20000000  0.20000000  0.50000000       0.007
   0.30000000  0.20000000  0.50000000       0.015
   0.40000000  0.20000000  0.50000000       0.007
   0.30000000  0.30000000  0.50000000       0.007
 
 position of ions in fractional coordinates (direct lattice) 
   0.00000000  0.00000000  0.00000000
   0.33333333  0.66666667  0.50000000
 
 position of ions in cartesian coordinates  (Angst):
   0.00000000  0.00000000  0.00000000
   0.00000000  1.60532349  2.40857732
 


--------------------------------------------------------------------------------------------------------


 k-point   1 :   0.0000 0.0000 0.0000  plane waves:     713
 k-point   2 :   0.1000 0.0000 0.0000  plane waves:     699
 k-point   3 :   0.2000 0.0000 0.0000  plane waves:     698
 k-point   4 :   0.3000 0.0000 0.0000  plane waves:     700
 k-point   5 :   0.4000-0.0000 0.0000  plane waves:     694
 k-point   6 :   0.5000-0.0000 0.0000  plane waves:     700
 k-point   7 :   0.1000 0.1000 0.0000  plane waves:     707
 k-point   8 :   0.2000 0.1000 0.0000  plane waves:     699
 k-point   9 :   0.3000 0.1000 0.0000  plane waves:     699
 k-point  10 :   0.4000 0.1000 0.0000  plane waves:     700
 k-point  11 :   0.2000 0.2000 0.0000  plane waves:     703
 k-point  12 :   0.3000 0.2000 0.0000  plane waves:     695
 k-point  13 :   0.4000 0.2000 0.0000  plane waves:     707
 k-point  14 :   0.3000 0.3000 0.0000  plane waves:     707
 k-point  15 :   0.0000 0.0000 0.1250  plane waves:     707
 k-point  16 :   0.1000 0.0000 0.1250  plane waves:     700
 k-point  17 :   0.2000 0.0000 0.1250  plane waves:     696
 k-point  18 :   0.3000 0.0000 0.1250  plane waves:     699
 k-point  19 :   0.4000-0.0000 0.1250  plane waves:     702
 k-point  20 :   0.5000-0.0000 0.1250  plane waves:     708
 k-point  21 :   0.1000 0.1000 0.1250  plane waves:     697
 k-point  22 :   0.2000 0.1000 0.1250  plane waves:     696
 k-point  23 :   0.3000 0.1000 0.1250  plane waves:     701
 k-point  24 :   0.4000 0.1000 0.1250  plane waves:     700
 k-point  25 :   0.2000 0.2000 0.1250  plane waves:     699
 k-point  26 :   0.3000 0.2000 0.1250  plane waves:     697
 k-point  27 :   0.4000 0.2000 0.1250  plane waves:     704
 k-point  28 :   0.3000 0.3000 0.1250  plane waves:     704
 k-point  29 :   0.0000 0.0000 0.2500  plane waves:     701
 k-point  30 :   0.1000 0.0000 0.2500  plane waves:     702
 k-point  31 :   0.2000 0.0000 0.2500  plane waves:     690
 k-point  32 :   0.3000 0.0000 0.2500  plane waves:     703
 k-point  33 :   0.4000-0.0000 0.2500  plane waves:     703
 k-point  34 :   0.5000-0.0000 0.2500  plane waves:     700
 k-point  35 :   0.1000 0.1000 0.2500  plane waves:     691
 k-point  36 :   0.2000 0.1000 0.2500  plane waves:     694
 k-point  37 :   0.3000 0.1000 0.2500  plane waves:     701
 k-point  38 :   0.4000 0.1000 0.2500  plane waves:     702
 k-point  39 :   0.2000 0.2000 0.2500  plane waves:     697
 k-point  40 :   0.3000 0.2000 0.2500  plane waves:     700
 k-point  41 :   0.4000 0.2000 0.2500  plane waves:     707
 k-point  42 :   0.3000 0.3000 0.2500  plane waves:     698
 k-point  43 :   0.0000 0.0000 0.3750  plane waves:     694
 k-point  44 :   0.1000 0.0000 0.3750  plane waves:     695
 k-point  45 :   0.2000 0.0000 0.3750  plane waves:     692
 k-point  46 :   0.3000 0.0000 0.3750  plane waves:     695
 k-point  47 :   0.4000-0.0000 0.3750  plane waves:     693
 k-point  48 :   0.5000-0.0000 0.3750  plane waves:     704
 k-point  49 :   0.1000 0.1000 0.3750  plane waves:     691
 k-point  50 :   0.2000 0.1000 0.3750  plane waves:     694
 k-point  51 :   0.3000 0.1000 0.3750  plane waves:     700
 k-point  52 :   0.4000 0.1000 0.3750  plane waves:     702
 k-point  53 :   0.2000 0.2000 0.3750  plane waves:     695
 k-point  54 :   0.3000 0.2000 0.3750  plane waves:     703
 k-point  55 :   0.4000 0.2000 0.3750  plane waves:     709
 k-point  56 :   0.3000 0.3000 0.3750  plane waves:     703
 k-point  57 :   0.0000 0.0000 0.5000  plane waves:     688
 k-point  58 :   0.1000 0.0000 0.5000  plane waves:     692
 k-point  59 :   0.2000 0.0000 0.5000  plane waves:     690
 k-point  60 :   0.3000 0.0000 0.5000  plane waves:     696
 k-point  61 :   0.4000-0.0000 0.5000  plane waves:     698
 k-point  62 :   0.5000-0.0000 0.5000  plane waves:     732
 k-point  63 :   0.1000 0.1000 0.5000  plane waves:     692
 k-point  64 :   0.2000 0.1000 0.5000  plane waves:     696
 k-point  65 :   0.3000 0.1000 0.5000  plane waves:     700
 k-point  66 :   0.4000 0.1000 0.5000  plane waves:     698
 k-point  67 :   0.2000 0.2000 0.5000  plane waves:     696
 k-point  68 :   0.3000 0.2000 0.5000  plane waves:     702
 k-point  69 :   0.4000 0.2000 0.5000  plane waves:     704
 k-point  70 :   0.3000 0.3000 0.5000  plane waves:     706

 maximum and minimum number of plane-waves per node :       732      688

 maximum number of plane-waves:       732
 maximum index in each direction: 
   IXMAX=    4   IYMAX=    4   IZMAX=    8
   IXMIN=   -5   IYMIN=   -5   IZMIN=   -8


 serial   3D FFT for wavefunctions
 parallel 3D FFT for charge:
    minimum data exchange during FFTs selected (reduces bandwidth)


 total amount of memory used by VASP MPI-rank0    39559. kBytes
=======================================================================

   base      :      30000. kBytes
   nonl-proj :       7523. kBytes
   fftplans  :        254. kBytes
   grid      :        864. kBytes
   one-center:         31. kBytes
   wavefun   :        887. kBytes
 
     INWAV:  cpu time      0.0000: real time      0.0004
 Broyden mixing: mesh for mixing (old mesh)
   NGX =  9   NGY =  9   NGZ = 17
  (NGX  = 40   NGY  = 40   NGZ  = 72)
  gives a total of   1377 points

 initial charge density was supplied:
 charge density of overlapping atoms calculated
 number of electron      32.0000000 magnetization 
 keeping initial charge density in first step


--------------------------------------------------------------------------------------------------------


 Maximum index for augmentation-charges          714 (set IRDMAX)


--------------------------------------------------------------------------------------------------------


 First call to EWALD:  gamma=   0.557
 Maximum number of real-space cells 3x 3x 2
 Maximum number of reciprocal cells 2x 2x 4

    FEWALD:  cpu time      0.0014: real time      0.0014


--------------------------------------- Iteration      1(   1)  ---------------------------------------


    POTLOK:  cpu time      0.0038: real time      0.0039
    SETDIJ:  cpu time      0.0022: real time      0.0022
     EDDAV:  cpu time      0.3106: real time      0.3123
       DOS:  cpu time      0.0005: real time      0.0005
    --------------------------------------------
      LOOP:  cpu time      0.3171: real time      0.3190

 eigenvalue-minimisations  :  3360
 total energy-change (2. order) : 0.1473785E+03  (-0.2315171E+04)
 number of electron      32.0000000 magnetization 
 augmentation part       32.0000000 magnetization 

 Free energy of the ion-electron system (eV)
  ---------------------------------------------------
  alpha Z        PSCENC =       297.56394648
  Ewald energy   TEWEN  =     -4212.00903025
  -Hartree energ DENC   =      -833.00474085
  -exchange      EXHF   =         0.00000000
  -V(xc)+E(xc)   XCENC  =       127.13067239
  PAW double counting   =      4131.50523274    -4061.67189606
  entropy T*S    EENTRO =        -0.00217993
  eigenvalues    EBANDS =      -158.56313372
  atomic energy  EATOM  =      4856.42966544
  Solvation  Ediel_sol  =         0.00000000
  ---------------------------------------------------
  free energy    TOTEN  =       147.37853625 eV

  energy without entropy =      147.38071618  energy(sigma->0) =      147.37962621


--------------------------------------------------------------------------------------------------------




--------------------------------------- Iteration      1(   2)  ---------------------------------------


     EDDAV:  cpu time      0.3380: real time      0.3406
       DOS:  cpu time      0.0004: real time      0.0004
    --------------------------------------------
      LOOP:  cpu time      0.3384: real time      0.3410

 eigenvalue-minimisations  :  3576
 total energy-change (2. order) :-0.1586306E+03  (-0.1579253E+03)
 number of electron      32.0000000 magnetization 
 augmentation part       32.0000000 magnetization 

 Free energy of the ion-electron system (eV)
  ---------------------------------------------------
  alpha Z        PSCENC =       297.56394648
  Ewald energy   TEWEN  =     -4212.00903025
  -Hartree energ DENC   =      -833.00474085
  -exchange      EXHF   =         0.00000000
  -V(xc)+E(xc)   XCENC  =       127.13067239
  PAW double counting   =      4131.50523274    -4061.67189606
  entropy T*S    EENTRO =        -0.00532982
  eigenvalues    EBANDS =      -317.19057276
  atomic energy  EATOM  =      4856.42966544
  Solvation  Ediel_sol  =         0.00000000
  ---------------------------------------------------
  free energy    TOTEN  =       -11.25205268 eV

  energy without entropy =      -11.24672286  energy(sigma->0) =      -11.24938777


--------------------------------------------------------------------------------------------------------




--------------------------------------- Iteration      1(   3)  ---------------------------------------


     EDDAV:  cpu time      0.5015: real time      0.5044
       DOS:  cpu time      0.0004: real time      0.0004
    --------------------------------------------
      LOOP:  cpu time      0.5019: real time      0.5048

 eigenvalue-minimisations  :  4560
 total energy-change (2. order) :-0.1486262E+01  (-0.1463890E+01)
 number of electron      32.0000000 magnetization 
 augmentation part       32.0000000 magnetization 

 Free energy of the ion-electron system (eV)
  ---------------------------------------------------
  alpha Z        PSCENC =       297.56394648
  Ewald energy   TEWEN  =     -4212.00903025
  -Hartree energ DENC   =      -833.00474085
  -exchange      EXHF   =         0.00000000
  -V(xc)+E(xc)   XCENC  =       127.13067239
  PAW double counting   =      4131.50523274    -4061.67189606
  entropy T*S    EENTRO =        -0.00453313
  eigenvalues    EBANDS =      -318.67763102
  atomic energy  EATOM  =      4856.42966544
  Solvation  Ediel_sol  =         0.00000000
  ---------------------------------------------------
  free energy    TOTEN  =       -12.73831426 eV

  energy without entropy =      -12.73378113  energy(sigma->0) =      -12.73604769


--------------------------------------------------------------------------------------------------------




--------------------------------------- Iteration      1(   4)  ---------------------------------------


     EDDAV:  cpu time      0.5401: real time      0.5432
       DOS:  cpu time      0.0004: real time      0.0004
    --------------------------------------------
      LOOP:  cpu time      0.5405: real time      0.5436

 eigenvalue-minimisations  :  4704
 total energy-change (2. order) :-0.4294040E-02  (-0.4293758E-02)
 number of electron      32.0000000 magnetization 
 augmentation part       32.0000000 magnetization 

 Free energy of the ion-electron system (eV)
  ---------------------------------------------------
  alpha Z        PSCENC =       297.56394648
  Ewald energy   TEWEN  =     -4212.00903025
  -Hartree energ DENC   =      -833.00474085
  -exchange      EXHF   =         0.00000000
  -V(xc)+E(xc)   XCENC  =       127.13067239
  PAW double counting   =      4131.50523274    -4061.67189606
  entropy T*S    EENTRO =        -0.00454280
  eigenvalues    EBANDS =      -318.68191539
  atomic energy  EATOM  =      4856.42966544
  Solvation  Ediel_sol  =         0.00000000
  ---------------------------------------------------
  free energy    TOTEN  =       -12.74260830 eV

  energy without entropy =      -12.73806550  energy(sigma->0) =      -12.74033690


--------------------------------------------------------------------------------------------------------




--------------------------------------- Iteration      1(   5)  ---------------------------------------


     EDDAV:  cpu time      0.5788: real time      0.5818
       DOS:  cpu time      0.0004: real time      0.0004
    CHARGE:  cpu time      0.0243: real time      0.0244
    MIXING:  cpu time      0.0004: real time      0.0004
    --------------------------------------------
      LOOP:  cpu time      0.6039: real time      0.6071

 eigenvalue-minimisations  :  4920
 total energy-change (2. order) :-0.2044176E-05  (-0.2045224E-05)
 number of electron      31.9999997 magnetization 
 augmentation part        7.9503558 magnetization 

 Broyden mixing:
  rms(total) = 0.18755E+01    rms(broyden)= 0.18753E+01
  rms(prec ) = 0.21043E+01
  weight for this iteration     100.00

 Free energy of the ion-electron system (eV)
  ---------------------------------------------------
  alpha Z        PSCENC =       297.56394648
  Ewald energy   TEWEN  =     -4212.00903025
  -Hartree energ DENC   =      -833.00474085
  -exchange      EXHF   =         0.00000000
  -V(xc)+E(xc)   XCENC  =       127.13067239
  PAW double counting   =      4131.50523274    -4061.67189606
  entropy T*S    EENTRO =        -0.00454285
  eigenvalues    EBANDS =      -318.68191739
  atomic energy  EATOM  =      4856.42966544
  Solvation  Ediel_sol  =         0.00000000
  ---------------------------------------------------
  free energy    TOTEN  =       -12.74261034 eV

  energy without entropy =      -12.73806749  energy(sigma->0) =      -12.74033892


--------------------------------------------------------------------------------------------------------




--------------------------------------- Iteration      1(   6)  ---------------------------------------


    POTLOK:  cpu time      0.0035: real time      0.0037
    SETDIJ:  cpu time      0.0021: real time      0.0022
     EDDAV:  cpu time      0.3240: real time      0.3260
       DOS:  cpu time      0.0004: real time      0.0004
    CHARGE:  cpu time      0.0226: real time      0.0227
    MIXING:  cpu time      0.0003: real time      0.0003
    --------------------------------------------
      LOOP:  cpu time      0.3530: real time      0.3553

 eigenvalue-minimisations  :  3480
 total energy-change (2. order) : 0.6812538E+00  (-0.2748057E+00)
 number of electron      31.9999996 magnetization 
 augmentation part        8.1879022 magnetization 

 Broyden mixing:
  rms(total) = 0.54565E+00    rms(broyden)= 0.54564E+00
  rms(prec ) = 0.58666E+00
  weight for this iteration     100.00

 eigenvalues of (default mixing * dielectric matrix)
  average eigenvalue GAMMA=   1.3797
  1.3797

 Free energy of the ion-electron system (eV)
  ---------------------------------------------------
  alpha Z        PSCENC =       297.56394648
  Ewald energy   TEWEN  =     -4212.00903025
  -Hartree energ DENC   =      -801.40448070
  -exchange      EXHF   =         0.00000000
  -V(xc)+E(xc)   XCENC  =       125.78062168
  PAW double counting   =      4414.91313123    -4349.06901743
  entropy T*S    EENTRO =        -0.00465132
  eigenvalues    EBANDS =      -344.26154164
  atomic energy  EATOM  =      4856.42966544
  Solvation  Ediel_sol  =         0.00000000
  ---------------------------------------------------
  free energy    TOTEN  =       -12.06135650 eV

  energy without entropy =      -12.05670519  energy(sigma->0) =      -12.05903084


--------------------------------------------------------------------------------------------------------




--------------------------------------- Iteration      1(   7)  ---------------------------------------


    POTLOK:  cpu time      0.0034: real time      0.0036
    SETDIJ:  cpu time      0.0020: real time      0.0020
     EDDAV:  cpu time      0.4825: real time      0.4850
       DOS:  cpu time      0.0004: real time      0.0004
    CHARGE:  cpu time      0.0224: real time      0.0225
    MIXING:  cpu time      0.0003: real time      0.0003
    --------------------------------------------
      LOOP:  cpu time      0.5110: real time      0.5138

 eigenvalue-minimisations  :  4560
 total energy-change (2. order) : 0.3074813E-01  (-0.1330764E-01)
 number of electron      31.9999996 magnetization 
 augmentation part        8.2351233 magnetization 

 Broyden mixing:
  rms(total) = 0.17514E+00    rms(broyden)= 0.17513E+00
  rms(prec ) = 0.18775E+00
  weight for this iteration     100.00

 eigenvalues of (default mixing * dielectric matrix)
  average eigenvalue GAMMA=   1.9142
  1.1543  2.6741

 Free energy of the ion-electron system (eV)
  ---------------------------------------------------
  alpha Z        PSCENC =       297.56394648
  Ewald energy   TEWEN  =     -4212.00903025
  -Hartree energ DENC   =      -794.16245870
  -exchange      EXHF   =         0.00000000
  -V(xc)+E(xc)   XCENC  =       125.45031963
  PAW double counting   =      4516.76324476    -4451.84113486
  entropy T*S    EENTRO =        -0.00493130
  eigenvalues    EBANDS =      -350.22022959
  atomic energy  EATOM  =      4856.42966544
  Solvation  Ediel_sol  =         0.00000000
  ---------------------------------------------------
  free energy    TOTEN  =       -12.03060837 eV

  energy without entropy =      -12.02567708  energy(sigma->0) =      -12.02814273


--------------------------------------------------------------------------------------------------------




--------------------------------------- Iteration      1(   8)  ---------------------------------------


    POTLOK:  cpu time      0.0034: real time      0.0036
    SETDIJ:  cpu time      0.0019: real time      0.0019
     EDDAV:  cpu time      0.3396: real time      0.3416
       DOS:  cpu time      0.0004: real time      0.0004
    CHARGE:  cpu time      0.0224: real time      0.0224
    MIXING:  cpu time      0.0003: real time      0.0003
    --------------------------------------------
      LOOP:  cpu time      0.3679: real time      0.3702

 eigenvalue-minimisations  :  3600
 total energy-change (2. order) : 0.2155561E-02  (-0.7160270E-03)
 number of electron      31.9999996 magnetization 
 augmentation part        8.2286744 magnetization 

 Broyden mixing:
  rms(total) = 0.22260E-01    rms(broyden)= 0.22246E-01
  rms(prec ) = 0.24396E-01
  weight for this iteration     100.00

 eigenvalues of (default mixing * dielectric matrix)
  average eigenvalue GAMMA=   1.5787
  1.0861  1.2401  2.4098

 Free energy of the ion-electron system (eV)
  ---------------------------------------------------
  alpha Z        PSCENC =       297.56394648
  Ewald energy   TEWEN  =     -4212.00903025
  -Hartree energ DENC   =      -793.83013380
  -exchange      EXHF   =         0.00000000
  -V(xc)+E(xc)   XCENC  =       125.41009957
  PAW double counting   =      4577.98449936    -4513.06819781
  entropy T*S    EENTRO =        -0.00499939
  eigenvalues    EBANDS =      -350.50430242
  atomic energy  EATOM  =      4856.42966544
  Solvation  Ediel_sol  =         0.00000000
  ---------------------------------------------------
  free energy    TOTEN  =       -12.02845281 eV

  energy without entropy =      -12.02345342  energy(sigma->0) =      -12.02595312


--------------------------------------------------------------------------------------------------------




--------------------------------------- Iteration      1(   9)  ---------------------------------------


    POTLOK:  cpu time      0.0033: real time      0.0035
    SETDIJ:  cpu time      0.0019: real time      0.0019
     EDDAV:  cpu time      0.4997: real time      0.5023
       DOS:  cpu time      0.0004: real time      0.0004
    CHARGE:  cpu time      0.0229: real time      0.0230
    MIXING:  cpu time      0.0004: real time      0.0004
    --------------------------------------------
      LOOP:  cpu time      0.5286: real time      0.5315

 eigenvalue-minimisations  :  4464
 total energy-change (2. order) : 0.1579713E-03  (-0.2241933E-04)
 number of electron      31.9999996 magnetization 
 augmentation part        8.2278793 magnetization 

 Broyden mixing:
  rms(total) = 0.28405E-02    rms(broyden)= 0.28388E-02
  rms(prec ) = 0.34615E-02
  weight for this iteration     100.00

 eigenvalues of (default mixing * dielectric matrix)
  average eigenvalue GAMMA=   1.6706
  2.5308  1.0334  1.1858  1.9325

 Free energy of the ion-electron system (eV)
  ---------------------------------------------------
  alpha Z        PSCENC =       297.56394648
  Ewald energy   TEWEN  =     -4212.00903025
  -Hartree energ DENC   =      -794.10211064
  -exchange      EXHF   =         0.00000000
  -V(xc)+E(xc)   XCENC  =       125.42371895
  PAW double counting   =      4572.73520020    -4507.75241983
  entropy T*S    EENTRO =        -0.00496793
  eigenvalues    EBANDS =      -350.31229727
  atomic energy  EATOM  =      4856.42966544
  Solvation  Ediel_sol  =         0.00000000
  ---------------------------------------------------
  free energy    TOTEN  =       -12.02829484 eV

  energy without entropy =      -12.02332692  energy(sigma->0) =      -12.02581088


--------------------------------------------------------------------------------------------------------




--------------------------------------- Iteration      1(  10)  ---------------------------------------


    POTLOK:  cpu time      0.0034: real time      0.0036
    SETDIJ:  cpu time      0.0020: real time      0.0020
     EDDAV:  cpu time      0.4264: real time      0.4288
       DOS:  cpu time      0.0004: real time      0.0004
    CHARGE:  cpu time      0.0224: real time      0.0225
    MIXING:  cpu time      0.0004: real time      0.0004
    --------------------------------------------
      LOOP:  cpu time      0.4549: real time      0.4577

 eigenvalue-minimisations  :  4080
 total energy-change (2. order) :-0.1508115E-04  (-0.1048883E-05)
 number of electron      31.9999996 magnetization 
 augmentation part        8.2280224 magnetization 

 Broyden mixing:
  rms(total) = 0.10271E-02    rms(broyden)= 0.10267E-02
  rms(prec ) = 0.12064E-02
  weight for this iteration     100.00

 eigenvalues of (default mixing * dielectric matrix)
  average eigenvalue GAMMA=   1.7155
  2.6483  2.2860  0.9906  1.1828  1.4698

 Free energy of the ion-electron system (eV)
  ---------------------------------------------------
  alpha Z        PSCENC =       297.56394648
  Ewald energy   TEWEN  =     -4212.00903025
  -Hartree energ DENC   =      -794.11907000
  -exchange      EXHF   =         0.00000000
  -V(xc)+E(xc)   XCENC  =       125.42407320
  PAW double counting   =      4575.32899078    -4510.31268540
  entropy T*S    EENTRO =        -0.00496356
  eigenvalues    EBANDS =      -350.32923661
  atomic energy  EATOM  =      4856.42966544
  Solvation  Ediel_sol  =         0.00000000
  ---------------------------------------------------
  free energy    TOTEN  =       -12.02830992 eV

  energy without entropy =      -12.02334636  energy(sigma->0) =      -12.02582814


--------------------------------------------------------------------------------------------------------




--------------------------------------- Iteration      1(  11)  ---------------------------------------


    POTLOK:  cpu time      0.0033: real time      0.0034
    SETDIJ:  cpu time      0.0019: real time      0.0019
     EDDAV:  cpu time      0.3923: real time      0.3944
       DOS:  cpu time      0.0004: real time      0.0004
    --------------------------------------------
      LOOP:  cpu time      0.3978: real time      0.4001

 eigenvalue-minimisations  :  3912
 total energy-change (2. order) : 0.3112973E-06  (-0.1280124E-06)
 number of electron      31.9999996 magnetization 
 augmentation part        8.2280224 magnetization 

 Free energy of the ion-electron system (eV)
  ---------------------------------------------------
  alpha Z        PSCENC =       297.56394648
  Ewald energy   TEWEN  =     -4212.00903025
  -Hartree energ DENC   =      -794.13385363
  -exchange      EXHF   =         0.00000000
  -V(xc)+E(xc)   XCENC  =       125.42467097
  PAW double counting   =      4575.81199450    -4510.78037026
  entropy T*S    EENTRO =        -0.00496441
  eigenvalues    EBANDS =      -350.33036846
  atomic energy  EATOM  =      4856.42966544
  Solvation  Ediel_sol  =         0.00000000
  ---------------------------------------------------
  free energy    TOTEN  =       -12.02830961 eV

  energy without entropy =      -12.02334520  energy(sigma->0) =      -12.02582741


--------------------------------------------------------------------------------------------------------




 average (electrostatic) potential at core
  the test charge radii are     0.9952
  (the norm of the test charge is              1.0000)
       1 -89.8006       2 -89.8006
 
 
 
 E-fermi :  10.7425     XC(G=0): -13.5685     alpha+bet :-16.2670

 Fermi energy:        10.7425280034

 k-point     1 :       0.0000    0.0000    0.0000
  band No.  band energies     occupation 
      1     -41.7724      2.00000
      2     -41.6252      2.00000
      3     -41.6252      2.00000
      4     -41.5875      2.00000
      5     -41.5875      2.00000
      6     -41.4671      2.00000
      7       1.2574      2.00000
      8       3.8910      2.00000
      9       6.9637      2.00000
     10       7.4431      2.00000
     11       7.4431      2.00000
     12       7.7974      2.00000
     13       7.7974      2.00000
     14       9.0137      2.00000
     15       9.0137      2.00000
     16      10.1430      2.00000
     17      10.5462      2.00000
     18      10.5462      2.00000
     19      15.3179      0.00000
     20      25.8652      0.00000
     21      26.4531      0.00000
     22      27.9902      0.00000
     23      31.5401      0.00000
     24      31.5401      0.00000

 k-point     2 :       0.1000    0.0000    0.0000
  band No.  band energies     occupation 
      1     -41.7614      2.00000
      2     -41.6577      2.00000
      3     -41.6344      2.00000
      4     -41.6211      2.00000
      5     -41.5941      2.00000
      6     -41.4695      2.00000
      7       1.6111      2.00000
      8       4.2102      2.00000
      9       6.8971      2.00000
     10       7.4563      2.00000
     11       7.6557      2.00000
     12       7.7105      2.00000
     13       8.0512      2.00000
     14       8.4693      2.00000
     15       8.8502      2.00000
     16       9.0104      2.00000
     17      10.6061      1.99989
     18      12.3033      0.00000
     19      15.2849      0.00000
     20      26.2577      0.00000
     21      26.9677      0.00000
     22      28.2489      0.00000
     23      29.9867      0.00000
     24      30.0491      0.00000

 k-point     3 :       0.2000    0.0000    0.0000
  band No.  band energies     occupation 
      1     -41.7447      2.00000
      2     -41.7314      2.00000
      3     -41.7091      2.00000
      4     -41.6591      2.00000
      5     -41.6123      2.00000
      6     -41.4777      2.00000
      7       2.5775      2.00000
      8       4.9153      2.00000
      9       6.6753      2.00000
     10       7.1511      2.00000
     11       7.1840      2.00000
     12       8.0580      2.00000
     13       8.4656      2.00000
     14       8.4863      2.00000
     15       8.5097      2.00000
     16       8.7629      2.00000
     17      10.7021      1.74727
     18      14.4340      0.00000
     19      15.2272      0.00000
     20      24.5977      0.00000
     21      27.5672      0.00000
     22      27.6523      0.00000
     23      28.6241      0.00000
     24      28.8507      0.00000

 k-point     4 :       0.3000    0.0000    0.0000
  band No.  band energies     occupation 
      1     -41.8526      2.00000
      2     -41.8151      2.00000
      3     -41.6891      2.00000
      4     -41.6888      2.00000
      5     -41.6360      2.00000
      6     -41.4927      2.00000
      7       3.7692      2.00000
      8       5.0479      2.00000
      9       6.1288      2.00000
     10       6.9309      2.00000
     11       7.2750      2.00000
     12       8.0190      2.00000
     13       8.1097      2.00000
     14       9.1672      2.00000
     15       9.5472      2.00000
     16       9.7693      2.00000
     17      10.7544      0.73718
     18      15.3647      0.00000
     19      16.6109      0.00000
     20      20.8826      0.00000
     21      25.3102      0.00000
     22      25.9961      0.00000
     23      27.3448      0.00000
     24      28.5844      0.00000

 k-point     5 :       0.4000   -0.0000    0.0000
  band No.  band energies     occupation 
      1     -41.9390      2.00000
      2     -41.8996      2.00000
      3     -41.7130      2.00000
      4     -41.6546      2.00000
      5     -41.6463      2.00000
      6     -41.5130      2.00000
      7       4.4379      2.00000
      8       4.7442      2.00000
      9       5.4963      2.00000
     10       7.4331      2.00000
     11       7.6595      2.00000
     12       7.8418      2.00000
     13       8.0610      2.00000
     14      10.5862      1.99999
     15      10.7573      0.67581
     16      10.7664      0.49922
     17      10.9786      0.00000
     18      16.1914      0.00000
     19      17.2696      0.00000
     20      18.5578      0.00000
     21      22.9390      0.00000
     22      23.4458      0.00000
     23      24.6177      0.00000
     24      27.3141      0.00000

 k-point     6 :       0.5000   -0.0000    0.0000
  band No.  band energies     occupation 
      1     -41.9718      2.00000
      2     -41.9321      2.00000
      3     -41.7224      2.00000
      4     -41.6619      2.00000
      5     -41.6255      2.00000
      6     -41.5257      2.00000
      7       4.5481      2.00000
      8       4.6068      2.00000
      9       5.2822      2.00000
     10       7.5293      2.00000
     11       7.7459      2.00000
     12       7.9384      2.00000
     13       8.2638      2.00000
     14      10.7657      0.51198
     15      11.0217      0.00000
     16      11.2161      0.00000
     17      12.9778      0.00000
     18      14.4148      0.00000
     19      17.9160      0.00000
     20      19.5066      0.00000
     21      20.0675      0.00000
     22      22.6882      0.00000
     23      23.9449      0.00000
     24      26.7571      0.00000

 k-point     7 :       0.1000    0.1000    0.0000
  band No.  band energies     occupation 
      1     -41.7411      2.00000
      2     -41.7123      2.00000
      3     -41.6884      2.00000
      4     -41.6466      2.00000
      5     -41.6116      2.00000
      6     -41.4751      2.00000
      7       2.2790      2.00000
      8       4.7683      2.00000
      9       6.6375      2.00000
     10       7.3718      2.00000
     11       7.5423      2.00000
     12       7.6717      2.00000
     13       8.2739      2.00000
     14       8.2938      2.00000
     15       8.6182      2.00000
     16       8.9155      2.00000
     17      10.6274      1.99887
     18      13.8703      0.00000
     19      15.2414      0.00000
     20      26.0733      0.00000
     21      26.5912      0.00000
     22      27.8503      0.00000
     23      28.8232      0.00000
     24      29.4934      0.00000

 k-point     8 :       0.2000    0.1000    0.0000
  band No.  band energies     occupation 
      1     -41.8023      2.00000
      2     -41.7786      2.00000
      3     -41.7044      2.00000
      4     -41.6812      2.00000
      5     -41.6389      2.00000
      6     -41.4866      2.00000
      7       3.4291      2.00000
      8       5.3706      2.00000
      9       6.4639      2.00000
     10       6.5256      2.00000
     11       7.1110      2.00000
     12       7.8200      2.00000
     13       8.2614      2.00000
     14       8.5628      2.00000
     15       9.2934      2.00000
     16       9.6809      2.00000
     17      10.6290      1.99868
     18      15.3002      0.00000
     19      15.9183      0.00000
     20      22.7742      0.00000
     21      24.6852      0.00000
     22      26.9740      0.00000
     23      28.8216      0.00000
     24      29.3445      0.00000

 k-point     9 :       0.3000    0.1000    0.0000
  band No.  band energies     occupation 
      1     -41.8961      2.00000
      2     -41.8632      2.00000
      3     -41.7172      2.00000
      4     -41.6650      2.00000
      5     -41.6612      2.00000
      6     -41.5051      2.00000
      7       4.4805      2.00000
      8       5.1460      2.00000
      9       5.7776      2.00000
     10       6.9431      2.00000
     11       7.5351      2.00000
     12       7.5432      2.00000
     13       8.0916      2.00000
     14       9.3196      2.00000
     15      10.3349      2.00000
     16      10.6171      1.99961
     17      11.0549      0.00000
     18      15.9022      0.00000
     19      18.0197      0.00000
     20      18.9827      0.00000
     21      22.6101      0.00000
     22      25.5061      0.00000
     23      25.6337      0.00000
     24      27.7172      0.00000

 k-point    10 :       0.4000    0.1000    0.0000
  band No.  band energies     occupation 
      1     -41.9540      2.00000
      2     -41.9148      2.00000
      3     -41.7388      2.00000
      4     -41.6815      2.00000
      5     -41.6255      2.00000
      6     -41.5256      2.00000
      7       4.8045      2.00000
      8       4.8905      2.00000
      9       5.3888      2.00000
     10       7.4825      2.00000
     11       7.7046      2.00000
     12       7.7088      2.00000
     13       8.0274      2.00000
     14      10.5047      2.00000
     15      10.6015      1.99993
     16      10.8663      0.00046
     17      12.7186      0.00000
     18      15.6197      0.00000
     19      17.5677      0.00000
     20      19.6772      0.00000
     21      20.4116      0.00000
     22      22.7409      0.00000
     23      24.3977      0.00000
     24      26.6750      0.00000

 k-point    11 :       0.2000    0.2000    0.0000
  band No.  band energies     occupation 
      1     -41.8553      2.00000
      2     -41.8549      2.00000
      3     -41.7221      2.00000
      4     -41.6849      2.00000
      5     -41.6666      2.00000
      6     -41.5025      2.00000
      7       4.6201      2.00000
      8       5.9596      2.00000
      9       5.9732      2.00000
     10       6.0292      2.00000
     11       7.3175      2.00000
     12       7.3515      2.00000
     13       8.2780      2.00000
     14       8.6101      2.00000
     15      10.3206      2.00000
     16      10.4575      2.00000
     17      11.1329      0.00000
     18      15.8698      0.00000
     19      17.8908      0.00000
     20      20.4355      0.00000
     21      21.3542      0.00000
     22      26.2443      0.00000
     23      27.2895      0.00000
     24      27.8413      0.00000

 k-point    12 :       0.3000    0.2000    0.0000
  band No.  band energies     occupation 
      1     -41.9119      2.00000
      2     -41.8851      2.00000
      3     -41.7691      2.00000
      4     -41.7238      2.00000
      5     -41.6261      2.00000
      6     -41.5252      2.00000
      7       5.4020      2.00000
      8       5.6021      2.00000
      9       5.6275      2.00000
     10       6.7353      2.00000
     11       7.2118      2.00000
     12       7.8107      2.00000
     13       7.8496      2.00000
     14       9.3719      2.00000
     15      10.3266      2.00000
     16      10.7436      0.97682
     17      12.7591      0.00000
     18      16.8551      0.00000
     19      17.8072      0.00000
     20      19.4387      0.00000
     21      19.9465      0.00000
     22      24.2699      0.00000
     23      25.4139      0.00000
     24      26.3641      0.00000

 k-point    13 :       0.4000    0.2000    0.0000
  band No.  band energies     occupation 
      1     -41.9329      2.00000
      2     -41.8936      2.00000
      3     -41.7921      2.00000
      4     -41.7390      2.00000
      5     -41.6033      2.00000
      6     -41.5413      2.00000
      7       5.4714      2.00000
      8       5.4807      2.00000
      9       5.5208      2.00000
     10       7.2921      2.00000
     11       7.3438      2.00000
     12       7.4491      2.00000
     13       8.1083      2.00000
     14      10.1040      2.00000
     15      10.2786      2.00000
     16      10.5578      2.00000
     17      14.3437      0.00000
     18      14.8278      0.00000
     19      18.1485      0.00000
     20      19.6811      0.00000
     21      21.1486      0.00000
     22      22.1152      0.00000
     23      24.5556      0.00000
     24      25.9110      0.00000

 k-point    14 :       0.3000    0.3000    0.0000
  band No.  band energies     occupation 
      1     -41.8997      2.00000
      2     -41.8697      2.00000
      3     -41.8265      2.00000
      4     -41.7880      2.00000
      5     -41.5906      2.00000
      6     -41.5518      2.00000
      7       5.5622      2.00000
      8       5.9452      2.00000
      9       6.1960      2.00000
     10       6.6242      2.00000
     11       7.1661      2.00000
     12       7.4253      2.00000
     13       8.1950      2.00000
     14       9.7189      2.00000
     15      10.1195      2.00000
     16      10.4049      2.00000
     17      14.3408      0.00000
     18      15.6076      0.00000
     19      17.0359      0.00000
     20      20.4804      0.00000
     21      22.0491      0.00000
     22      23.2321      0.00000
     23      24.0191      0.00000
     24      24.4462      0.00000

 k-point    15 :       0.0000    0.0000    0.1250
  band No.  band energies     occupation 
      1     -41.7605      2.00000
      2     -41.6238      2.00000
      3     -41.6238      2.00000
      4     -41.5889      2.00000
      5     -41.5889      2.00000
      6     -41.4786      2.00000
      7       1.3888      2.00000
      8       3.8704      2.00000
      9       6.9317      2.00000
     10       7.4241      2.00000
     11       7.4241      2.00000
     12       7.7600      2.00000
     13       7.7600      2.00000
     14       9.1087      2.00000
     15       9.1087      2.00000
     16       9.5248      2.00000
     17      10.5196      2.00000
     18      10.5196      2.00000
     19      16.1865      0.00000
     20      25.4130      0.00000
     21      26.9354      0.00000
     22      27.7098      0.00000
     23      31.0523      0.00000
     24      31.0523      0.00000

 k-point    16 :       0.1000    0.0000    0.1250
  band No.  band energies     occupation 
      1     -41.7510      2.00000
      2     -41.6555      2.00000
      3     -41.6329      2.00000
      4     -41.6234      2.00000
      5     -41.5958      2.00000
      6     -41.4801      2.00000
      7       1.7399      2.00000
      8       4.1960      2.00000
      9       6.9003      2.00000
     10       7.3727      2.00000
     11       7.5567      2.00000
     12       7.6825      2.00000
     13       8.0094      2.00000
     14       8.4249      2.00000
     15       8.9622      2.00000
     16       9.0011      2.00000
     17      10.5691      2.00000
     18      11.7585      0.00000
     19      16.2778      0.00000
     20      25.8834      0.00000
     21      27.3325      0.00000
     22      28.0471      0.00000
     23      29.4106      0.00000
     24      29.9896      0.00000

 k-point    17 :       0.2000    0.0000    0.1250
  band No.  band energies     occupation 
      1     -41.7527      2.00000
      2     -41.7155      2.00000
      3     -41.7082      2.00000
      4     -41.6575      2.00000
      5     -41.6143      2.00000
      6     -41.4860      2.00000
      7       2.6918      2.00000
      8       4.9236      2.00000
      9       6.7061      2.00000
     10       6.8994      2.00000
     11       7.1926      2.00000
     12       7.9504      2.00000
     13       8.3085      2.00000
     14       8.6422      2.00000
     15       8.7114      2.00000
     16       8.8110      2.00000
     17      10.6441      1.99462
     18      13.2426      0.00000
     19      16.7005      0.00000
     20      24.6973      0.00000
     21      27.3349      0.00000
     22      27.8085      0.00000
     23      28.1169      0.00000
     24      29.2415      0.00000

 k-point    18 :       0.3000    0.0000    0.1250
  band No.  band energies     occupation 
      1     -41.8541      2.00000
      2     -41.8188      2.00000
      3     -41.6870      2.00000
      4     -41.6783      2.00000
      5     -41.6379      2.00000
      6     -41.4982      2.00000
      7       3.8236      2.00000
      8       5.0747      2.00000
      9       6.1078      2.00000
     10       6.7730      2.00000
     11       7.3005      2.00000
     12       8.1208      2.00000
     13       8.1697      2.00000
     14       9.2191      2.00000
     15       9.5683      2.00000
     16       9.7225      2.00000
     17      10.6870      1.88404
     18      14.3113      0.00000
     19      17.7021      0.00000
     20      21.1488      0.00000
     21      25.5445      0.00000
     22      25.6459      0.00000
     23      27.1563      0.00000
     24      29.0267      0.00000

 k-point    19 :       0.4000   -0.0000    0.1250
  band No.  band energies     occupation 
      1     -41.9402      2.00000
      2     -41.9034      2.00000
      3     -41.7110      2.00000
      4     -41.6570      2.00000
      5     -41.6389      2.00000
      6     -41.5162      2.00000
      7       4.3766      2.00000
      8       4.7534      2.00000
      9       5.6441      2.00000
     10       6.8218      2.00000
     11       7.8651      2.00000
     12       7.9239      2.00000
     13       8.5976      2.00000
     14      10.5139      2.00000
     15      10.6012      1.99994
     16      10.8543      0.00156
     17      10.8935      0.00002
     18      15.3498      0.00000
     19      17.3136      0.00000
     20      19.3633      0.00000
     21      22.6726      0.00000
     22      23.7152      0.00000
     23      24.9340      0.00000
     24      27.5397      0.00000

 k-point    20 :       0.5000   -0.0000    0.1250
  band No.  band energies     occupation 
      1     -41.9728      2.00000
      2     -41.9359      2.00000
      3     -41.7202      2.00000
      4     -41.6644      2.00000
      5     -41.6191      2.00000
      6     -41.5281      2.00000
      7       4.4586      2.00000
      8       4.5766      2.00000
      9       5.4964      2.00000
     10       6.8844      2.00000
     11       7.8327      2.00000
     12       8.0102      2.00000
     13       9.0379      2.00000
     14      10.5950      1.99997
     15      11.0413      0.00000
     16      11.2097      0.00000
     17      12.7535      0.00000
     18      14.3103      0.00000
     19      17.7681      0.00000
     20      18.4853      0.00000
     21      21.3418      0.00000
     22      22.9707      0.00000
     23      24.0797      0.00000
     24      27.0354      0.00000

 k-point    21 :       0.1000    0.1000    0.1250
  band No.  band energies     occupation 
      1     -41.7392      2.00000
      2     -41.7026      2.00000
      3     -41.6894      2.00000
      4     -41.6460      2.00000
      5     -41.6131      2.00000
      6     -41.4838      2.00000
      7       2.4002      2.00000
      8       4.7691      2.00000
      9       6.6678      2.00000
     10       7.1054      2.00000
     11       7.4541      2.00000
     12       7.6766      2.00000
     13       8.2083      2.00000
     14       8.4229      2.00000
     15       8.7052      2.00000
     16       8.9832      2.00000
     17      10.5783      2.00000
     18      12.8989      0.00000
     19      16.5416      0.00000
     20      26.0444      0.00000
     21      26.6643      0.00000
     22      27.7092      0.00000
     23      28.3673      0.00000
     24      29.7593      0.00000

 k-point    22 :       0.2000    0.1000    0.1250
  band No.  band energies     occupation 
      1     -41.8052      2.00000
      2     -41.7810      2.00000
      3     -41.6923      2.00000
      4     -41.6797      2.00000
      5     -41.6404      2.00000
      6     -41.4931      2.00000
      7       3.5193      2.00000
      8       5.4033      2.00000
      9       6.3500      2.00000
     10       6.5284      2.00000
     11       7.0840      2.00000
     12       7.7212      2.00000
     13       8.4067      2.00000
     14       8.5499      2.00000
     15       9.4008      2.00000
     16       9.6305      2.00000
     17      10.5800      2.00000
     18      14.0389      0.00000
     19      17.3503      0.00000
     20      22.9517      0.00000
     21      24.8136      0.00000
     22      26.8630      0.00000
     23      28.1793      0.00000
     24      29.9647      0.00000

 k-point    23 :       0.3000    0.1000    0.1250
  band No.  band energies     occupation 
      1     -41.8972      2.00000
      2     -41.8664      2.00000
      3     -41.7158      2.00000
      4     -41.6680      2.00000
      5     -41.6514      2.00000
      6     -41.5092      2.00000
      7       4.4681      2.00000
      8       5.1795      2.00000
      9       5.8368      2.00000
     10       6.6783      2.00000
     11       7.5029      2.00000
     12       7.8726      2.00000
     13       8.1055      2.00000
     14       9.3354      2.00000
     15      10.3803      2.00000
     16      10.4363      2.00000
     17      11.1118      0.00000
     18      15.1201      0.00000
     19      18.2628      0.00000
     20      19.7433      0.00000
     21      22.7130      0.00000
     22      24.8688      0.00000
     23      26.1084      0.00000
     24      27.8978      0.00000

 k-point    24 :       0.4000    0.1000    0.1250
  band No.  band energies     occupation 
      1     -41.9547      2.00000
      2     -41.9184      2.00000
      3     -41.7373      2.00000
      4     -41.6839      2.00000
      5     -41.6187      2.00000
      6     -41.5273      2.00000
      7       4.6806      2.00000
      8       4.8872      2.00000
      9       5.6334      2.00000
     10       6.8268      2.00000
     11       7.5841      2.00000
     12       8.1295      2.00000
     13       8.5260      2.00000
     14      10.3986      2.00000
     15      10.5101      2.00000
[...]
      1     -41.8489      2.00000
      2     -41.8489      2.00000
      3     -41.6623      2.00000
      4     -41.6623      2.00000
      5     -41.5760      2.00000
      6     -41.5760      2.00000
      7       4.6058      2.00000
      8       4.6058      2.00000
      9       6.1067      2.00000
     10       6.1067      2.00000
     11       7.9105      2.00000
     12       7.9105      2.00000
     13       8.9232      2.00000
     14       8.9232      2.00000
     15      10.0562      2.00000
     16      10.0562      2.00000
     17      10.6827      1.90924
     18      10.6827      1.90923
     19      21.9331      0.00000
     20      21.9331      0.00000
     21      24.8100      0.00000
     22      24.8100      0.00000
     23      28.5480      0.00000
     24      28.5480      0.00000

 k-point    61 :       0.4000   -0.0000    0.5000
  band No.  band energies     occupation 
      1     -41.9339      2.00000
      2     -41.9339      2.00000
      3     -41.6839      2.00000
      4     -41.6839      2.00000
      5     -41.5650      2.00000
      6     -41.5650      2.00000
      7       4.5146      2.00000
      8       4.5146      2.00000
      9       5.8475      2.00000
     10       5.8475      2.00000
     11       9.0337      2.00000
     12       9.0337      2.00000
     13       9.4073      2.00000
     14       9.4073      2.00000
     15      10.7565      0.69351
     16      10.7565      0.69350
     17      11.4117      0.00000
     18      11.4117      0.00000
     19      18.9472      0.00000
     20      18.9472      0.00000
     21      24.7787      0.00000
     22      24.7787      0.00000
     23      26.8899      0.00000
     24      26.8899      0.00000

 k-point    62 :       0.5000   -0.0000    0.5000
  band No.  band energies     occupation 
      1     -41.9673      2.00000
      2     -41.9673      2.00000
      3     -41.6927      2.00000
      4     -41.6927      2.00000
      5     -41.5614      2.00000
      6     -41.5614      2.00000
      7       4.4280      2.00000
      8       4.4280      2.00000
      9       5.7451      2.00000
     10       5.7451      2.00000
     11       9.0182      2.00000
     12       9.0182      2.00000
     13       9.9560      2.00000
     14       9.9560      2.00000
     15      11.1333      0.00000
     16      11.1333      0.00000
     17      12.4644      0.00000
     18      12.4644      0.00000
     19      17.0422      0.00000
     20      17.0422      0.00000
     21      24.8134      0.00000
     22      24.8134      0.00000
     23      26.1812      0.00000
     24      26.1812      0.00000

 k-point    63 :       0.1000    0.1000    0.5000
  band No.  band energies     occupation 
      1     -41.7131      2.00000
      2     -41.7131      2.00000
      3     -41.6325      2.00000
      4     -41.6325      2.00000
      5     -41.5918      2.00000
      6     -41.5918      2.00000
      7       3.9181      2.00000
      8       3.9181      2.00000
      9       6.5033      2.00000
     10       6.5033      2.00000
     11       7.1540      2.00000
     12       7.1540      2.00000
     13       8.1634      2.00000
     14       8.1634      2.00000
     15       9.8557      2.00000
     16       9.8557      2.00000
     17      10.2716      2.00000
     18      10.2716      2.00000
     19      23.0482      0.00000
     20      23.0482      0.00000
     21      26.9657      0.00000
     22      26.9657      0.00000
     23      27.8321      0.00000
     24      27.8321      0.00000

 k-point    64 :       0.2000    0.1000    0.5000
  band No.  band energies     occupation 
      1     -41.8039      2.00000
      2     -41.8039      2.00000
      3     -41.6635      2.00000
      4     -41.6635      2.00000
      5     -41.5790      2.00000
      6     -41.5790      2.00000
      7       4.6864      2.00000
      8       4.6864      2.00000
      9       6.2808      2.00000
     10       6.2808      2.00000
     11       7.0876      2.00000
     12       7.0876      2.00000
     13       8.7705      2.00000
     14       8.7705      2.00000
     15      10.0374      2.00000
     16      10.0374      2.00000
     17      10.5962      1.99996
     18      10.5962      1.99996
     19      22.9995      0.00000
     20      22.9995      0.00000
     21      25.2356      0.00000
     22      25.2356      0.00000
     23      26.9126      0.00000
     24      26.9126      0.00000

 k-point    65 :       0.3000    0.1000    0.5000
  band No.  band energies     occupation 
      1     -41.8936      2.00000
      2     -41.8936      2.00000
      3     -41.6940      2.00000
      4     -41.6940      2.00000
      5     -41.5664      2.00000
      6     -41.5664      2.00000
      7       4.8175      2.00000
      8       4.8175      2.00000
      9       6.0657      2.00000
     10       6.0657      2.00000
     11       8.0351      2.00000
     12       8.0351      2.00000
     13       8.8853      2.00000
     14       8.8853      2.00000
     15      10.6458      1.99379
     16      10.6458      1.99379
     17      11.4397      0.00000
     18      11.4397      0.00000
     19      20.5660      0.00000
     20      20.5660      0.00000
     21      24.7744      0.00000
     22      24.7744      0.00000
     23      25.8495      0.00000
     24      25.8495      0.00000

 k-point    66 :       0.4000    0.1000    0.5000
  band No.  band energies     occupation 
      1     -41.9483      2.00000
      2     -41.9483      2.00000
      3     -41.7128      2.00000
      4     -41.7128      2.00000
      5     -41.5586      2.00000
      6     -41.5586      2.00000
      7       4.6903      2.00000
      8       4.6903      2.00000
      9       5.8990      2.00000
     10       5.8990      2.00000
     11       8.5099      2.00000
     12       8.5099      2.00000
     13       9.5716      2.00000
     14       9.5716      2.00000
     15      10.7352      1.16401
     16      10.7352      1.16399
     17      13.0922      0.00000
     18      13.0922      0.00000
     19      17.6836      0.00000
     20      17.6836      0.00000
     21      24.5627      0.00000
     22      24.5627      0.00000
     23      25.3045      0.00000
     24      25.3045      0.00000

 k-point    67 :       0.2000    0.2000    0.5000
  band No.  band energies     occupation 
      1     -41.8666      2.00000
      2     -41.8666      2.00000
      3     -41.7103      2.00000
      4     -41.7103      2.00000
      5     -41.5661      2.00000
      6     -41.5661      2.00000
      7       5.1695      2.00000
      8       5.1695      2.00000
      9       6.4192      2.00000
     10       6.4192      2.00000
     11       6.9806      2.00000
     12       6.9806      2.00000
     13       8.6445      2.00000
     14       8.6445      2.00000
     15      10.7376      1.11052
     16      10.7376      1.11050
     17      11.5472      0.00000
     18      11.5472      0.00000
     19      21.7975      0.00000
     20      21.7975      0.00000
     21      23.8738      0.00000
     22      23.8738      0.00000
     23      25.5393      0.00000
     24      25.5393      0.00000

 k-point    68 :       0.3000    0.2000    0.5000
  band No.  band energies     occupation 
      1     -41.9102      2.00000
      2     -41.9102      2.00000
      3     -41.7546      2.00000
      4     -41.7546      2.00000
      5     -41.5561      2.00000
      6     -41.5561      2.00000
      7       5.2576      2.00000
      8       5.2576      2.00000
      9       6.3170      2.00000
     10       6.3170      2.00000
     11       7.5669      2.00000
     12       7.5669      2.00000
     13       8.5895      2.00000
     14       8.5895      2.00000
     15      10.8049      0.07753
     16      10.8049      0.07752
     17      13.5700      0.00000
     18      13.5700      0.00000
     19      19.1312      0.00000
     20      19.1312      0.00000
     21      22.4980      0.00000
     22      22.4980      0.00000
     23      25.9864      0.00000
     24      25.9864      0.00000

 k-point    69 :       0.4000    0.2000    0.5000
  band No.  band energies     occupation 
      1     -41.9253      2.00000
      2     -41.9253      2.00000
      3     -41.7729      2.00000
      4     -41.7729      2.00000
      5     -41.5522      2.00000
      6     -41.5522      2.00000
      7       5.2517      2.00000
      8       5.2517      2.00000
      9       6.2481      2.00000
     10       6.2481      2.00000
     11       7.6558      2.00000
     12       7.6558      2.00000
     13       8.9995      2.00000
     14       8.9995      2.00000
     15      10.6678      1.96553
     16      10.6678      1.96553
     17      15.2512      0.00000
     18      15.2512      0.00000
     19      17.1545      0.00000
     20      17.1545      0.00000
     21      21.9136      0.00000
     22      21.9136      0.00000
     23      26.4028      0.00000
     24      26.4028      0.00000

 k-point    70 :       0.3000    0.3000    0.5000
  band No.  band energies     occupation 
      1     -41.8915      2.00000
      2     -41.8915      2.00000
      3     -41.8208      2.00000
      4     -41.8208      2.00000
      5     -41.5501      2.00000
      6     -41.5501      2.00000
      7       5.6968      2.00000
      8       5.6968      2.00000
      9       6.4981      2.00000
     10       6.4981      2.00000
     11       7.2342      2.00000
     12       7.2342      2.00000
     13       8.4731      2.00000
     14       8.4731      2.00000
     15      10.6521      1.98946
     16      10.6521      1.98946
     17      15.9830      0.00000
     18      15.9830      0.00000
     19      17.9064      0.00000
     20      17.9064      0.00000
     21      20.1074      0.00000
     22      20.1074      0.00000
     23      27.4334      0.00000
     24      27.4334      0.00000


--------------------------------------------------------------------------------------------------------


 soft charge-density along one line, spin component           1
         0         1         2         3         4         5         6         7         8         9
 total charge-density along one line
 
 pseudopotential strength for first ion, spin component:           1
-31.797  -0.000   0.000  10.851   0.000  -0.000  -0.000  -0.000
 -0.000 -31.734  -0.000   0.000  10.788   0.000   0.000   0.000
  0.000  -0.000 -31.797  -0.000   0.000  10.851  -0.000   0.000
 10.851   0.000  -0.000  16.204  -0.000   0.000   0.000   0.000
  0.000  10.788   0.000  -0.000  16.227  -0.000  -0.000  -0.000
 -0.000   0.000  10.851   0.000  -0.000  16.204   0.000  -0.000
 -0.000   0.000  -0.000   0.000  -0.000   0.000  -3.794   0.000
 -0.000   0.000   0.000   0.000  -0.000  -0.000   0.000  -3.751
 -0.000  -0.000   0.000   0.000   0.000  -0.000  -0.000   0.000
  0.000  -0.000   0.000  -0.000   0.000  -0.000  -0.000   0.000
 -0.000   0.000  -0.000   0.000  -0.000   0.000  -0.000   0.000
 -0.000   0.000  -0.000   0.000  -0.000   0.000  -4.033   0.000
 -0.000   0.000   0.000   0.000  -0.000  -0.000   0.000  -3.985
 -0.000  -0.000   0.000   0.000   0.000  -0.000  -0.000   0.000
  0.000  -0.000   0.000  -0.000   0.000  -0.000  -0.000   0.000
 -0.000   0.000  -0.000   0.000  -0.000   0.000  -0.000   0.000
 -0.000   0.000   0.000  -0.000   0.000   0.000  -0.000   0.000
  0.000  -0.000  -0.000   0.000  -0.000  -0.000   0.000  -0.000
 total augmentation occupancy for first ion, spin component:           1
  2.002   0.000  -0.000  -0.021   0.000   0.000   0.000   0.000   0.000   0.000   0.004  -0.000   0.000  -0.000   0.000  -0.004
  0.000   2.002  -0.000   0.000  -0.019   0.000   0.000   0.000   0.000   0.000  -0.000   0.000   0.000   0.000   0.000  -0.000
 -0.000  -0.000   2.002   0.000   0.000  -0.021   0.004   0.000   0.000   0.000   0.000  -0.004   0.000  -0.000   0.000  -0.000
 -0.021  -0.000   0.000   0.047   0.000   0.000   0.000   0.000  -0.000   0.000  -0.024   0.000   0.000   0.000   0.000   0.023
  0.000  -0.019   0.000  -0.000   0.040   0.000   0.000   0.000   0.000  -0.000  -0.000   0.000   0.000   0.000   0.000   0.000
  0.000  -0.000  -0.021   0.000   0.000   0.047  -0.024   0.000  -0.000   0.000  -0.000   0.023   0.000   0.000  -0.000   0.000
  0.000   0.000   0.004  -0.000   0.000  -0.024   4.744   0.000   0.000   0.000   0.000  -2.519  -0.000  -0.000   0.000  -0.000
  0.000   0.000   0.000  -0.000  -0.000   0.000   0.000   4.045   0.000  -0.000  -0.000   0.000  -2.138   0.000  -0.000   0.000
  0.000   0.000   0.000  -0.000   0.000  -0.000   0.000   0.000   4.798  -0.000   0.000  -0.000   0.000  -2.569   0.000  -0.000
  0.000   0.000   0.000   0.000  -0.000  -0.000   0.000  -0.000   0.000   4.045   0.000   0.000  -0.000   0.000  -2.138   0.000
  0.004   0.000   0.000  -0.024  -0.000  -0.000   0.000   0.000   0.000  -0.000   4.744  -0.000  -0.000  -0.000   0.000  -2.519
 -0.000   0.000  -0.004   0.000   0.000   0.023  -2.519   0.000  -0.000  -0.000  -0.000   2.023  -0.000   0.000   0.000   0.000
  0.000  -0.000   0.000   0.000  -0.000   0.000   0.000  -2.138   0.000   0.000  -0.000   0.000   2.070  -0.000  -0.000   0.000
 -0.000   0.000  -0.000   0.000   0.000   0.000  -0.000   0.000  -2.569   0.000  -0.000   0.000   0.000   2.057   0.000   0.000
  0.000   0.000   0.000   0.000   0.000  -0.000   0.000  -0.000   0.000  -2.138   0.000   0.000  -0.000   0.000   2.070  -0.000
 -0.004   0.000  -0.000   0.023   0.000   0.000  -0.000   0.000  -0.000   0.000  -2.519   0.000   0.000   0.000   0.000   2.023
  0.000   0.000  -0.000   0.000   0.000   0.000  -0.000   0.000  -0.203   0.000   0.000   0.000  -0.000   0.187   0.000  -0.000
 -0.000   0.000  -0.000   0.000   0.000   0.000  -0.000   0.000   0.004  -0.000   0.000   0.000   0.000   0.001   0.000  -0.000


------------------------ aborting loop because EDIFF is reached ----------------------------------------





 total charge

# of ion       s       p       d       tot
------------------------------------------
    1        0.331   6.070   7.061  13.462
    2        0.331   6.070   7.061  13.462
--------------------------------------------------
tot          0.662  12.141  14.122  26.925
 
    CHARGE:  cpu time      0.0221: real time      0.0222
    FORLOC:  cpu time      0.0003: real time      0.0003
    FORNL :  cpu time      0.0166: real time      0.0167
    STRESS:  cpu time      0.1837: real time      0.1845
    FORCOR:  cpu time      0.0030: real time      0.0030
    FORHAR:  cpu time      0.0006: real time      0.0006
    MIXING:  cpu time      0.0002: real time      0.0002
    OFIELD:  cpu time      0.0000: real time      0.0000

  FORCE on cell =-STRESS in cart. coord.  units (eV):
  Direction    XX          YY          ZZ          XY          YZ          ZX
  --------------------------------------------------------------------------------------
  Alpha Z   297.56395   297.56395   297.56395
  Ewald   -1366.24160 -1366.24160 -1479.52780     0.00000     0.00000     0.00000
  Hartree   281.58119   281.58119   230.97340    -0.00000    -0.00000    -0.00000
  E(xc)    -170.59939  -170.59939  -170.83152    -0.00000    -0.00000    -0.00000
  Local     177.79520   177.79519   329.84177    -0.00001    -0.00000    -0.00000
  n-local   -59.97926   -62.30730   -63.19554   -12.98446     3.55113     3.33319
  augment   145.57871   145.57872   149.05632     0.00001    -0.00000    -0.00000
  Kinetic   697.04850   690.92423   704.81780   -16.42509     3.52826     1.03722
  Fock        0.00000     0.00000     0.00000     0.00000     0.00000     0.00000
  -------------------------------------------------------------------------------------
  Total      -1.47886    -1.47886    -1.30162     0.00000    -0.00000    -0.00000
  in kB     -73.46322   -73.46322   -64.65863     0.00000    -0.00000    -0.00000
  external pressure =      -70.53 kB  Pullay stress =        0.00 kB


 VOLUME and BASIS-vectors are now :
 -----------------------------------------------------------------------------
  energy-cutoff  :      450.00
  volume of cell :       32.25
      direct lattice vectors                 reciprocal lattice vectors
     2.780501843  0.000000000  0.000000000     0.359647307  0.207642470  0.000000000
    -1.390250922  2.407985231  0.000000000     0.000000000  0.415284939  0.000000000
     0.000000000  0.000000000  4.817154644     0.000000000  0.000000000  0.207591426

  length of vectors
     2.780501843  2.780501843  4.817154644     0.415284939  0.415284939  0.207591426


 FORCES acting on ions
    electron-ion (+dipol)            ewald-force                    non-local-force                 convergence-correction
 -----------------------------------------------------------------------------------------------
   0.255E-06 -.147E-06 -.740E-13   0.181E-11 -.106E-11 -.671E-13   0.416E-16 0.000E+00 0.000E+00   -.720E-08 0.416E-08 0.523E-13
   -.173E-06 0.996E-07 -.298E-11   -.182E-11 0.104E-11 0.671E-13   -.382E-16 0.000E+00 0.000E+00   0.720E-08 -.416E-08 0.290E-13
 -----------------------------------------------------------------------------------------------
   0.825E-07 -.476E-07 -.305E-11   -.956E-14 -.138E-13 0.000E+00   0.347E-17 0.000E+00 0.000E+00   0.200E-11 -.105E-11 0.813E-13
 
 
 POSITION                                       TOTAL-FORCE (eV/Angst)
 -----------------------------------------------------------------------------------
      0.00000      0.00000      0.00000        -0.000000      0.000000      0.000000
      0.00000      1.60532      2.40858         0.000000     -0.000000      0.000000
 -----------------------------------------------------------------------------------
    total drift:                                0.000000     -0.000000     -0.000000


--------------------------------------------------------------------------------------------------------



  FREE ENERGIE OF THE ION-ELECTRON SYSTEM (eV)
  ---------------------------------------------------
  free  energy   TOTEN  =       -12.02830961 eV

  energy  without entropy=      -12.02334520  energy(sigma->0) =      -12.02582741
 


--------------------------------------------------------------------------------------------------------


    POTLOK:  cpu time      0.0055: real time      0.0055


--------------------------------------------------------------------------------------------------------




--------------------------------------------------------------------------------------------------------


  
 reached required accuracy - stopping structural energy minimisation
 writing wavefunctions
     LOOP+:  cpu time      5.2904: real time      5.3768
    4ORBIT:  cpu time      0.0000: real time      0.0000



 total charge

# of ion       s       p       d       tot
------------------------------------------
    1        0.331   6.070   7.061  13.462
    2        0.331   6.070   7.061  13.462
--------------------------------------------------
tot          0.662  12.141  14.122  26.925
 

 total amount of memory used by VASP MPI-rank0    39559. kBytes
=======================================================================

   base      :      30000. kBytes
   nonl-proj :       7523. kBytes
   fftplans  :        254. kBytes
   grid      :        864. kBytes
   one-center:         31. kBytes
   wavefun   :        887. kBytes
 
  
  
 General timing and accounting informations for this job:
 ========================================================
  
                  Total CPU time used (sec):        6.217
                            User time (sec):        5.696
                          System time (sec):        0.520
                         Elapsed time (sec):        7.654
  
                   Maximum memory used (kb):      237608.
                   Average memory used (kb):          N/A
  
                          Minor page faults:        29706
                          Major page faults:           57
                 Voluntary context switches:         2722
