PROCAR lm decomposed
# of k-points:   70         # of bands:   24         # of ions:    2

 k-point     1 :    0.00000000 0.00000000 0.00000000     weight = 0.00125000

band     1 # energy  -41.77243246 # occ.  2.00000000
 
ion      s     py     pz     px    dxy    dyz    dz2    dxz  x2-y2    tot
    1  0.000  0.000  0.492  0.000  0.000  0.000  0.000  0.000  0.000  0.492
    2  0.000  0.000  0.492  0.000  0.000  0.000  0.000  0.000  0.000  0.492
tot    0.000  0.000  0.984  0.000  0.000  0.000  0.000  0.000  0.000  0.984
 
band     2 # energy  -41.62520661 # occ.  2.00000000
 
ion      s     py     pz     px    dxy    dyz    dz2    dxz  x2-y2    tot
    1  0.000  0.124  0.000  0.373  0.000  0.000  0.000  0.000  0.000  0.498
    2  0.000  0.124  0.000  0.373  0.000  0.000  0.000  0.000  0.000  0.498
tot    0.000  0.249  0.000  0.746  0.000  0.000  0.000  0.000  0.000  0.995
 
band     3 # energy  -41.62520563 # occ.  2.00000000
 
ion      s     py     pz     px    dxy    dyz    dz2    dxz  x2-y2    tot
    1  0.000  0.373  0.000  0.124  0.000  0.000  0.000  0.000  0.000  0.498
    2  0.000  0.373  0.000  0.124  0.000  0.000  0.000  0.000  0.000  0.498
tot    0.000  0.746  0.000  0.249  0.000  0.000  0.000  0.000  0.000  0.995
 
band     4 # energy  -41.58750449 # occ.  2.00000000
 
ion      s     py     pz     px    dxy    dyz    dz2    dxz  x2-y2    tot
    1  0.000  0.125  0.000  0.374  0.000  0.000  0.000  0.000  0.000  0.498
    2  0.000  0.125  0.000  0.374  0.000  0.000  0.000  0.000  0.000  0.498
tot    0.000  0.249  0.000  0.747  0.000  0.000  0.000  0.000  0.000  0.996
 
band     5 # energy  -41.58750351 # occ.  2.00000000
 
ion      s     py     pz     px    dxy    dyz    dz2    dxz  x2-y2    tot
    1  0.000  0.374  0.000  0.125  0.000  0.000  0.000  0.000  0.000  0.498
    2  0.000  0.374  0.000  0.125  0.000  0.000  0.000  0.000  0.000  0.498
tot    0.000  0.747  0.000  0.249  0.000  0.000  0.000  0.000  0.000  0.996
 
band     6 # energy  -41.46707844 # occ.  2.00000000
 
ion      s     py     pz     px    dxy    dyz    dz2    dxz  x2-y2    tot
    1  0.000  0.000  0.497  0.000  0.000  0.000  0.000  0.000  0.000  0.497
    2  0.000  0.000  0.497  0.000  0.000  0.000  0.000  0.000  0.000  0.497
tot    0.000  0.000  0.995  0.000  0.000  0.000  0.000  0.000  0.000  0.995
 
band     7 # energy    1.25741783 # occ.  2.00000000
 
ion      s     py     pz     px    dxy    dyz    dz2    dxz  x2-y2    tot
    1  0.189  0.000  0.000  0.000  0.000  0.000  0.000  0.000  0.000  0.190
    2  0.189  0.000  0.000  0.000  0.000  0.000  0.000  0.000  0.000  0.190
tot    0.379  0.000  0.000  0.000  0.000  0.000  0.001  0.000  0.000  0.379
 
band     8 # energy    3.89095365 # occ.  2.00000000
 
ion      s     py     pz     px    dxy    dyz    dz2    dxz  x2-y2    tot
    1  0.080  0.000  0.000  0.000  0.000  0.000  0.230  0.000  0.000  0.310
    2  0.080  0.000  0.000  0.000  0.000  0.000  0.230  0.000  0.000  0.310
tot    0.160  0.000  0.000  0.000  0.000  0.000  0.460  0.000  0.000  0.620
 
band     9 # energy    6.96371314 # occ.  2.00000000
 
ion      s     py     pz     px    dxy    dyz    dz2    dxz  x2-y2    tot
    1  0.000  0.000  0.000  0.000  0.000  0.000  0.412  0.000  0.000  0.412
    2  0.000  0.000  0.000  0.000  0.000  0.000  0.412  0.000  0.000  0.412
tot    0.000  0.000  0.000  0.000  0.000  0.000  0.824  0.000  0.000  0.824
 
band    10 # energy    7.44314125 # occ.  2.00000000
 
ion      s     py     pz     px    dxy    dyz    dz2    dxz  x2-y2    tot
    1  0.000  0.000  0.000  0.000  0.105  0.000  0.000  0.000  0.316  0.421
    2  0.000  0.000  0.000  0.000  0.105  0.000  0.000  0.000  0.316  0.421
tot    0.000  0.000  0.000  0.000  0.210  0.000  0.000  0.000  0.631  0.842
 
band    11 # energy    7.44314196 # occ.  2.00000000
 
ion      s     py     pz     px    dxy    dyz    dz2    dxz  x2-y2    tot
    1  0.000  0.000  0.000  0.000  0.316  0.000  0.000  0.000  0.105  0.421
    2  0.000  0.000  0.000  0.000  0.316  0.000  0.000  0.000  0.105  0.421
tot    0.000  0.000  0.000  0.000  0.631  0.000  0.000  0.000  0.210  0.842
 
band    12 # energy    7.79740243 # occ.  2.00000000
 
ion      s     py     pz     px    dxy    dyz    dz2    dxz  x2-y2    tot
    1  0.000  0.000  0.000  0.000  0.108  0.000  0.000  0.000  0.323  0.431
    2  0.000  0.000  0.000  0.000  0.108  0.000  0.000  0.000  0.323  0.431
tot    0.000  0.000  0.000  0.000  0.215  0.000  0.000  0.000  0.646  0.861
 
band    13 # energy    7.79740317 # occ.  2.00000000
 
ion      s     py     pz     px    dxy    dyz    dz2    dxz  x2-y2    tot
    1  0.000  0.000  0.000  0.000  0.323  0.000  0.000  0.000  0.108  0.431
    2  0.000  0.000  0.000  0.000  0.323  0.000  0.000  0.000  0.108  0.431
tot    0.000  0.000  0.000  0.000  0.646  0.000  0.000  0.000  0.215  0.861
 
band    14 # energy    9.01370063 # occ.  2.00000000
 
ion      s     py     pz     px    dxy    dyz    dz2    dxz  x2-y2    tot
    1  0.000  0.000  0.000  0.000  0.000  0.111  0.000  0.332  0.000  0.443
    2  0.000  0.000  0.000  0.000  0.000  0.111  0.000  0.332  0.000  0.443
tot    0.000  0.000  0.000  0.000  0.000  0.222  0.000  0.665  0.000  0.886
 
band    15 # energy    9.01370087 # occ.  2.00000000
 
ion      s     py     pz     px    dxy    dyz    dz2    dxz  x2-y2    tot
    1  0.000  0.000  0.000  0.000  0.000  0.332  0.000  0.111  0.000  0.443
    2  0.000  0.000  0.000  0.000  0.000  0.332  0.000  0.111  0.000  0.443
tot    0.000  0.000  0.000  0.000  0.000  0.665  0.000  0.222  0.000  0.886
 
band    16 # energy   10.14302667 # occ.  2.00000000
 
ion      s     py     pz     px    dxy    dyz    dz2    dxz  x2-y2    tot
    1  0.000  0.000  0.083  0.000  0.000  0.000  0.000  0.000  0.000  0.083
    2  0.000  0.000  0.083  0.000  0.000  0.000  0.000  0.000  0.000  0.083
tot    0.000  0.000  0.165  0.000  0.000  0.000  0.000  0.000  0.000  0.165
 
band    17 # energy   10.54618731 # occ.  1.99999997
 
ion      s     py     pz     px    dxy    dyz    dz2    dxz  x2-y2    tot
    1  0.000  0.000  0.000  0.000  0.000  0.116  0.000  0.348  0.000  0.464
    2  0.000  0.000  0.000  0.000  0.000  0.116  0.000  0.348  0.000  0.464
tot    0.000  0.000  0.000  0.000  0.000  0.232  0.000  0.696  0.000  0.929
 
band    18 # energy   10.54618758 # occ.  1.99999997
 
ion      s     py     pz     px    dxy    dyz    dz2    dxz  x2-y2    tot
    1  0.000  0.000  0.000  0.000  0.000  0.348  0.000  0.116  0.000  0.464
    2  0.000  0.000  0.000  0.000  0.000  0.348  0.000  0.116  0.000  0.464
tot    0.000  0.000  0.000  0.000  0.000  0.696  0.000  0.232  0.000  0.929
 
band    19 # energy   15.31792133 # occ.  0.00000000
 
ion      s     py     pz     px    dxy    dyz    dz2    dxz  x2-y2    tot
    1  0.175  0.000  0.000  0.000  0.000  0.000  0.226  0.000  0.000  0.401
    2  0.175  0.000  0.000  0.000  0.000  0.000  0.226  0.000  0.000  0.401
tot    0.350  0.000  0.000  0.000  0.000  0.000  0.452  0.000  0.000  0.802
 
band    20 # energy   25.86522063 # occ.  0.00000000
 
ion      s     py     pz     px    dxy    dyz    dz2    dxz  x2-y2    tot
    1  0.003  0.000  0.000  0.000  0.000  0.000  0.002  0.000  0.000  0.005
    2  0.003  0.000  0.000  0.000  0.000  0.000  0.002  0.000  0.000  0.005
tot    0.006  0.000  0.000  0.000  0.000  0.000  0.004  0.000  0.000  0.011
 
band    21 # energy   26.45305964 # occ.  0.00000000
 
ion      s     py     pz     px    dxy    dyz    dz2    dxz  x2-y2    tot
    1  0.000  0.000  0.021  0.000  0.000  0.000  0.000  0.000  0.000  0.021
    2  0.000  0.000  0.021  0.000  0.000  0.000  0.000  0.000  0.000  0.021
tot    0.000  0.000  0.042  0.000  0.000  0.000  0.000  0.000  0.000  0.042
 
band    22 # energy   27.99017059 # occ.  0.00000000
 
ion      s     py     pz     px    dxy    dyz    dz2    dxz  x2-y2    tot
    1  0.000  0.000  0.000  0.000  0.000  0.000  0.016  0.000  0.000  0.017
    2  0.000  0.000  0.000  0.000  0.000  0.000  0.016  0.000  0.000  0.017
tot    0.001  0.000  0.000  0.000  0.000  0.000  0.033  0.000  0.000  0.034
 
band    23 # energy   31.54008003 # occ.  0.00000000
 
ion      s     py     pz     px    dxy    dyz    dz2    dxz  x2-y2    tot
    1  0.000  0.033  0.000  0.093  0.015  0.000  0.000  0.000  0.005  0.146
    2  0.000  0.033  0.000  0.093  0.015  0.000  0.000  0.000  0.005  0.146
tot    0.000  0.066  0.000  0.185  0.030  0.000  0.000  0.000  0.011  0.292
 
band    24 # energy   31.54008027 # occ.  0.00000000
 
ion      s     py     pz     px    dxy    dyz    dz2    dxz  x2-y2    tot
    1  0.000  0.093  0.000  0.033  0.005  0.000  0.000  0.000  0.015  0.146
    2  0.000  0.093  0.000  0.033  0.005  0.000  0.000  0.000  0.015  0.146
tot    0.000  0.185  0.000  0.066  0.011  0.000  0.000  0.000  0.030  0.292
 

 k-point     2 :    0.10000000 0.00000000 0.00000000     weight = 0.00750000

band     1 # energy  -41.76139034 # occ.  2.00000000
 
ion      s     py     pz     px    dxy    dyz    dz2    dxz  x2-y2    tot
    1  0.000  0.000  0.492  0.000  0.000  0.000  0.000  0.000  0.000  0.492
    2  0.000  0.000  0.492  0.000  0.000  0.000  0.000  0.000  0.000  0.492
tot    0.000  0.000  0.984  0.000  0.000  0.000  0.000  0.000  0.000  0.984
 
band     2 # energy  -41.65770604 # occ.  2.00000000
 
ion      s     py     pz     px    dxy    dyz    dz2    dxz  x2-y2    tot
    1  0.000  0.124  0.000  0.373  0.000  0.000  0.000  0.000  0.000  0.497
    2  0.000  0.124  0.000  0.373  0.000  0.000  0.000  0.000  0.000  0.497
tot    0.000  0.249  0.000  0.746  0.000  0.000  0.000  0.000  0.000  0.994
 
band     3 # energy  -41.63442535 # occ.  2.00000000
 
ion      s     py     pz     px    dxy    dyz    dz2    dxz  x2-y2    tot
    1  0.000  0.373  0.000  0.124  0.000  0.000  0.000  0.000  0.000  0.497
    2  0.000  0.373  0.000  0.124  0.000  0.000  0.000  0.000  0.000  0.497
tot    0.000  0.746  0.000  0.249  0.000  0.000  0.000  0.000  0.000  0.995
 
band     4 # energy  -41.62114072 # occ.  2.00000000
 
ion      s     py     pz     px    dxy    dyz    dz2    dxz  x2-y2    tot
    1  0.000  0.124  0.000  0.373  0.000  0.000  0.000  0.000  0.000  0.498
    2  0.000  0.124  0.000  0.373  0.000  0.000  0.000  0.000  0.000  0.498
tot    0.000  0.249  0.000  0.746  0.000  0.000  0.000  0.000  0.000  0.995
 
band     5 # energy  -41.59410038 # occ.  2.00000000
 
ion      s     py     pz     px    dxy    dyz    dz2    dxz  x2-y2    tot
    1  0.000  0.374  0.000  0.125  0.000  0.000  0.000  0.000  0.000  0.498
    2  0.000  0.374  0.000  0.125  0.000  0.000  0.000  0.000  0.000  0.498
tot    0.000  0.747  0.000  0.249  0.000  0.000  0.000  0.000  0.000  0.996
 
band     6 # energy  -41.46946605 # occ.  2.00000000
 
ion      s     py     pz     px    dxy    dyz    dz2    dxz  x2-y2    tot
    1  0.000  0.000  0.497  0.000  0.000  0.000  0.000  0.000  0.000  0.497
    2  0.000  0.000  0.497  0.000  0.000  0.000  0.000  0.000  0.000  0.497
tot    0.000  0.000  0.995  0.000  0.000  0.000  0.000  0.000  0.000  0.995
 
band     7 # energy    1.61106996 # occ.  2.00000000
 
ion      s     py     pz     px    dxy    dyz    dz2    dxz  x2-y2    tot
    1  0.186  0.001  0.000  0.002  0.000  0.000  0.000  0.000  0.000  0.188
    2  0.186  0.001  0.000  0.002  0.000  0.000  0.000  0.000  0.000  0.188
tot    0.371  0.001  0.000  0.003  0.001  0.000  0.000  0.000  0.000  0.377
 
band     8 # energy    4.21023945 # occ.  2.00000000
 
ion      s     py     pz     px    dxy    dyz    dz2    dxz  x2-y2    tot
    1  0.073  0.001  0.000  0.002  0.002  0.000  0.234  0.000  0.001  0.312
    2  0.073  0.001  0.000  0.002  0.002  0.000  0.234  0.000  0.001  0.312
tot    0.146  0.001  0.000  0.003  0.003  0.000  0.469  0.000  0.001  0.624
 
band     9 # energy    6.89705069 # occ.  2.00000000
 
ion      s     py     pz     px    dxy    dyz    dz2    dxz  x2-y2    tot
    1  0.000  0.000  0.000  0.000  0.116  0.000  0.252  0.000  0.039  0.408
    2  0.000  0.000  0.000  0.000  0.116  0.000  0.252  0.000  0.039  0.408
tot    0.000  0.000  0.000  0.001  0.232  0.000  0.504  0.000  0.077  0.815
 
band    10 # energy    7.45633446 # occ.  2.00000000
 
ion      s     py     pz     px    dxy    dyz    dz2    dxz  x2-y2    tot
    1  0.000  0.000  0.000  0.000  0.211  0.000  0.137  0.000  0.070  0.418
    2  0.000  0.000  0.000  0.000  0.211  0.000  0.137  0.000  0.070  0.418
tot    0.000  0.000  0.000  0.001  0.421  0.000  0.274  0.000  0.140  0.837
 
band    11 # energy    7.65566049 # occ.  2.00000000
 
ion      s     py     pz     px    dxy    dyz    dz2    dxz  x2-y2    tot
    1  0.002  0.000  0.000  0.000  0.297  0.000  0.025  0.000  0.099  0.424
    2  0.002  0.000  0.000  0.000  0.297  0.000  0.025  0.000  0.099  0.424
tot    0.003  0.000  0.000  0.001  0.595  0.000  0.050  0.000  0.198  0.847
 
band    12 # energy    7.71054396 # occ.  2.00000000
 
ion      s     py     pz     px    dxy    dyz    dz2    dxz  x2-y2    tot
    1  0.000  0.000  0.000  0.000  0.106  0.000  0.000  0.000  0.317  0.423
    2  0.000  0.000  0.000  0.000  0.106  0.000  0.000  0.000  0.317  0.423
tot    0.000  0.001  0.000  0.000  0.211  0.000  0.000  0.000  0.634  0.846
 
band    13 # energy    8.05115421 # occ.  2.00000000
 
ion      s     py     pz     px    dxy    dyz    dz2    dxz  x2-y2    tot
    1  0.000  0.000  0.000  0.000  0.108  0.000  0.000  0.000  0.324  0.432
    2  0.000  0.000  0.000  0.000  0.108  0.000  0.000  0.000  0.324  0.432
tot    0.000  0.001  0.000  0.000  0.216  0.000  0.000  0.000  0.648  0.865
 
band    14 # energy    8.46925380 # occ.  2.00000000
 
ion      s     py     pz     px    dxy    dyz    dz2    dxz  x2-y2    tot
    1  0.000  0.000  0.018  0.000  0.000  0.082  0.000  0.246  0.000  0.346
    2  0.000  0.000  0.018  0.000  0.000  0.082  0.000  0.246  0.000  0.346
tot    0.000  0.000  0.035  0.000  0.000  0.164  0.000  0.492  0.000  0.692
 
band    15 # energy    8.85021449 # occ.  2.00000000
 
ion      s     py     pz     px    dxy    dyz    dz2    dxz  x2-y2    tot
    1  0.000  0.000  0.000  0.000  0.000  0.329  0.000  0.110  0.000  0.439
    2  0.000  0.000  0.000  0.000  0.000  0.329  0.000  0.110  0.000  0.439
tot    0.000  0.000  0.000  0.000  0.000  0.658  0.000  0.219  0.000  0.877
 
band    16 # energy    9.01041988 # occ.  2.00000000
 
ion      s     py     pz     px    dxy    dyz    dz2    dxz  x2-y2    tot
    1  0.000  0.000  0.019  0.000  0.000  0.084  0.000  0.251  0.000  0.354
    2  0.000  0.000  0.019  0.000  0.000  0.084  0.000  0.251  0.000  0.354
tot    0.000  0.000  0.038  0.000  0.000  0.167  0.000  0.502  0.000  0.708
 
band    17 # energy   10.60611554 # occ.  1.99988583
 
ion      s     py     pz     px    dxy    dyz    dz2    dxz  x2-y2    tot
    1  0.000  0.000  0.000  0.000  0.000  0.350  0.000  0.117  0.000  0.467
    2  0.000  0.000  0.000  0.000  0.000  0.350  0.000  0.117  0.000  0.467
tot    0.000  0.000  0.000  0.000  0.000  0.700  0.000  0.233  0.000  0.934
 
band    18 # energy   12.30327312 # occ.  0.00000000
 
ion      s     py     pz     px    dxy    dyz    dz2    dxz  x2-y2    tot
    1  0.000  0.000  0.046  0.000  0.000  0.059  0.000  0.178  0.000  0.284
    2  0.000  0.000  0.046  0.000  0.000  0.059  0.000  0.178  0.000  0.284
tot    0.000  0.000  0.093  0.000  0.000  0.119  0.000  0.356  0.000  0.567
 
band    19 # energy   15.28493013 # occ.  0.00000000
 
ion      s     py     pz     px    dxy    dyz    dz2    dxz  x2-y2    tot
    1  0.176  0.000  0.000  0.001  0.001  0.000  0.218  0.000  0.000  0.396
    2  0.176  0.000  0.000  0.001  0.001  0.000  0.218  0.000  0.000  0.396
tot    0.352  0.000  0.000  0.001  0.003  0.000  0.435  0.000  0.001  0.792
 
band    20 # energy   26.25767179 # occ.  0.00000000
 
ion      s     py     pz     px    dxy    dyz    dz2    dxz  x2-y2    tot
    1  0.005  0.001  0.000  0.003  0.018  0.000  0.003  0.000  0.006  0.036
    2  0.005  0.001  0.000  0.003  0.018  0.000  0.003  0.000  0.006  0.036
tot    0.010  0.002  0.000  0.007  0.036  0.000  0.006  0.000  0.012  0.073
 
band    21 # energy   26.96766862 # occ.  0.00000000
 
ion      s     py     pz     px    dxy    dyz    dz2    dxz  x2-y2    tot
    1  0.000  0.000  0.018  0.000  0.000  0.002  0.000  0.005  0.000  0.025
    2  0.000  0.000  0.018  0.000  0.000  0.002  0.000  0.005  0.000  0.025
tot    0.000  0.000  0.037  0.000  0.000  0.004  0.000  0.011  0.000  0.051
 
band    22 # energy   28.24889579 # occ.  0.00000000
 
ion      s     py     pz     px    dxy    dyz    dz2    dxz  x2-y2    tot
    1  0.003  0.005  0.000  0.015  0.017  0.000  0.023  0.000  0.006  0.070
    2  0.003  0.005  0.000  0.015  0.017  0.000  0.023  0.000  0.006  0.070
tot    0.007  0.010  0.000  0.030  0.035  0.000  0.047  0.000  0.012  0.139
 
band    23 # energy   29.98673803 # occ.  0.00000000
 
ion      s     py     pz     px    dxy    dyz    dz2    dxz  x2-y2    tot
    1  0.006  0.022  0.000  0.066  0.009  0.000  0.001  0.000  0.003  0.107
    2  0.006  0.022  0.000  0.066  0.009  0.000  0.001  0.000  0.003  0.107
tot    0.012  0.044  0.000  0.131  0.018  0.000  0.002  0.000  0.006  0.213
 
band    24 # energy   30.04905086 # occ.  0.00000000
 
ion      s     py     pz     px    dxy    dyz    dz2    dxz  x2-y2    tot
    1  0.000  0.085  0.000  0.028  0.009  0.000  0.000  0.000  0.028  0.150
    2  0.000  0.085  0.000  0.028  0.009  0.000  0.000  0.000  0.028  0.150
tot    0.000  0.169  0.000  0.056  0.018  0.000  0.000  0.000  0.055  0.299
 

 k-point     3 :    0.20000000 0.00000000 0.00000000     weight = 0.00750000

band     1 # energy  -41.74472111 # occ.  2.00000000
 
ion      s     py     pz     px    dxy    dyz    dz2    dxz  x2-y2    tot
    1  0.000  0.124  0.000  0.372  0.000  0.000  0.000  0.000  0.000  0.496
    2  0.000  0.124  0.000  0.372  0.000  0.000  0.000  0.000  0.000  0.496
tot    0.000  0.248  0.000  0.743  0.000  0.000  0.000  0.000  0.000  0.991
 
band     2 # energy  -41.73139221 # occ.  2.00000000
 
ion      s     py     pz     px    dxy    dyz    dz2    dxz  x2-y2    tot
    1  0.000  0.000  0.493  0.000  0.000  0.000  0.000  0.000  0.000  0.493
    2  0.000  0.000  0.493  0.000  0.000  0.000  0.000  0.000  0.000  0.493
tot    0.000  0.000  0.985  0.000  0.000  0.000  0.000  0.000  0.000  0.985
 
band     3 # energy  -41.70909085 # occ.  2.00000000
 
ion      s     py     pz     px    dxy    dyz    dz2    dxz  x2-y2    tot
    1  0.000  0.124  0.000  0.372  0.000  0.000  0.000  0.000  0.000  0.496
    2  0.000  0.124  0.000  0.372  0.000  0.000  0.000  0.000  0.000  0.496
tot    0.000  0.248  0.000  0.744  0.000  0.000  0.000  0.000  0.000  0.992
 
band     4 # energy  -41.65908351 # occ.  2.00000000
 
ion      s     py     pz     px    dxy    dyz    dz2    dxz  x2-y2    tot
    1  0.000  0.373  0.000  0.124  0.000  0.000  0.000  0.000  0.000  0.497
    2  0.000  0.373  0.000  0.124  0.000  0.000  0.000  0.000  0.000  0.497
tot    0.000  0.746  0.000  0.249  0.000  0.000  0.000  0.000  0.000  0.994
 
band     5 # energy  -41.61229674 # occ.  2.00000000
 
ion      s     py     pz     px    dxy    dyz    dz2    dxz  x2-y2    tot
    1  0.000  0.373  0.000  0.124  0.000  0.000  0.000  0.000  0.000  0.498
    2  0.000  0.373  0.000  0.124  0.000  0.000  0.000  0.000  0.000  0.498
tot    0.000  0.747  0.000  0.249  0.000  0.000  0.000  0.000  0.000  0.996
 
band     6 # energy  -41.47766831 # occ.  2.00000000
 
ion      s     py     pz     px    dxy    dyz    dz2    dxz  x2-y2    tot
    1  0.000  0.000  0.497  0.000  0.000  0.000  0.000  0.000  0.000  0.497
    2  0.000  0.000  0.497  0.000  0.000  0.000  0.000  0.000  0.000  0.497
tot    0.000  0.000  0.995  0.000  0.000  0.000  0.000  0.000  0.000  0.995
 
band     7 # energy    2.57754403 # occ.  2.00000000
 
ion      s     py     pz     px    dxy    dyz    dz2    dxz  x2-y2    tot
    1  0.172  0.002  0.000  0.006  0.006  0.000  0.001  0.000  0.002  0.188
    2  0.172  0.002  0.000  0.006  0.006  0.000  0.001  0.000  0.002  0.188
tot    0.344  0.004  0.000  0.012  0.012  0.000  0.001  0.000  0.004  0.377
 
band     8 # energy    4.91534558 # occ.  2.00000000
 
ion      s     py     pz     px    dxy    dyz    dz2    dxz  x2-y2    tot
    1  0.050  0.001  0.000  0.004  0.038  0.000  0.221  0.000  0.013  0.326
    2  0.050  0.001  0.000  0.004  0.038  0.000  0.221  0.000  0.013  0.326
tot    0.099  0.002  0.000  0.007  0.077  0.000  0.441  0.000  0.026  0.653
 
band     9 # energy    6.67530014 # occ.  2.00000000
 
ion      s     py     pz     px    dxy    dyz    dz2    dxz  x2-y2    tot
    1  0.003  0.001  0.000  0.003  0.187  0.000  0.127  0.000  0.062  0.383
    2  0.003  0.001  0.000  0.003  0.187  0.000  0.127  0.000  0.062  0.383
tot    0.006  0.002  0.000  0.006  0.373  0.000  0.255  0.000  0.124  0.767
 
band    10 # energy    7.15114640 # occ.  2.00000000
 
ion      s     py     pz     px    dxy    dyz    dz2    dxz  x2-y2    tot
    1  0.000  0.000  0.017  0.000  0.000  0.076  0.000  0.227  0.000  0.320
    2  0.000  0.000  0.017  0.000  0.000  0.076  0.000  0.227  0.000  0.320
tot    0.000  0.000  0.034  0.000  0.000  0.151  0.000  0.454  0.000  0.640
 
band    11 # energy    7.18395062 # occ.  2.00000000
 
ion      s     py     pz     px    dxy    dyz    dz2    dxz  x2-y2    tot
    1  0.005  0.000  0.000  0.001  0.257  0.000  0.055  0.000  0.086  0.405
    2  0.005  0.000  0.000  0.001  0.257  0.000  0.055  0.000  0.086  0.405
tot    0.010  0.001  0.000  0.002  0.514  0.000  0.110  0.000  0.171  0.810
 
band    12 # energy    8.05800304 # occ.  2.00000000
 
ion      s     py     pz     px    dxy    dyz    dz2    dxz  x2-y2    tot
    1  0.003  0.000  0.000  0.001  0.109  0.000  0.268  0.000  0.036  0.420
    2  0.003  0.000  0.000  0.001  0.109  0.000  0.268  0.000  0.036  0.420
tot    0.007  0.001  0.000  0.003  0.219  0.000  0.537  0.000  0.073  0.840
 
band    13 # energy    8.46558038 # occ.  2.00000000
 
ion      s     py     pz     px    dxy    dyz    dz2    dxz  x2-y2    tot
    1  0.000  0.001  0.000  0.000  0.107  0.000  0.000  0.000  0.321  0.430
    2  0.000  0.001  0.000  0.000  0.107  0.000  0.000  0.000  0.321  0.430
tot    0.000  0.002  0.000  0.001  0.214  0.000  0.000  0.000  0.643  0.859
 
band    14 # energy    8.48629425 # occ.  2.00000000
 
ion      s     py     pz     px    dxy    dyz    dz2    dxz  x2-y2    tot
    1  0.000  0.000  0.000  0.000  0.000  0.323  0.000  0.108  0.000  0.430
    2  0.000  0.000  0.000  0.000  0.000  0.323  0.000  0.108  0.000  0.430
tot    0.000  0.000  0.000  0.000  0.000  0.645  0.000  0.215  0.000  0.860
 
band    15 # energy    8.50968708 # occ.  2.00000000
 
ion      s     py     pz     px    dxy    dyz    dz2    dxz  x2-y2    tot
    1  0.000  0.000  0.009  0.000  0.000  0.095  0.000  0.286  0.000  0.390
    2  0.000  0.000  0.009  0.000  0.000  0.095  0.000  0.286  0.000  0.390
tot    0.000  0.000  0.018  0.000  0.000  0.190  0.000  0.571  0.000  0.779
 
band    16 # energy    8.76294551 # occ.  2.00000000
 
ion      s     py     pz     px    dxy    dyz    dz2    dxz  x2-y2    tot
    1  0.000  0.001  0.000  0.000  0.109  0.000  0.000  0.000  0.328  0.439
    2  0.000  0.001  0.000  0.000  0.109  0.000  0.000  0.000  0.328  0.439
tot    0.000  0.002  0.000  0.001  0.219  0.000  0.000  0.000  0.656  0.877
 
band    17 # energy   10.70209059 # occ.  1.74726964
 
ion      s     py     pz     px    dxy    dyz    dz2    dxz  x2-y2    tot
    1  0.000  0.000  0.000  0.000  0.000  0.353  0.000  0.118  0.000  0.471
    2  0.000  0.000  0.000  0.000  0.000  0.353  0.000  0.118  0.000  0.471
tot    0.000  0.000  0.000  0.000  0.000  0.706  0.000  0.235  0.000  0.941
 
band    18 # energy   14.43401600 # occ.  0.00000000
 
ion      s     py     pz     px    dxy    dyz    dz2    dxz  x2-y2    tot
    1  0.000  0.000  0.059  0.000  0.000  0.050  0.000  0.149  0.000  0.257
    2  0.000  0.000  0.059  0.000  0.000  0.050  0.000  0.149  0.000  0.257
tot    0.000  0.000  0.119  0.000  0.000  0.099  0.000  0.297  0.000  0.515
 
band    19 # energy   15.22720858 # occ.  0.00000000
 
ion      s     py     pz     px    dxy    dyz    dz2    dxz  x2-y2    tot
    1  0.180  0.001  0.000  0.003  0.005  0.000  0.188  0.000  0.002  0.378
    2  0.180  0.001  0.000  0.003  0.005  0.000  0.188  0.000  0.002  0.378
tot    0.359  0.002  0.000  0.006  0.010  0.000  0.375  0.000  0.003  0.756
 
band    20 # energy   24.59767035 # occ.  0.00000000
 
ion      s     py     pz     px    dxy    dyz    dz2    dxz  x2-y2    tot
    1  0.027  0.017  0.000  0.050  0.051  0.000  0.026  0.000  0.017  0.187
    2  0.027  0.017  0.000  0.050  0.051  0.000  0.026  0.000  0.017  0.187
tot    0.054  0.033  0.000  0.099  0.102  0.000  0.052  0.000  0.034  0.374
 
band    21 # energy   27.56717880 # occ.  0.00000000
 
ion      s     py     pz     px    dxy    dyz    dz2    dxz  x2-y2    tot
    1  0.000  0.000  0.011  0.000  0.000  0.003  0.000  0.008  0.000  0.021
    2  0.000  0.000  0.011  0.000  0.000  0.003  0.000  0.008  0.000  0.021
tot    0.000  0.000  0.022  0.000  0.000  0.005  0.000  0.015  0.000  0.042
 
band    22 # energy   27.65226193 # occ.  0.00000000
 
ion      s     py     pz     px    dxy    dyz    dz2    dxz  x2-y2    tot
    1  0.000  0.080  0.000  0.027  0.011  0.000  0.000  0.000  0.032  0.149
    2  0.000  0.080  0.000  0.027  0.011  0.000  0.000  0.000  0.032  0.149
tot    0.000  0.160  0.000  0.053  0.021  0.000  0.000  0.000  0.064  0.299
 
band    23 # energy   28.62410155 # occ.  0.00000000
 
ion      s     py     pz     px    dxy    dyz    dz2    dxz  x2-y2    tot
    1  0.005  0.004  0.000  0.011  0.034  0.000  0.016  0.000  0.011  0.081
    2  0.005  0.004  0.000  0.011  0.034  0.000  0.016  0.000  0.011  0.081
tot    0.010  0.007  0.000  0.022  0.068  0.000  0.032  0.000  0.023  0.162
 
band    24 # energy   28.85072513 # occ.  0.00000000
 
ion      s     py     pz     px    dxy    dyz    dz2    dxz  x2-y2    tot
    1  0.000  0.000  0.003  0.000  0.000  0.016  0.000  0.047  0.000  0.066
    2  0.000  0.000  0.003  0.000  0.000  0.016  0.000  0.047  0.000  0.066
tot    0.000  0.000  0.007  0.000  0.000  0.031  0.000  0.094  0.000  0.131
 

 k-point     4 :    0.30000000 0.00000000 0.00000000     weight = 0.00750000

band     1 # energy  -41.85259386 # occ.  2.00000000
 
ion      s     py     pz     px    dxy    dyz    dz2    dxz  x2-y2    tot
    1  0.000  0.123  0.000  0.370  0.000  0.000  0.000  0.000  0.000  0.494
    2  0.000  0.123  0.000  0.370  0.000  0.000  0.000  0.000  0.000  0.494
tot    0.000  0.247  0.000  0.741  0.000  0.000  0.000  0.000  0.000  0.988
 
band     2 # energy  -41.81512925 # occ.  2.00000000
 
ion      s     py     pz     px    dxy    dyz    dz2    dxz  x2-y2    tot
    1  0.000  0.124  0.000  0.371  0.000  0.000  0.000  0.000  0.000  0.494
    2  0.000  0.124  0.000  0.371  0.000  0.000  0.000  0.000  0.000  0.494
tot    0.000  0.247  0.000  0.742  0.000  0.000  0.000  0.000  0.000  0.989
 
band     3 # energy  -41.68909889 # occ.  2.00000000
 
ion      s     py     pz     px    dxy    dyz    dz2    dxz  x2-y2    tot
    1  0.000  0.372  0.000  0.124  0.000  0.000  0.000  0.000  0.000  0.497
    2  0.000  0.372  0.000  0.124  0.000  0.000  0.000  0.000  0.000  0.497
tot    0.000  0.745  0.000  0.248  0.000  0.000  0.000  0.000  0.000  0.993
 
band     4 # energy  -41.68883627 # occ.  2.00000000
 
ion      s     py     pz     px    dxy    dyz    dz2    dxz  x2-y2    tot
    1  0.000  0.000  0.493  0.000  0.000  0.000  0.000  0.000  0.000  0.493
    2  0.000  0.000  0.493  0.000  0.000  0.000  0.000  0.000  0.000  0.493
tot    0.000  0.000  0.987  0.000  0.000  0.000  0.000  0.000  0.000  0.987
 
band     5 # energy  -41.63598457 # occ.  2.00000000
 
ion      s     py     pz     px    dxy    dyz    dz2    dxz  x2-y2    tot
    1  0.000  0.373  0.000  0.124  0.000  0.000  0.000  0.000  0.000  0.498
    2  0.000  0.373  0.000  0.124  0.000  0.000  0.000  0.000  0.000  0.498
tot    0.000  0.746  0.000  0.249  0.000  0.000  0.000  0.000  0.000  0.995
 
band     6 # energy  -41.49265690 # occ.  2.00000000
 
ion      s     py     pz     px    dxy    dyz    dz2    dxz  x2-y2    tot
    1  0.000  0.000  0.497  0.000  0.000  0.000  0.000  0.000  0.000  0.497
    2  0.000  0.000  0.497  0.000  0.000  0.000  0.000  0.000  0.000  0.497
tot    0.000  0.000  0.994  0.000  0.000  0.000  0.000  0.000  0.000  0.994
 
band     7 # energy    3.76915306 # occ.  2.00000000
 
ion      s     py     pz     px    dxy    dyz    dz2    dxz  x2-y2    tot
    1  0.136  0.003  0.000  0.008  0.047  0.000  0.006  0.000  0.016  0.216
    2  0.136  0.003  0.000  0.008  0.047  0.000  0.006  0.000  0.016  0.216
tot    0.273  0.005  0.000  0.016  0.094  0.000  0.011  0.000  0.031  0.432
 
band     8 # energy    5.04789037 # occ.  2.00000000
 
ion      s     py     pz     px    dxy    dyz    dz2    dxz  x2-y2    tot
    1  0.020  0.000  0.000  0.001  0.162  0.000  0.119  0.000  0.054  0.356
    2  0.020  0.000  0.000  0.001  0.162  0.000  0.119  0.000  0.054  0.356
tot    0.040  0.001  0.000  0.002  0.323  0.000  0.239  0.000  0.108  0.712
 
band     9 # energy    6.12878202 # occ.  2.00000000
 
ion      s     py     pz     px    dxy    dyz    dz2    dxz  x2-y2    tot
    1  0.000  0.000  0.010  0.000  0.000  0.080  0.000  0.239  0.000  0.328
    2  0.000  0.000  0.010  0.000  0.000  0.080  0.000  0.239  0.000  0.328
tot    0.000  0.000  0.020  0.000  0.000  0.159  0.000  0.477  0.000  0.657
 
band    10 # energy    6.93090916 # occ.  2.00000000
 
ion      s     py     pz     px    dxy    dyz    dz2    dxz  x2-y2    tot
    1  0.012  0.003  0.000  0.009  0.209  0.000  0.045  0.000  0.070  0.348
    2  0.012  0.003  0.000  0.009  0.209  0.000  0.045  0.000  0.070  0.348
tot    0.025  0.006  0.000  0.017  0.418  0.000  0.090  0.000  0.139  0.696
 
band    11 # energy    7.27496122 # occ.  2.00000000
 
ion      s     py     pz     px    dxy    dyz    dz2    dxz  x2-y2    tot