<?xml version="1.0" encoding="ISO-8859-1"?>
<modeling>
 <generator>
  <i name="program" type="string">vasp </i>
  <i name="version" type="string">6.3.2  </i>
  <i name="subversion" type="string">27Jun22 (build Aug 12 2022 00:53:59) complex                          parallel </i>
  <i name="platform" type="string">tv2STD </i>
  <i name="date" type="string">2024 11 30 </i>
  <i name="time" type="string">17:15:51 </i>
 </generator>
 <incar>
  <i type="string" name="SYSTEM">Pt-hcc</i>
  <i type="int" name="ISTART">     0</i>
  <i type="string" name="PREC">Accurate      normal | accurate</i>
  <i type="string" name="ALGO">Normal     Normal, Fast, Very_Fast</i>
  <i type="logical" name="ADDGRID"> F  </i>
  <i type="int" name="ICHARG">     2</i>
  <i type="int" name="INIWAV">     1</i>
  <i type="int" name="NELM">   100</i>
  <i type="int" name="IBRION">     2</i>
  <i name="EDIFF">      0.00000100</i>
  <i name="EDIFFG">     -0.02000000</i>
  <i type="int" name="NSW">   100</i>
  <i type="int" name="ISIF">     2</i>
  <i type="int" name="ISYM">     1</i>
  <i name="ENCUT">    450.00000000</i>
  <i type="logical" name="LREAL"> F  </i>
  <i type="int" name="ISMEAR">     0</i>
  <i name="SIGMA">      0.05000000</i>
  <i type="int" name="NWRITE">     2</i>
  <i type="logical" name="LWAVE"> T  </i>
  <i type="logical" name="LCHARG"> T  </i>
  <i type="int" name="LORBIT">    11</i>
 </incar>
 <primitive_cell>
  <structure name="primitive_cell" >
   <crystal>
    <varray name="basis" >
     <v>       2.76818222       0.00000000       0.00000000 </v>
     <v>      -1.38409111       2.39731613       0.00000000 </v>
     <v>       0.00000000       0.00000000       4.79581119 </v>
    </varray>
    <i name="volume">     31.82599998 </i>
    <varray name="rec_basis" >
     <v>       0.36124789       0.20856657       0.00000000 </v>
     <v>       0.00000000       0.41713314       0.00000000 </v>
     <v>       0.00000000       0.00000000       0.20851530 </v>
    </varray>
   </crystal>
   <varray name="positions" >
    <v>       0.00000000       0.00000000       0.00000000 </v>
    <v>       0.33333333       0.66666667       0.50000000 </v>
   </varray>
  </structure>
  <varray name="primitive_index" >
   <v type="int" >        1 </v>
   <v type="int" >        2 </v>
  </varray>
 </primitive_cell>
 <kpoints>
  <generation param="Gamma">
   <v type="int" name="divisions">      10       10        8 </v>
   <v name="usershift">      0.00000000       0.00000000       0.00000000 </v>
   <v name="genvec1">      0.10000000       0.00000000       0.00000000 </v>
   <v name="genvec2">      0.00000000       0.10000000       0.00000000 </v>
   <v name="genvec3">      0.00000000       0.00000000       0.12500000 </v>
   <v name="shift">      0.00000000       0.00000000       0.00000000 </v>
  </generation>
  <varray name="kpointlist" >
   <v>       0.00000000       0.00000000       0.00000000 </v>
   <v>       0.10000000       0.00000000       0.00000000 </v>
   <v>       0.20000000       0.00000000       0.00000000 </v>
   <v>       0.30000000       0.00000000       0.00000000 </v>
   <v>       0.40000000      -0.00000000       0.00000000 </v>
   <v>       0.50000000      -0.00000000       0.00000000 </v>
   <v>       0.10000000       0.10000000       0.00000000 </v>
   <v>       0.20000000       0.10000000       0.00000000 </v>
   <v>       0.30000000       0.10000000       0.00000000 </v>
   <v>       0.40000000       0.10000000       0.00000000 </v>
   <v>       0.20000000       0.20000000       0.00000000 </v>
   <v>       0.30000000       0.20000000       0.00000000 </v>
   <v>       0.40000000       0.20000000       0.00000000 </v>
   <v>       0.30000000       0.30000000       0.00000000 </v>
   <v>       0.00000000       0.00000000       0.12500000 </v>
   <v>       0.10000000       0.00000000       0.12500000 </v>
   <v>       0.20000000       0.00000000       0.12500000 </v>
   <v>       0.30000000       0.00000000       0.12500000 </v>
   <v>       0.40000000      -0.00000000       0.12500000 </v>
   <v>       0.50000000      -0.00000000       0.12500000 </v>
   <v>       0.10000000       0.10000000       0.12500000 </v>
   <v>       0.20000000       0.10000000       0.12500000 </v>
   <v>       0.30000000       0.10000000       0.12500000 </v>
   <v>       0.40000000       0.10000000       0.12500000 </v>
   <v>       0.20000000       0.20000000       0.12500000 </v>
   <v>       0.30000000       0.20000000       0.12500000 </v>
   <v>       0.40000000       0.20000000       0.12500000 </v>
   <v>       0.30000000       0.30000000       0.12500000 </v>
   <v>       0.00000000       0.00000000       0.25000000 </v>
   <v>       0.10000000       0.00000000       0.25000000 </v>
   <v>       0.20000000       0.00000000       0.25000000 </v>
   <v>       0.30000000       0.00000000       0.25000000 </v>
   <v>       0.40000000      -0.00000000       0.25000000 </v>
   <v>       0.50000000      -0.00000000       0.25000000 </v>
   <v>       0.10000000       0.10000000       0.25000000 </v>
   <v>       0.20000000       0.10000000       0.25000000 </v>
   <v>       0.30000000       0.10000000       0.25000000 </v>
   <v>       0.40000000       0.10000000       0.25000000 </v>
   <v>       0.20000000       0.20000000       0.25000000 </v>
   <v>       0.30000000       0.20000000       0.25000000 </v>
   <v>       0.40000000       0.20000000       0.25000000 </v>
   <v>       0.30000000       0.30000000       0.25000000 </v>
   <v>       0.00000000       0.00000000       0.37500000 </v>
   <v>       0.10000000       0.00000000       0.37500000 </v>
   <v>       0.20000000       0.00000000       0.37500000 </v>
   <v>       0.30000000       0.00000000       0.37500000 </v>
   <v>       0.40000000      -0.00000000       0.37500000 </v>
   <v>       0.50000000      -0.00000000       0.37500000 </v>
   <v>       0.10000000       0.10000000       0.37500000 </v>
   <v>       0.20000000       0.10000000       0.37500000 </v>
   <v>       0.30000000       0.10000000       0.37500000 </v>
   <v>       0.40000000       0.10000000       0.37500000 </v>
   <v>       0.20000000       0.20000000       0.37500000 </v>
   <v>       0.30000000       0.20000000       0.37500000 </v>
   <v>       0.40000000       0.20000000       0.37500000 </v>
   <v>       0.30000000       0.30000000       0.37500000 </v>
   <v>       0.00000000       0.00000000       0.50000000 </v>
   <v>       0.10000000       0.00000000       0.50000000 </v>
   <v>       0.20000000       0.00000000       0.50000000 </v>
   <v>       0.30000000       0.00000000       0.50000000 </v>
   <v>       0.40000000      -0.00000000       0.50000000 </v>
   <v>       0.50000000      -0.00000000       0.50000000 </v>
   <v>       0.10000000       0.10000000       0.50000000 </v>
   <v>       0.20000000       0.10000000       0.50000000 </v>
   <v>       0.30000000       0.10000000       0.50000000 </v>
   <v>       0.40000000       0.10000000       0.50000000 </v>
   <v>       0.20000000       0.20000000       0.50000000 </v>
   <v>       0.30000000       0.20000000       0.50000000 </v>
   <v>       0.40000000       0.20000000       0.50000000 </v>
   <v>       0.30000000       0.30000000       0.50000000 </v>
  </varray>
  <varray name="weights" >
   <v>       0.00125000 </v>
   <v>       0.00750000 </v>
   <v>       0.00750000 </v>
   <v>       0.00750000 </v>
   <v>       0.00750000 </v>
   <v>       0.00375000 </v>
   <v>       0.00750000 </v>
   <v>       0.01500000 </v>
   <v>       0.01500000 </v>
   <v>       0.01500000 </v>
   <v>       0.00750000 </v>
   <v>       0.01500000 </v>
   <v>       0.00750000 </v>
   <v>       0.00750000 </v>
   <v>       0.00250000 </v>
   <v>       0.01500000 </v>
   <v>       0.01500000 </v>
   <v>       0.01500000 </v>
   <v>       0.01500000 </v>
   <v>       0.00750000 </v>
   <v>       0.01500000 </v>
   <v>       0.03000000 </v>
   <v>       0.03000000 </v>
   <v>       0.03000000 </v>
   <v>       0.01500000 </v>
   <v>       0.03000000 </v>
   <v>       0.01500000 </v>
   <v>       0.01500000 </v>
   <v>       0.00250000 </v>
   <v>       0.01500000 </v>
   <v>       0.01500000 </v>
   <v>       0.01500000 </v>
   <v>       0.01500000 </v>
   <v>       0.00750000 </v>
   <v>       0.01500000 </v>
   <v>       0.03000000 </v>
   <v>       0.03000000 </v>
   <v>       0.03000000 </v>
   <v>       0.01500000 </v>
   <v>       0.03000000 </v>
   <v>       0.01500000 </v>
   <v>       0.01500000 </v>
   <v>       0.00250000 </v>
   <v>       0.01500000 </v>
   <v>       0.01500000 </v>
   <v>       0.01500000 </v>
   <v>       0.01500000 </v>
   <v>       0.00750000 </v>
   <v>       0.01500000 </v>
   <v>       0.03000000 </v>
   <v>       0.03000000 </v>
   <v>       0.03000000 </v>
   <v>       0.01500000 </v>
   <v>       0.03000000 </v>
   <v>       0.01500000 </v>
   <v>       0.01500000 </v>
   <v>       0.00125000 </v>
   <v>       0.00750000 </v>
   <v>       0.00750000 </v>
   <v>       0.00750000 </v>
   <v>       0.00750000 </v>
   <v>       0.00375000 </v>
   <v>       0.00750000 </v>
   <v>       0.01500000 </v>
   <v>       0.01500000 </v>
   <v>       0.01500000 </v>
   <v>       0.00750000 </v>
   <v>       0.01500000 </v>
   <v>       0.00750000 </v>
   <v>       0.00750000 </v>
  </varray>
 </kpoints>
 <parameters>
  <separator name="general" >
   <i type="string" name="SYSTEM">Pt-hcc</i>
   <i type="logical" name="LCOMPAT"> F  </i>
  </separator>
  <separator name="electronic" >
   <i type="string" name="PREC">accura</i>
   <i name="ENMAX">    450.00000000</i>
   <i name="ENAUG">    527.01400000</i>
   <i name="EDIFF">      0.00000100</i>
   <i type="int" name="IALGO">    38</i>
   <i type="int" name="IWAVPR">    11</i>
   <i type="int" name="NBANDS">    24</i>
   <i type="int" name="NBANDSLOW">    -1</i>
   <i type="int" name="NBANDSHIGH">    -1</i>
   <i name="NELECT">     32.00000000</i>
   <i type="int" name="TURBO">     0</i>
   <i type="int" name="IRESTART">     0</i>
   <i type="int" name="NREBOOT">     0</i>
   <i type="int" name="NMIN">     0</i>
   <i name="EREF">      0.00000000</i>
   <separator name="electronic smearing" >
    <i type="int" name="ISMEAR">     0</i>
    <i name="SIGMA">      0.05000000</i>
    <i name="KSPACING">      0.50000000</i>
    <i type="logical" name="KGAMMA"> T  </i>
    <i type="logical" name="KBLOWUP"> T  </i>
   </separator>
   <separator name="electronic projectors" >
    <i type="logical" name="LREAL"> F  </i>
    <v name="ROPT">      0.00000000</v>
    <i type="int" name="LMAXPAW">  -100</i>
    <i type="int" name="LMAXMIX">     2</i>
    <i type="logical" name="NLSPLINE"> F  </i>
   </separator>
   <separator name="electronic startup" >
    <i type="int" name="ISTART">     0</i>
    <i type="int" name="ICHARG">     2</i>
    <i type="int" name="INIWAV">     1</i>
   </separator>
   <separator name="electronic spin" >
    <i type="int" name="ISPIN">     1</i>
    <i type="logical" name="LNONCOLLINEAR"> F  </i>
    <v name="MAGMOM">      1.00000000      1.00000000</v>
    <i name="NUPDOWN">     -1.00000000</i>
    <i type="logical" name="LSORBIT"> F  </i>
    <v name="SAXIS">      0.00000000      0.00000000      1.00000000</v>
    <i type="logical" name="LSPIRAL"> F  </i>
    <v name="QSPIRAL">      0.00000000      0.00000000      0.00000000</v>
    <i type="logical" name="LZEROZ"> F  </i>
   </separator>
   <separator name="electronic exchange-correlation" >
    <i type="logical" name="LASPH"> F  </i>
    <i type="logical" name="LMETAGGA"> F  </i>
   </separator>
   <separator name="electronic convergence" >
    <i type="int" name="NELM">   100</i>
    <i type="int" name="NELMDL">    -5</i>
    <i type="int" name="NELMIN">     2</i>
    <i name="ENINI">    450.00000000</i>
    <separator name="electronic convergence detail" >
     <i type="logical" name="LDIAG"> T  </i>
     <i type="logical" name="LSUBROT"> F  </i>
     <i name="WEIMIN">      0.00100000</i>
     <i name="EBREAK">      0.00000001</i>
     <i name="DEPER">      0.30000000</i>
     <i type="int" name="NRMM">     4</i>
     <i name="TIME">      0.40000000</i>
    </separator>
   </separator>
   <separator name="electronic mixer" >
    <i name="AMIX">      0.40000000</i>
    <i name="BMIX">      1.00000000</i>
    <i name="AMIN">      0.10000000</i>
    <i name="AMIX_MAG">      1.60000000</i>
    <i name="BMIX_MAG">      1.00000000</i>
    <separator name="electronic mixer details" >
     <i type="int" name="IMIX">     4</i>
     <i type="logical" name="MIXFIRST"> F  </i>
     <i type="int" name="MAXMIX">   -45</i>
     <i name="WC">    100.00000000</i>
     <i type="int" name="INIMIX">     1</i>
     <i type="int" name="MIXPRE">     1</i>
     <i type="int" name="MREMOVE">     5</i>
    </separator>
   </separator>
   <separator name="electronic dipolcorrection" >
    <i type="logical" name="LDIPOL"> F  </i>
    <i type="logical" name="LMONO"> F  </i>
    <i type="int" name="IDIPOL">     0</i>
    <i name="EPSILON">      1.00000000</i>
    <v name="DIPOL">   -100.00000000   -100.00000000   -100.00000000</v>
    <i name="EFIELD">      0.00000000</i>
   </separator>
  </separator>
  <separator name="grids" >
   <i type="int" name="NGX">    20</i>
   <i type="int" name="NGY">    20</i>
   <i type="int" name="NGZ">    36</i>
   <i type="int" name="NGXF">    40</i>
   <i type="int" name="NGYF">    40</i>
   <i type="int" name="NGZF">    72</i>
   <i type="logical" name="ADDGRID"> F  </i>
  </separator>
  <separator name="ionic" >
   <i type="int" name="NSW">   100</i>
   <i type="int" name="IBRION">     2</i>
   <i type="int" name="MDALGO">     0</i>
   <i type="int" name="ISIF">     2</i>
   <i name="PSTRESS">      0.00000000</i>
   <i name="EDIFFG">     -0.02000000</i>
   <i type="int" name="NFREE">     1</i>
   <i name="POTIM">      0.50000000</i>
   <i name="SMASS">     -3.00000000</i>
   <i name="SCALEE">      1.00000000</i>
  </separator>
  <separator name="ionic md" >
   <i name="TEBEG">      0.00010000</i>
   <i name="TEEND">      0.00010000</i>
   <i type="int" name="NBLOCK">     1</i>
   <i type="int" name="KBLOCK">   100</i>
   <i type="int" name="NPACO">   256</i>
   <i name="APACO">     10.00000000</i>
  </separator>
  <separator name="symmetry" >
   <i type="int" name="ISYM">     1</i>
   <i name="SYMPREC">      0.00001000</i>
  </separator>
  <separator name="dos" >
   <i type="int" name="LORBIT">    11</i>
   <v name="RWIGS">     -1.00000000</v>
   <i type="int" name="NEDOS">   301</i>
   <i name="EMIN">     10.00000000</i>
   <i name="EMAX">    -10.00000000</i>
   <i name="EFERMI">      0.00000000</i>
  </separator>
  <separator name="writing" >
   <i type="int" name="NWRITE">     2</i>
   <i type="logical" name="LWAVE"> T  </i>
   <i type="logical" name="LDOWNSAMPLE"> F  </i>
   <i type="logical" name="LCHARG"> T  </i>
   <i type="logical" name="LPARD"> F  </i>
   <i type="logical" name="LVTOT"> F  </i>
   <i type="logical" name="LVHAR"> F  </i>
   <i type="logical" name="LELF"> F  </i>
   <i type="logical" name="LOPTICS"> F  </i>
   <v name="STM">      0.00000000      0.00000000      0.00000000      0.00000000      0.00000000      0.00000000      0.00000000</v>
  </separator>
  <separator name="performance" >
   <i type="int" name="NPAR">    24</i>
   <i type="int" name="NSIM">     4</i>
   <i type="int" name="NBLK">    -1</i>
   <i type="logical" name="LPLANE"> T  </i>
   <i type="logical" name="LSCALAPACK"> T  </i>
   <i type="logical" name="LSCAAWARE"> F  </i>
   <i type="logical" name="LSCALU"> F  </i>
   <i type="logical" name="LASYNC"> F  </i>
   <i type="logical" name="LORBITALREAL"> F  </i>
  </separator>
  <separator name="miscellaneous" >
   <i type="int" name="IDIOT">     3</i>
   <i type="int" name="PHON_NSTRUCT">    -1</i>
   <i type="logical" name="LMUSIC"> F  </i>
   <v name="POMASS">    195.08000000</v>
   <v name="DARWINR">      0.00000000</v>
   <v name="DARWINV">      1.00000000</v>
   <i type="logical" name="LCORR"> T  </i>
  </separator>
  <i type="logical" name="GGA_COMPAT"> T  </i>
  <i type="logical" name="LBERRY"> F  </i>
  <i type="int" name="ICORELEVEL">     0</i>
  <i type="logical" name="LDAU"> F  </i>
  <i type="int" name="I_CONSTRAINED_M">     0</i>
  <separator name="electronic exchange-correlation" >
   <i type="string" name="GGA">--</i>
   <i type="int" name="VOSKOWN">     0</i>
   <i type="logical" name="LHFCALC"> F  </i>
   <i type="string" name="PRECFOCK"></i>
   <i type="logical" name="LSYMGRAD"> F  </i>
   <i type="logical" name="LHFONE"> F  </i>
   <i type="logical" name="LRHFCALC"> F  </i>
   <i type="logical" name="LTHOMAS"> F  </i>
   <i type="logical" name="LMODELHF"> F  </i>
   <i type="logical" name="LFOCKACE"> F  </i>
   <i name="ENCUT4O">     -1.00000000</i>
   <i type="int" name="EXXOEP">     0</i>
   <i type="int" name="FOURORBIT">     0</i>
   <i name="AEXX">      0.00000000</i>
   <i name="HFALPHA">      0.00000000</i>
   <i name="MCALPHA">      0.00000000</i>
   <i name="ALDAX">      1.00000000</i>
   <i name="AGGAX">      1.00000000</i>
   <i name="ALDAC">      1.00000000</i>
   <i name="AGGAC">      1.00000000</i>
   <i type="int" name="NKREDX">     1</i>
   <i type="int" name="NKREDY">     1</i>
   <i type="int" name="NKREDZ">     1</i>
   <i type="logical" name="SHIFTRED"> F  </i>
   <i type="logical" name="ODDONLY"> F  </i>
   <i type="logical" name="EVENONLY"> F  </i>
   <i type="int" name="LMAXFOCK">     0</i>
   <i type="int" name="NMAXFOCKAE">     0</i>
   <i type="logical" name="LFOCKAEDFT"> F  </i>
   <i name="HFSCREEN">      0.00000000</i>
   <i name="HFSCREENC">      0.00000000</i>
   <i type="int" name="NBANDSGWLOW">     0</i>
  </separator>
  <separator name="vdW DFT" >
   <i type="logical" name="LUSE_VDW"> F  </i>
   <i name="Zab_VDW">     -0.84910000</i>
   <i name="PARAM1">      0.12340000</i>
   <i name="PARAM2">      1.00000000</i>
   <i name="PARAM3">      0.00000000</i>
  </separator>
  <separator name="model GW" >
   <i type="int" name="MODEL_GW">     0</i>
   <i name="MODEL_EPS0">      9.54779999</i>
   <i name="MODEL_ALPHA">      1.00000000</i>
  </separator>
  <separator name="linear response parameters" >
   <i type="logical" name="LEPSILON"> F  </i>
   <i type="logical" name="LRPA"> F  </i>
   <i type="logical" name="LNABLA"> F  </i>
   <i type="logical" name="LVEL"> F  </i>
   <i name="CSHIFT">      0.10000000</i>
   <i name="OMEGAMAX">     -1.00000000</i>
   <i name="DEG_THRESHOLD">      0.00200000</i>
   <i name="RTIME">     -0.10000000</i>
   <i name="WPLASMAI">      0.00000000</i>
   <v name="DFIELD">      0.00000000      0.00000000      0.00000000</v>
   <v name="WPLASMA">      0.00000000      0.00000000      0.00000000      0.00000000      0.00000000      0.00000000      0.00000000      0.00000000      0.00000000</v>
  </separator>
  <separator name="orbital magnetization" >
   <i type="logical" name="NUCIND"> F  </i>
   <v name="MAGPOS">      0.00000000      0.00000000      0.00000000</v>
   <i type="logical" name="LNICSALL"> T  </i>
   <i type="logical" name="ORBITALMAG"> F  </i>
   <i type="logical" name="LMAGBLOCH"> F  </i>
   <i type="logical" name="LCHIMAG"> F  </i>
   <i type="logical" name="LGAUGE"> T  </i>
   <i type="int" name="MAGATOM">     0</i>
   <v name="MAGDIPOL">      0.00000000      0.00000000      0.00000000</v>
   <v name="AVECCONST">      0.00000000      0.00000000      0.00000000</v>
  </separator>
  <separator name="response functions" >
   <i type="logical" name="LFINITE_TEMPERATURE"> F  </i>
   <i type="logical" name="LADDER"> F  </i>
   <i type="logical" name="LRPAFORCE"> F  </i>
   <i type="logical" name="LFXC"> F  </i>
   <i type="logical" name="LHARTREE"> T  </i>
   <i type="int" name="IBSE">     0</i>
   <v type="int" name="KPOINT">    -1     0     0     0</v>
   <i type="logical" name="LTCTC"> F  </i>
   <i type="logical" name="LTCTE"> F  </i>
   <i type="logical" name="LTETE"> F  </i>
   <i type="logical" name="LTRIPLET"> F  </i>
   <i type="logical" name="LFXCEPS"> F  </i>
   <i type="logical" name="LFXHEG"> F  </i>
   <i type="int" name="NATURALO">     2</i>
   <i type="logical" name="LHOLEGF"> F  </i>
   <i type="logical" name="L2ORDER"> F  </i>
   <i type="logical" name="LDMP1"> F  </i>
   <i type="logical" name="LMP2LT"> F  </i>
   <i type="logical" name="LSMP2LT"> F  </i>
   <i type="logical" name="LGWLF"> F  </i>
   <i name="ENCUTGW">     -2.00000000</i>
   <i name="ENCUTGWSOFT">     -2.00000000</i>
   <i name="ENCUTLF">     -1.00000000</i>
   <i type="logical" name="LESF_SPLINES"> F  </i>
   <i type="int" name="LMAXMP2">    -1</i>
   <i name="SCISSOR">      0.00000000</i>
   <i type="int" name="NOMEGA">     0</i>
   <i type="int" name="NOMEGAR">     0</i>
   <i type="int" name="NBANDSGW">    -1</i>
   <i type="int" name="NBANDSO">    -1</i>
   <i type="int" name="NBANDSV">    -1</i>
   <i type="int" name="NELMGW">     1</i>
   <i type="int" name="NELMHF">     1</i>
   <i type="int" name="DIM">     3</i>
   <i type="int" name="IESPILON">     4</i>
   <i type="int" name="ANTIRES">     0</i>
   <i name="OMEGAMAX">    -30.00000000</i>
   <i name="OMEGAMIN">    -30.00000000</i>
   <i name="OMEGATL">   -200.00000000</i>
   <i type="int" name="OMEGAGRID">     0</i>
   <i name="CSHIFT">     -0.10000000</i>
   <i type="logical" name="LSELFENERGY"> F  </i>
   <i type="logical" name="LSPECTRAL"> F  </i>
   <i type="logical" name="LSPECTRALGW"> F  </i>
   <i type="logical" name="LSINGLES"> F  </i>
   <i type="logical" name="LFERMIGW"> F  </i>
   <i type="logical" name="ODDONLYGW"> F  </i>
   <i type="logical" name="EVENONLYGW"> F  </i>
   <i type="int" name="NKREDLFX">     1</i>
   <i type="int" name="NKREDLFY">     1</i>
   <i type="int" name="NKREDLFZ">     1</i>
   <i type="int" name="MAXMEM">  2800</i>
   <i type="int" name="TELESCOPE">     0</i>
   <i type="int" name="NTAUPAR">    -1</i>
   <i type="int" name="NOMEGAPAR">    -1</i>
   <i name="DAMP_NEWTON">      0.80000001</i>
   <i name="LAMBDA">      1.00000000</i>
  </separator>
  <separator name="External order field" >
   <i name="OFIELD_KAPPA">      0.00000000</i>
   <v name="OFIELD_K">      0.00000000      0.00000000      0.00000000</v>
   <i name="OFIELD_Q6_NEAR">      0.00000000</i>
   <i name="OFIELD_Q6_FAR">      0.00000000</i>
   <i name="OFIELD_A">      0.00000000</i>
  </separator>
  <separator name="optional k-points parameters" >
   <i type="int" name="KPOINTS_OPT_MODE">     1</i>
   <i type="logical" name="LKPOINTS_OPT"> F  </i>
  </separator>
 </parameters>
 <atominfo>
  <atoms>       2 </atoms>
  <types>       1 </types>
  <array name="atoms" >
   <dimension dim="1">ion</dimension>
   <field type="string">element</field>
   <field type="int">atomtype</field>
   <set>
    <rc><c>Pt</c><c>   1</c></rc>
    <rc><c>Pt</c><c>   1</c></rc>
   </set>
  </array>
  <array name="atomtypes" >
   <dimension dim="1">type</dimension>
   <field type="int">atomspertype</field>
   <field type="string">element</field>
   <field>mass</field>
   <field>valence</field>
   <field type="string">pseudopotential</field>
   <set>
    <rc><c>   2</c><c>Pt</c><c>    195.08000000</c><c>     16.00000000</c><c>  PAW_PBE Pt_pv 12Dec2005               </c></rc>
   </set>
  </array>
 </atominfo>
 <structure name="initialpos" >
  <crystal>
   <varray name="basis" >
    <v>       2.76818222       0.00000000       0.00000000 </v>
    <v>      -1.38409111       2.39731613       0.00000000 </v>
    <v>       0.00000000       0.00000000       4.79581119 </v>
   </varray>
   <i name="volume">     31.82599998 </i>
   <varray name="rec_basis" >
    <v>       0.36124789       0.20856657       0.00000000 </v>
    <v>       0.00000000       0.41713314       0.00000000 </v>
    <v>       0.00000000       0.00000000       0.20851530 </v>
   </varray>
  </crystal>
  <varray name="positions" >
   <v>       0.00000000       0.00000000       0.00000000 </v>
   <v>       0.33333333       0.66666667       0.50000000 </v>
  </varray>
 </structure>
 <calculation>
  <scstep>
   <time name="dav">    0.32    0.32</time>
   <time name="total">    0.32    0.33</time>
   <energy>
    <i name="alphaZ">    301.55452290 </i>
    <i name="ewald">  -4230.75431297 </i>
    <i name="hartreedc">   -824.11795860 </i>
    <i name="XCdc">    127.25783016 </i>
    <i name="pawpsdc">   4131.50523274 </i>
    <i name="pawaedc">  -4061.67189606 </i>
    <i name="eentropy">     -0.00160665 </i>
    <i name="bandstr">   -160.27167461 </i>
    <i name="atom">   4856.42966544 </i>
    <i name="e_fr_energy">    139.92980237 </i>
    <i name="e_wo_entrp">    139.93140901 </i>
    <i name="e_0_energy">    139.93060569 </i>
   </energy>
  </scstep>
  <scstep>
   <time name="dav">    0.33    0.33</time>
   <time name="total">    0.33    0.33</time>
   <energy>
    <i name="e_fr_energy">    -11.34853947 </i>
    <i name="e_wo_entrp">    -11.34470077 </i>
    <i name="e_0_energy">    -11.34662012 </i>
   </energy>
  </scstep>
  <scstep>
   <time name="dav">    0.57    0.58</time>
   <time name="total">    0.57    0.58</time>
   <energy>
    <i name="e_fr_energy">    -12.74593029 </i>
    <i name="e_wo_entrp">    -12.74148529 </i>
    <i name="e_0_energy">    -12.74370779 </i>
   </energy>
  </scstep>
  <scstep>
   <time name="dav">    0.50    0.51</time>
   <time name="total">    0.50    0.51</time>
   <energy>
    <i name="e_fr_energy">    -12.74910531 </i>
    <i name="e_wo_entrp">    -12.74466721 </i>
    <i name="e_0_energy">    -12.74688626 </i>
   </energy>
  </scstep>
  <scstep>
   <time name="dav">    0.60    0.60</time>
   <time name="total">    0.62    0.62</time>
   <energy>
    <i name="e_fr_energy">    -12.74910728 </i>
    <i name="e_wo_entrp">    -12.74466919 </i>
    <i name="e_0_energy">    -12.74688824 </i>
   </energy>
  </scstep>
  <scstep>
   <time name="dav">    0.33    0.33</time>
   <time name="total">    0.36    0.36</time>
   <energy>
    <i name="e_fr_energy">    -12.07247246 </i>
    <i name="e_wo_entrp">    -12.06792796 </i>
    <i name="e_0_energy">    -12.07020021 </i>
   </energy>
  </scstep>
  <scstep>
   <time name="dav">    0.51    0.51</time>
   <time name="total">    0.54    0.54</time>
   <energy>
    <i name="e_fr_energy">    -12.04028382 </i>
    <i name="e_wo_entrp">    -12.03549064 </i>
    <i name="e_0_energy">    -12.03788723 </i>
   </energy>
  </scstep>
  <scstep>
   <time name="dav">    0.35    0.35</time>
   <time name="total">    0.38    0.38</time>
   <energy>
    <i name="e_fr_energy">    -12.03805167 </i>
    <i name="e_wo_entrp">    -12.03320164 </i>
    <i name="e_0_energy">    -12.03562666 </i>
   </energy>
  </scstep>
  <scstep>
   <time name="dav">    0.52    0.52</time>
   <time name="total">    0.55    0.55</time>
   <energy>
    <i name="e_fr_energy">    -12.03788446 </i>
    <i name="e_wo_entrp">    -12.03306233 </i>
    <i name="e_0_energy">    -12.03547340 </i>
   </energy>
  </scstep>
  <scstep>
   <time name="dav">    0.42    0.42</time>
   <time name="total">    0.45    0.45</time>
   <energy>
    <i name="e_fr_energy">    -12.03789905 </i>
    <i name="e_wo_entrp">    -12.03308089 </i>
    <i name="e_0_energy">    -12.03548997 </i>
   </energy>
  </scstep>
  <scstep>
   <time name="dav">    0.38    0.38</time>
   <time name="total">    0.38    0.39</time>
   <energy>
    <i name="alphaZ">    301.55452290 </i>
    <i name="ewald">  -4230.75431297 </i>
    <i name="hartreedc">   -785.36413709 </i>
    <i name="XCdc">    125.55463591 </i>
    <i name="pawpsdc">   4609.87574523 </i>
    <i name="pawaedc">  -4544.96190695 </i>
    <i name="eentropy">     -0.00481892 </i>
    <i name="bandstr">   -344.36729224 </i>
    <i name="atom">   4856.42966544 </i>
    <i name="e_fr_energy">    -12.03789867 </i>
    <i name="e_wo_entrp">    -12.03307976 </i>
    <i name="e_0_energy">    -12.03548921 </i>
   </energy>
  </scstep>
  <structure>
   <crystal>
    <varray name="basis" >
     <v>       2.76818222       0.00000000       0.00000000 </v>
     <v>      -1.38409111       2.39731613       0.00000000 </v>
     <v>       0.00000000       0.00000000       4.79581119 </v>
    </varray>
    <i name="volume">     31.82599998 </i>
    <varray name="rec_basis" >
     <v>       0.36124789       0.20856657       0.00000000 </v>
     <v>       0.00000000       0.41713314       0.00000000 </v>
     <v>       0.00000000       0.00000000       0.20851530 </v>
    </varray>
   </crystal>
   <varray name="positions" >
    <v>       0.00000000       0.00000000       0.00000000 </v>
    <v>       0.33333333       0.66666667       0.50000000 </v>
   </varray>
  </structure>
  <varray name="forces" >
   <v>       0.00000000      -0.00000000       0.00000000 </v>
   <v>      -0.00000000       0.00000000       0.00000000 </v>
  </varray>
  <varray name="stress" >
   <v>     -42.43816739      -0.00000000       0.00000000 </v>
   <v>      -0.00000000     -42.43816739       0.00000000 </v>
   <v>      -0.00000000      -0.00000000     -37.73120210 </v>
  </varray>
  <energy>
   <i name="e_fr_energy">    -12.03789867 </i>
   <i name="e_wo_entrp">    -12.03307976 </i>
   <i name="e_0_energy">    -12.03548921 </i>
  </energy>
  <time name="totalsc">    5.37    5.52</time>
  <eigenvalues>
   <array>
    <dimension dim="1">band</dimension>
    <dimension dim="2">kpoint</dimension>
    <dimension dim="3">spin</dimension>
    <field>eigene</field>
    <field>occ</field>
    <set>
     <set comment="spin 1">
      <set comment="kpoint 1">
       <r>  -41.5805    1.0000 </r>
       <r>  -41.4177    1.0000 </r>
       <r>  -41.4177    1.0000 </r>
       <r>  -41.3781    1.0000 </r>
       <r>  -41.3781    1.0000 </r>
       <r>  -41.2589    1.0000 </r>
       <r>    1.3634    1.0000 </r>
       <r>    4.0097    1.0000 </r>
       <r>    7.1270    1.0000 </r>
       <r>    7.6176    1.0000 </r>
       <r>    7.6176    1.0000 </r>
       <r>    7.9804    1.0000 </r>
       <r>    7.9804    1.0000 </r>
       <r>    9.2211    1.0000 </r>
       <r>    9.2211    1.0000 </r>
       <r>   10.3309    1.0000 </r>
       <r>   10.7885    1.0000 </r>
       <r>   10.7885    1.0000 </r>
       <r>   15.6495    0.0000 </r>
       <r>   26.0943    0.0000 </r>
       <r>   26.7015    0.0000 </r>
       <r>   28.2432    0.0000 </r>
       <r>   31.9322    0.0000 </r>
       <r>   31.9322    0.0000 </r>
      </set>
      <set comment="kpoint 2">
       <r>  -41.5685    1.0000 </r>
       <r>  -41.4520    1.0000 </r>
       <r>  -41.4271    1.0000 </r>
       <r>  -41.4136    1.0000 </r>
       <r>  -41.3850    1.0000 </r>
       <r>  -41.2613    1.0000 </r>
       <r>    1.7216    1.0000 </r>
       <r>    4.3337    1.0000 </r>
       <r>    7.0590    1.0000 </r>
       <r>    7.6304    1.0000 </r>
       <r>    7.8350    1.0000 </r>
       <r>    7.8905    1.0000 </r>
       <r>    8.2394    1.0000 </r>
       <r>    8.6569    1.0000 </r>
       <r>    9.0534    1.0000 </r>
       <r>    9.2099    1.0000 </r>
       <r>   10.8507    1.0000 </r>
       <r>   12.5505    0.0000 </r>
       <r>   15.6147    0.0000 </r>
       <r>   26.5120    0.0000 </r>
       <r>   27.2230    0.0000 </r>
       <r>   28.5436    0.0000 </r>
       <r>   30.3361    0.0000 </r>
       <r>   30.4320    0.0000 </r>
      </set>
      <set comment="kpoint 3">
       <r>  -41.5435    1.0000 </r>
       <r>  -41.5369    1.0000 </r>
       <r>  -41.5058    1.0000 </r>
       <r>  -41.4534    1.0000 </r>
       <r>  -41.4041    1.0000 </r>
       <r>  -41.2698    1.0000 </r>
       <r>    2.6992    1.0000 </r>
       <r>    5.0473    1.0000 </r>
       <r>    6.8325    1.0000 </r>
       <r>    7.3125    1.0000 </r>
       <r>    7.3524    1.0000 </r>
       <r>    8.2448    1.0000 </r>
       <r>    8.6610    1.0000 </r>
       <r>    8.6808    1.0000 </r>
       <r>    8.7019    1.0000 </r>
       <r>    8.9664    1.0000 </r>
       <r>   10.9494    0.8770 </r>
       <r>   14.7076    0.0000 </r>
       <r>   15.5505    0.0000 </r>
       <r>   24.9512    0.0000 </r>
       <r>   27.8256    0.0000 </r>
       <r>   28.0156    0.0000 </r>
       <r>   28.9327    0.0000 </r>
       <r>   29.1505    0.0000 </r>
      </set>
      <set comment="kpoint 4">
       <r>  -41.6561    1.0000 </r>
       <r>  -41.6175    1.0000 </r>
       <r>  -41.4922    1.0000 </r>
       <r>  -41.4848    1.0000 </r>
       <r>  -41.4285    1.0000 </r>
       <r>  -41.2855    1.0000 </r>
       <r>    3.8995    1.0000 </r>
       <r>    5.1756    1.0000 </r>
       <r>    6.2706    1.0000 </r>
       <r>    7.0935    1.0000 </r>
       <r>    7.4460    1.0000 </r>
       <r>    8.2011    1.0000 </r>
       <r>    8.2957    1.0000 </r>
       <r>    9.3774    1.0000 </r>
       <r>    9.7669    1.0000 </r>
       <r>    9.9951    1.0000 </r>
       <r>   11.0033    0.3574 </r>
       <r>   15.6780    0.0000 </r>
       <r>   16.9070    0.0000 </r>
       <r>   21.2310    0.0000 </r>
       <r>   25.6481    0.0000 </r>
       <r>   26.2612    0.0000 </r>
       <r>   27.7602    0.0000 </r>
       <r>   28.9195    0.0000 </r>
      </set>
      <set comment="kpoint 5">
       <r>  -41.7478    1.0000 </r>
       <r>  -41.7063    1.0000 </r>
       <r>  -41.5100    1.0000 </r>
       <r>  -41.4485    1.0000 </r>
       <r>  -41.4476    1.0000 </r>
       <r>  -41.3069    1.0000 </r>
       <r>    4.5647    1.0000 </r>
       <r>    4.8658    1.0000 </r>
       <r>    5.6255    1.0000 </r>
       <r>    7.6059    1.0000 </r>
       <r>    7.8339    1.0000 </r>
       <r>    8.0220    1.0000 </r>
       <r>    8.2445    1.0000 </r>
       <r>   10.8308    1.0000 </r>
       <r>   11.0064    0.3255 </r>
       <r>   11.0157    0.2374 </r>
       <r>   11.2232    0.0000 </r>
       <r>   16.4905    0.0000 </r>
       <r>   17.6022    0.0000 </r>
       <r>   18.8660    0.0000 </r>
       <r>   23.3230    0.0000 </r>
       <r>   23.7562    0.0000 </r>
       <r>   24.9023    0.0000 </r>
       <r>   27.6449    0.0000 </r>
      </set>
      <set comment="kpoint 6">
       <r>  -41.7823    1.0000 </r>
       <r>  -41.7404    1.0000 </r>
       <r>  -41.5199    1.0000 </r>
       <r>  -41.4562    1.0000 </r>
       <r>  -41.4256    1.0000 </r>
       <r>  -41.3206    1.0000 </r>
       <r>    4.6643    1.0000 </r>
       <r>    4.7339    1.0000 </r>
       <r>    5.4071    1.0000 </r>
       <r>    7.7010    1.0000 </r>
       <r>    7.9238    1.0000 </r>
       <r>    8.1221    1.0000 </r>
       <r>    8.4466    1.0000 </r>
       <r>   11.0150    0.2435 </r>
       <r>   11.2780    0.0000 </r>
       <r>   11.4772    0.0000 </r>
       <r>   13.2491    0.0000 </r>
       <r>   14.7088    0.0000 </r>
       <r>   18.2284    0.0000 </r>
       <r>   19.8153    0.0000 </r>
       <r>   20.4358    0.0000 </r>
       <r>   22.9849    0.0000 </r>
       <r>   24.2482    0.0000 </r>
       <r>   27.0755    0.0000 </r>
      </set>
      <set comment="kpoint 7">
       <r>  -41.5470    1.0000 </r>
       <r>  -41.5092    1.0000 </r>
       <r>  -41.4841    1.0000 </r>
       <r>  -41.4398    1.0000 </r>
       <r>  -41.4033    1.0000 </r>
       <r>  -41.2671    1.0000 </r>
       <r>    2.3977    1.0000 </r>
       <r>    4.8997    1.0000 </r>
       <r>    6.7935    1.0000 </r>
       <r>    7.5447    1.0000 </r>
       <r>    7.7108    1.0000 </r>
       <r>    7.8500    1.0000 </r>
       <r>    8.4656    1.0000 </r>
       <r>    8.4831    1.0000 </r>
       <r>    8.8186    1.0000 </r>
       <r>    9.1181    1.0000 </r>
       <r>   10.8726    0.9996 </r>
       <r>   14.1378    0.0000 </r>
       <r>   15.5671    0.0000 </r>
       <r>   26.3913    0.0000 </r>
       <r>   26.9649    0.0000 </r>
       <r>   28.1159    0.0000 </r>
       <r>   29.1056    0.0000 </r>
       <r>   29.8163    0.0000 </r>
      </set>
      <set comment="kpoint 8">
       <r>  -41.6040    1.0000 </r>
       <r>  -41.5788    1.0000 </r>
       <r>  -41.5088    1.0000 </r>
       <r>  -41.4765    1.0000 </r>
       <r>  -41.4320    1.0000 </r>
       <r>  -41.2792    1.0000 </r>
       <r>    3.5595    1.0000 </r>
       <r>    5.5067    1.0000 </r>
       <r>    6.6167    1.0000 </r>
       <r>    6.6753    1.0000 </r>
       <r>    7.2788    1.0000 </r>
       <r>    7.9981    1.0000 </r>
       <r>    8.4523    1.0000 </r>
       <r>    8.7578    1.0000 </r>
       <r>    9.5067    1.0000 </r>
       <r>    9.9040    1.0000 </r>
       <r>   10.8743    0.9995 </r>
       <r>   15.6181    0.0000 </r>
       <r>   16.2096    0.0000 </r>
       <r>   23.1281    0.0000 </r>
       <r>   25.0346    0.0000 </r>
       <r>   27.2466    0.0000 </r>
       <r>   29.1275    0.0000 </r>
       <r>   29.7258    0.0000 </r>
      </set>
      <set comment="kpoint 9">
       <r>  -41.7024    1.0000 </r>
       <r>  -41.6678    1.0000 </r>
       <r>  -41.5142    1.0000 </r>
       <r>  -41.4629    1.0000 </r>
       <r>  -41.4595    1.0000 </r>
       <r>  -41.2988    1.0000 </r>
       <r>    4.6150    1.0000 </r>
       <r>    5.2743    1.0000 </r>
       <r>    5.9124    1.0000 </r>
       <r>    7.1062    1.0000 </r>
       <r>    7.7069    1.0000 </r>
       <r>    7.7195    1.0000 </r>
       <r>    8.2763    1.0000 </r>
       <r>    9.5333    1.0000 </r>
       <r>   10.5724    1.0000 </r>
       <r>   10.8626    0.9999 </r>
       <r>   11.3069    0.0000 </r>
       <r>   16.2143    0.0000 </r>
       <r>   18.3300    0.0000 </r>
       <r>   19.3157    0.0000 </r>
       <r>   22.9394    0.0000 </r>
       <r>   25.7884    0.0000 </r>
       <r>   26.0238    0.0000 </r>
       <r>   28.0580    0.0000 </r>
      </set>
      <set comment="kpoint 10">
       <r>  -41.7630    1.0000 </r>
       <r>  -41.7219    1.0000 </r>
       <r>  -41.5371    1.0000 </r>
       <r>  -41.4763    1.0000 </r>
       <r>  -41.4256    1.0000 </r>
       <r>  -41.3203    1.0000 </r>
       <r>    4.9308    1.0000 </r>
       <r>    5.0185    1.0000 </r>
       <r>    5.5156    1.0000 </r>
       <r>    7.6534    1.0000 </r>
       <r>    7.8812    1.0000 </r>
       <r>    7.8854    1.0000 </r>
       <r>    8.2114    1.0000 </r>
       <r>   10.7462    1.0000 </r>
       <r>   10.8464    1.0000 </r>
       <r>   11.1177    0.0002 </r>
       <r>   12.9939    0.0000 </r>
       <r>   15.9267    0.0000 </r>
       <r>   17.8859    0.0000 </r>
       <r>   19.9944    0.0000 </r>
       <r>   20.7422    0.0000 </r>
       <r>   23.0811    0.0000 </r>
       <r>   24.7097    0.0000 </r>
       <r>   26.9962    0.0000 </r>
      </set>
      <set comment="kpoint 11">
       <r>  -41.6597    1.0000 </r>
       <r>  -41.6591    1.0000 </r>
       <r>  -41.5194    1.0000 </r>
       <r>  -41.4802    1.0000 </r>
       <r>  -41.4687    1.0000 </r>
       <r>  -41.2960    1.0000 </r>
       <r>    4.7616    1.0000 </r>
       <r>    6.1043    1.0000 </r>
       <r>    6.1120    1.0000 </r>
       <r>    6.1731    1.0000 </r>
       <r>    7.4904    1.0000 </r>
       <r>    7.5193    1.0000 </r>
       <r>    8.4664    1.0000 </r>
       <r>    8.8081    1.0000 </r>
       <r>   10.5571    1.0000 </r>
       <r>   10.6984    1.0000 </r>
       <r>   11.3863    0.0000 </r>
       <r>   16.1863    0.0000 </r>
       <r>   18.2040    0.0000 </r>
       <r>   20.7686    0.0000 </r>
       <r>   21.6842    0.0000 </r>
       <r>   26.5300    0.0000 </r>
       <r>   27.6744    0.0000 </r>
       <r>   28.1938    0.0000 </r>
      </set>
      <set comment="kpoint 12">
       <r>  -41.7189    1.0000 </r>
       <r>  -41.6909    1.0000 </r>
       <r>  -41.5686    1.0000 </r>
       <r>  -41.5214    1.0000 </r>
       <r>  -41.4260    1.0000 </r>
       <r>  -41.3198    1.0000 </r>
       <r>    5.5449    1.0000 </r>
       <r>    5.7326    1.0000 </r>
       <r>    5.7650    1.0000 </r>
       <r>    6.8951    1.0000 </r>
       <r>    7.3768    1.0000 </r>
       <r>    7.9886    1.0000 </r>
       <r>    8.0321    1.0000 </r>
       <r>    9.5870    1.0000 </r>
       <r>   10.5643    1.0000 </r>
       <r>   10.9907    0.4969 </r>
       <r>   13.0403    0.0000 </r>
       <r>   17.1769    0.0000 </r>
       <r>   18.1204    0.0000 </r>
       <r>   19.7455    0.0000 </r>
       <r>   20.2773    0.0000 </r>
       <r>   24.6453    0.0000 </r>
       <r>   25.7317    0.0000 </r>
       <r>   26.7071    0.0000 </r>
      </set>
      <set comment="kpoint 13">
       <r>  -41.7411    1.0000 </r>
       <r>  -41.6993    1.0000 </r>
       <r>  -41.5925    1.0000 </r>
       <r>  -41.5372    1.0000 </r>
       <r>  -41.4018    1.0000 </r>
       <r>  -41.3369    1.0000 </r>
       <r>    5.5991    1.0000 </r>
       <r>    5.6152    1.0000 </r>
       <r>    5.6629    1.0000 </r>
       <r>    7.4611    1.0000 </r>
       <r>    7.5118    1.0000 </r>
       <r>    7.6191    1.0000 </r>
       <r>    8.2956    1.0000 </r>
       <r>   10.3361    1.0000 </r>
       <r>   10.5152    1.0000 </r>
       <r>   10.8011    1.0000 </r>
       <r>   14.6304    0.0000 </r>
       <r>   15.1337    0.0000 </r>
       <r>   18.4502    0.0000 </r>
       <r>   20.0113    0.0000 </r>
       <r>   21.4839    0.0000 </r>
       <r>   22.4830    0.0000 </r>
       <r>   24.9138    0.0000 </r>
       <r>   26.2204    0.0000 </r>
      </set>
      <set comment="kpoint 14">
       <r>  -41.7064    1.0000 </r>
       <r>  -41.6747    1.0000 </r>
       <r>  -41.6290    1.0000 </r>
       <r>  -41.5888    1.0000 </r>
       <r>  -41.3882    1.0000 </r>
       <r>  -41.3479    1.0000 </r>
       <r>    5.6909    1.0000 </r>
       <r>    6.0924    1.0000 </r>
       <r>    6.3463    1.0000 </r>
       <r>    6.7814    1.0000 </r>
       <r>    7.3300    1.0000 </r>
       <r>    7.5948    1.0000 </r>
       <r>    8.3846    1.0000 </r>
       <r>    9.9420    1.0000 </r>
       <r>   10.3519    1.0000 </r>
       <r>   10.6441    1.0000 </r>
       <r>   14.6358    0.0000 </r>
       <r>   15.9027    0.0000 </r>
       <r>   17.3286    0.0000 </r>
       <r>   20.8305    0.0000 </r>
       <r>   22.3989    0.0000 </r>
       <r>   23.6032    0.0000 </r>
       <r>   24.4058    0.0000 </r>
       <r>   24.8121    0.0000 </r>
      </set>
      <set comment="kpoint 15">
       <r>  -41.5676    1.0000 </r>
       <r>  -41.4157    1.0000 </r>
       <r>  -41.4157    1.0000 </r>
       <r>  -41.3794    1.0000 </r>
       <r>  -41.3794    1.0000 </r>
       <r>  -41.2710    1.0000 </r>
       <r>    1.4964    1.0000 </r>
       <r>    3.9900    1.0000 </r>
       <r>    7.0942    1.0000 </r>
       <r>    7.5985    1.0000 </r>
       <r>    7.5985    1.0000 </r>
       <r>    7.9422    1.0000 </r>
       <r>    7.9422    1.0000 </r>
       <r>    9.3185    1.0000 </r>
       <r>    9.3185    1.0000 </r>
       <r>    9.7134    1.0000 </r>
       <r>   10.7621    1.0000 </r>
       <r>   10.7621    1.0000 </r>
       <r>   16.5175    0.0000 </r>
       <r>   25.6426    0.0000 </r>
       <r>   27.1967    0.0000 </r>
       <r>   27.9590    0.0000 </r>
       <r>   31.4055    0.0000 </r>
       <r>   31.4055    0.0000 </r>
      </set>
      <set comment="kpoint 16">
       <r>  -41.5577    1.0000 </r>
       <r>  -41.4496    1.0000 </r>
       <r>  -41.4257    1.0000 </r>
       <r>  -41.4158    1.0000 </r>
       <r>  -41.3867    1.0000 </r>
       <r>  -41.2724    1.0000 </r>
       <r>    1.8521    1.0000 </r>
       <r>    4.3203    1.0000 </r>
       <r>    7.0622    1.0000 </r>
       <r>    7.5448    1.0000 </r>
       <r>    7.7331    1.0000 </r>
       <r>    7.8620    1.0000 </r>
       <r>    8.1967    1.0000 </r>
       <r>    8.6100    1.0000 </r>
       <r>    9.1683    1.0000 </r>
       <r>    9.2050    1.0000 </r>
       <r>   10.8128    1.0000 </r>
       <r>   12.0101    0.0000 </r>
       <r>   16.6059    0.0000 </r>
       <r>   26.1308    0.0000 </r>
       <r>   27.6103    0.0000 </r>
       <r>   28.3245    0.0000 </r>
       <r>   29.7432    0.0000 </r>
       <r>   30.3605    0.0000 </r>
      </set>
      <set comment="kpoint 17">
       <r>  -41.5540    1.0000 </r>
       <r>  -41.5164    1.0000 </r>
       <r>  -41.5069    1.0000 </r>
       <r>  -41.4516    1.0000 </r>
       <r>  -41.4061    1.0000 </r>
       <r>  -41.2786    1.0000 </r>
       <r>    2.8147    1.0000 </r>
       <r>    5.0566    1.0000 </r>
       <r>    6.8637    1.0000 </r>
       <r>    7.0587    1.0000 </r>
       <r>    7.3592    1.0000 </r>
       <r>    8.1332    1.0000 </r>
       <r>    8.5002    1.0000 </r>
       <r>    8.8416    1.0000 </r>
       <r>    8.9098    1.0000 </r>
       <r>    9.0143    1.0000 </r>
       <r>   10.8901    0.9977 </r>
       <r>   13.5204    0.0000 </r>
       <r>   17.0189    0.0000 </r>
       <r>   25.0493    0.0000 </r>
       <r>   27.6025    0.0000 </r>
       <r>   28.1721    0.0000 </r>
       <r>   28.4243    0.0000 </r>
       <r>   29.5573    0.0000 </r>
      </set>
      <set comment="kpoint 18">
       <r>  -41.6584    1.0000 </r>
       <r>  -41.6211    1.0000 </r>
       <r>  -41.4827    1.0000 </r>
       <r>  -41.4808    1.0000 </r>
       <r>  -41.4305    1.0000 </r>
       <r>  -41.2914    1.0000 </r>
       <r>    3.9534    1.0000 </r>
       <r>    5.2036    1.0000 </r>
       <r>    6.2506    1.0000 </r>
       <r>    6.9314    1.0000 </r>
       <r>    7.4717    1.0000 </r>
       <r>    8.3056    1.0000 </r>
       <r>    8.3569    1.0000 </r>
       <r>    9.4307    1.0000 </r>
       <r>    9.7882    1.0000 </r>
       <r>    9.9472    1.0000 </r>
       <r>   10.9342    0.9440 </r>
       <r>   14.6059    0.0000 </r>
       <r>   18.0121    0.0000 </r>
       <r>   21.5009    0.0000 </r>
       <r>   25.8860    0.0000 </r>
       <r>   25.9620    0.0000 </r>
       <r>   27.5010    0.0000 </r>
       <r>   29.3761    0.0000 </r>
      </set>
      <set comment="kpoint 19">
       <r>  -41.7488    1.0000 </r>
       <r>  -41.7102    1.0000 </r>
       <r>  -41.5078    1.0000 </r>
       <r>  -41.4509    1.0000 </r>
       <r>  -41.4395    1.0000 </r>
       <r>  -41.3103    1.0000 </r>
       <r>    4.5010    1.0000 </r>
       <r>    4.8745    1.0000 </r>
       <r>    5.7783    1.0000 </r>
       <r>    6.9808    1.0000 </r>
       <r>    8.0465    1.0000 </r>
       <r>    8.1058    1.0000 </r>
       <r>    8.7890    1.0000 </r>
       <r>   10.7566    1.0000 </r>
       <r>   10.8463    1.0000 </r>
       <r>   11.1065    0.0005 </r>
       <r>   11.1368    0.0000 </r>
       <r>   15.6386    0.0000 </r>
       <r>   17.6465    0.0000 </r>
       <r>   19.6789    0.0000 </r>
       <r>   23.0524    0.0000 </r>
       <r>   24.0305    0.0000 </r>
       <r>   25.2230    0.0000 </r>
       <r>   27.8695    0.0000 </r>
      </set>
      <set comment="kpoint 20">
       <r>  -41.7832    1.0000 </r>
       <r>  -41.7440    1.0000 </r>
       <r>  -41.5173    1.0000 </r>
       <r>  -41.4587    1.0000 </r>
       <r>  -41.4183    1.0000 </r>
       <r>  -41.3225    1.0000 </r>
       <r>    4.5803    1.0000 </r>
       <r>    4.6938    1.0000 </r>
       <r>    5.6279    1.0000 </r>
       <r>    7.0438    1.0000 </r>
       <r>    8.0126    1.0000 </r>
       <r>    8.1948    1.0000 </r>
       <r>    9.2355    1.0000 </r>
       <r>   10.8400    1.0000 </r>
       <r>   11.2981    0.0000 </r>
       <r>   11.4711    0.0000 </r>
       <r>   13.0177    0.0000 </r>
       <r>   14.6002    0.0000 </r>
       <r>   18.0852    0.0000 </r>
       <r>   18.8206    0.0000 </r>
       <r>   21.6846    0.0000 </r>
       <r>   23.2728    0.0000 </r>
       <r>   24.3820    0.0000 </r>
       <r>   27.3559    0.0000 </r>
      </set>
      <set comment="kpoint 21">
       <r>  -41.5436    1.0000 </r>
       <r>  -41.5004    1.0000 </r>
       <r>  -41.4853    1.0000 </r>
       <r>  -41.4395    1.0000 </r>
       <r>  -41.4049    1.0000 </r>
       <r>  -41.2761    1.0000 </r>
       <r>    2.5202    1.0000 </r>
       <r>    4.9015    1.0000 </r>
       <r>    6.8245    1.0000 </r>
       <r>    7.2697    1.0000 </r>
       <r>    7.6269    1.0000 </r>
       <r>    7.8518    1.0000 </r>
       <r>    8.3981    1.0000 </r>
       <r>    8.6169    1.0000 </r>
       <r>    8.9061    1.0000 </r>
       <r>    9.1882    1.0000 </r>
       <r>   10.8222    1.0000 </r>
       <r>   13.1706    0.0000 </r>
       <r>   16.8633    0.0000 </r>
       <r>   26.3531    0.0000 </r>
       <r>   27.0349    0.0000 </r>
       <r>   27.9970    0.0000 </r>
       <r>   28.6507    0.0000 </r>
       <r>   30.0815    0.0000 </r>
      </set>
      <set comment="kpoint 22">
       <r>  -41.6074    1.0000 </r>
       <r>  -41.5817    1.0000 </r>
       <r>  -41.4955    1.0000 </r>
       <r>  -41.4750    1.0000 </r>
       <r>  -41.4337    1.0000 </r>
       <r>  -41.2861    1.0000 </r>
       <r>    3.6502    1.0000 </r>
       <r>    5.5406    1.0000 </r>
       <r>    6.4978    1.0000 </r>
       <r>    6.6824    1.0000 </r>
       <r>    7.2498    1.0000 </r>
       <r>    7.8987    1.0000 </r>
       <r>    8.5991    1.0000 </r>
       <r>    8.7454    1.0000 </r>
       <r>    9.6164    1.0000 </r>
       <r>    9.8523    1.0000 </r>
       <r>   10.8243    1.0000 </r>
       <r>   14.3319    0.0000 </r>
       <r>   17.6637    0.0000 </r>
       <r>   23.3075    0.0000 </r>
       <r>   25.1642    0.0000 </r>
       <r>   27.1538    0.0000 </r>
       <r>   28.5089    0.0000 </r>
       <r>   30.3292    0.0000 </r>
      </set>
      <set comment="kpoint 23">
       <r>  -41.7039    1.0000 </r>
       <r>  -41.6714    1.0000 </r>
       <r>  -41.5129    1.0000 </r>
       <r>  -41.4629    1.0000 </r>
       <r>  -41.4521    1.0000 </r>
       <r>  -41.3028    1.0000 </r>
       <r>    4.6002    1.0000 </r>
       <r>    5.3086    1.0000 </r>
       <r>    5.9748    1.0000 </r>
       <r>    6.8347    1.0000 </r>
       <r>    7.6772    1.0000 </r>
       <r>    8.0532    1.0000 </r>
       <r>    8.2906    1.0000 </r>
       <r>    9.5495    1.0000 </r>
       <r>   10.6187    1.0000 </r>
       <r>   10.6762    1.0000 </r>
       <r>   11.3658    0.0000 </r>
       <r>   15.4207    0.0000 </r>
       <r>   18.5794    0.0000 </r>
       <r>   20.0797    0.0000 </r>
       <r>   23.0491    0.0000 </r>
       <r>   25.2207    0.0000 </r>
       <r>   26.4203    0.0000 </r>
       <r>   28.2518    0.0000 </r>
      </set>
      <set comment="kpoint 24">
       <r>  -41.7640    1.0000 </r>
       <r>  -41.7257    1.0000 </r>
       <r>  -41.5355    1.0000 </r>
       <r>  -41.4793    1.0000 </r>
       <r>  -41.4183    1.0000 </r>
       <r>  -41.3218    1.0000 </r>
       <r>    4.8060    1.0000 </r>
       <r>    5.0103    1.0000 </r>
       <r>    5.7681    1.0000 </r>
       <r>    6.9854    1.0000 </r>
       <r>    7.7583    1.0000 </r>
       <r>    8.3164    1.0000 </r>
       <r>    8.7163    1.0000 </r>
       <r>   10.6379    1.0000 </r>
       <r>   10.7516    1.0000 </r>
       <r>   11.1594    0.0000 </r>
       <r>   12.9484    0.0000 </r>
       <r>   15.7405    0.0000 </r>
       <r>   17.5248    0.0000 </r>
       <r>   19.8780    0.0000 </r>
       <r>   21.2483    0.0000 </r>
       <r>   23.3468    0.0000 </r>
       <r>   24.9262    0.0000 </r>
       <r>   27.0739    0.0000 </r>
      </set>
      <set comment="kpoint 25">
       <r>  -41.6619    1.0000 </r>
       <r>  -41.6607    1.0000 </r>
       <r>  -41.5189    1.0000 </r>
       <r>  -41.4840    1.0000 </r>
       <r>  -41.4565    1.0000 </r>
       <r>  -41.3003    1.0000 </r>
       <r>    4.7962    1.0000 </r>
       <r>    5.9498    1.0000 </r>
       <r>    6.1919    1.0000 </r>
       <r>    6.2692    1.0000 </r>
       <r>    7.5007    1.0000 </r>
       <r>    7.5020    1.0000 </r>
       <r>    8.3493    1.0000 </r>
       <r>    8.9581    1.0000 </r>
       <r>   10.4884    1.0000 </r>
       <r>   10.6666    1.0000 </r>
       <r>   11.4575    0.0000 </r>
       <r>   15.4139    0.0000 </r>
       <r>   18.8167    0.0000 </r>
       <r>   21.2110    0.0000 </r>
       <r>   21.8457    0.0000 </r>
       <r>   26.3601    0.0000 </r>
       <r>   26.8327    0.0000 </r>
       <r>   28.8479    0.0000 </r>
      </set>
      <set comment="kpoint 26">
       <r>  -41.7195    1.0000 </r>
       <r>  -41.6940    1.0000 </r>
       <r>  -41.5688    1.0000 </r>
       <r>  -41.5245    1.0000 </r>
       <r>  -41.4180    1.0000 </r>
       <r>  -41.3211    1.0000 </r>
       <r>    5.3912    1.0000 </r>
       <r>    5.7782    1.0000 </r>
       <r>    5.9452    1.0000 </r>
       <r>    6.6988    1.0000 </r>
       <r>    7.5135    1.0000 </r>
       <r>    7.8861    1.0000 </r>
       <r>    8.1692    1.0000 </r>
       <r>    9.6475    1.0000 </r>
       <r>   10.3651    1.0000 </r>
       <r>   11.0916    0.0021 </r>
       <r>   13.0836    0.0000 </r>
       <r>   17.1921    0.0000 </r>
       <r>   17.4638    0.0000 </r>
       <r>   19.8221    0.0000 </r>
       <r>   21.0941    0.0000 </r>
       <r>   24.1467    0.0000 </r>
       <r>   25.7297    0.0000 </r>
       <r>   26.7505    0.0000 </r>
      </set>
      <set comment="kpoint 27">
       <r>  -41.7412    1.0000 </r>
       <r>  -41.7030    1.0000 </r>
       <r>  -41.5921    1.0000 </r>
       <r>  -41.5402    1.0000 </r>
       <r>  -41.3959    1.0000 </r>
       <r>  -41.3361    1.0000 </r>
       <r>    5.3408    1.0000 </r>
       <r>    5.6611    1.0000 </r>
       <r>    6.0358    1.0000 </r>
       <r>    6.9164    1.0000 </r>
       <r>    7.3757    1.0000 </r>
       <r>    8.0750    1.0000 </r>
       <r>    8.4596    1.0000 </r>
       <r>   10.3085    1.0000 </r>
       <r>   10.3613    1.0000 </r>
       <r>   10.8757    0.9994 </r>
       <r>   14.7108    0.0000 </r>
       <r>   15.1682    0.0000 </r>
       <r>   18.5214    0.0000 </r>
       <r>   19.6906    0.0000 </r>
       <r>   20.6614    0.0000 </r>
       <r>   23.5976    0.0000 </r>
       <r>   25.1723    0.0000 </r>
       <r>   25.4440    0.0000 </r>
      </set>
      <set comment="kpoint 28">
       <r>  -41.7050    1.0000 </r>
       <r>  -41.6779    1.0000 </r>
       <r>  -41.6308    1.0000 </r>
       <r>  -41.5919    1.0000 </r>
       <r>  -41.3831    1.0000 </r>
       <r>  -41.3459    1.0000 </r>
       <r>    5.7247    1.0000 </r>
       <r>    6.0722    1.0000 </r>
       <r>    6.3802    1.0000 </r>
       <r>    6.6691    1.0000 </r>
       <r>    7.4541    1.0000 </r>
       <r>    7.4961    1.0000 </r>
       <r>    8.3936    1.0000 </r>
       <r>   10.0330    1.0000 </r>
       <r>   10.1438    1.0000 </r>
       <r>   10.7368    1.0000 </r>
       <r>   14.7312    0.0000 </r>
       <r>   16.0461    0.0000 </r>
       <r>   17.5780    0.0000 </r>
       <r>   19.9621    0.0000 </r>
       <r>   22.5811    0.0000 </r>
       <r>   22.6870    0.0000 </r>
       <r>   24.5313    0.0000 </r>
       <r>   25.8357    0.0000 </r>
      </set>
      <set comment="kpoint 29">
       <r>  -41.5335    1.0000 </r>
       <r>  -41.4112    1.0000 </r>
       <r>  -41.4112    1.0000 </r>
       <r>  -41.3835    1.0000 </r>
       <r>  -41.3835    1.0000 </r>
       <r>  -41.3061    1.0000 </r>
       <r>    1.8793    1.0000 </r>
       <r>    3.8924    1.0000 </r>
       <r>    7.0191    1.0000 </r>
       <r>    7.5680    1.0000 </r>
       <r>    7.5680    1.0000 </r>
       <r>    7.8439    1.0000 </r>
       <r>    7.8439    1.0000 </r>
       <r>    8.5698    1.0000 </r>
       <r>    9.5701    1.0000 </r>
       <r>    9.5701    1.0000 </r>
       <r>   10.6690    1.0000 </r>
       <r>   10.6690    1.0000 </r>
       <r>   18.4290    0.0000 </r>
       <r>   25.1173    0.0000 </r>
       <r>   27.3477    0.0000 </r>
       <r>   27.4741    0.0000 </r>
       <r>   30.9106    0.0000 </r>
       <r>   30.9106    0.0000 </r>
      </set>
      <set comment="kpoint 30">
       <r>  -41.5281    1.0000 </r>
       <r>  -41.4425    1.0000 </r>
       <r>  -41.4221    1.0000 </r>
       <r>  -41.4212    1.0000 </r>
       <r>  -41.3913    1.0000 </r>
       <r>  -41.3037    1.0000 </r>
       <r>    2.2284    1.0000 </r>
       <r>    4.2373    1.0000 </r>
       <r>    7.0478    1.0000 </r>
       <r>    7.3935    1.0000 </r>
       <r>    7.4701    1.0000 </r>
       <r>    7.8173    1.0000 </r>
       <r>    8.0923    1.0000 </r>
       <r>    8.2117    1.0000 </r>
       <r>    9.4525    1.0000 </r>
       <r>    9.4562    1.0000 </r>
       <r>   10.6912    1.0000 </r>
       <r>   11.2946    0.0000 </r>
       <r>   18.5835    0.0000 </r>
       <r>   25.6103    0.0000 </r>
       <r>   27.7249    0.0000 </r>
       <r>   27.8455    0.0000 </r>
       <r>   29.4631    0.0000 </r>
       <r>   30.3267    0.0000 </r>
      </set>
      <set comment="kpoint 31">
       <r>  -41.5570    1.0000 </r>
       <r>  -41.5177    1.0000 </r>
       <r>  -41.4779    1.0000 </r>
       <r>  -41.4462    1.0000 </r>
       <r>  -41.4115    1.0000 </r>
       <r>  -41.3034    1.0000 </r>
       <r>    3.1489    1.0000 </r>
       <r>    5.0291    1.0000 </r>
       <r>    6.6856    1.0000 </r>
       <r>    6.9710    1.0000 </r>
       <r>    7.1345    1.0000 </r>
       <r>    7.9373    1.0000 </r>
       <r>    8.4184    1.0000 </r>
       <r>    8.7706    1.0000 </r>
       <r>    9.3151    1.0000 </r>
       <r>    9.3419    1.0000 </r>
       <r>   10.7152    1.0000 </r>
       <r>   12.3022    0.0000 </r>
       <r>   19.0417    0.0000 </r>
       <r>   25.3361    0.0000 </r>
       <r>   27.0115    0.0000 </r>
       <r>   27.7508    0.0000 </r>
       <r>   28.6437    0.0000 </r>
       <r>   29.6932    0.0000 </r>
      </set>
      <set comment="kpoint 32">
       <r>  -41.6611    1.0000 </r>
       <r>  -41.6308    1.0000 </r>
       <r>  -41.4766    1.0000 </r>
       <r>  -41.4515    1.0000 </r>
       <r>  -41.4366    1.0000 </r>
       <r>  -41.3091    1.0000 </r>
       <r>    4.1162    1.0000 </r>
       <r>    5.2330    1.0000 </r>
       <r>    6.1392    1.0000 </r>
       <r>    6.6798    1.0000 </r>
       <r>    7.5930    1.0000 </r>
       <r>    8.3962    1.0000 </r>
       <r>    8.5329    1.0000 </r>
       <r>    9.6582    1.0000 </r>
       <r>    9.7163    1.0000 </r>
       <r>    9.9415    1.0000 </r>
       <r>   10.7538    1.0000 </r>
       <r>   13.2080    0.0000 </r>
       <r>   19.4959    0.0000 </r>
       <r>   22.2885    0.0000 </r>
       <r>   25.0334    0.0000 </r>
       <r>   26.5695    0.0000 </r>
       <r>   27.5094    0.0000 </r>
       <r>   28.8806    0.0000 </r>
      </set>
      <set comment="kpoint 33">
       <r>  -41.7500    1.0000 </r>
       <r>  -41.7199    1.0000 </r>
       <r>  -41.5010    1.0000 </r>
       <r>  -41.4574    1.0000 </r>
       <r>  -41.4178    1.0000 </r>
       <r>  -41.3205    1.0000 </r>
       <r>    4.4240    1.0000 </r>
       <r>    4.9057    1.0000 </r>
       <r>    5.9805    1.0000 </r>
       <r>    6.3738    1.0000 </r>
       <r>    8.3215    1.0000 </r>
       <r>    8.3516    1.0000 </r>
       <r>    9.6404    1.0000 </r>
       <r>   10.3318    1.0000 </r>
       <r>   10.8835    0.9988 </r>
       <r>   10.8843    0.9987 </r>
       <r>   11.1097    0.0004 </r>
       <r>   14.1927    0.0000 </r>
       <r>   17.9809    0.0000 </r>
       <r>   20.4191    0.0000 </r>
       <r>   23.0246    0.0000 </r>
       <r>   24.7988    0.0000 </r>
       <r>   25.7808    0.0000 </r>
       <r>   28.2764    0.0000 </r>
      </set>
      <set comment="kpoint 34">
       <r>  -41.7846    1.0000 </r>
       <r>  -41.7542    1.0000 </r>
       <r>  -41.5104    1.0000 </r>
       <r>  -41.4655    1.0000 </r>
       <r>  -41.4011    1.0000 </r>
       <r>  -41.3283    1.0000 </r>
       <r>    4.4164    1.0000 </r>
       <r>    4.7489    1.0000 </r>
       <r>    5.9034    1.0000 </r>
       <r>    6.3237    1.0000 </r>
       <r>    8.2741    1.0000 </r>
       <r>    8.5122    1.0000 </r>
       <r>   10.3548    1.0000 </r>
       <r>   10.4004    1.0000 </r>
       <r>   11.3273    0.0000 </r>
       <r>   11.4527    0.0000 </r>
       <r>   12.3593    0.0000 </r>
       <r>   14.2464    0.0000 </r>
       <r>   17.7676    0.0000 </r>
       <r>   17.9723    0.0000 </r>
       <r>   23.2199    0.0000 </r>
       <r>   24.0695    0.0000 </r>
       <r>   24.7209    0.0000 </r>
       <r>   28.0916    0.0000 </r>
      </set>
      <set comment="kpoint 35">
       <r>  -41.5353    1.0000 </r>
       <r>  -41.4900    1.0000 </r>
       <r>  -41.4752    1.0000 </r>
       <r>  -41.4372    1.0000 </r>
       <r>  -41.4094    1.0000 </r>
       <r>  -41.3028    1.0000 </r>
       <r>    2.8750    1.0000 </r>
       <r>    4.8533    1.0000 </r>
       <r>    6.8777    1.0000 </r>
       <r>    6.9203    1.0000 </r>
       <r>    7.2575    1.0000 </r>
       <r>    7.8346    1.0000 </r>
       <r>    8.2925    1.0000 </r>
       <r>    8.5786    1.0000 </r>
       <r>    9.3282    1.0000 </r>
       <r>    9.4015    1.0000 </r>
       <r>   10.6690    1.0000 </r>
       <r>   12.0648    0.0000 </r>
       <r>   18.9036    0.0000 </r>
       <r>   26.1648    0.0000 </r>
       <r>   27.2716    0.0000 </r>
       <r>   27.8068    0.0000 </r>
       <r>   28.0306    0.0000 </r>
       <r>   29.5036    0.0000 </r>
      </set>
      <set comment="kpoint 36">
       <r>  -41.6119    1.0000 </r>
       <r>  -41.5884    1.0000 </r>
       <r>  -41.4731    1.0000 </r>
       <r>  -41.4623    1.0000 </r>
       <r>  -41.4379    1.0000 </r>
       <r>  -41.3060    1.0000 </r>
       <r>    3.9137    1.0000 </r>
       <r>    5.5785    1.0000 </r>
       <r>    6.2154    1.0000 </r>
       <r>    6.7667    1.0000 </r>
       <r>    7.0947    1.0000 </r>
       <r>    7.7596    1.0000 </r>
       <r>    8.5630    1.0000 </r>
       <r>    9.1257    1.0000 </r>
       <r>    9.7488    1.0000 </r>
       <r>    9.8336    1.0000 </r>
       <r>   10.6857    1.0000 </r>
       <r>   12.9814    0.0000 </r>
       <r>   19.5009    0.0000 </r>
       <r>   23.8268    0.0000 </r>
       <r>   25.4147    0.0000 </r>
       <r>   26.8246    0.0000 </r>
       <r>   27.9707    0.0000 </r>
       <r>   28.6373    0.0000 </r>
      </set>
      <set comment="kpoint 37">
       <r>  -41.7059    1.0000 </r>
       <r>  -41.6801    1.0000 </r>
       <r>  -41.5084    1.0000 </r>
       <r>  -41.4693    1.0000 </r>
       <r>  -41.4272    1.0000 </r>
       <r>  -41.3149    1.0000 </r>
       <r>    4.6107    1.0000 </r>
       <r>    5.3589    1.0000 </r>
       <r>    5.9931    1.0000 </r>
       <r>    6.5668    1.0000 </r>
       <r>    7.7223    1.0000 </r>
       <r>    8.3336    1.0000 </r>
       <r>    8.4889    1.0000 </r>
       <r>    9.6642    1.0000 </r>
       <r>   10.2171    1.0000 </r>
       <r>   10.8340    1.0000 </r>
       <r>   11.3976    0.0000 </r>
       <r>   14.0427    0.0000 </r>
       <r>   19.1292    0.0000 </r>
       <r>   21.4728    0.0000 </r>
       <r>   23.0806    0.0000 </r>
       <r>   24.9071    0.0000 </r>
       <r>   26.7407    0.0000 </r>
       <r>   27.9610    0.0000 </r>
      </set>
      <set comment="kpoint 38">
       <r>  -41.7652    1.0000 </r>
       <r>  -41.7354    1.0000 </r>
       <r>  -41.5303    1.0000 </r>
       <r>  -41.4866    1.0000 </r>
       <r>  -41.3998    1.0000 </r>
       <r>  -41.3272    1.0000 </r>
       <r>    4.6512    1.0000 </r>
       <r>    5.0709    1.0000 </r>
       <r>    6.0773    1.0000 </r>
       <r>    6.3493    1.0000 </r>
       <r>    7.7627    1.0000 </r>
       <r>    8.7593    1.0000 </r>
       <r>    9.3934    1.0000 </r>
       <r>   10.1852    1.0000 </r>
       <r>   10.7018    1.0000 </r>
       <r>   11.2609    0.0000 </r>
       <r>   12.8459    0.0000 </r>
       <r>   15.0513    0.0000 </r>
       <r>   17.2984    0.0000 </r>
       <r>   19.3694    0.0000 </r>
       <r>   22.3446    0.0000 </r>
       <r>   24.0858    0.0000 </r>
       <r>   25.4034    0.0000 </r>
       <r>   26.9145    0.0000 </r>
      </set>
      <set comment="kpoint 39">
       <r>  -41.6682    1.0000 </r>
       <r>  -41.6639    1.0000 </r>
       <r>  -41.5177    1.0000 </r>
       <r>  -41.4907    1.0000 </r>
       <r>  -41.4292    1.0000 </r>
       <r>  -41.3127    1.0000 </r>
       <r>    4.9012    1.0000 </r>
       <r>    5.7717    1.0000 </r>
       <r>    6.2671    1.0000 </r>
       <r>    6.4292    1.0000 </r>
       <r>    7.4138    1.0000 </r>
       <r>    7.4601    1.0000 </r>
       <r>    8.2178    1.0000 </r>
       <r>    9.3910    1.0000 </r>
       <r>   10.0605    1.0000 </r>
       <r>   10.8880    0.9981 </r>
       <r>   11.5394    0.0000 </r>
       <r>   14.0890    0.0000 </r>
       <r>   19.8355    0.0000 </r>
       <r>   22.2556    0.0000 </r>
       <r>   22.3115    0.0000 </r>
       <r>   25.7243    0.0000 </r>
       <r>   25.9627    0.0000 </r>
       <r>   28.5139    0.0000 </r>
      </set>
      <set comment="kpoint 40">
       <r>  -41.7207    1.0000 </r>
       <r>  -41.7019    1.0000 </r>
       <r>  -41.5673    1.0000 </r>
       <r>  -41.5326    1.0000 </r>
       <r>  -41.3980    1.0000 </r>
       <r>  -41.3255    1.0000 </r>
       <r>    5.2610    1.0000 </r>
       <r>    5.9098    1.0000 </r>
       <r>    5.9355    1.0000 </r>
       <r>    6.7057    1.0000 </r>
       <r>    7.3696    1.0000 </r>
       <r>    7.9510    1.0000 </r>
       <r>    8.3756    1.0000 </r>
       <r>    9.7644    1.0000 </r>
       <r>   10.0195    1.0000 </r>
       <r>   11.2797    0.0000 </r>
       <r>   13.1938    0.0000 </r>
       <r>   15.9430    0.0000 </r>
       <r>   17.8396    0.0000 </r>
       <r>   20.2280    0.0000 </r>
       <r>   21.8419    0.0000 </r>
       <r>   23.8229    0.0000 </r>
       <r>   25.1600    0.0000 </r>
       <r>   27.2885    0.0000 </r>
      </set>
      <set comment="kpoint 41">
       <r>  -41.7412    1.0000 </r>
       <r>  -41.7122    1.0000 </r>
       <r>  -41.5897    1.0000 </r>
       <r>  -41.5489    1.0000 </r>
       <r>  -41.3803    1.0000 </r>
       <r>  -41.3358    1.0000 </r>
       <r>    5.1924    1.0000 </r>
       <r>    5.7748    1.0000 </r>
       <r>    6.3474    1.0000 </r>
       <r>    6.5154    1.0000 </r>
       <r>    7.1208    1.0000 </r>
       <r>    8.3873    1.0000 </r>
       <r>    8.7765    1.0000 </r>
       <r>    9.8202    1.0000 </r>
       <r>   10.4560    1.0000 </r>
       <r>   11.0236    0.1739 </r>
       <r>   14.9504    0.0000 </r>
       <r>   15.2739    0.0000 </r>
       <r>   18.2442    0.0000 </r>
       <r>   18.9328    0.0000 </r>
       <r>   20.4449    0.0000 </r>
       <r>   24.4154    0.0000 </r>
       <r>   25.0632    0.0000 </r>
       <r>   25.8473    0.0000 </r>
      </set>
      <set comment="kpoint 42">
       <r>  -41.7024    1.0000 </r>
       <r>  -41.6853    1.0000 </r>
       <r>  -41.6331    1.0000 </r>
       <r>  -41.6002    1.0000 </r>
       <r>  -41.3697    1.0000 </r>
       <r>  -41.3420    1.0000 </r>
       <r>    5.7864    1.0000 </r>
       <r>    5.9938    1.0000 </r>
       <r>    6.4960    1.0000 </r>
       <r>    6.5684    1.0000 </r>
       <r>    7.3076    1.0000 </r>
       <r>    7.5930    1.0000 </r>
       <r>    8.4153    1.0000 </r>
       <r>    9.6295    1.0000 </r>
       <r>   10.2985    1.0000 </r>
       <r>   10.9129    0.9858 </r>
       <r>   15.0169    0.0000 </r>
       <r>   16.4876    0.0000 </r>
       <r>   18.2110    0.0000 </r>
       <r>   18.6230    0.0000 </r>
       <r>   21.2039    0.0000 </r>
       <r>   22.1931    0.0000 </r>
       <r>   25.5637    0.0000 </r>
       <r>   27.1498    0.0000 </r>
      </set>
      <set comment="kpoint 43">
       <r>  -41.4819    1.0000 </r>
       <r>  -41.4048    1.0000 </r>
       <r>  -41.4048    1.0000 </r>
       <r>  -41.3900    1.0000 </r>
       <r>  -41.3900    1.0000 </r>
       <r>  -41.3584    1.0000 </r>
       <r>    2.4541    1.0000 </r>
       <r>    3.6155    1.0000 </r>
       <r>    6.9788    1.0000 </r>
       <r>    7.5697    1.0000 </r>
       <r>    7.5697    1.0000 </r>
       <r>    7.6206    1.0000 </r>
       <r>    7.7244    1.0000 </r>
       <r>    7.7244    1.0000 </r>
       <r>    9.8960    1.0000 </r>
       <r>    9.8960    1.0000 </r>
       <r>   10.4892    1.0000 </r>
       <r>   10.4892    1.0000 </r>
       <r>   20.6892    0.0000 </r>
       <r>   24.4370    0.0000 </r>
       <r>   26.7718    0.0000 </r>
       <r>   26.9007    0.0000 </r>
       <r>   30.8589    0.0000 </r>
       <r>   30.8589    0.0000 </r>
      </set>
      <set comment="kpoint 44">
       <r>  -41.4867    1.0000 </r>
       <r>  -41.4331    1.0000 </r>
       <r>  -41.4276    1.0000 </r>
       <r>  -41.4142    1.0000 </r>
       <r>  -41.3979    1.0000 </r>
       <r>  -41.3488    1.0000 </r>
       <r>    2.7975    1.0000 </r>
       <r>    3.9675    1.0000 </r>
       <r>    6.9570    1.0000 </r>
       <r>    7.1144    1.0000 </r>
       <r>    7.3835    1.0000 </r>
       <r>    7.7893    1.0000 </r>
       <r>    7.8123    1.0000 </r>
       <r>    7.9690    1.0000 </r>
       <r>    9.8111    1.0000 </r>
       <r>    9.8671    1.0000 </r>
       <r>   10.4747    1.0000 </r>
       <r>   10.7692    1.0000 </r>
       <r>   20.8498    0.0000 </r>
       <r>   24.8084    0.0000 </r>
       <r>   27.1913    0.0000 </r>
       <r>   27.2539    0.0000 </r>
       <r>   29.5133    0.0000 </r>
       <r>   30.5328    0.0000 </r>
      </set>
      <set comment="kpoint 45">
       <r>  -41.5519    1.0000 </r>
       <r>  -41.5289    1.0000 </r>
       <r>  -41.4380    1.0000 </r>
       <r>  -41.4341    1.0000 </r>
       <r>  -41.4193    1.0000 </r>
       <r>  -41.3411    1.0000 </r>
       <r>    3.6613    1.0000 </r>
       <r>    4.7877    1.0000 </r>
       <r>    6.4715    1.0000 </r>
       <r>    6.8222    1.0000 </r>
       <r>    7.1478    1.0000 </r>
       <r>    7.6741    1.0000 </r>
       <r>    8.4258    1.0000 </r>
       <r>    8.6353    1.0000 </r>
       <r>    9.6944    1.0000 </r>
       <r>    9.8986    1.0000 </r>
       <r>   10.4371    1.0000 </r>
       <r>   11.3404    0.0000 </r>
       <r>   21.2092    0.0000 </r>
       <r>   25.3395    0.0000 </r>
       <r>   26.0638    0.0000 </r>
       <r>   27.1130    0.0000 </r>
       <r>   28.9297    0.0000 </r>
       <r>   29.4274    0.0000 </r>
      </set>
      <set comment="kpoint 46">
       <r>  -41.6600    1.0000 </r>
       <r>  -41.6428    1.0000 </r>
       <r>  -41.4674    1.0000 </r>
       <r>  -41.4457    1.0000 </r>
       <r>  -41.4127    1.0000 </r>
       <r>  -41.3372    1.0000 </r>
       <r>    4.3851    1.0000 </r>
       <r>    5.0814    1.0000 </r>
       <r>    6.0916    1.0000 </r>
       <r>    6.4714    1.0000 </r>
       <r>    7.8242    1.0000 </r>
       <r>    8.3103    1.0000 </r>
       <r>    8.8025    1.0000 </r>
       <r>    9.4542    1.0000 </r>
       <r>   10.0864    1.0000 </r>
       <r>   10.1509    1.0000 </r>
       <r>   10.5210    1.0000 </r>
       <r>   11.9555    0.0000 </r>
       <r>   20.9148    0.0000 </r>
       <r>   23.2090    0.0000 </r>
       <r>   24.1171    0.0000 </r>
       <r>   26.6249    0.0000 </r>
       <r>   27.6201    0.0000 </r>
       <r>   28.9522    0.0000 </r>
      </set>
      <set comment="kpoint 47">
       <r>  -41.7489    1.0000 </r>
       <r>  -41.7322    1.0000 </r>
       <r>  -41.4910    1.0000 </r>
       <r>  -41.4675    1.0000 </r>
       <r>  -41.3899    1.0000 </r>
       <r>  -41.3375    1.0000 </r>
       <r>    4.4638    1.0000 </r>
       <r>    4.8406    1.0000 </r>
       <r>    5.9468    1.0000 </r>
       <r>    6.1171    1.0000 </r>
       <r>    8.7408    1.0000 </r>
       <r>    8.8870    1.0000 </r>
       <r>    9.7957    1.0000 </r>
       <r>   10.1665    1.0000 </r>
       <r>   10.7880    1.0000 </r>
       <r>   10.9400    0.9231 </r>
       <r>   11.0677    0.0144 </r>
       <r>   12.8153    0.0000 </r>
       <r>   18.5540    0.0000 </r>
       <r>   20.0571    0.0000 </r>
       <r>   23.9571    0.0000 </r>
       <r>   25.8689    0.0000 </r>
       <r>   25.9273    0.0000 </r>
       <r>   28.5925    0.0000 </r>
      </set>
      <set comment="kpoint 48">
       <r>  -41.7831    1.0000 </r>
       <r>  -41.7661    1.0000 </r>
       <r>  -41.5001    1.0000 </r>
       <r>  -41.4759    1.0000 </r>
       <r>  -41.3789    1.0000 </r>
       <r>  -41.3398    1.0000 </r>
       <r>    4.4066    1.0000 </r>
       <r>    4.7177    1.0000 </r>
       <r>    5.9218    1.0000 </r>
       <r>    5.9600    1.0000 </r>
       <r>    8.6892    1.0000 </r>
       <r>    9.2012    1.0000 </r>
       <r>    9.8234    1.0000 </r>
       <r>   11.1018    0.0008 </r>
       <r>   11.3589    0.0000 </r>
       <r>   11.4254    0.0000 </r>
       <r>   11.7820    0.0000 </r>
       <r>   13.6049    0.0000 </r>
       <r>   17.4894    0.0000 </r>
       <r>   17.5246    0.0000 </r>
       <r>   24.4868    0.0000 </r>
       <r>   25.0790    0.0000 </r>
       <r>   25.2168    0.0000 </r>
       <r>   27.8176    0.0000 </r>
      </set>
      <set comment="kpoint 49">
       <r>  -41.5238    1.0000 </r>
       <r>  -41.4990    1.0000 </r>
       <r>  -41.4373    1.0000 </r>
       <r>  -41.4323    1.0000 </r>
       <r>  -41.4157    1.0000 </r>
       <r>  -41.3425    1.0000 </r>
       <r>    3.4183    1.0000 </r>
       <r>    4.5944    1.0000 </r>
       <r>    6.6177    1.0000 </r>
       <r>    6.9069    1.0000 </r>
       <r>    7.0873    1.0000 </r>
       <r>    7.6008    1.0000 </r>
       <r>    8.2859    1.0000 </r>
       <r>    8.4619    1.0000 </r>
       <r>    9.7241    1.0000 </r>
       <r>    9.8819    1.0000 </r>
       <r>   10.4163    1.0000 </r>
       <r>   11.2073    0.0000 </r>
       <r>   21.1335    0.0000 </r>
       <r>   25.3212    0.0000 </r>
       <r>   27.3757    0.0000 </r>
       <r>   27.5330    0.0000 </r>
       <r>   27.7092    0.0000 </r>
       <r>   28.5682    0.0000 </r>
      </set>
      <set comment="kpoint 50">
       <r>  -41.6117    1.0000 </r>
       <r>  -41.5973    1.0000 </r>
       <r>  -41.4662    1.0000 </r>
       <r>  -41.4497    1.0000 </r>
       <r>  -41.4176    1.0000 </r>
       <r>  -41.3369    1.0000 </r>
       <r>    4.3221    1.0000 </r>
       <r>    5.3240    1.0000 </r>
       <r>    6.1869    1.0000 </r>
       <r>    6.7163    1.0000 </r>
       <r>    7.0357    1.0000 </r>
       <r>    7.5269    1.0000 </r>
       <r>    8.7058    1.0000 </r>
       <r>    9.2209    1.0000 </r>
       <r>   10.0203    1.0000 </r>
       <r>   10.0880    1.0000 </r>
       <r>   10.4897    1.0000 </r>
       <r>   11.8162    0.0000 </r>
       <r>   21.4221    0.0000 </r>
       <r>   24.6109    0.0000 </r>
       <r>   24.9504    0.0000 </r>
       <r>   26.7861    0.0000 </r>
       <r>   26.8233    0.0000 </r>
       <r>   27.7183    0.0000 </r>
      </set>
      <set comment="kpoint 51">
       <r>  -41.7054    1.0000 </r>
       <r>  -41.6910    1.0000 </r>
       <r>  -41.5005    1.0000 </r>
       <r>  -41.4790    1.0000 </r>
       <r>  -41.3950    1.0000 </r>
       <r>  -41.3352    1.0000 </r>
       <r>    4.7200    1.0000 </r>
       <r>    5.2266    1.0000 </r>
       <r>    6.0120    1.0000 </r>
       <r>    6.4231    1.0000 </r>
       <r>    7.9381    1.0000 </r>
       <r>    8.3539    1.0000 </r>
       <r>    8.7755    1.0000 </r>
       <r>    9.5431    1.0000 </r>
       <r>   10.2888    1.0000 </r>
       <r>   11.0227    0.1807 </r>
       <r>   11.3801    0.0000 </r>
       <r>   12.7060    0.0000 </r>
       <r>   19.9396    0.0000 </r>
       <r>   21.8165    0.0000 </r>
       <r>   23.6164    0.0000 </r>
       <r>   25.4118    0.0000 </r>
       <r>   26.6160    0.0000 </r>
       <r>   26.8049    0.0000 </r>
      </set>
      <set comment="kpoint 52">
       <r>  -41.7637    1.0000 </r>
       <r>  -41.7474    1.0000 </r>
       <r>  -41.5214    1.0000 </r>
       <r>  -41.4975    1.0000 </r>
       <r>  -41.3766    1.0000 </r>
       <r>  -41.3377    1.0000 </r>
       <r>    4.6527    1.0000 </r>
       <r>    5.0241    1.0000 </r>
       <r>    5.9821    1.0000 </r>
       <r>    6.1796    1.0000 </r>
       <r>    8.1028    1.0000 </r>
       <r>    9.2468    1.0000 </r>
       <r>    9.4138    1.0000 </r>
       <r>    9.9541    1.0000 </r>
       <r>   10.7269    1.0000 </r>
       <r>   11.2553    0.0000 </r>
       <r>   12.8957    0.0000 </r>
       <r>   14.1334    0.0000 </r>
       <r>   17.5288    0.0000 </r>
       <r>   18.6834    0.0000 </r>
       <r>   23.6102    0.0000 </r>
       <r>   24.9573    0.0000 </r>
       <r>   25.7594    0.0000 </r>
       <r>   26.1221    0.0000 </r>
      </set>
      <set comment="kpoint 53">
       <r>  -41.6722    1.0000 </r>
       <r>  -41.6683    1.0000 </r>
       <r>  -41.5140    1.0000 </r>
       <r>  -41.4990    1.0000 </r>
       <r>  -41.3956    1.0000 </r>
       <r>  -41.3338    1.0000 </r>
       <r>    5.0753    1.0000 </r>
       <r>    5.5509    1.0000 </r>
       <r>    6.4142    1.0000 </r>
       <r>    6.5654    1.0000 </r>
       <r>    7.2584    1.0000 </r>
       <r>    7.2587    1.0000 </r>
       <r>    8.4057    1.0000 </r>
       <r>    9.3609    1.0000 </r>
       <r>   10.2797    1.0000 </r>
       <r>   11.0691    0.0130 </r>
       <r>   11.5782    0.0000 </r>
       <r>   12.7819    0.0000 </r>
       <r>   20.9931    0.0000 </r>
       <r>   22.6158    0.0000 </r>
       <r>   23.5713    0.0000 </r>
       <r>   24.6724    0.0000 </r>
       <r>   25.5674    0.0000 </r>
       <r>   27.1432    0.0000 </r>
      </set>
      <set comment="kpoint 54">
       <r>  -41.7207    1.0000 </r>
       <r>  -41.7108    1.0000 </r>
       <r>  -41.5623    1.0000 </r>
       <r>  -41.5431    1.0000 </r>
       <r>  -41.3738    1.0000 </r>
       <r>  -41.3354    1.0000 </r>
       <r>    5.2569    1.0000 </r>
       <r>    5.6343    1.0000 </r>
       <r>    6.1692    1.0000 </r>
       <r>    6.7476    1.0000 </r>
       <r>    7.3897    1.0000 </r>
       <r>    7.9450    1.0000 </r>
       <r>    8.5513    1.0000 </r>
       <r>    9.2400    1.0000 </r>
       <r>   10.4923    1.0000 </r>
       <r>   11.3296    0.0000 </r>
       <r>   13.3991    0.0000 </r>
       <r>   14.7192    0.0000 </r>
       <r>   18.5777    0.0000 </r>
       <r>   20.2274    0.0000 </r>
       <r>   22.1077    0.0000 </r>
       <r>   23.6543    0.0000 </r>
       <r>   25.3240    0.0000 </r>
       <r>   27.1586    0.0000 </r>
      </set>
      <set comment="kpoint 55">
       <r>  -41.7392    1.0000 </r>
       <r>  -41.7238    1.0000 </r>
       <r>  -41.5835    1.0000 </r>
       <r>  -41.5607    1.0000 </r>
       <r>  -41.3626    1.0000 </r>
       <r>  -41.3389    1.0000 </r>
       <r>    5.2037    1.0000 </r>
       <r>    5.6902    1.0000 </r>
       <r>    6.1578    1.0000 </r>
       <r>    6.6759    1.0000 </r>
       <r>    7.2318    1.0000 </r>
       <r>    8.3253    1.0000 </r>
       <r>    9.0485    1.0000 </r>
       <r>    9.3803    1.0000 </r>
       <r>   10.6556    1.0000 </r>
       <r>   11.0681    0.0140 </r>
       <r>   15.3116    0.0000 </r>
       <r>   15.4387    0.0000 </r>
       <r>   17.6266    0.0000 </r>
       <r>   18.0768    0.0000 </r>
       <r>   21.1979    0.0000 </r>
       <r>   23.3613    0.0000 </r>
       <r>   26.2335    0.0000 </r>
       <r>   26.4856    0.0000 </r>
      </set>
      <set comment="kpoint 56">
       <r>  -41.7002    1.0000 </r>
       <r>  -41.6927    1.0000 </r>
       <r>  -41.6313    1.0000 </r>
       <r>  -41.6118    1.0000 </r>
       <r>  -41.3557    1.0000 </r>
       <r>  -41.3412    1.0000 </r>
       <r>    5.8166    1.0000 </r>
       <r>    5.8914    1.0000 </r>
       <r>    6.5860    1.0000 </r>
       <r>    6.6430    1.0000 </r>
       <r>    7.2322    1.0000 </r>
       <r>    7.5810    1.0000 </r>
       <r>    8.4791    1.0000 </r>
[...]
       </set>
       <set comment="band 12">
        <r>  0.0181  0.0125  0.0000  0.0048  0.1083  0.0000  0.4205  0.0000  0.0859 </r>
        <r>  0.0000  0.0000  0.0000  0.0000  0.0000  0.0473  0.0000  0.0424  0.0000 </r>
       </set>
       <set comment="band 13">
        <r>  0.0000  0.0000  0.0002  0.0000  0.0000  0.2091  0.0000  0.5127  0.0000 </r>
        <r>  0.0038  0.0010  0.0000  0.0004  0.0661  0.0000  0.0013  0.0000  0.0484 </r>
       </set>
       <set comment="band 14">
        <r>  0.0038  0.0010  0.0000  0.0004  0.0661  0.0000  0.0013  0.0000  0.0484 </r>
        <r>  0.0000  0.0000  0.0002  0.0000  0.0000  0.2091  0.0000  0.5127  0.0000 </r>
       </set>
       <set comment="band 15">
        <r>  0.0000  0.0000  0.0022  0.0000  0.0000  0.1932  0.0000  0.1432  0.0000 </r>
        <r>  0.0054  0.0001  0.0000  0.0000  0.1727  0.0000  0.3511  0.0000  0.0616 </r>
       </set>
       <set comment="band 16">
        <r>  0.0054  0.0001  0.0000  0.0000  0.1727  0.0000  0.3511  0.0000  0.0616 </r>
        <r>  0.0000  0.0000  0.0022  0.0000  0.0000  0.1932  0.0000  0.1432  0.0000 </r>
       </set>
       <set comment="band 17">
        <r>  0.0000  0.0000  0.0112  0.0000  0.0000  0.1296  0.0000  0.0465  0.0000 </r>
        <r>  0.0883  0.0222  0.0000  0.0076  0.3110  0.0000  0.0073  0.0000  0.1114 </r>
       </set>
       <set comment="band 18">
        <r>  0.0883  0.0222  0.0000  0.0076  0.3110  0.0000  0.0073  0.0000  0.1114 </r>
        <r>  0.0000  0.0000  0.0112  0.0000  0.0000  0.1296  0.0000  0.0465  0.0000 </r>
       </set>
       <set comment="band 19">
        <r>  0.0000  0.0000  0.0340  0.0000  0.0000  0.0202  0.0000  0.0457  0.0000 </r>
        <r>  0.2649  0.0534  0.0000  0.0188  0.0098  0.0000  0.0093  0.0000  0.0043 </r>
       </set>
       <set comment="band 20">
        <r>  0.2649  0.0534  0.0000  0.0188  0.0098  0.0000  0.0093  0.0000  0.0043 </r>
        <r>  0.0000  0.0000  0.0340  0.0000  0.0000  0.0202  0.0000  0.0457  0.0000 </r>
       </set>
       <set comment="band 21">
        <r>  0.0000  0.0000  0.0800  0.0000  0.0000  0.0086  0.0000  0.0174  0.0000 </r>
        <r>  0.0007  0.0443  0.0000  0.0668  0.0332  0.0000  0.0467  0.0000  0.0994 </r>
       </set>
       <set comment="band 22">
        <r>  0.0007  0.0443  0.0000  0.0668  0.0332  0.0000  0.0467  0.0000  0.0994 </r>
        <r>  0.0000  0.0000  0.0800  0.0000  0.0000  0.0086  0.0000  0.0174  0.0000 </r>
       </set>
       <set comment="band 23">
        <r>  0.0000  0.0000  0.0374  0.0000  0.0000  0.0702  0.0000  0.0279  0.0000 </r>
        <r>  0.0004  0.0447  0.0000  0.0357  0.0167  0.0000  0.0557  0.0000  0.0499 </r>
       </set>
       <set comment="band 24">
        <r>  0.0004  0.0447  0.0000  0.0357  0.0167  0.0000  0.0557  0.0000  0.0499 </r>
        <r>  0.0000  0.0000  0.0374  0.0000  0.0000  0.0702  0.0000  0.0279  0.0000 </r>
       </set>
      </set>
      <set comment="kpoint 68">
       <set comment="band 1">
        <r>  0.0000  0.0000  0.0419  0.0000  0.0000  0.0000  0.0000  0.0000  0.0000 </r>
        <r>  0.0000  0.4874  0.0000  0.4560  0.0000  0.0000  0.0000  0.0000  0.0000 </r>
       </set>
       <set comment="band 2">
        <r>  0.0000  0.4874  0.0000  0.4560  0.0000  0.0000  0.0000  0.0000  0.0000 </r>
        <r>  0.0000  0.0000  0.0419  0.0000  0.0000  0.0000  0.0000  0.0000  0.0000 </r>
       </set>
       <set comment="band 3">
        <r>  0.0000  0.0000  0.0274  0.0000  0.0000  0.0000  0.0000  0.0000  0.0000 </r>
        <r>  0.0000  0.4655  0.0000  0.4979  0.0000  0.0000  0.0000  0.0000  0.0000 </r>
       </set>
       <set comment="band 4">
        <r>  0.0000  0.4655  0.0000  0.4979  0.0000  0.0000  0.0000  0.0000  0.0000 </r>
        <r>  0.0000  0.0000  0.0274  0.0000  0.0000  0.0000  0.0000  0.0000  0.0000 </r>
       </set>
       <set comment="band 5">
        <r>  0.0000  0.0000  0.9218  0.0000  0.0000  0.0000  0.0000  0.0000  0.0000 </r>
        <r>  0.0000  0.0357  0.0000  0.0349  0.0000  0.0000  0.0000  0.0000  0.0000 </r>
       </set>
       <set comment="band 6">
        <r>  0.0000  0.0357  0.0000  0.0349  0.0000  0.0000  0.0000  0.0000  0.0000 </r>
        <r>  0.0000  0.0000  0.9218  0.0000  0.0000  0.0000  0.0000  0.0000  0.0000 </r>
       </set>
       <set comment="band 7">
        <r>  0.0000  0.0000  0.0025  0.0000  0.0000  0.1944  0.0000  0.1790  0.0000 </r>
        <r>  0.0648  0.0057  0.0000  0.0018  0.0951  0.0000  0.0569  0.0000  0.0377 </r>
       </set>
       <set comment="band 8">
        <r>  0.0648  0.0057  0.0000  0.0018  0.0951  0.0000  0.0569  0.0000  0.0377 </r>
        <r>  0.0000  0.0000  0.0025  0.0000  0.0000  0.1944  0.0000  0.1790  0.0000 </r>
       </set>
       <set comment="band 9">
        <r>  0.0000  0.0000  0.0027  0.0000  0.0000  0.0706  0.0000  0.0312  0.0000 </r>
        <r>  0.0078  0.0069  0.0000  0.0046  0.2682  0.0000  0.1272  0.0000  0.2133 </r>
       </set>
       <set comment="band 10">
        <r>  0.0078  0.0069  0.0000  0.0046  0.2682  0.0000  0.1272  0.0000  0.2133 </r>
        <r>  0.0000  0.0000  0.0027  0.0000  0.0000  0.0706  0.0000  0.0312  0.0000 </r>
       </set>
       <set comment="band 11">
        <r>  0.0000  0.0000  0.0041  0.0000  0.0000  0.0963  0.0000  0.1570  0.0000 </r>
        <r>  0.0160  0.0107  0.0000  0.0195  0.0584  0.0000  0.1443  0.0000  0.1722 </r>
       </set>
       <set comment="band 12">
        <r>  0.0160  0.0107  0.0000  0.0195  0.0584  0.0000  0.1443  0.0000  0.1722 </r>
        <r>  0.0000  0.0000  0.0041  0.0000  0.0000  0.0963  0.0000  0.1570  0.0000 </r>
       </set>
       <set comment="band 13">
        <r>  0.0000  0.0000  0.0004  0.0000  0.0000  0.2163  0.0000  0.2661  0.0000 </r>
        <r>  0.0137  0.0016  0.0000  0.0041  0.0746  0.0000  0.0369  0.0000  0.2130 </r>
       </set>
       <set comment="band 14">
        <r>  0.0137  0.0016  0.0000  0.0041  0.0746  0.0000  0.0369  0.0000  0.2130 </r>
        <r>  0.0000  0.0000  0.0004  0.0000  0.0000  0.2163  0.0000  0.2661  0.0000 </r>
       </set>
       <set comment="band 15">
        <r>  0.0000  0.0000  0.0020  0.0000  0.0000  0.1765  0.0000  0.1290  0.0000 </r>
        <r>  0.0037  0.0015  0.0000  0.0005  0.0916  0.0000  0.4820  0.0000  0.0381 </r>
       </set>
       <set comment="band 16">
        <r>  0.0037  0.0015  0.0000  0.0005  0.0916  0.0000  0.4820  0.0000  0.0381 </r>
        <r>  0.0000  0.0000  0.0020  0.0000  0.0000  0.1765  0.0000  0.1290  0.0000 </r>
       </set>
       <set comment="band 17">
        <r>  0.0000  0.0000  0.0183  0.0000  0.0000  0.0637  0.0000  0.0217  0.0000 </r>
        <r>  0.1022  0.0313  0.0000  0.0221  0.2687  0.0000  0.0059  0.0000  0.1235 </r>
       </set>
       <set comment="band 18">
        <r>  0.1022  0.0313  0.0000  0.0221  0.2687  0.0000  0.0059  0.0000  0.1235 </r>
        <r>  0.0000  0.0000  0.0183  0.0000  0.0000  0.0637  0.0000  0.0217  0.0000 </r>
       </set>
       <set comment="band 19">
        <r>  0.0000  0.0000  0.0142  0.0000  0.0000  0.0135  0.0000  0.0840  0.0000 </r>
        <r>  0.2990  0.0249  0.0000  0.0412  0.0166  0.0000  0.0245  0.0000  0.0310 </r>
       </set>
       <set comment="band 20">
        <r>  0.2990  0.0249  0.0000  0.0412  0.0166  0.0000  0.0245  0.0000  0.0310 </r>
        <r>  0.0000  0.0000  0.0142  0.0000  0.0000  0.0135  0.0000  0.0840  0.0000 </r>
       </set>
       <set comment="band 21">
        <r>  0.0000  0.0000  0.0433  0.0000  0.0000  0.0434  0.0000  0.0149  0.0000 </r>
        <r>  0.0241  0.0761  0.0000  0.0528  0.0510  0.0000  0.0066  0.0000  0.1059 </r>
       </set>
       <set comment="band 22">
        <r>  0.0241  0.0761  0.0000  0.0528  0.0510  0.0000  0.0066  0.0000  0.1059 </r>
        <r>  0.0000  0.0000  0.0433  0.0000  0.0000  0.0434  0.0000  0.0149  0.0000 </r>
       </set>
       <set comment="band 23">
        <r>  0.0000  0.0000  0.0881  0.0000  0.0000  0.0429  0.0000  0.0245  0.0000 </r>
        <r>  0.0061  0.0335  0.0000  0.0264  0.0113  0.0000  0.0237  0.0000  0.0167 </r>
       </set>
       <set comment="band 24">
        <r>  0.0061  0.0335  0.0000  0.0264  0.0113  0.0000  0.0237  0.0000  0.0167 </r>
        <r>  0.0000  0.0000  0.0881  0.0000  0.0000  0.0429  0.0000  0.0245  0.0000 </r>
       </set>
      </set>
      <set comment="kpoint 69">
       <set comment="band 1">
        <r>  0.0000  0.0000  0.0389  0.0000  0.0000  0.0000  0.0000  0.0000  0.0000 </r>
        <r>  0.0000  0.2377  0.0000  0.7082  0.0000  0.0000  0.0000  0.0000  0.0000 </r>
       </set>
       <set comment="band 2">
        <r>  0.0000  0.2377  0.0000  0.7082  0.0000  0.0000  0.0000  0.0000  0.0000 </r>
        <r>  0.0000  0.0000  0.0389  0.0000  0.0000  0.0000  0.0000  0.0000  0.0000 </r>
       </set>
       <set comment="band 3">
        <r>  0.0000  0.0000  0.0265  0.0000  0.0000  0.0000  0.0000  0.0000  0.0000 </r>
        <r>  0.0000  0.7194  0.0000  0.2444  0.0000  0.0000  0.0000  0.0000  0.0000 </r>
       </set>
       <set comment="band 4">
        <r>  0.0000  0.7194  0.0000  0.2444  0.0000  0.0000  0.0000  0.0000  0.0000 </r>
        <r>  0.0000  0.0000  0.0265  0.0000  0.0000  0.0000  0.0000  0.0000  0.0000 </r>
       </set>
       <set comment="band 5">
        <r>  0.0000  0.0000  0.9259  0.0000  0.0000  0.0000  0.0000  0.0000  0.0000 </r>
        <r>  0.0000  0.0324  0.0000  0.0343  0.0000  0.0000  0.0000  0.0000  0.0000 </r>
       </set>
       <set comment="band 6">
        <r>  0.0000  0.0324  0.0000  0.0343  0.0000  0.0000  0.0000  0.0000  0.0000 </r>
        <r>  0.0000  0.0000  0.9259  0.0000  0.0000  0.0000  0.0000  0.0000  0.0000 </r>
       </set>
       <set comment="band 7">
        <r>  0.0000  0.0000  0.0009  0.0000  0.0000  0.0919  0.0000  0.2663  0.0000 </r>
        <r>  0.0563  0.0048  0.0000  0.0025  0.1350  0.0000  0.0491  0.0000  0.0463 </r>
       </set>
       <set comment="band 8">
        <r>  0.0563  0.0048  0.0000  0.0025  0.1350  0.0000  0.0491  0.0000  0.0463 </r>
        <r>  0.0000  0.0000  0.0009  0.0000  0.0000  0.0919  0.0000  0.2663  0.0000 </r>
       </set>
       <set comment="band 9">
        <r>  0.0000  0.0000  0.0008  0.0000  0.0000  0.0701  0.0000  0.0809  0.0000 </r>
        <r>  0.0001  0.0075  0.0000  0.0028  0.2986  0.0000  0.1833  0.0000  0.1008 </r>
       </set>
       <set comment="band 10">
        <r>  0.0001  0.0075  0.0000  0.0028  0.2986  0.0000  0.1833  0.0000  0.1008 </r>
        <r>  0.0000  0.0000  0.0008  0.0000  0.0000  0.0701  0.0000  0.0809  0.0000 </r>
       </set>
       <set comment="band 11">
        <r>  0.0000  0.0000  0.0047  0.0000  0.0000  0.3348  0.0000  0.1543  0.0000 </r>
        <r>  0.0102  0.0056  0.0000  0.0167  0.0586  0.0000  0.0188  0.0000  0.0934 </r>
       </set>
       <set comment="band 12">
        <r>  0.0102  0.0056  0.0000  0.0167  0.0586  0.0000  0.0188  0.0000  0.0934 </r>
        <r>  0.0000  0.0000  0.0047  0.0000  0.0000  0.3348  0.0000  0.1543  0.0000 </r>
       </set>
       <set comment="band 13">
        <r>  0.0000  0.0000  0.0022  0.0000  0.0000  0.1514  0.0000  0.0755  0.0000 </r>
        <r>  0.0003  0.0058  0.0000  0.0168  0.1413  0.0000  0.0072  0.0000  0.3920 </r>
       </set>
       <set comment="band 14">
        <r>  0.0003  0.0058  0.0000  0.0168  0.1413  0.0000  0.0072  0.0000  0.3920 </r>
        <r>  0.0000  0.0000  0.0022  0.0000  0.0000  0.1514  0.0000  0.0755  0.0000 </r>
       </set>
       <set comment="band 15">
        <r>  0.0000  0.0000  0.0007  0.0000  0.0000  0.1202  0.0000  0.1556  0.0000 </r>
        <r>  0.0000  0.0006  0.0000  0.0002  0.0320  0.0000  0.5962  0.0000  0.0253 </r>
       </set>
       <set comment="band 16">
        <r>  0.0000  0.0006  0.0000  0.0002  0.0320  0.0000  0.5962  0.0000  0.0253 </r>
        <r>  0.0000  0.0000  0.0007  0.0000  0.0000  0.1202  0.0000  0.1556  0.0000 </r>
       </set>
       <set comment="band 17">
        <r>  0.0000  0.0000  0.0342  0.0000  0.0000  0.0234  0.0000  0.0114  0.0000 </r>
        <r>  0.0331  0.0248  0.0000  0.0707  0.0936  0.0000  0.0147  0.0000  0.2061 </r>
       </set>
       <set comment="band 18">
        <r>  0.0331  0.0248  0.0000  0.0707  0.0936  0.0000  0.0147  0.0000  0.2061 </r>
        <r>  0.0000  0.0000  0.0342  0.0000  0.0000  0.0234  0.0000  0.0114  0.0000 </r>
       </set>
       <set comment="band 19">
        <r>  0.0000  0.0000  0.0001  0.0000  0.0000  0.0453  0.0000  0.1026  0.0000 </r>
        <r>  0.3945  0.0055  0.0000  0.0150  0.0693  0.0000  0.0200  0.0000  0.0409 </r>
       </set>
       <set comment="band 20">
        <r>  0.3945  0.0055  0.0000  0.0150  0.0693  0.0000  0.0200  0.0000  0.0409 </r>
        <r>  0.0000  0.0000  0.0001  0.0000  0.0000  0.0453  0.0000  0.1026  0.0000 </r>
       </set>
       <set comment="band 21">
        <r>  0.0000  0.0000  0.0312  0.0000  0.0000  0.0506  0.0000  0.0205  0.0000 </r>
        <r>  0.0381  0.0993  0.0000  0.0381  0.0972  0.0000  0.0015  0.0000  0.0352 </r>
       </set>
       <set comment="band 22">
        <r>  0.0381  0.0993  0.0000  0.0381  0.0972  0.0000  0.0015  0.0000  0.0352 </r>
        <r>  0.0000  0.0000  0.0312  0.0000  0.0000  0.0506  0.0000  0.0205  0.0000 </r>
       </set>
       <set comment="band 23">
        <r>  0.0000  0.0000  0.0981  0.0000  0.0000  0.0235  0.0000  0.0267  0.0000 </r>
        <r>  0.0063  0.0178  0.0000  0.0413  0.0160  0.0000  0.0064  0.0000  0.0155 </r>
       </set>
       <set comment="band 24">
        <r>  0.0063  0.0178  0.0000  0.0413  0.0160  0.0000  0.0064  0.0000  0.0155 </r>
        <r>  0.0000  0.0000  0.0981  0.0000  0.0000  0.0235  0.0000  0.0267  0.0000 </r>
       </set>
      </set>
      <set comment="kpoint 70">
       <set comment="band 1">
        <r>  0.0000  0.0000  0.0448  0.0000  0.0000  0.0000  0.0000  0.0000  0.0000 </r>
        <r>  0.0000  0.6964  0.0000  0.2447  0.0000  0.0000  0.0000  0.0000  0.0000 </r>
       </set>
       <set comment="band 2">
        <r>  0.0000  0.6964  0.0000  0.2447  0.0000  0.0000  0.0000  0.0000  0.0000 </r>
        <r>  0.0000  0.0000  0.0448  0.0000  0.0000  0.0000  0.0000  0.0000  0.0000 </r>
       </set>
       <set comment="band 3">
        <r>  0.0000  0.0000  0.0229  0.0000  0.0000  0.0000  0.0000  0.0000  0.0000 </r>
        <r>  0.0000  0.2562  0.0000  0.7095  0.0000  0.0000  0.0000  0.0000  0.0001 </r>
       </set>
       <set comment="band 4">
        <r>  0.0000  0.2562  0.0000  0.7095  0.0000  0.0000  0.0000  0.0000  0.0001 </r>
        <r>  0.0000  0.0000  0.0229  0.0000  0.0000  0.0000  0.0000  0.0000  0.0000 </r>
       </set>
       <set comment="band 5">
        <r>  0.0000  0.0000  0.9236  0.0000  0.0000  0.0000  0.0000  0.0000  0.0000 </r>
        <r>  0.0000  0.0348  0.0000  0.0343  0.0000  0.0000  0.0000  0.0000  0.0000 </r>
       </set>
       <set comment="band 6">
        <r>  0.0000  0.0348  0.0000  0.0343  0.0000  0.0000  0.0000  0.0000  0.0000 </r>
        <r>  0.0000  0.0000  0.9236  0.0000  0.0000  0.0000  0.0000  0.0000  0.0000 </r>
       </set>
       <set comment="band 7">
        <r>  0.0000  0.0000  0.0003  0.0000  0.0000  0.3163  0.0000  0.1371  0.0000 </r>
        <r>  0.0456  0.0021  0.0000  0.0021  0.0160  0.0000  0.1468  0.0000  0.0213 </r>
       </set>
       <set comment="band 8">
        <r>  0.0456  0.0021  0.0000  0.0021  0.0160  0.0000  0.1468  0.0000  0.0213 </r>
        <r>  0.0000  0.0000  0.0003  0.0000  0.0000  0.3163  0.0000  0.1371  0.0000 </r>
       </set>
       <set comment="band 9">
        <r>  0.0000  0.0000  0.0008  0.0000  0.0000  0.0729  0.0000  0.1944  0.0000 </r>
        <r>  0.0046  0.0070  0.0000  0.0148  0.0918  0.0000  0.0475  0.0000  0.2494 </r>
       </set>
       <set comment="band 10">
        <r>  0.0046  0.0070  0.0000  0.0148  0.0918  0.0000  0.0475  0.0000  0.2494 </r>
        <r>  0.0000  0.0000  0.0008  0.0000  0.0000  0.0729  0.0000  0.1944  0.0000 </r>
       </set>
       <set comment="band 11">
        <r>  0.0000  0.0000  0.0058  0.0000  0.0000  0.0407  0.0000  0.0763  0.0000 </r>
        <r>  0.0021  0.0207  0.0000  0.0107  0.2628  0.0000  0.0300  0.0000  0.2332 </r>
       </set>
       <set comment="band 12">
        <r>  0.0021  0.0207  0.0000  0.0107  0.2628  0.0000  0.0300  0.0000  0.2332 </r>
        <r>  0.0000  0.0000  0.0058  0.0000  0.0000  0.0407  0.0000  0.0763  0.0000 </r>
       </set>
       <set comment="band 13">
        <r>  0.0000  0.0000  0.0002  0.0000  0.0000  0.1564  0.0000  0.2193  0.0000 </r>
        <r>  0.0052  0.0049  0.0000  0.0019  0.2622  0.0000  0.0132  0.0000  0.1651 </r>
       </set>
       <set comment="band 14">
        <r>  0.0052  0.0049  0.0000  0.0019  0.2622  0.0000  0.0132  0.0000  0.1651 </r>
        <r>  0.0000  0.0000  0.0002  0.0000  0.0000  0.1564  0.0000  0.2193  0.0000 </r>
       </set>
       <set comment="band 15">
        <r>  0.0000  0.0000  0.0004  0.0000  0.0000  0.1466  0.0000  0.1216  0.0000 </r>
        <r>  0.0007  0.0006  0.0000  0.0002  0.0221  0.0000  0.6299  0.0000  0.0085 </r>
       </set>
       <set comment="band 16">
        <r>  0.0007  0.0006  0.0000  0.0002  0.0221  0.0000  0.6299  0.0000  0.0085 </r>
        <r>  0.0000  0.0000  0.0004  0.0000  0.0000  0.1466  0.0000  0.1216  0.0000 </r>
       </set>
       <set comment="band 17">
        <r>  0.0000  0.0000  0.0298  0.0000  0.0000  0.0528  0.0000  0.0199  0.0000 </r>
        <r>  0.1564  0.0434  0.0000  0.0172  0.1866  0.0000  0.0080  0.0000  0.0753 </r>
       </set>
       <set comment="band 18">
        <r>  0.1564  0.0434  0.0000  0.0172  0.1866  0.0000  0.0080  0.0000  0.0753 </r>
        <r>  0.0000  0.0000  0.0298  0.0000  0.0000  0.0528  0.0000  0.0199  0.0000 </r>
       </set>
       <set comment="band 19">
        <r>  0.0000  0.0000  0.0180  0.0000  0.0000  0.0453  0.0000  0.0669  0.0000 </r>
        <r>  0.3236  0.0347  0.0000  0.0153  0.0262  0.0000  0.0143  0.0000  0.0189 </r>
       </set>
       <set comment="band 20">
        <r>  0.3236  0.0347  0.0000  0.0153  0.0262  0.0000  0.0143  0.0000  0.0189 </r>
        <r>  0.0000  0.0000  0.0180  0.0000  0.0000  0.0453  0.0000  0.0669  0.0000 </r>
       </set>
       <set comment="band 21">
        <r>  0.0000  0.0000  0.0174  0.0000  0.0000  0.0419  0.0000  0.0468  0.0000 </r>
        <r>  0.0008  0.0462  0.0000  0.0904  0.0704  0.0000  0.0014  0.0000  0.1631 </r>
       </set>
       <set comment="band 22">
        <r>  0.0008  0.0462  0.0000  0.0904  0.0704  0.0000  0.0014  0.0000  0.1631 </r>
        <r>  0.0000  0.0000  0.0174  0.0000  0.0000  0.0419  0.0000  0.0468  0.0000 </r>
       </set>
       <set comment="band 23">
        <r>  0.0000  0.0000  0.1243  0.0000  0.0000  0.0224  0.0000  0.0166  0.0000 </r>
        <r>  0.0021  0.0477  0.0000  0.0239  0.0223  0.0000  0.0039  0.0000  0.0183 </r>
       </set>
       <set comment="band 24">
        <r>  0.0021  0.0477  0.0000  0.0239  0.0223  0.0000  0.0039  0.0000  0.0183 </r>
        <r>  0.0000  0.0000  0.1243  0.0000  0.0000  0.0224  0.0000  0.0166  0.0000 </r>
       </set>
      </set>
     </set>
    </set>
   </array>
  </projected>
 </calculation>
 <structure name="finalpos" >
  <crystal>
   <varray name="basis" >
    <v>       2.76818222       0.00000000       0.00000000 </v>
    <v>      -1.38409111       2.39731613       0.00000000 </v>
    <v>       0.00000000       0.00000000       4.79581119 </v>
   </varray>
   <i name="volume">     31.82599998 </i>
   <varray name="rec_basis" >
    <v>       0.36124789       0.20856657       0.00000000 </v>
    <v>       0.00000000       0.41713314       0.00000000 </v>
    <v>       0.00000000       0.00000000       0.20851530 </v>
   </varray>
  </crystal>
  <varray name="positions" >
   <v>       0.00000000       0.00000000       0.00000000 </v>
   <v>       0.33333333       0.66666667       0.50000000 </v>
  </varray>
 </structure>
</modeling>
