Pt-hcc                                  
           1
     2.768182    0.000000    0.000000
    -1.384091    2.397316    0.000000
     0.000000    0.000000    4.795811
   Pt
     2
Direct configuration=     1
   0.00000000  0.00000000  0.00000000
   0.33333333  0.66666667  0.50000000
