Pt-hcc                                  
           1
     2.780502    0.000000    0.000000
    -1.390251    2.407985    0.000000
     0.000000    0.000000    4.817155
   Pt
     2
Direct configuration=     1
   0.00000000  0.00000000  0.00000000
   0.33333333  0.66666667  0.50000000
