   1   1   0   0
  0.1529075E+02  0.2786001E-09  0.2786001E-09  0.2786001E-09  0.5000000E-15
  1.000000000000000E-004
  CAR 
 Pt-fcc                                  
     69.80718583    -46.42999175  301     11.78495535      1.00000000
    -46.430  0.0000E+00  0.0000E+00
    -46.043  0.0000E+00  0.0000E+00
    -45.655  0.0000E+00  0.0000E+00
    -45.268  0.0000E+00  0.0000E+00
    -44.880  0.0000E+00  0.0000E+00
    -44.493  0.0000E+00  0.0000E+00
    -44.105  0.0000E+00  0.0000E+00
    -43.718  0.0000E+00  0.0000E+00
    -43.330  0.0000E+00  0.0000E+00
    -42.943  0.0000E+00  0.0000E+00
    -42.555  0.0000E+00  0.0000E+00
    -42.168  0.0000E+00  0.0000E+00
    -41.781  0.0000E+00  0.0000E+00
    -41.393  0.4080E-13  0.1581E-13
    -41.006  0.3806E+01  0.1475E+01
    -40.618  0.1135E+02  0.5999E+01
    -40.231  0.0000E+00  0.6000E+01
    -39.843  0.0000E+00  0.6000E+01
    -39.456  0.0000E+00  0.6000E+01
    -39.068  0.0000E+00  0.6000E+01
    -38.681  0.0000E+00  0.6000E+01
    -38.293  0.0000E+00  0.6000E+01
    -37.906  0.0000E+00  0.6000E+01
    -37.518  0.0000E+00  0.6000E+01
    -37.131  0.0000E+00  0.6000E+01
    -36.744  0.0000E+00  0.6000E+01
    -36.356  0.0000E+00  0.6000E+01
    -35.969  0.0000E+00  0.6000E+01
    -35.581  0.0000E+00  0.6000E+01
    -35.194  0.0000E+00  0.6000E+01
    -34.806  0.0000E+00  0.6000E+01
    -34.419  0.0000E+00  0.6000E+01
    -34.031  0.0000E+00  0.6000E+01
    -33.644  0.0000E+00  0.6000E+01
    -33.256  0.0000E+00  0.6000E+01
    -32.869  0.0000E+00  0.6000E+01
    -32.482  0.0000E+00  0.6000E+01
    -32.094  0.0000E+00  0.6000E+01
    -31.707  0.0000E+00  0.6000E+01
    -31.319  0.0000E+00  0.6000E+01
    -30.932  0.0000E+00  0.6000E+01
    -30.544  0.0000E+00  0.6000E+01
    -30.157  0.0000E+00  0.6000E+01
    -29.769  0.0000E+00  0.6000E+01
    -29.382  0.0000E+00  0.6000E+01
    -28.994  0.0000E+00  0.6000E+01
    -28.607  0.0000E+00  0.6000E+01
    -28.220  0.0000E+00  0.6000E+01
    -27.832  0.0000E+00  0.6000E+01
    -27.445  0.0000E+00  0.6000E+01
    -27.057  0.0000E+00  0.6000E+01
    -26.670  0.0000E+00  0.6000E+01
    -26.282  0.0000E+00  0.6000E+01
    -25.895  0.0000E+00  0.6000E+01
    -25.507  0.0000E+00  0.6000E+01
    -25.120  0.0000E+00  0.6000E+01
    -24.732  0.0000E+00  0.6000E+01
    -24.345  0.0000E+00  0.6000E+01
    -23.957  0.0000E+00  0.6000E+01
    -23.570  0.0000E+00  0.6000E+01
    -23.183  0.0000E+00  0.6000E+01
    -22.795  0.0000E+00  0.6000E+01
    -22.408  0.0000E+00  0.6000E+01
    -22.020  0.0000E+00  0.6000E+01
    -21.633  0.0000E+00  0.6000E+01
    -21.245  0.0000E+00  0.6000E+01
    -20.858  0.0000E+00  0.6000E+01
    -20.470  0.0000E+00  0.6000E+01
    -20.083  0.0000E+00  0.6000E+01
    -19.695  0.0000E+00  0.6000E+01
    -19.308  0.0000E+00  0.6000E+01
    -18.921  0.0000E+00  0.6000E+01
    -18.533  0.0000E+00  0.6000E+01
    -18.146  0.0000E+00  0.6000E+01
    -17.758  0.0000E+00  0.6000E+01
    -17.371  0.0000E+00  0.6000E+01
    -16.983  0.0000E+00  0.6000E+01
    -16.596  0.0000E+00  0.6000E+01
    -16.208  0.0000E+00  0.6000E+01
    -15.821  0.0000E+00  0.6000E+01
    -15.433  0.0000E+00  0.6000E+01
    -15.046  0.0000E+00  0.6000E+01
    -14.658  0.0000E+00  0.6000E+01
    -14.271  0.0000E+00  0.6000E+01
    -13.884  0.0000E+00  0.6000E+01
    -13.496  0.0000E+00  0.6000E+01
    -13.109  0.0000E+00  0.6000E+01
    -12.721  0.0000E+00  0.6000E+01
    -12.334  0.0000E+00  0.6000E+01
    -11.946  0.0000E+00  0.6000E+01
    -11.559  0.0000E+00  0.6000E+01
    -11.171  0.0000E+00  0.6000E+01
    -10.784  0.0000E+00  0.6000E+01
    -10.396  0.0000E+00  0.6000E+01
    -10.009  0.0000E+00  0.6000E+01
     -9.622  0.0000E+00  0.6000E+01
     -9.234  0.0000E+00  0.6000E+01
     -8.847  0.0000E+00  0.6000E+01
     -8.459  0.0000E+00  0.6000E+01
     -8.072  0.0000E+00  0.6000E+01
     -7.684  0.0000E+00  0.6000E+01
     -7.297  0.0000E+00  0.6000E+01
     -6.909  0.0000E+00  0.6000E+01
     -6.522  0.0000E+00  0.6000E+01
     -6.134  0.0000E+00  0.6000E+01
     -5.747  0.0000E+00  0.6000E+01
     -5.360  0.0000E+00  0.6000E+01
     -4.972  0.0000E+00  0.6000E+01
     -4.585  0.0000E+00  0.6000E+01
     -4.197  0.0000E+00  0.6000E+01
     -3.810  0.0000E+00  0.6000E+01
     -3.422  0.0000E+00  0.6000E+01
     -3.035  0.0000E+00  0.6000E+01
     -2.647  0.0000E+00  0.6000E+01
     -2.260  0.0000E+00  0.6000E+01
     -1.872  0.0000E+00  0.6000E+01
     -1.485  0.0000E+00  0.6000E+01
     -1.097  0.0000E+00  0.6000E+01
     -0.710  0.0000E+00  0.6000E+01
     -0.323  0.0000E+00  0.6000E+01
      0.065  0.0000E+00  0.6000E+01
      0.452  0.0000E+00  0.6000E+01
      0.840  0.0000E+00  0.6000E+01
      1.227  0.0000E+00  0.6000E+01
      1.615  0.3308E-06  0.6000E+01
      2.002  0.1893E-01  0.6007E+01
      2.390  0.4901E-01  0.6026E+01
      2.777  0.6952E-01  0.6053E+01
      3.165  0.8323E-01  0.6086E+01
      3.552  0.1004E+00  0.6127E+01
      3.939  0.1494E+00  0.6185E+01
      4.327  0.1879E+00  0.6260E+01
      4.714  0.3344E+00  0.6391E+01
      5.102  0.6955E+00  0.6664E+01
      5.489  0.1073E+01  0.7086E+01
      5.877  0.1436E+01  0.7652E+01
      6.264  0.1239E+01  0.8148E+01
      6.652  0.9650E+00  0.8536E+01
      7.039  0.1217E+01  0.9015E+01
      7.427  0.1359E+01  0.9556E+01
      7.814  0.1501E+01  0.1014E+02
      8.201  0.1764E+01  0.1084E+02
      8.589  0.2163E+01  0.1169E+02
      8.976  0.1403E+01  0.1225E+02
      9.364  0.1123E+01  0.1269E+02
      9.751  0.1304E+01  0.1321E+02
     10.139  0.1415E+01  0.1377E+02
     10.526  0.1236E+01  0.1426E+02
     10.914  0.1067E+01  0.1469E+02
     11.301  0.1196E+01  0.1517E+02
     11.689  0.1566E+01  0.1578E+02
     12.076  0.1733E+01  0.1646E+02
     12.464  0.4309E+00  0.1665E+02
     12.851  0.2864E+00  0.1676E+02
     13.238  0.3323E+00  0.1689E+02
     13.626  0.2349E+00  0.1698E+02
     14.013  0.2639E+00  0.1709E+02
     14.401  0.2722E+00  0.1720E+02
     14.788  0.2910E+00  0.1731E+02
     15.176  0.2248E+00  0.1740E+02
     15.563  0.2738E+00  0.1751E+02
     15.951  0.2095E+00  0.1760E+02
     16.338  0.2314E+00  0.1769E+02
     16.726  0.2290E+00  0.1778E+02
     17.113  0.1473E+00  0.1784E+02
     17.500  0.4263E+00  0.1800E+02
     17.888  0.3784E+00  0.1815E+02
     18.275  0.2354E+00  0.1825E+02
     18.663  0.3217E+00  0.1838E+02
     19.050  0.2707E+00  0.1848E+02
     19.438  0.3737E+00  0.1863E+02
     19.825  0.1906E+00  0.1871E+02
     20.213  0.4496E+00  0.1888E+02
     20.600  0.2203E+00  0.1897E+02
     20.988  0.3119E+00  0.1909E+02
     21.375  0.2697E+00  0.1920E+02
     21.762  0.2843E+00  0.1931E+02
     22.150  0.3979E+00  0.1947E+02
     22.537  0.3141E+00  0.1960E+02
     22.925  0.3912E+00  0.1975E+02
     23.312  0.3849E+00  0.1991E+02
     23.700  0.3248E+00  0.2003E+02
     24.087  0.4969E+00  0.2023E+02
     24.475  0.5021E+00  0.2043E+02
     24.862  0.5183E+00  0.2063E+02
     25.250  0.3921E+00  0.2079E+02
     25.637  0.4771E+00  0.2098E+02
     26.025  0.5982E+00  0.2121E+02
     26.412  0.5038E+00  0.2141E+02
     26.799  0.6785E+00  0.2168E+02
     27.187  0.9689E+00  0.2206E+02
     27.574  0.6122E+00  0.2230E+02
     27.962  0.5450E+00  0.2252E+02
     28.349  0.7676E+00  0.2282E+02
     28.737  0.6646E+00  0.2308E+02
     29.124  0.5369E+00  0.2330E+02
     29.512  0.3568E+00  0.2344E+02
     29.899  0.3292E+00  0.2357E+02
     30.287  0.4085E+00  0.2373E+02
     30.674  0.4994E+00  0.2393E+02
     31.061  0.5800E+00  0.2416E+02
     31.449  0.7895E+00  0.2447E+02
     31.836  0.7754E+00  0.2478E+02
     32.224  0.7292E+00  0.2507E+02
     32.611  0.7060E+00  0.2535E+02
     32.999  0.5164E+00  0.2555E+02
     33.386  0.4452E+00  0.2574E+02
     33.774  0.4342E+00  0.2591E+02
     34.161  0.2598E+00  0.2601E+02
     34.549  0.3591E+00  0.2615E+02
     34.936  0.4751E+00  0.2634E+02
     35.323  0.3723E+00  0.2648E+02
     35.711  0.5169E+00  0.2668E+02
     36.098  0.5825E+00  0.2692E+02
     36.486  0.5065E+00  0.2712E+02
     36.873  0.5286E+00  0.2733E+02
     37.261  0.4641E+00  0.2752E+02
     37.648  0.5821E+00  0.2775E+02
     38.036  0.5058E+00  0.2795E+02
     38.423  0.6668E+00  0.2821E+02
     38.811  0.7878E+00  0.2852E+02
     39.198  0.8859E+00  0.2887E+02
     39.586  0.1208E+01  0.2935E+02
     39.973  0.1471E+01  0.2992E+02
     40.360  0.8221E+00  0.3025E+02
     40.748  0.7748E+00  0.3055E+02
     41.135  0.5099E+00  0.3076E+02
     41.523  0.6434E+00  0.3101E+02
     41.910  0.7275E+00  0.3129E+02
     42.298  0.5289E+00  0.3150E+02
     42.685  0.7109E+00  0.3178E+02
     43.073  0.1072E+01  0.3220E+02
     43.460  0.7488E+00  0.3250E+02
     43.848  0.6084E+00  0.3274E+02
     44.235  0.8257E+00  0.3306E+02
     44.622  0.7020E+00  0.3334E+02
     45.010  0.5373E+00  0.3356E+02
     45.397  0.3812E+00  0.3371E+02
     45.785  0.6005E+00  0.3395E+02
     46.172  0.7381E+00  0.3423E+02
     46.560  0.5643E+00  0.3446E+02
     46.947  0.6988E+00  0.3473E+02
     47.335  0.9641E+00  0.3511E+02
     47.722  0.1102E+01  0.3555E+02
     48.110  0.1165E+01  0.3600E+02
     48.497  0.1044E+01  0.3642E+02
     48.884  0.9001E+00  0.3678E+02
     49.272  0.1119E+01  0.3722E+02
     49.659  0.9122E+00  0.3759E+02
     50.047  0.7524E+00  0.3789E+02
     50.434  0.7443E+00  0.3818E+02
     50.822  0.7109E+00  0.3846E+02
     51.209  0.5424E+00  0.3868E+02
     51.597  0.7900E+00  0.3899E+02
     51.984  0.8858E+00  0.3934E+02
     52.372  0.7215E+00  0.3963E+02
     52.759  0.5919E+01  0.4194E+02
     53.147  0.8182E+00  0.4226E+02
     53.534  0.7832E+00  0.4257E+02
     53.921  0.8573E+00  0.4291E+02
     54.309  0.9002E+00  0.4326E+02
     54.696  0.7095E+00  0.4355E+02
     55.084  0.9104E+00  0.4391E+02
     55.471  0.7792E+00  0.4422E+02
     55.859  0.6358E+00  0.4447E+02
     56.246  0.8156E+00  0.4479E+02
     56.634  0.9179E+00  0.4516E+02
     57.021  0.9173E+00  0.4553E+02
     57.409  0.8271E+00  0.4586E+02
     57.796  0.8459E+00  0.4619E+02
     58.183  0.7617E+00  0.4649E+02
     58.571  0.7041E+00  0.4677E+02
     58.958  0.7698E+00  0.4708E+02
     59.346  0.4359E+00  0.4725E+02
     59.733  0.4686E+00  0.4744E+02
     60.121  0.4158E+00  0.4760E+02
     60.508  0.1396E+00  0.4766E+02
     60.896  0.1340E+00  0.4772E+02
     61.283  0.2792E+00  0.4782E+02
     61.671  0.2183E+00  0.4791E+02
     62.058  0.4998E-01  0.4793E+02
     62.445  0.5227E-01  0.4795E+02
     62.833  0.3249E-01  0.4797E+02
     63.220  0.5020E-01  0.4798E+02
     63.608  0.4809E-04  0.4799E+02
     63.995  0.1128E-01  0.4799E+02
     64.383  0.1125E-01  0.4800E+02
     64.770  0.1129E-01  0.4800E+02
     65.158  0.0000E+00  0.4800E+02
     65.545  0.0000E+00  0.4800E+02
     65.933  0.0000E+00  0.4800E+02
     66.320  0.0000E+00  0.4800E+02
     66.708  0.0000E+00  0.4800E+02
     67.095  0.0000E+00  0.4800E+02
     67.482  0.0000E+00  0.4800E+02
     67.870  0.0000E+00  0.4800E+02
     68.257  0.0000E+00  0.4800E+02
     68.645  0.0000E+00  0.4800E+02
     69.032  0.0000E+00  0.4800E+02
     69.420  0.0000E+00  0.4800E+02
     69.807  0.0000E+00  0.4800E+02
