Automatically generated mesh
     280
Reciprocal lattice
    0.03571428571428    0.03571428571428    0.03571428571428             8
    0.10714285714285    0.03571428571428    0.03571428571428            24
    0.17857142857143    0.03571428571428    0.03571428571428            24
    0.25000000000000    0.03571428571428    0.03571428571428            24
    0.32142857142857    0.03571428571428    0.03571428571428            24
    0.39285714285715    0.03571428571428    0.03571428571428            24
    0.46428571428572    0.03571428571428    0.03571428571428            24
   -0.46428571428572    0.03571428571428    0.03571428571428            24
   -0.39285714285715    0.03571428571428    0.03571428571428            24
   -0.32142857142857    0.03571428571428    0.03571428571428            24
   -0.25000000000000    0.03571428571428    0.03571428571428            24
   -0.17857142857143    0.03571428571428    0.03571428571428            24
   -0.10714285714285    0.03571428571428    0.03571428571428            24
   -0.03571428571428    0.03571428571428    0.03571428571428            24
    0.10714285714285    0.10714285714285    0.03571428571428            24
    0.17857142857143    0.10714285714285    0.03571428571428            48
    0.25000000000000    0.10714285714285    0.03571428571428            48
    0.32142857142857    0.10714285714285    0.03571428571428            48
    0.39285714285715    0.10714285714285    0.03571428571428            48
    0.46428571428572    0.10714285714285    0.03571428571428            48
   -0.46428571428572    0.10714285714285    0.03571428571428            48
   -0.39285714285715    0.10714285714285    0.03571428571428            48
   -0.32142857142857    0.10714285714285    0.03571428571428            48
   -0.25000000000000    0.10714285714285    0.03571428571428            48
   -0.17857142857143    0.10714285714285    0.03571428571428            48
   -0.10714285714285    0.10714285714285    0.03571428571428            48
   -0.03571428571428    0.10714285714285    0.03571428571428            48
    0.17857142857143    0.17857142857143    0.03571428571428            24
    0.25000000000000    0.17857142857143    0.03571428571428            48
    0.32142857142857    0.17857142857143    0.03571428571428            48
    0.39285714285715    0.17857142857143    0.03571428571428            48
    0.46428571428572    0.17857142857143    0.03571428571428            48
   -0.46428571428572    0.17857142857143    0.03571428571428            48
   -0.39285714285715    0.17857142857143    0.03571428571428            48
   -0.32142857142857    0.17857142857143    0.03571428571428            48
   -0.25000000000000    0.17857142857143    0.03571428571428            48
   -0.17857142857143    0.17857142857143    0.03571428571428            48
   -0.10714285714285    0.17857142857143    0.03571428571428            48
   -0.03571428571428    0.17857142857143    0.03571428571428            48
    0.25000000000000    0.25000000000000    0.03571428571428            24
    0.32142857142857    0.25000000000000    0.03571428571428            48
    0.39285714285715    0.25000000000000    0.03571428571428            48
    0.46428571428572    0.25000000000000    0.03571428571428            48
   -0.46428571428572    0.25000000000000    0.03571428571428            48
   -0.39285714285715    0.25000000000000    0.03571428571428            48
   -0.32142857142857    0.25000000000000    0.03571428571428            48
   -0.25000000000000    0.25000000000000    0.03571428571428            48
   -0.17857142857143    0.25000000000000    0.03571428571428            48
   -0.10714285714285    0.25000000000000    0.03571428571428            48
   -0.03571428571428    0.25000000000000    0.03571428571428            48
    0.32142857142857    0.32142857142857    0.03571428571428            24
    0.39285714285715    0.32142857142857    0.03571428571428            48
    0.46428571428572    0.32142857142857    0.03571428571428            48
   -0.46428571428572    0.32142857142857    0.03571428571428            48
   -0.39285714285715    0.32142857142857    0.03571428571428            48
   -0.32142857142857    0.32142857142857    0.03571428571428            48
   -0.25000000000000    0.32142857142857    0.03571428571428            48
   -0.17857142857143    0.32142857142857    0.03571428571428            48
   -0.10714285714285    0.32142857142857    0.03571428571428            48
   -0.03571428571428    0.32142857142857    0.03571428571428            48
    0.39285714285715    0.39285714285715    0.03571428571428            24
    0.46428571428572    0.39285714285715    0.03571428571428            48
   -0.46428571428572    0.39285714285715    0.03571428571428            48
   -0.39285714285715    0.39285714285715    0.03571428571428            48
   -0.32142857142857    0.39285714285715    0.03571428571428            48
   -0.25000000000000    0.39285714285715    0.03571428571428            48
   -0.17857142857143    0.39285714285715    0.03571428571428            48
   -0.10714285714285    0.39285714285715    0.03571428571428            48
   -0.03571428571428    0.39285714285715    0.03571428571428            48
    0.46428571428572    0.46428571428572    0.03571428571428            24
   -0.46428571428572    0.46428571428572    0.03571428571428            48
   -0.39285714285715    0.46428571428572    0.03571428571428            48
   -0.32142857142857    0.46428571428572    0.03571428571428            48
   -0.25000000000000    0.46428571428572    0.03571428571428            48
   -0.17857142857143    0.46428571428572    0.03571428571428            48
   -0.10714285714285    0.46428571428572    0.03571428571428            48
   -0.03571428571428    0.46428571428572    0.03571428571428            48
   -0.46428571428572   -0.46428571428572    0.03571428571428            24
   -0.39285714285715   -0.46428571428572    0.03571428571428            48
   -0.32142857142857   -0.46428571428572    0.03571428571428            48
   -0.25000000000000   -0.46428571428572    0.03571428571428            48
   -0.17857142857143   -0.46428571428572    0.03571428571428            48
   -0.10714285714285   -0.46428571428572    0.03571428571428            48
   -0.39285714285715   -0.39285714285715    0.03571428571428            24
   -0.32142857142857   -0.39285714285715    0.03571428571428            48
   -0.25000000000000   -0.39285714285715    0.03571428571428            48
   -0.17857142857143   -0.39285714285715    0.03571428571428            48
   -0.10714285714285   -0.39285714285715    0.03571428571428            48
   -0.32142857142857   -0.32142857142857    0.03571428571428            24
   -0.25000000000000   -0.32142857142857    0.03571428571428            48
   -0.17857142857143   -0.32142857142857    0.03571428571428            48
   -0.10714285714285   -0.32142857142857    0.03571428571428            48
   -0.25000000000000   -0.25000000000000    0.03571428571428            24
   -0.17857142857143   -0.25000000000000    0.03571428571428            48
   -0.10714285714285   -0.25000000000000    0.03571428571428            48
   -0.17857142857143   -0.17857142857143    0.03571428571428            24
   -0.10714285714285   -0.17857142857143    0.03571428571428            48
   -0.10714285714285   -0.10714285714285    0.03571428571428            24
    0.10714285714285    0.10714285714285    0.10714285714285             8
    0.17857142857143    0.10714285714285    0.10714285714285            24
    0.25000000000000    0.10714285714285    0.10714285714285            24
    0.32142857142857    0.10714285714285    0.10714285714285            24
    0.39285714285715    0.10714285714285    0.10714285714285            24
    0.46428571428572    0.10714285714285    0.10714285714285            24
   -0.46428571428572    0.10714285714285    0.10714285714285            24
   -0.39285714285715    0.10714285714285    0.10714285714285            24
   -0.32142857142857    0.10714285714285    0.10714285714285            24
   -0.25000000000000    0.10714285714285    0.10714285714285            24
   -0.17857142857143    0.10714285714285    0.10714285714285            24
   -0.10714285714285    0.10714285714285    0.10714285714285            24
    0.17857142857143    0.17857142857143    0.10714285714285            24
    0.25000000000000    0.17857142857143    0.10714285714285            48
    0.32142857142857    0.17857142857143    0.10714285714285            48
    0.39285714285715    0.17857142857143    0.10714285714285            48
    0.46428571428572    0.17857142857143    0.10714285714285            48
   -0.46428571428572    0.17857142857143    0.10714285714285            48
   -0.39285714285715    0.17857142857143    0.10714285714285            48
   -0.32142857142857    0.17857142857143    0.10714285714285            48
   -0.25000000000000    0.17857142857143    0.10714285714285            48
   -0.17857142857143    0.17857142857143    0.10714285714285            48
   -0.10714285714285    0.17857142857143    0.10714285714285            48
    0.25000000000000    0.25000000000000    0.10714285714285            24
    0.32142857142857    0.25000000000000    0.10714285714285            48
    0.39285714285715    0.25000000000000    0.10714285714285            48
    0.46428571428572    0.25000000000000    0.10714285714285            48
   -0.46428571428572    0.25000000000000    0.10714285714285            48
   -0.39285714285715    0.25000000000000    0.10714285714285            48
   -0.32142857142857    0.25000000000000    0.10714285714285            48
   -0.25000000000000    0.25000000000000    0.10714285714285            48
   -0.17857142857143    0.25000000000000    0.10714285714285            48
   -0.10714285714285    0.25000000000000    0.10714285714285            48
    0.32142857142857    0.32142857142857    0.10714285714285            24
    0.39285714285715    0.32142857142857    0.10714285714285            48
    0.46428571428572    0.32142857142857    0.10714285714285            48
   -0.46428571428572    0.32142857142857    0.10714285714285            48
   -0.39285714285715    0.32142857142857    0.10714285714285            48
   -0.32142857142857    0.32142857142857    0.10714285714285            48
   -0.25000000000000    0.32142857142857    0.10714285714285            48
   -0.17857142857143    0.32142857142857    0.10714285714285            48
   -0.10714285714285    0.32142857142857    0.10714285714285            48
    0.39285714285715    0.39285714285715    0.10714285714285            24
    0.46428571428572    0.39285714285715    0.10714285714285            48
   -0.46428571428572    0.39285714285715    0.10714285714285            48
   -0.39285714285715    0.39285714285715    0.10714285714285            48
   -0.32142857142857    0.39285714285715    0.10714285714285            48
   -0.25000000000000    0.39285714285715    0.10714285714285            48
   -0.17857142857143    0.39285714285715    0.10714285714285            48
   -0.10714285714285    0.39285714285715    0.10714285714285            48
    0.46428571428572    0.46428571428572    0.10714285714285            24
   -0.46428571428572    0.46428571428572    0.10714285714285            48
   -0.39285714285715    0.46428571428572    0.10714285714285            48
   -0.32142857142857    0.46428571428572    0.10714285714285            48
   -0.25000000000000    0.46428571428572    0.10714285714285            48
   -0.17857142857143    0.46428571428572    0.10714285714285            48
   -0.10714285714285    0.46428571428572    0.10714285714285            48
   -0.46428571428572   -0.46428571428572    0.10714285714285            24
   -0.39285714285715   -0.46428571428572    0.10714285714285            48
   -0.32142857142857   -0.46428571428572    0.10714285714285            48
   -0.25000000000000   -0.46428571428572    0.10714285714285            48
   -0.17857142857143   -0.46428571428572    0.10714285714285            48
   -0.39285714285715   -0.39285714285715    0.10714285714285            24
   -0.32142857142857   -0.39285714285715    0.10714285714285            48
   -0.25000000000000   -0.39285714285715    0.10714285714285            48
   -0.17857142857143   -0.39285714285715    0.10714285714285            48
   -0.32142857142857   -0.32142857142857    0.10714285714285            24
   -0.25000000000000   -0.32142857142857    0.10714285714285            48
   -0.17857142857143   -0.32142857142857    0.10714285714285            48
   -0.25000000000000   -0.25000000000000    0.10714285714285            24
   -0.17857142857143   -0.25000000000000    0.10714285714285            48
   -0.17857142857143   -0.17857142857143    0.10714285714285            24
    0.17857142857143    0.17857142857143    0.17857142857143             8
    0.25000000000000    0.17857142857143    0.17857142857143            24
    0.32142857142857    0.17857142857143    0.17857142857143            24
    0.39285714285715    0.17857142857143    0.17857142857143            24
    0.46428571428572    0.17857142857143    0.17857142857143            24
   -0.46428571428572    0.17857142857143    0.17857142857143            24
   -0.39285714285715    0.17857142857143    0.17857142857143            24
   -0.32142857142857    0.17857142857143    0.17857142857143            24
   -0.25000000000000    0.17857142857143    0.17857142857143            24
   -0.17857142857143    0.17857142857143    0.17857142857143            24
    0.25000000000000    0.25000000000000    0.17857142857143            24
    0.32142857142857    0.25000000000000    0.17857142857143            48
    0.39285714285715    0.25000000000000    0.17857142857143            48
    0.46428571428572    0.25000000000000    0.17857142857143            48
   -0.46428571428572    0.25000000000000    0.17857142857143            48
   -0.39285714285715    0.25000000000000    0.17857142857143            48
   -0.32142857142857    0.25000000000000    0.17857142857143            48
   -0.25000000000000    0.25000000000000    0.17857142857143            48
   -0.17857142857143    0.25000000000000    0.17857142857143            48
    0.32142857142857    0.32142857142857    0.17857142857143            24
    0.39285714285715    0.32142857142857    0.17857142857143            48
    0.46428571428572    0.32142857142857    0.17857142857143            48
   -0.46428571428572    0.32142857142857    0.17857142857143            48
   -0.39285714285715    0.32142857142857    0.17857142857143            48
   -0.32142857142857    0.32142857142857    0.17857142857143            48
   -0.25000000000000    0.32142857142857    0.17857142857143            48
   -0.17857142857143    0.32142857142857    0.17857142857143            48
    0.39285714285715    0.39285714285715    0.17857142857143            24
    0.46428571428572    0.39285714285715    0.17857142857143            48
   -0.46428571428572    0.39285714285715    0.17857142857143            48
   -0.39285714285715    0.39285714285715    0.17857142857143            48
   -0.32142857142857    0.39285714285715    0.17857142857143            48
   -0.25000000000000    0.39285714285715    0.17857142857143            48
   -0.17857142857143    0.39285714285715    0.17857142857143            48
    0.46428571428572    0.46428571428572    0.17857142857143            24
   -0.46428571428572    0.46428571428572    0.17857142857143            48
   -0.39285714285715    0.46428571428572    0.17857142857143            48
   -0.32142857142857    0.46428571428572    0.17857142857143            48
   -0.25000000000000    0.46428571428572    0.17857142857143            48
   -0.17857142857143    0.46428571428572    0.17857142857143            48
   -0.46428571428572   -0.46428571428572    0.17857142857143            24
   -0.39285714285715   -0.46428571428572    0.17857142857143            48
   -0.32142857142857   -0.46428571428572    0.17857142857143            48
   -0.25000000000000   -0.46428571428572    0.17857142857143            48
   -0.39285714285715   -0.39285714285715    0.17857142857143            24
   -0.32142857142857   -0.39285714285715    0.17857142857143            48
   -0.25000000000000   -0.39285714285715    0.17857142857143            48
   -0.32142857142857   -0.32142857142857    0.17857142857143            24
   -0.25000000000000   -0.32142857142857    0.17857142857143            48
   -0.25000000000000   -0.25000000000000    0.17857142857143            24
    0.25000000000000    0.25000000000000    0.25000000000000             8
    0.32142857142857    0.25000000000000    0.25000000000000            24
    0.39285714285715    0.25000000000000    0.25000000000000            24
    0.46428571428572    0.25000000000000    0.25000000000000            24
   -0.46428571428572    0.25000000000000    0.25000000000000            24
   -0.39285714285715    0.25000000000000    0.25000000000000            24
   -0.32142857142857    0.25000000000000    0.25000000000000            24
   -0.25000000000000    0.25000000000000    0.25000000000000            24
    0.32142857142857    0.32142857142857    0.25000000000000            24
    0.39285714285715    0.32142857142857    0.25000000000000            48
    0.46428571428572    0.32142857142857    0.25000000000000            48
   -0.46428571428572    0.32142857142857    0.25000000000000            48
   -0.39285714285715    0.32142857142857    0.25000000000000            48
   -0.32142857142857    0.32142857142857    0.25000000000000            48
   -0.25000000000000    0.32142857142857    0.25000000000000            48
    0.39285714285715    0.39285714285715    0.25000000000000            24
    0.46428571428572    0.39285714285715    0.25000000000000            48
   -0.46428571428572    0.39285714285715    0.25000000000000            48
   -0.39285714285715    0.39285714285715    0.25000000000000            48
   -0.32142857142857    0.39285714285715    0.25000000000000            48
   -0.25000000000000    0.39285714285715    0.25000000000000            48
    0.46428571428572    0.46428571428572    0.25000000000000            24
   -0.46428571428572    0.46428571428572    0.25000000000000            48
   -0.39285714285715    0.46428571428572    0.25000000000000            48
   -0.32142857142857    0.46428571428572    0.25000000000000            48
   -0.25000000000000    0.46428571428572    0.25000000000000            48
   -0.46428571428572   -0.46428571428572    0.25000000000000            24
   -0.39285714285715   -0.46428571428572    0.25000000000000            48
   -0.32142857142857   -0.46428571428572    0.25000000000000            48
   -0.39285714285715   -0.39285714285715    0.25000000000000            24
   -0.32142857142857   -0.39285714285715    0.25000000000000            48
   -0.32142857142857   -0.32142857142857    0.25000000000000            24
    0.32142857142857    0.32142857142857    0.32142857142857             8
    0.39285714285715    0.32142857142857    0.32142857142857            24
    0.46428571428572    0.32142857142857    0.32142857142857            24
   -0.46428571428572    0.32142857142857    0.32142857142857            24
   -0.39285714285715    0.32142857142857    0.32142857142857            24
   -0.32142857142857    0.32142857142857    0.32142857142857            24
    0.39285714285715    0.39285714285715    0.32142857142857            24
    0.46428571428572    0.39285714285715    0.32142857142857            48
   -0.46428571428572    0.39285714285715    0.32142857142857            48
   -0.39285714285715    0.39285714285715    0.32142857142857            48
   -0.32142857142857    0.39285714285715    0.32142857142857            48
    0.46428571428572    0.46428571428572    0.32142857142857            24
   -0.46428571428572    0.46428571428572    0.32142857142857            48
   -0.39285714285715    0.46428571428572    0.32142857142857            48
   -0.32142857142857    0.46428571428572    0.32142857142857            48
   -0.46428571428572   -0.46428571428572    0.32142857142857            24
   -0.39285714285715   -0.46428571428572    0.32142857142857            48
   -0.39285714285715   -0.39285714285715    0.32142857142857            24
    0.39285714285715    0.39285714285715    0.39285714285715             8
    0.46428571428572    0.39285714285715    0.39285714285715            24
   -0.46428571428572    0.39285714285715    0.39285714285715            24
   -0.39285714285715    0.39285714285715    0.39285714285715            24
    0.46428571428572    0.46428571428572    0.39285714285715            24
   -0.46428571428572    0.46428571428572    0.39285714285715            48
   -0.39285714285715    0.46428571428572    0.39285714285715            48
   -0.46428571428572   -0.46428571428572    0.39285714285715            24
    0.46428571428572    0.46428571428572    0.46428571428572             8
   -0.46428571428572    0.46428571428572    0.46428571428572            24
