       N       E                     dE             d eps       ncg     rms          rms(c)
DAV:   1     0.155576182149E+02    0.15558E+02   -0.11674E+04 15264   0.587E+02
DAV:   2    -0.639744739475E+01   -0.21955E+02   -0.21725E+02 17712   0.879E+01
DAV:   3    -0.642804934275E+01   -0.30602E-01   -0.30600E-01 17400   0.371E+00
DAV:   4    -0.642807479983E+01   -0.25457E-04   -0.25456E-04 21552   0.745E-02
DAV:   5    -0.642807480026E+01   -0.42701E-09   -0.58557E-09 17304   0.271E-04    0.149E+01
DAV:   6    -0.609504639369E+01    0.33303E+00   -0.12318E+00 15336   0.499E+00    0.480E+00
DAV:   7    -0.607618796711E+01    0.18858E-01   -0.77973E-02 20616   0.105E+00    0.148E+00
DAV:   8    -0.607464005416E+01    0.15479E-02   -0.39476E-03 15168   0.479E-01    0.154E-01
DAV:   9    -0.607457325378E+01    0.66800E-04   -0.46196E-05 18960   0.482E-02    0.161E-02
DAV:  10    -0.607457892272E+01   -0.56689E-05   -0.49558E-06 18456   0.128E-02    0.600E-03
DAV:  11    -0.607457885898E+01    0.63734E-07   -0.48496E-09  9168   0.448E-04
   1 F= -.60745789E+01 E0= -.60732368E+01  d E =-.268419E-02
