 vasp.6.3.2 27Jun22 (build Aug 12 2022 00:53:59) complex                        
  
 executed on               tv2STD date 2024.11.30  15:56:32
 running   24 mpi-ranks, with    1 threads/rank
 distrk:  each k-point on   24 cores,    1 groups
 distr:  one band on NCORE=   1 cores,   24 groups


--------------------------------------------------------------------------------------------------------


 INCAR:
   SYSTEM = Pt-fcc
   NWRITE = 2    write-flag
   ISTART = 0    job   : 0-new, 1-cont, 2-samecut
   ICHARG = 2    charge: 0-wave, 1-file, 2-atom, >10-const
   INIWAV = 1    electr: 0-lowe 1-rand  2-diag
   ENCUT = 425.0     energy cutoff in eV
   PREC = accurate      normal | accurate
   ADDGRID = .FALSE.  (use fine grid)
   NELM = 100     number of ELM steps
   EDIFF = 1E-06    energy stopping-criterion for ELM
   LREAL = .FALSE.      real-space projection (.FALSE., .TRUE., On, Auto)
   ALGO = Normal     Normal, Fast, Very_Fast
   LWAVE = .FALSE.
   LCHARG = .FALSE.
   NSW = 0       max number of geometry steps
   IBRION = -1     ionic relax: 0-MD, 1-quasi-Newton, 2-CG, 3-Damped MD
   EDIFFG = -0.02  force (eV/A) stopping-criterion for geometry steps
   ISIF = 2     (1:force\=y stress\=trace only ions\=y shape\=n volume\=n)
   ISYM = 1     (1-use symmetry, 0-no symmetry)
   ISMEAR = 0     (-1-Fermi, 1-Methfessel/Paxton)
   SIGMA = 0.05   broadening in eV

 POTCAR:    PAW_PBE Pt_pv 12Dec2005               
 POTCAR:    PAW_PBE Pt_pv 12Dec2005               
   SHA256 =  e5abf7e8cd8db70d0153315afc5ad66b6e3eeee29cc2d5b91b16730957c1d208 Pt_pv/POTCAR          
   COPYR  = (c) Copyright 12Dec2005 Georg Kresse                                                    
   COPYR  = This file is part of the software VASP. Any use, copying, and all other rights are regul
   COPYR  = If you do not have a valid VASP license, you may not use, copy or distribute this file. 
   VRHFIN =Pt: 5ps1d9                                                                               
   LEXCH  = PE                                                                                      
   EATOM  =  2428.2504 eV,  178.4714 Ry                                                             
                                                                                                    
   TITEL  = PAW_PBE Pt_pv 12Dec2005                                                                 
   LULTRA =        F    use ultrasoft PP ?                                                          
   IUNSCR =        1    unscreen: 0-lin 1-nonlin 2-no                                               
   RPACOR =    2.000    partial core radius                                                         
   POMASS =  195.080; ZVAL   =   16.000    mass and valenz                                          
   RCORE  =    2.200    outmost cutoff radius                                                       
   RWIGS  =    2.200; RWIGS  =    1.164    wigner-seitz radius (au A)                               
   ENMAX  =  294.607; ENMIN  =  220.955 eV                                                          
   ICORE  =        3    local potential                                                             
   LCOR   =        T    correct aug charges                                                         
   LPAW   =        T    paw PP                                                                      
   EAUG   =  527.014                                                                                
   DEXC   =    0.000                                                                                
   RMAX   =    2.247    core radius for proj-oper                                                   
   RAUG   =    1.300    factor for augmentation sphere                                              
   RDEP   =    2.279    radius for radial grids                                                     
   RDEPT  =    1.878    core radius for aug-charge                                                  
                                                                                                    
   Atomic configuration                                                                             
   16 entries                                                                                       
     n  l   j            E        occ.                                                              
     1  0  0.50    -78401.1885   2.0000                                                             
     2  0  0.50    -13770.7750   2.0000                                                             
     2  1  1.50    -11931.0468   6.0000                                                             
     3  0  0.50     -3234.7234   2.0000                                                             
     3  1  1.50     -2699.2216   6.0000                                                             
     3  2  2.50     -2119.5714  10.0000                                                             
     4  0  0.50      -695.1528   2.0000                                                             
     4  1  1.50      -519.6034   6.0000                                                             
     4  2  2.50      -306.6786  10.0000                                                             
     4  3  3.50       -70.1041  14.0000                                                             
     5  0  0.50      -101.7747   2.0000                                                             
     5  1  1.50       -55.9873   6.0000                                                             
     6  1  1.50        -6.8029   0.0000                                                             
     5  2  2.50        -6.1423   9.0000                                                             
     6  0  0.50        -5.6573   1.0000                                                             
     5  3  2.50        -1.3606   0.0000                                                             
   Description                                                                                      
     l       E           TYP  RCUT    TYP  RCUT                                                     
     1    -55.9873477     23  2.000                                                                 
     1     27.2116520     23  2.000                                                                 
     2     -6.1423404     23  2.200                                                                 
     2     -4.6754623     23  2.200                                                                 
     0     -5.6573207     23  2.200                                                                 
     0     47.6203910     23  2.200                                                                 
     3      6.8029130     23  2.200                                                                 
  local pseudopotential read in
  partial core-charges read in
  partial kinetic energy density read in
  atomic valenz-charges read in
  non local Contribution for L=           1  read in
    real space projection operators read in
  non local Contribution for L=           1  read in
    real space projection operators read in
  non local Contribution for L=           2  read in
    real space projection operators read in
  non local Contribution for L=           2  read in
    real space projection operators read in
  non local Contribution for L=           0  read in
    real space projection operators read in
  non local Contribution for L=           0  read in
    real space projection operators read in
    PAW grid and wavefunctions read in
 
   number of l-projection  operators is LMAX  =           6
   number of lm-projection operators is LMMAX =          18
 
  PAW_PBE Pt_pv 12Dec2005               :
 energy of atom  1       EATOM=-2428.2504
 kinetic energy error for atom=    0.0554 (will be added to EATOM!!)
 
 
 POSCAR: Pt
  positions in cartesian coordinates
  No initial velocities read in
 exchange correlation table for  LEXCH =        8
   RHO(1)=    0.500       N(1)  =     2000
   RHO(2)=  100.500       N(2)  =     4000
 


--------------------------------------------------------------------------------------------------------


 ion  position               nearest neighbor table
   1  0.000  0.000  0.000-
 
  LATTYP: Found a face centered cubic cell.
 ALAT       =     3.9400000000
  
  Lattice vectors:
  
 A1 = (   0.0000000000,   1.9700000000,   1.9700000000)
 A2 = (   1.9700000000,   0.0000000000,   1.9700000000)
 A3 = (   1.9700000000,   1.9700000000,   0.0000000000)


Analysis of symmetry for initial positions (statically):
=====================================================================
 Subroutine PRICEL returns:
 Original cell was already a primitive cell.
 

 Routine SETGRP: Setting up the symmetry group for a 
 face centered cubic supercell.


 Subroutine GETGRP returns: Found 48 space group operations
 (whereof 48 operations were pure point group operations)
 out of a pool of 48 trial point group operations.


The static configuration has the point symmetry O_h .


Analysis of symmetry for dynamics (positions and initial velocities):
=====================================================================
 Subroutine PRICEL returns:
 Original cell was already a primitive cell.
 

 Routine SETGRP: Setting up the symmetry group for a 
 face centered cubic supercell.


 Subroutine GETGRP returns: Found 48 space group operations
 (whereof 48 operations were pure point group operations)
 out of a pool of 48 trial point group operations.


The dynamic configuration has the point symmetry O_h .


 Subroutine INISYM returns: Found 48 space group operations
 (whereof 48 operations are pure point group operations),
 and found     1 'primitive' translations


----------------------------------------------------------------------------------------

                                     Primitive cell                                     

  volume of cell :      15.2907

  direct lattice vectors                    reciprocal lattice vectors
     0.000000000  1.970000000  1.970000000    -0.253807107  0.253807107  0.253807107
     1.970000000  0.000000000  1.970000000     0.253807107 -0.253807107  0.253807107
     1.970000000  1.970000000  0.000000000     0.253807107  0.253807107 -0.253807107

  length of vectors
     2.786000718  2.786000718  2.786000718     0.439606804  0.439606804  0.439606804

  position of ions in fractional coordinates (direct lattice)
     0.000000000  0.000000000  0.000000000

  ion indices of the primitive-cell ions
   primitive index   ion index
                 1           1

----------------------------------------------------------------------------------------

 
 
 KPOINTS: Automatic mesh                          

Automatic generation of k-mesh.
 Grid dimensions read from file:
 generate k-points for:   14   14   14

 Generating k-lattice:

  Cartesian coordinates                     Fractional coordinates (reciprocal lattice)
    -0.018129079  0.018129079  0.018129079     0.071428571  0.000000000  0.000000000
     0.018129079 -0.018129079  0.018129079     0.000000000  0.071428571  0.000000000
     0.018129079  0.018129079 -0.018129079     0.000000000  0.000000000  0.071428571

  Length of vectors
     0.031400486  0.031400486  0.031400486

  Shift w.r.t. Gamma in fractional coordinates (k-lattice)
     0.500000000  0.500000000  0.500000000

 
 Subroutine IBZKPT returns following result:
 ===========================================
 
 Found    280 irreducible k-points:
 
 Following reciprocal coordinates:
            Coordinates               Weight
  0.035714  0.035714  0.035714      8.000000
  0.107143  0.035714  0.035714     24.000000
  0.178571  0.035714  0.035714     24.000000
  0.250000  0.035714  0.035714     24.000000
  0.321429  0.035714  0.035714     24.000000
  0.392857  0.035714  0.035714     24.000000
  0.464286  0.035714  0.035714     24.000000
 -0.464286  0.035714  0.035714     24.000000
 -0.392857  0.035714  0.035714     24.000000
 -0.321429  0.035714  0.035714     24.000000
 -0.250000  0.035714  0.035714     24.000000
 -0.178571  0.035714  0.035714     24.000000
 -0.107143  0.035714  0.035714     24.000000
 -0.035714  0.035714  0.035714     24.000000
  0.107143  0.107143  0.035714     24.000000
  0.178571  0.107143  0.035714     48.000000
  0.250000  0.107143  0.035714     48.000000
  0.321429  0.107143  0.035714     48.000000
  0.392857  0.107143  0.035714     48.000000
  0.464286  0.107143  0.035714     48.000000
 -0.464286  0.107143  0.035714     48.000000
 -0.392857  0.107143  0.035714     48.000000
 -0.321429  0.107143  0.035714     48.000000
 -0.250000  0.107143  0.035714     48.000000
 -0.178571  0.107143  0.035714     48.000000
 -0.107143  0.107143  0.035714     48.000000
 -0.035714  0.107143  0.035714     48.000000
  0.178571  0.178571  0.035714     24.000000
  0.250000  0.178571  0.035714     48.000000
  0.321429  0.178571  0.035714     48.000000
  0.392857  0.178571  0.035714     48.000000
  0.464286  0.178571  0.035714     48.000000
 -0.464286  0.178571  0.035714     48.000000
 -0.392857  0.178571  0.035714     48.000000
 -0.321429  0.178571  0.035714     48.000000
 -0.250000  0.178571  0.035714     48.000000
 -0.178571  0.178571  0.035714     48.000000
 -0.107143  0.178571  0.035714     48.000000
 -0.035714  0.178571  0.035714     48.000000
  0.250000  0.250000  0.035714     24.000000
  0.321429  0.250000  0.035714     48.000000
  0.392857  0.250000  0.035714     48.000000
  0.464286  0.250000  0.035714     48.000000
 -0.464286  0.250000  0.035714     48.000000
 -0.392857  0.250000  0.035714     48.000000
 -0.321429  0.250000  0.035714     48.000000
 -0.250000  0.250000  0.035714     48.000000
 -0.178571  0.250000  0.035714     48.000000
 -0.107143  0.250000  0.035714     48.000000
 -0.035714  0.250000  0.035714     48.000000
  0.321429  0.321429  0.035714     24.000000
  0.392857  0.321429  0.035714     48.000000
  0.464286  0.321429  0.035714     48.000000
 -0.464286  0.321429  0.035714     48.000000
 -0.392857  0.321429  0.035714     48.000000
 -0.321429  0.321429  0.035714     48.000000
 -0.250000  0.321429  0.035714     48.000000
 -0.178571  0.321429  0.035714     48.000000
 -0.107143  0.321429  0.035714     48.000000
 -0.035714  0.321429  0.035714     48.000000
  0.392857  0.392857  0.035714     24.000000
  0.464286  0.392857  0.035714     48.000000
 -0.464286  0.392857  0.035714     48.000000
 -0.392857  0.392857  0.035714     48.000000
 -0.321429  0.392857  0.035714     48.000000
 -0.250000  0.392857  0.035714     48.000000
 -0.178571  0.392857  0.035714     48.000000
 -0.107143  0.392857  0.035714     48.000000
 -0.035714  0.392857  0.035714     48.000000
  0.464286  0.464286  0.035714     24.000000
 -0.464286  0.464286  0.035714     48.000000
 -0.392857  0.464286  0.035714     48.000000
 -0.321429  0.464286  0.035714     48.000000
 -0.250000  0.464286  0.035714     48.000000
 -0.178571  0.464286  0.035714     48.000000
 -0.107143  0.464286  0.035714     48.000000
 -0.035714  0.464286  0.035714     48.000000
 -0.464286 -0.464286  0.035714     24.000000
 -0.392857 -0.464286  0.035714     48.000000
 -0.321429 -0.464286  0.035714     48.000000
 -0.250000 -0.464286  0.035714     48.000000
 -0.178571 -0.464286  0.035714     48.000000
 -0.107143 -0.464286  0.035714     48.000000
 -0.392857 -0.392857  0.035714     24.000000
 -0.321429 -0.392857  0.035714     48.000000
 -0.250000 -0.392857  0.035714     48.000000
 -0.178571 -0.392857  0.035714     48.000000
 -0.107143 -0.392857  0.035714     48.000000
 -0.321429 -0.321429  0.035714     24.000000
 -0.250000 -0.321429  0.035714     48.000000
 -0.178571 -0.321429  0.035714     48.000000
 -0.107143 -0.321429  0.035714     48.000000
 -0.250000 -0.250000  0.035714     24.000000
 -0.178571 -0.250000  0.035714     48.000000
 -0.107143 -0.250000  0.035714     48.000000
 -0.178571 -0.178571  0.035714     24.000000
 -0.107143 -0.178571  0.035714     48.000000
 -0.107143 -0.107143  0.035714     24.000000
  0.107143  0.107143  0.107143      8.000000
  0.178571  0.107143  0.107143     24.000000
  0.250000  0.107143  0.107143     24.000000
  0.321429  0.107143  0.107143     24.000000
  0.392857  0.107143  0.107143     24.000000
  0.464286  0.107143  0.107143     24.000000
 -0.464286  0.107143  0.107143     24.000000
 -0.392857  0.107143  0.107143     24.000000
 -0.321429  0.107143  0.107143     24.000000
 -0.250000  0.107143  0.107143     24.000000
 -0.178571  0.107143  0.107143     24.000000
 -0.107143  0.107143  0.107143     24.000000
  0.178571  0.178571  0.107143     24.000000
  0.250000  0.178571  0.107143     48.000000
  0.321429  0.178571  0.107143     48.000000
  0.392857  0.178571  0.107143     48.000000
  0.464286  0.178571  0.107143     48.000000
 -0.464286  0.178571  0.107143     48.000000
 -0.392857  0.178571  0.107143     48.000000
 -0.321429  0.178571  0.107143     48.000000
 -0.250000  0.178571  0.107143     48.000000
 -0.178571  0.178571  0.107143     48.000000
 -0.107143  0.178571  0.107143     48.000000
  0.250000  0.250000  0.107143     24.000000
  0.321429  0.250000  0.107143     48.000000
  0.392857  0.250000  0.107143     48.000000
  0.464286  0.250000  0.107143     48.000000
 -0.464286  0.250000  0.107143     48.000000
 -0.392857  0.250000  0.107143     48.000000
 -0.321429  0.250000  0.107143     48.000000
 -0.250000  0.250000  0.107143     48.000000
 -0.178571  0.250000  0.107143     48.000000
 -0.107143  0.250000  0.107143     48.000000
  0.321429  0.321429  0.107143     24.000000
  0.392857  0.321429  0.107143     48.000000
  0.464286  0.321429  0.107143     48.000000
 -0.464286  0.321429  0.107143     48.000000
 -0.392857  0.321429  0.107143     48.000000
 -0.321429  0.321429  0.107143     48.000000
 -0.250000  0.321429  0.107143     48.000000
 -0.178571  0.321429  0.107143     48.000000
 -0.107143  0.321429  0.107143     48.000000
  0.392857  0.392857  0.107143     24.000000
  0.464286  0.392857  0.107143     48.000000
 -0.464286  0.392857  0.107143     48.000000
 -0.392857  0.392857  0.107143     48.000000
 -0.321429  0.392857  0.107143     48.000000
 -0.250000  0.392857  0.107143     48.000000
 -0.178571  0.392857  0.107143     48.000000
 -0.107143  0.392857  0.107143     48.000000
  0.464286  0.464286  0.107143     24.000000
 -0.464286  0.464286  0.107143     48.000000
 -0.392857  0.464286  0.107143     48.000000
 -0.321429  0.464286  0.107143     48.000000
 -0.250000  0.464286  0.107143     48.000000
 -0.178571  0.464286  0.107143     48.000000
 -0.107143  0.464286  0.107143     48.000000
 -0.464286 -0.464286  0.107143     24.000000
 -0.392857 -0.464286  0.107143     48.000000
 -0.321429 -0.464286  0.107143     48.000000
 -0.250000 -0.464286  0.107143     48.000000
 -0.178571 -0.464286  0.107143     48.000000
 -0.392857 -0.392857  0.107143     24.000000
 -0.321429 -0.392857  0.107143     48.000000
 -0.250000 -0.392857  0.107143     48.000000
 -0.178571 -0.392857  0.107143     48.000000
 -0.321429 -0.321429  0.107143     24.000000
 -0.250000 -0.321429  0.107143     48.000000
 -0.178571 -0.321429  0.107143     48.000000
 -0.250000 -0.250000  0.107143     24.000000
 -0.178571 -0.250000  0.107143     48.000000
 -0.178571 -0.178571  0.107143     24.000000
  0.178571  0.178571  0.178571      8.000000
  0.250000  0.178571  0.178571     24.000000
  0.321429  0.178571  0.178571     24.000000
  0.392857  0.178571  0.178571     24.000000
  0.464286  0.178571  0.178571     24.000000
 -0.464286  0.178571  0.178571     24.000000
 -0.392857  0.178571  0.178571     24.000000
 -0.321429  0.178571  0.178571     24.000000
 -0.250000  0.178571  0.178571     24.000000
 -0.178571  0.178571  0.178571     24.000000
  0.250000  0.250000  0.178571     24.000000
  0.321429  0.250000  0.178571     48.000000
  0.392857  0.250000  0.178571     48.000000
  0.464286  0.250000  0.178571     48.000000
 -0.464286  0.250000  0.178571     48.000000
 -0.392857  0.250000  0.178571     48.000000
 -0.321429  0.250000  0.178571     48.000000
 -0.250000  0.250000  0.178571     48.000000
 -0.178571  0.250000  0.178571     48.000000
  0.321429  0.321429  0.178571     24.000000
  0.392857  0.321429  0.178571     48.000000
  0.464286  0.321429  0.178571     48.000000
 -0.464286  0.321429  0.178571     48.000000
 -0.392857  0.321429  0.178571     48.000000
 -0.321429  0.321429  0.178571     48.000000
 -0.250000  0.321429  0.178571     48.000000
 -0.178571  0.321429  0.178571     48.000000
  0.392857  0.392857  0.178571     24.000000
  0.464286  0.392857  0.178571     48.000000
 -0.464286  0.392857  0.178571     48.000000
 -0.392857  0.392857  0.178571     48.000000
 -0.321429  0.392857  0.178571     48.000000
 -0.250000  0.392857  0.178571     48.000000
 -0.178571  0.392857  0.178571     48.000000
  0.464286  0.464286  0.178571     24.000000
 -0.464286  0.464286  0.178571     48.000000
 -0.392857  0.464286  0.178571     48.000000
 -0.321429  0.464286  0.178571     48.000000
 -0.250000  0.464286  0.178571     48.000000
 -0.178571  0.464286  0.178571     48.000000
 -0.464286 -0.464286  0.178571     24.000000
 -0.392857 -0.464286  0.178571     48.000000
 -0.321429 -0.464286  0.178571     48.000000
 -0.250000 -0.464286  0.178571     48.000000
 -0.392857 -0.392857  0.178571     24.000000
 -0.321429 -0.392857  0.178571     48.000000
 -0.250000 -0.392857  0.178571     48.000000
 -0.321429 -0.321429  0.178571     24.000000
 -0.250000 -0.321429  0.178571     48.000000
 -0.250000 -0.250000  0.178571     24.000000
  0.250000  0.250000  0.250000      8.000000
  0.321429  0.250000  0.250000     24.000000
  0.392857  0.250000  0.250000     24.000000
  0.464286  0.250000  0.250000     24.000000
 -0.464286  0.250000  0.250000     24.000000
 -0.392857  0.250000  0.250000     24.000000
 -0.321429  0.250000  0.250000     24.000000
 -0.250000  0.250000  0.250000     24.000000
  0.321429  0.321429  0.250000     24.000000
  0.392857  0.321429  0.250000     48.000000
  0.464286  0.321429  0.250000     48.000000
 -0.464286  0.321429  0.250000     48.000000
 -0.392857  0.321429  0.250000     48.000000
 -0.321429  0.321429  0.250000     48.000000
 -0.250000  0.321429  0.250000     48.000000
  0.392857  0.392857  0.250000     24.000000
  0.464286  0.392857  0.250000     48.000000
 -0.464286  0.392857  0.250000     48.000000
 -0.392857  0.392857  0.250000     48.000000
 -0.321429  0.392857  0.250000     48.000000
 -0.250000  0.392857  0.250000     48.000000
  0.464286  0.464286  0.250000     24.000000
 -0.464286  0.464286  0.250000     48.000000
 -0.392857  0.464286  0.250000     48.000000
 -0.321429  0.464286  0.250000     48.000000
 -0.250000  0.464286  0.250000     48.000000
 -0.464286 -0.464286  0.250000     24.000000
 -0.392857 -0.464286  0.250000     48.000000
 -0.321429 -0.464286  0.250000     48.000000
 -0.392857 -0.392857  0.250000     24.000000
 -0.321429 -0.392857  0.250000     48.000000
 -0.321429 -0.321429  0.250000     24.000000
  0.321429  0.321429  0.321429      8.000000
  0.392857  0.321429  0.321429     24.000000
  0.464286  0.321429  0.321429     24.000000
 -0.464286  0.321429  0.321429     24.000000
 -0.392857  0.321429  0.321429     24.000000
 -0.321429  0.321429  0.321429     24.000000
  0.392857  0.392857  0.321429     24.000000
  0.464286  0.392857  0.321429     48.000000
 -0.464286  0.392857  0.321429     48.000000
 -0.392857  0.392857  0.321429     48.000000
 -0.321429  0.392857  0.321429     48.000000
  0.464286  0.464286  0.321429     24.000000
 -0.464286  0.464286  0.321429     48.000000
 -0.392857  0.464286  0.321429     48.000000
 -0.321429  0.464286  0.321429     48.000000
 -0.464286 -0.464286  0.321429     24.000000
 -0.392857 -0.464286  0.321429     48.000000
 -0.392857 -0.392857  0.321429     24.000000
  0.392857  0.392857  0.392857      8.000000
  0.464286  0.392857  0.392857     24.000000
 -0.464286  0.392857  0.392857     24.000000
 -0.392857  0.392857  0.392857     24.000000
  0.464286  0.464286  0.392857     24.000000
 -0.464286  0.464286  0.392857     48.000000
 -0.392857  0.464286  0.392857     48.000000
 -0.464286 -0.464286  0.392857     24.000000
  0.464286  0.464286  0.464286      8.000000
 -0.464286  0.464286  0.464286     24.000000
 
 Following cartesian coordinates:
            Coordinates               Weight
  0.009065  0.009065  0.009065      8.000000
 -0.009065  0.027194  0.027194     24.000000
 -0.027194  0.045323  0.045323     24.000000
 -0.045323  0.063452  0.063452     24.000000
 -0.063452  0.081581  0.081581     24.000000
 -0.081581  0.099710  0.099710     24.000000
 -0.099710  0.117839  0.117839     24.000000
  0.135968 -0.117839 -0.117839     24.000000
  0.117839 -0.099710 -0.099710     24.000000
  0.099710 -0.081581 -0.081581     24.000000
  0.081581 -0.063452 -0.063452     24.000000
  0.063452 -0.045323 -0.045323     24.000000
  0.045323 -0.027194 -0.027194     24.000000
  0.027194 -0.009065 -0.009065     24.000000
  0.009065  0.009065  0.045323     24.000000
 -0.009065  0.027194  0.063452     48.000000
 -0.027194  0.045323  0.081581     48.000000
 -0.045323  0.063452  0.099710     48.000000
 -0.063452  0.081581  0.117839     48.000000
 -0.081581  0.099710  0.135968     48.000000
  0.154097 -0.135968 -0.099710     48.000000
  0.135968 -0.117839 -0.081581     48.000000
  0.117839 -0.099710 -0.063452     48.000000
  0.099710 -0.081581 -0.045323     48.000000
  0.081581 -0.063452 -0.027194     48.000000
  0.063452 -0.045323 -0.009065     48.000000
  0.045323 -0.027194  0.009065     48.000000
  0.009065  0.009065  0.081581     24.000000
 -0.009065  0.027194  0.099710     48.000000
 -0.027194  0.045323  0.117839     48.000000
 -0.045323  0.063452  0.135968     48.000000
 -0.063452  0.081581  0.154097     48.000000
  0.172226 -0.154097 -0.081581     48.000000
  0.154097 -0.135968 -0.063452     48.000000
  0.135968 -0.117839 -0.045323     48.000000
  0.117839 -0.099710 -0.027194     48.000000
  0.099710 -0.081581 -0.009065     48.000000
  0.081581 -0.063452  0.009065     48.000000
  0.063452 -0.045323  0.027194     48.000000
  0.009065  0.009065  0.117839     24.000000
 -0.009065  0.027194  0.135968     48.000000
 -0.027194  0.045323  0.154097     48.000000
 -0.045323  0.063452  0.172226     48.000000
  0.190355 -0.172226 -0.063452     48.000000
  0.172226 -0.154097 -0.045323     48.000000
  0.154097 -0.135968 -0.027194     48.000000
  0.135968 -0.117839 -0.009065     48.000000
  0.117839 -0.099710  0.009065     48.000000
  0.099710 -0.081581  0.027194     48.000000
  0.081581 -0.063452  0.045323     48.000000
  0.009065  0.009065  0.154097     24.000000
 -0.009065  0.027194  0.172226     48.000000
 -0.027194  0.045323  0.190355     48.000000
  0.208484 -0.190355 -0.045323     48.000000
  0.190355 -0.172226 -0.027194     48.000000
  0.172226 -0.154097 -0.009065     48.000000
  0.154097 -0.135968  0.009065     48.000000
  0.135968 -0.117839  0.027194     48.000000
  0.117839 -0.099710  0.045323     48.000000
  0.099710 -0.081581  0.063452     48.000000
  0.009065  0.009065  0.190355     24.000000
 -0.009065  0.027194  0.208484     48.000000
  0.226613 -0.208484 -0.027194     48.000000
  0.208484 -0.190355 -0.009065     48.000000
  0.190355 -0.172226  0.009065     48.000000
  0.172226 -0.154097  0.027194     48.000000
  0.154097 -0.135968  0.045323     48.000000
  0.135968 -0.117839  0.063452     48.000000
  0.117839 -0.099710  0.081581     48.000000
  0.009065  0.009065  0.226613     24.000000
  0.244743 -0.226613 -0.009065     48.000000
  0.226613 -0.208484  0.009065     48.000000
  0.208484 -0.190355  0.027194     48.000000
  0.190355 -0.172226  0.045323     48.000000
  0.172226 -0.154097  0.063452     48.000000
  0.154097 -0.135968  0.081581     48.000000
  0.135968 -0.117839  0.099710     48.000000
  0.009065  0.009065 -0.244743     24.000000
 -0.009065  0.027194 -0.226613     48.000000
 -0.027194  0.045323 -0.208484     48.000000
 -0.045323  0.063452 -0.190355     48.000000
 -0.063452  0.081581 -0.172226     48.000000
 -0.081581  0.099710 -0.154097     48.000000
  0.009065  0.009065 -0.208484     24.000000
 -0.009065  0.027194 -0.190355     48.000000
 -0.027194  0.045323 -0.172226     48.000000
 -0.045323  0.063452 -0.154097     48.000000
 -0.063452  0.081581 -0.135968     48.000000
  0.009065  0.009065 -0.172226     24.000000
 -0.009065  0.027194 -0.154097     48.000000
 -0.027194  0.045323 -0.135968     48.000000
 -0.045323  0.063452 -0.117839     48.000000
  0.009065  0.009065 -0.135968     24.000000
 -0.009065  0.027194 -0.117839     48.000000
 -0.027194  0.045323 -0.099710     48.000000
  0.009065  0.009065 -0.099710     24.000000
 -0.009065  0.027194 -0.081581     48.000000
  0.009065  0.009065 -0.063452     24.000000
  0.027194  0.027194  0.027194      8.000000
  0.009065  0.045323  0.045323     24.000000
 -0.009065  0.063452  0.063452     24.000000
 -0.027194  0.081581  0.081581     24.000000
 -0.045323  0.099710  0.099710     24.000000
 -0.063452  0.117839  0.117839     24.000000
  0.172226 -0.117839 -0.117839     24.000000
  0.154097 -0.099710 -0.099710     24.000000
  0.135968 -0.081581 -0.081581     24.000000
  0.117839 -0.063452 -0.063452     24.000000
  0.099710 -0.045323 -0.045323     24.000000
  0.081581 -0.027194 -0.027194     24.000000
  0.027194  0.027194  0.063452     24.000000
  0.009065  0.045323  0.081581     48.000000
 -0.009065  0.063452  0.099710     48.000000
 -0.027194  0.081581  0.117839     48.000000
 -0.045323  0.099710  0.135968     48.000000
  0.190355 -0.135968 -0.099710     48.000000
  0.172226 -0.117839 -0.081581     48.000000
  0.154097 -0.099710 -0.063452     48.000000
  0.135968 -0.081581 -0.045323     48.000000
  0.117839 -0.063452 -0.027194     48.000000
  0.099710 -0.045323 -0.009065     48.000000
  0.027194  0.027194  0.099710     24.000000
  0.009065  0.045323  0.117839     48.000000
 -0.009065  0.063452  0.135968     48.000000
 -0.027194  0.081581  0.154097     48.000000
  0.208484 -0.154097 -0.081581     48.000000
  0.190355 -0.135968 -0.063452     48.000000
  0.172226 -0.117839 -0.045323     48.000000
  0.154097 -0.099710 -0.027194     48.000000
  0.135968 -0.081581 -0.009065     48.000000
  0.117839 -0.063452  0.009065     48.000000
  0.027194  0.027194  0.135968     24.000000
  0.009065  0.045323  0.154097     48.000000
 -0.009065  0.063452  0.172226     48.000000
  0.226613 -0.172226 -0.063452     48.000000
  0.208484 -0.154097 -0.045323     48.000000
  0.190355 -0.135968 -0.027194     48.000000
  0.172226 -0.117839 -0.009065     48.000000
  0.154097 -0.099710  0.009065     48.000000
  0.135968 -0.081581  0.027194     48.000000
  0.027194  0.027194  0.172226     24.000000
  0.009065  0.045323  0.190355     48.000000
  0.244743 -0.190355 -0.045323     48.000000
  0.226613 -0.172226 -0.027194     48.000000
  0.208484 -0.154097 -0.009065     48.000000
  0.190355 -0.135968  0.009065     48.000000
  0.172226 -0.117839  0.027194     48.000000
  0.154097 -0.099710  0.045323     48.000000
  0.027194  0.027194  0.208484     24.000000
  0.262872 -0.208484 -0.027194     48.000000
  0.244743 -0.190355 -0.009065     48.000000
  0.226613 -0.172226  0.009065     48.000000
  0.208484 -0.154097  0.027194     48.000000
  0.190355 -0.135968  0.045323     48.000000
  0.172226 -0.117839  0.063452     48.000000
  0.027194  0.027194 -0.262872     24.000000
  0.009065  0.045323 -0.244743     48.000000
 -0.009065  0.063452 -0.226613     48.000000
 -0.027194  0.081581 -0.208484     48.000000
 -0.045323  0.099710 -0.190355     48.000000
  0.027194  0.027194 -0.226613     24.000000
  0.009065  0.045323 -0.208484     48.000000
 -0.009065  0.063452 -0.190355     48.000000
 -0.027194  0.081581 -0.172226     48.000000
  0.027194  0.027194 -0.190355     24.000000
  0.009065  0.045323 -0.172226     48.000000
 -0.009065  0.063452 -0.154097     48.000000
  0.027194  0.027194 -0.154097     24.000000
  0.009065  0.045323 -0.135968     48.000000
  0.027194  0.027194 -0.117839     24.000000
  0.045323  0.045323  0.045323      8.000000
  0.027194  0.063452  0.063452     24.000000
  0.009065  0.081581  0.081581     24.000000
 -0.009065  0.099710  0.099710     24.000000
 -0.027194  0.117839  0.117839     24.000000
  0.208484 -0.117839 -0.117839     24.000000
  0.190355 -0.099710 -0.099710     24.000000
  0.172226 -0.081581 -0.081581     24.000000
  0.154097 -0.063452 -0.063452     24.000000
  0.135968 -0.045323 -0.045323     24.000000
  0.045323  0.045323  0.081581     24.000000
  0.027194  0.063452  0.099710     48.000000
  0.009065  0.081581  0.117839     48.000000
 -0.009065  0.099710  0.135968     48.000000
  0.226613 -0.135968 -0.099710     48.000000
  0.208484 -0.117839 -0.081581     48.000000
  0.190355 -0.099710 -0.063452     48.000000
  0.172226 -0.081581 -0.045323     48.000000
  0.154097 -0.063452 -0.027194     48.000000
  0.045323  0.045323  0.117839     24.000000
  0.027194  0.063452  0.135968     48.000000
  0.009065  0.081581  0.154097     48.000000
  0.244743 -0.154097 -0.081581     48.000000
  0.226613 -0.135968 -0.063452     48.000000
  0.208484 -0.117839 -0.045323     48.000000
  0.190355 -0.099710 -0.027194     48.000000
  0.172226 -0.081581 -0.009065     48.000000
  0.045323  0.045323  0.154097     24.000000
  0.027194  0.063452  0.172226     48.000000
  0.262872 -0.172226 -0.063452     48.000000
  0.244743 -0.154097 -0.045323     48.000000
  0.226613 -0.135968 -0.027194     48.000000
  0.208484 -0.117839 -0.009065     48.000000
  0.190355 -0.099710  0.009065     48.000000
  0.045323  0.045323  0.190355     24.000000
  0.281001 -0.190355 -0.045323     48.000000
  0.262872 -0.172226 -0.027194     48.000000
  0.244743 -0.154097 -0.009065     48.000000
  0.226613 -0.135968  0.009065     48.000000
  0.208484 -0.117839  0.027194     48.000000
  0.045323  0.045323 -0.281001     24.000000
  0.027194  0.063452 -0.262872     48.000000
  0.009065  0.081581 -0.244743     48.000000
 -0.009065  0.099710 -0.226613     48.000000
  0.045323  0.045323 -0.244743     24.000000
  0.027194  0.063452 -0.226613     48.000000
  0.009065  0.081581 -0.208484     48.000000
  0.045323  0.045323 -0.208484     24.000000
  0.027194  0.063452 -0.190355     48.000000
  0.045323  0.045323 -0.172226     24.000000
  0.063452  0.063452  0.063452      8.000000
  0.045323  0.081581  0.081581     24.000000
  0.027194  0.099710  0.099710     24.000000
  0.009065  0.117839  0.117839     24.000000
  0.244743 -0.117839 -0.117839     24.000000
  0.226613 -0.099710 -0.099710     24.000000
  0.208484 -0.081581 -0.081581     24.000000
  0.190355 -0.063452 -0.063452     24.000000
  0.063452  0.063452  0.099710     24.000000
  0.045323  0.081581  0.117839     48.000000
  0.027194  0.099710  0.135968     48.000000
  0.262872 -0.135968 -0.099710     48.000000
  0.244743 -0.117839 -0.081581     48.000000
  0.226613 -0.099710 -0.063452     48.000000
  0.208484 -0.081581 -0.045323     48.000000
  0.063452  0.063452  0.135968     24.000000
  0.045323  0.081581  0.154097     48.000000
  0.281001 -0.154097 -0.081581     48.000000
  0.262872 -0.135968 -0.063452     48.000000
  0.244743 -0.117839 -0.045323     48.000000
  0.226613 -0.099710 -0.027194     48.000000
  0.063452  0.063452  0.172226     24.000000
  0.299130 -0.172226 -0.063452     48.000000
  0.281001 -0.154097 -0.045323     48.000000
  0.262872 -0.135968 -0.027194     48.000000
  0.244743 -0.117839 -0.009065     48.000000
  0.063452  0.063452 -0.299130     24.000000
  0.045323  0.081581 -0.281001     48.000000
  0.027194  0.099710 -0.262872     48.000000
  0.063452  0.063452 -0.262872     24.000000
  0.045323  0.081581 -0.244743     48.000000
  0.063452  0.063452 -0.226613     24.000000
  0.081581  0.081581  0.081581      8.000000
  0.063452  0.099710  0.099710     24.000000
  0.045323  0.117839  0.117839     24.000000
  0.281001 -0.117839 -0.117839     24.000000
  0.262872 -0.099710 -0.099710     24.000000
  0.244743 -0.081581 -0.081581     24.000000
  0.081581  0.081581  0.117839     24.000000
  0.063452  0.099710  0.135968     48.000000
  0.299130 -0.135968 -0.099710     48.000000
  0.281001 -0.117839 -0.081581     48.000000
  0.262872 -0.099710 -0.063452     48.000000
  0.081581  0.081581  0.154097     24.000000
  0.317259 -0.154097 -0.081581     48.000000
  0.299130 -0.135968 -0.063452     48.000000
  0.281001 -0.117839 -0.045323     48.000000
  0.081581  0.081581 -0.317259     24.000000
  0.063452  0.099710 -0.299130     48.000000
  0.081581  0.081581 -0.281001     24.000000
  0.099710  0.099710  0.099710      8.000000
  0.081581  0.117839  0.117839     24.000000
  0.317259 -0.117839 -0.117839     24.000000
  0.299130 -0.099710 -0.099710     24.000000
  0.099710  0.099710  0.135968     24.000000
  0.335388 -0.135968 -0.099710     48.000000
  0.317259 -0.117839 -0.081581     48.000000
  0.099710  0.099710 -0.335388     24.000000
  0.117839  0.117839  0.117839      8.000000
  0.353517 -0.117839 -0.117839     24.000000
 


--------------------------------------------------------------------------------------------------------




 Dimension of arrays:
   k-points           NKPTS =    280   k-points in BZ     NKDIM =    280   number of bands    NBANDS=     24
   number of dos      NEDOS =    301   number of ions     NIONS =      1
   non local maximal  LDIM  =      6   non local SUM 2l+1 LMDIM =     18
   total plane-waves  NPLWV =   8000
   max r-space proj   IRMAX =      1   max aug-charges    IRDMAX=  18011
   dimension x,y,z NGX =    20 NGY =   20 NGZ =   20
   dimension x,y,z NGXF=    40 NGYF=   40 NGZF=   40
   support grid    NGXF=    40 NGYF=   40 NGZF=   40
   ions per type =               1
   NGX,Y,Z   is equivalent  to a cutoff of  11.93, 11.93, 11.93 a.u.
   NGXF,Y,Z  is equivalent  to a cutoff of  23.87, 23.87, 23.87 a.u.

 SYSTEM =  Pt-fcc                                  
 POSCAR =  Pt                                      

 Startparameter for this run:
   NWRITE =      2    write-flag & timer
   PREC   = accura    normal or accurate (medium, high low for compatibility)
   ISTART =      0    job   : 0-new  1-cont  2-samecut
   ICHARG =      2    charge: 1-file 2-atom 10-const
   ISPIN  =      1    spin polarized calculation?
   LNONCOLLINEAR =      F non collinear calculations
   LSORBIT =      F    spin-orbit coupling
   INIWAV =      1    electr: 0-lowe 1-rand  2-diag
   LASPH  =      F    aspherical Exc in radial PAW
 Electronic Relaxation 1
   ENCUT  =  425.0 eV  31.24 Ry    5.59 a.u.   4.68  4.68  4.68*2*pi/ulx,y,z
   ENINI  =  425.0     initial cutoff
   ENAUG  =  527.0 eV  augmentation charge cutoff
   NELM   =    100;   NELMIN=  2; NELMDL= -5     # of ELM steps 
   EDIFF  = 0.1E-05   stopping-criterion for ELM
   LREAL  =      F    real-space projection
   NLSPLINE    = F    spline interpolate recip. space projectors
   LCOMPAT=      F    compatible to vasp.4.4
   GGA_COMPAT  = T    GGA compatible to vasp.4.4-vasp.4.6
   LMAXPAW     = -100 max onsite density
   LMAXMIX     =    2 max onsite mixed and CHGCAR
   VOSKOWN=      0    Vosko Wilk Nusair interpolation
   ROPT   =    0.00000
 Ionic relaxation
   EDIFFG = -.2E-01   stopping-criterion for IOM
   NSW    =      0    number of steps for IOM
   NBLOCK =      1;   KBLOCK =      1    inner block; outer block 
   IBRION =     -1    ionic relax: 0-MD 1-quasi-New 2-CG
   NFREE  =      0    steps in history (QN), initial steepest desc. (CG)
   ISIF   =      2    stress and relaxation
   IWAVPR =     10    prediction:  0-non 1-charg 2-wave 3-comb
   ISYM   =      1    0-nonsym 1-usesym 2-fastsym
   LCORR  =      T    Harris-Foulkes like correction to forces

   POTIM  = 0.5000    time-step for ionic-motion
   TEIN   =    0.0    initial temperature
   TEBEG  =    0.0;   TEEND  =   0.0 temperature during run
   SMASS  =  -3.00    Nose mass-parameter (am)
   estimated Nose-frequenzy (Omega)   =  0.10E-29 period in steps = 0.13E+47 mass=  -0.177E-27a.u.
   SCALEE = 1.0000    scale energy and forces
   NPACO  =    256;   APACO  = 10.0  distance and # of slots for P.C.
   PSTRESS=    0.0 pullay stress

  Mass of Ions in am
   POMASS = 195.08
  Ionic Valenz
   ZVAL   =  16.00
  Atomic Wigner-Seitz radii
   RWIGS  =  -1.00
  virtual crystal weights 
   VCA    =   1.00
   NELECT =      16.0000    total number of electrons
   NUPDOWN=      -1.0000    fix difference up-down

 DOS related values:
   EMIN   =  10.00;   EMAX   =-10.00  energy-range for DOS
   EFERMI =   0.00
   ISMEAR =     0;   SIGMA  =   0.05  broadening in eV -4-tet -1-fermi 0-gaus

 Electronic relaxation 2 (details)
   IALGO  =     38    algorithm
   LDIAG  =      T    sub-space diagonalisation (order eigenvalues)
   LSUBROT=      F    optimize rotation matrix (better conditioning)
   TURBO    =      0    0=normal 1=particle mesh
   IRESTART =      0    0=no restart 2=restart with 2 vectors
   NREBOOT  =      0    no. of reboots
   NMIN     =      0    reboot dimension
   EREF     =   0.00    reference energy to select bands
   IMIX   =      4    mixing-type and parameters
     AMIX     =   0.40;   BMIX     =  1.00
     AMIX_MAG =   1.60;   BMIX_MAG =  1.00
     AMIN     =   0.10
     WC   =   100.;   INIMIX=   1;  MIXPRE=   1;  MAXMIX= -45

 Intra band minimization:
   WEIMIN = 0.0000     energy-eigenvalue tresh-hold
   EBREAK =  0.10E-07  absolut break condition
   DEPER  =   0.30     relativ break condition  

   TIME   =   0.40     timestep for ELM

  volume/ion in A,a.u.               =      15.29       103.19
  Fermi-wavevector in a.u.,A,eV,Ry     =   1.662029  3.140779 37.583923  2.762340
  Thomas-Fermi vector in A             =   2.748990
 
 Write flags
   LWAVE        =      F    write WAVECAR
   LDOWNSAMPLE  =      F    k-point downsampling of WAVECAR
   LCHARG       =      F    write CHGCAR
   LVTOT        =      F    write LOCPOT, total local potential
   LVHAR        =      F    write LOCPOT, Hartree potential only
   LELF         =      F    write electronic localiz. function (ELF)
   LORBIT       =      0    0 simple, 1 ext, 2 COOP (PROOUT), +10 PAW based schemes


 Dipole corrections
   LMONO  =      F    monopole corrections only (constant potential shift)
   LDIPOL =      F    correct potential (dipole corrections)
   IDIPOL =      0    1-x, 2-y, 3-z, 4-all directions 
   EPSILON=  1.0000000 bulk dielectric constant

 Exchange correlation treatment:
   GGA     =    --    GGA type
   LEXCH   =     8    internal setting for exchange type
   LIBXC   =     F    Libxc                    
   VOSKOWN =     0    Vosko Wilk Nusair interpolation
   LHFCALC =     F    Hartree Fock is set to
   LHFONE  =     F    Hartree Fock one center treatment
   AEXX    =    0.0000 exact exchange contribution

 Linear response parameters
   LEPSILON=     F    determine dielectric tensor
   LRPA    =     F    only Hartree local field effects (RPA)
   LNABLA  =     F    use nabla operator in PAW spheres
   LVEL    =     F    velocity operator in full k-point grid
   CSHIFT  =0.1000    complex shift for real part using Kramers Kronig
   OMEGAMAX=  -1.0    maximum frequency
   DEG_THRESHOLD= 0.2000000E-02 threshold for treating states as degnerate
   RTIME   =   -0.100 relaxation time in fs
  (WPLASMAI=    0.000 imaginary part of plasma frequency in eV, 0.658/RTIME)
   DFIELD  = 0.0000000 0.0000000 0.0000000 field for delta impulse in time
 
  Optional k-point grid parameters
   LKPOINTS_OPT  =     F    use optional k-point grid
   KPOINTS_OPT_MODE=     1    mode for optional k-point grid
 
 Orbital magnetization related:
   ORBITALMAG=     F  switch on orbital magnetization
   LCHIMAG   =     F  perturbation theory with respect to B field
   DQ        =  0.001000  dq finite difference perturbation B field
   LLRAUG    =     F  two centre corrections for induced B field



--------------------------------------------------------------------------------------------------------


 Static calculation
 charge density and potential will be updated during run
 non-spin polarized calculation
 Variant of blocked Davidson
 Davidson routine will perform the subspace rotation
 perform sub-space diagonalisation
    after iterative eigenvector-optimisation
 modified Broyden-mixing scheme, WC =      100.0
 initial mixing is a Kerker type mixing with AMIX =  0.4000 and BMIX =      1.0000
 Hartree-type preconditioning will be used
 using additional bands           16
 reciprocal scheme for non local part
 use partial core corrections
 calculate Harris-corrections to forces 
   (improved forces if not selfconsistent)
 use gradient corrections 
 use of overlap-Matrix (Vanderbilt PP)
 Gauss-broadening in eV      SIGMA  =   0.05


--------------------------------------------------------------------------------------------------------


  energy-cutoff  :      425.00
  volume of cell :       15.29
      direct lattice vectors                 reciprocal lattice vectors
     0.000000000  1.970000000  1.970000000    -0.253807107  0.253807107  0.253807107
     1.970000000  0.000000000  1.970000000     0.253807107 -0.253807107  0.253807107
     1.970000000  1.970000000  0.000000000     0.253807107  0.253807107 -0.253807107

  length of vectors
     2.786000718  2.786000718  2.786000718     0.439606804  0.439606804  0.439606804


 
 k-points in units of 2pi/SCALE and weight: Automatic mesh                          
   0.00906454  0.00906454  0.00906454       0.001
  -0.00906454  0.02719362  0.02719362       0.002
  -0.02719362  0.04532270  0.04532270       0.002
  -0.04532270  0.06345178  0.06345178       0.002
  -0.06345178  0.08158086  0.08158086       0.002
  -0.08158086  0.09970993  0.09970993       0.002
  -0.09970993  0.11783901  0.11783901       0.002
   0.13596809 -0.11783901 -0.11783901       0.002
   0.11783901 -0.09970993 -0.09970993       0.002
   0.09970993 -0.08158086 -0.08158086       0.002
   0.08158086 -0.06345178 -0.06345178       0.002
   0.06345178 -0.04532270 -0.04532270       0.002
   0.04532270 -0.02719362 -0.02719362       0.002
   0.02719362 -0.00906454 -0.00906454       0.002
   0.00906454  0.00906454  0.04532270       0.002
  -0.00906454  0.02719362  0.06345178       0.004
  -0.02719362  0.04532270  0.08158086       0.004
  -0.04532270  0.06345178  0.09970993       0.004
  -0.06345178  0.08158086  0.11783901       0.004
  -0.08158086  0.09970993  0.13596809       0.004
   0.15409717 -0.13596809 -0.09970993       0.004
   0.13596809 -0.11783901 -0.08158086       0.004
   0.11783901 -0.09970993 -0.06345178       0.004
   0.09970993 -0.08158086 -0.04532270       0.004
   0.08158086 -0.06345178 -0.02719362       0.004
   0.06345178 -0.04532270 -0.00906454       0.004
   0.04532270 -0.02719362  0.00906454       0.004
   0.00906454  0.00906454  0.08158086       0.002
  -0.00906454  0.02719362  0.09970993       0.004
  -0.02719362  0.04532270  0.11783901       0.004
  -0.04532270  0.06345178  0.13596809       0.004
  -0.06345178  0.08158086  0.15409717       0.004
   0.17222625 -0.15409717 -0.08158086       0.004
   0.15409717 -0.13596809 -0.06345178       0.004
   0.13596809 -0.11783901 -0.04532270       0.004
   0.11783901 -0.09970993 -0.02719362       0.004
   0.09970993 -0.08158086 -0.00906454       0.004
   0.08158086 -0.06345178  0.00906454       0.004
   0.06345178 -0.04532270  0.02719362       0.004
   0.00906454  0.00906454  0.11783901       0.002
  -0.00906454  0.02719362  0.13596809       0.004
  -0.02719362  0.04532270  0.15409717       0.004
  -0.04532270  0.06345178  0.17222625       0.004
   0.19035533 -0.17222625 -0.06345178       0.004
   0.17222625 -0.15409717 -0.04532270       0.004
   0.15409717 -0.13596809 -0.02719362       0.004
   0.13596809 -0.11783901 -0.00906454       0.004
   0.11783901 -0.09970993  0.00906454       0.004
   0.09970993 -0.08158086  0.02719362       0.004
   0.08158086 -0.06345178  0.04532270       0.004
   0.00906454  0.00906454  0.15409717       0.002
  -0.00906454  0.02719362  0.17222625       0.004
  -0.02719362  0.04532270  0.19035533       0.004
   0.20848441 -0.19035533 -0.04532270       0.004
   0.19035533 -0.17222625 -0.02719362       0.004
   0.17222625 -0.15409717 -0.00906454       0.004
   0.15409717 -0.13596809  0.00906454       0.004
   0.13596809 -0.11783901  0.02719362       0.004
   0.11783901 -0.09970993  0.04532270       0.004
   0.09970993 -0.08158086  0.06345178       0.004
   0.00906454  0.00906454  0.19035533       0.002
  -0.00906454  0.02719362  0.20848441       0.004
   0.22661349 -0.20848441 -0.02719362       0.004
   0.20848441 -0.19035533 -0.00906454       0.004
   0.19035533 -0.17222625  0.00906454       0.004
   0.17222625 -0.15409717  0.02719362       0.004
   0.15409717 -0.13596809  0.04532270       0.004
   0.13596809 -0.11783901  0.06345178       0.004
   0.11783901 -0.09970993  0.08158086       0.004
   0.00906454  0.00906454  0.22661349       0.002
   0.24474257 -0.22661349 -0.00906454       0.004
   0.22661349 -0.20848441  0.00906454       0.004
   0.20848441 -0.19035533  0.02719362       0.004
   0.19035533 -0.17222625  0.04532270       0.004
   0.17222625 -0.15409717  0.06345178       0.004
   0.15409717 -0.13596809  0.08158086       0.004
   0.13596809 -0.11783901  0.09970993       0.004
   0.00906454  0.00906454 -0.24474257       0.002
  -0.00906454  0.02719362 -0.22661349       0.004
  -0.02719362  0.04532270 -0.20848441       0.004
  -0.04532270  0.06345178 -0.19035533       0.004
  -0.06345178  0.08158086 -0.17222625       0.004
  -0.08158086  0.09970993 -0.15409717       0.004
   0.00906454  0.00906454 -0.20848441       0.002
  -0.00906454  0.02719362 -0.19035533       0.004
  -0.02719362  0.04532270 -0.17222625       0.004
  -0.04532270  0.06345178 -0.15409717       0.004
  -0.06345178  0.08158086 -0.13596809       0.004
   0.00906454  0.00906454 -0.17222625       0.002
  -0.00906454  0.02719362 -0.15409717       0.004
  -0.02719362  0.04532270 -0.13596809       0.004
  -0.04532270  0.06345178 -0.11783901       0.004
   0.00906454  0.00906454 -0.13596809       0.002
  -0.00906454  0.02719362 -0.11783901       0.004
  -0.02719362  0.04532270 -0.09970993       0.004
   0.00906454  0.00906454 -0.09970993       0.002
  -0.00906454  0.02719362 -0.08158086       0.004
   0.00906454  0.00906454 -0.06345178       0.002
   0.02719362  0.02719362  0.02719362       0.001
   0.00906454  0.04532270  0.04532270       0.002
  -0.00906454  0.06345178  0.06345178       0.002
  -0.02719362  0.08158086  0.08158086       0.002
  -0.04532270  0.09970993  0.09970993       0.002
  -0.06345178  0.11783901  0.11783901       0.002
   0.17222625 -0.11783901 -0.11783901       0.002
   0.15409717 -0.09970993 -0.09970993       0.002
   0.13596809 -0.08158086 -0.08158086       0.002
   0.11783901 -0.06345178 -0.06345178       0.002
   0.09970993 -0.04532270 -0.04532270       0.002
   0.08158086 -0.02719362 -0.02719362       0.002
   0.02719362  0.02719362  0.06345178       0.002
   0.00906454  0.04532270  0.08158086       0.004
  -0.00906454  0.06345178  0.09970993       0.004
  -0.02719362  0.08158086  0.11783901       0.004
  -0.04532270  0.09970993  0.13596809       0.004
   0.19035533 -0.13596809 -0.09970993       0.004
   0.17222625 -0.11783901 -0.08158086       0.004
   0.15409717 -0.09970993 -0.06345178       0.004
   0.13596809 -0.08158086 -0.04532270       0.004
   0.11783901 -0.06345178 -0.02719362       0.004
   0.09970993 -0.04532270 -0.00906454       0.004
   0.02719362  0.02719362  0.09970993       0.002
   0.00906454  0.04532270  0.11783901       0.004
  -0.00906454  0.06345178  0.13596809       0.004
  -0.02719362  0.08158086  0.15409717       0.004
   0.20848441 -0.15409717 -0.08158086       0.004
   0.19035533 -0.13596809 -0.06345178       0.004
   0.17222625 -0.11783901 -0.04532270       0.004
   0.15409717 -0.09970993 -0.02719362       0.004
   0.13596809 -0.08158086 -0.00906454       0.004
   0.11783901 -0.06345178  0.00906454       0.004
   0.02719362  0.02719362  0.13596809       0.002
   0.00906454  0.04532270  0.15409717       0.004
  -0.00906454  0.06345178  0.17222625       0.004
   0.22661349 -0.17222625 -0.06345178       0.004
   0.20848441 -0.15409717 -0.04532270       0.004
   0.19035533 -0.13596809 -0.02719362       0.004
   0.17222625 -0.11783901 -0.00906454       0.004
   0.15409717 -0.09970993  0.00906454       0.004
   0.13596809 -0.08158086  0.02719362       0.004
   0.02719362  0.02719362  0.17222625       0.002
   0.00906454  0.04532270  0.19035533       0.004
   0.24474257 -0.19035533 -0.04532270       0.004
   0.22661349 -0.17222625 -0.02719362       0.004
   0.20848441 -0.15409717 -0.00906454       0.004
   0.19035533 -0.13596809  0.00906454       0.004
   0.17222625 -0.11783901  0.02719362       0.004
   0.15409717 -0.09970993  0.04532270       0.004
   0.02719362  0.02719362  0.20848441       0.002
   0.26287165 -0.20848441 -0.02719362       0.004
   0.24474257 -0.19035533 -0.00906454       0.004
   0.22661349 -0.17222625  0.00906454       0.004
   0.20848441 -0.15409717  0.02719362       0.004
   0.19035533 -0.13596809  0.04532270       0.004
   0.17222625 -0.11783901  0.06345178       0.004
   0.02719362  0.02719362 -0.26287165       0.002
   0.00906454  0.04532270 -0.24474257       0.004
  -0.00906454  0.06345178 -0.22661349       0.004
  -0.02719362  0.08158086 -0.20848441       0.004
  -0.04532270  0.09970993 -0.19035533       0.004
   0.02719362  0.02719362 -0.22661349       0.002
   0.00906454  0.04532270 -0.20848441       0.004
  -0.00906454  0.06345178 -0.19035533       0.004
  -0.02719362  0.08158086 -0.17222625       0.004
   0.02719362  0.02719362 -0.19035533       0.002
   0.00906454  0.04532270 -0.17222625       0.004
  -0.00906454  0.06345178 -0.15409717       0.004
   0.02719362  0.02719362 -0.15409717       0.002
   0.00906454  0.04532270 -0.13596809       0.004
   0.02719362  0.02719362 -0.11783901       0.002
   0.04532270  0.04532270  0.04532270       0.001
   0.02719362  0.06345178  0.06345178       0.002
   0.00906454  0.08158086  0.08158086       0.002
  -0.00906454  0.09970993  0.09970993       0.002
  -0.02719362  0.11783901  0.11783901       0.002
   0.20848441 -0.11783901 -0.11783901       0.002
   0.19035533 -0.09970993 -0.09970993       0.002
   0.17222625 -0.08158086 -0.08158086       0.002
   0.15409717 -0.06345178 -0.06345178       0.002
   0.13596809 -0.04532270 -0.04532270       0.002
   0.04532270  0.04532270  0.08158086       0.002
   0.02719362  0.06345178  0.09970993       0.004
   0.00906454  0.08158086  0.11783901       0.004
  -0.00906454  0.09970993  0.13596809       0.004
   0.22661349 -0.13596809 -0.09970993       0.004
   0.20848441 -0.11783901 -0.08158086       0.004
   0.19035533 -0.09970993 -0.06345178       0.004
   0.17222625 -0.08158086 -0.04532270       0.004
   0.15409717 -0.06345178 -0.02719362       0.004
   0.04532270  0.04532270  0.11783901       0.002
   0.02719362  0.06345178  0.13596809       0.004
   0.00906454  0.08158086  0.15409717       0.004
   0.24474257 -0.15409717 -0.08158086       0.004
   0.22661349 -0.13596809 -0.06345178       0.004
   0.20848441 -0.11783901 -0.04532270       0.004
   0.19035533 -0.09970993 -0.02719362       0.004
   0.17222625 -0.08158086 -0.00906454       0.004
   0.04532270  0.04532270  0.15409717       0.002
   0.02719362  0.06345178  0.17222625       0.004
   0.26287165 -0.17222625 -0.06345178       0.004
   0.24474257 -0.15409717 -0.04532270       0.004
   0.22661349 -0.13596809 -0.02719362       0.004
   0.20848441 -0.11783901 -0.00906454       0.004
   0.19035533 -0.09970993  0.00906454       0.004
   0.04532270  0.04532270  0.19035533       0.002
   0.28100073 -0.19035533 -0.04532270       0.004
   0.26287165 -0.17222625 -0.02719362       0.004
   0.24474257 -0.15409717 -0.00906454       0.004
   0.22661349 -0.13596809  0.00906454       0.004
   0.20848441 -0.11783901  0.02719362       0.004
   0.04532270  0.04532270 -0.28100073       0.002
   0.02719362  0.06345178 -0.26287165       0.004
   0.00906454  0.08158086 -0.24474257       0.004
  -0.00906454  0.09970993 -0.22661349       0.004
   0.04532270  0.04532270 -0.24474257       0.002
   0.02719362  0.06345178 -0.22661349       0.004
   0.00906454  0.08158086 -0.20848441       0.004
   0.04532270  0.04532270 -0.20848441       0.002
   0.02719362  0.06345178 -0.19035533       0.004
   0.04532270  0.04532270 -0.17222625       0.002
   0.06345178  0.06345178  0.06345178       0.001
   0.04532270  0.08158086  0.08158086       0.002
   0.02719362  0.09970993  0.09970993       0.002
   0.00906454  0.11783901  0.11783901       0.002
   0.24474257 -0.11783901 -0.11783901       0.002
   0.22661349 -0.09970993 -0.09970993       0.002
   0.20848441 -0.08158086 -0.08158086       0.002
   0.19035533 -0.06345178 -0.06345178       0.002
   0.06345178  0.06345178  0.09970993       0.002
   0.04532270  0.08158086  0.11783901       0.004
   0.02719362  0.09970993  0.13596809       0.004
   0.26287165 -0.13596809 -0.09970993       0.004
   0.24474257 -0.11783901 -0.08158086       0.004
   0.22661349 -0.09970993 -0.06345178       0.004
   0.20848441 -0.08158086 -0.04532270       0.004
   0.06345178  0.06345178  0.13596809       0.002
   0.04532270  0.08158086  0.15409717       0.004
   0.28100073 -0.15409717 -0.08158086       0.004
   0.26287165 -0.13596809 -0.06345178       0.004
   0.24474257 -0.11783901 -0.04532270       0.004
   0.22661349 -0.09970993 -0.02719362       0.004
   0.06345178  0.06345178  0.17222625       0.002
   0.29912980 -0.17222625 -0.06345178       0.004
   0.28100073 -0.15409717 -0.04532270       0.004
   0.26287165 -0.13596809 -0.02719362       0.004
   0.24474257 -0.11783901 -0.00906454       0.004
   0.06345178  0.06345178 -0.29912980       0.002
   0.04532270  0.08158086 -0.28100073       0.004
   0.02719362  0.09970993 -0.26287165       0.004
   0.06345178  0.06345178 -0.26287165       0.002
   0.04532270  0.08158086 -0.24474257       0.004
   0.06345178  0.06345178 -0.22661349       0.002
   0.08158086  0.08158086  0.08158086       0.001
   0.06345178  0.09970993  0.09970993       0.002
   0.04532270  0.11783901  0.11783901       0.002
   0.28100073 -0.11783901 -0.11783901       0.002
   0.26287165 -0.09970993 -0.09970993       0.002
   0.24474257 -0.08158086 -0.08158086       0.002
   0.08158086  0.08158086  0.11783901       0.002
   0.06345178  0.09970993  0.13596809       0.004
   0.29912980 -0.13596809 -0.09970993       0.004
   0.28100073 -0.11783901 -0.08158086       0.004
   0.26287165 -0.09970993 -0.06345178       0.004
   0.08158086  0.08158086  0.15409717       0.002
   0.31725888 -0.15409717 -0.08158086       0.004
   0.29912980 -0.13596809 -0.06345178       0.004
   0.28100073 -0.11783901 -0.04532270       0.004
   0.08158086  0.08158086 -0.31725888       0.002
   0.06345178  0.09970993 -0.29912980       0.004
   0.08158086  0.08158086 -0.28100073       0.002
   0.09970993  0.09970993  0.09970993       0.001
   0.08158086  0.11783901  0.11783901       0.002
   0.31725888 -0.11783901 -0.11783901       0.002
   0.29912980 -0.09970993 -0.09970993       0.002
   0.09970993  0.09970993  0.13596809       0.002
   0.33538796 -0.13596809 -0.09970993       0.004
   0.31725888 -0.11783901 -0.08158086       0.004
   0.09970993  0.09970993 -0.33538796       0.002
   0.11783901  0.11783901  0.11783901       0.001
   0.35351704 -0.11783901 -0.11783901       0.002
 
 k-points in reciprocal lattice and weights: Automatic mesh                          
   0.03571429  0.03571429  0.03571429       0.001
   0.10714286  0.03571429  0.03571429       0.002
   0.17857143  0.03571429  0.03571429       0.002
   0.25000000  0.03571429  0.03571429       0.002
   0.32142857  0.03571429  0.03571429       0.002
   0.39285714  0.03571429  0.03571429       0.002
   0.46428571  0.03571429  0.03571429       0.002
  -0.46428571  0.03571429  0.03571429       0.002
  -0.39285714  0.03571429  0.03571429       0.002
  -0.32142857  0.03571429  0.03571429       0.002
  -0.25000000  0.03571429  0.03571429       0.002
  -0.17857143  0.03571429  0.03571429       0.002
  -0.10714286  0.03571429  0.03571429       0.002
  -0.03571429  0.03571429  0.03571429       0.002
   0.10714286  0.10714286  0.03571429       0.002
   0.17857143  0.10714286  0.03571429       0.004
   0.25000000  0.10714286  0.03571429       0.004
   0.32142857  0.10714286  0.03571429       0.004
   0.39285714  0.10714286  0.03571429       0.004
   0.46428571  0.10714286  0.03571429       0.004
  -0.46428571  0.10714286  0.03571429       0.004
  -0.39285714  0.10714286  0.03571429       0.004
  -0.32142857  0.10714286  0.03571429       0.004
  -0.25000000  0.10714286  0.03571429       0.004
  -0.17857143  0.10714286  0.03571429       0.004
  -0.10714286  0.10714286  0.03571429       0.004
  -0.03571429  0.10714286  0.03571429       0.004
   0.17857143  0.17857143  0.03571429       0.002
   0.25000000  0.17857143  0.03571429       0.004
   0.32142857  0.17857143  0.03571429       0.004
   0.39285714  0.17857143  0.03571429       0.004
   0.46428571  0.17857143  0.03571429       0.004
  -0.46428571  0.17857143  0.03571429       0.004
  -0.39285714  0.17857143  0.03571429       0.004
  -0.32142857  0.17857143  0.03571429       0.004
  -0.25000000  0.17857143  0.03571429       0.004
  -0.17857143  0.17857143  0.03571429       0.004
  -0.10714286  0.17857143  0.03571429       0.004
  -0.03571429  0.17857143  0.03571429       0.004
   0.25000000  0.25000000  0.03571429       0.002
   0.32142857  0.25000000  0.03571429       0.004
   0.39285714  0.25000000  0.03571429       0.004
   0.46428571  0.25000000  0.03571429       0.004
  -0.46428571  0.25000000  0.03571429       0.004
  -0.39285714  0.25000000  0.03571429       0.004
  -0.32142857  0.25000000  0.03571429       0.004
  -0.25000000  0.25000000  0.03571429       0.004
  -0.17857143  0.25000000  0.03571429       0.004
  -0.10714286  0.25000000  0.03571429       0.004
  -0.03571429  0.25000000  0.03571429       0.004
   0.32142857  0.32142857  0.03571429       0.002
   0.39285714  0.32142857  0.03571429       0.004
   0.46428571  0.32142857  0.03571429       0.004
  -0.46428571  0.32142857  0.03571429       0.004
  -0.39285714  0.32142857  0.03571429       0.004
  -0.32142857  0.32142857  0.03571429       0.004
  -0.25000000  0.32142857  0.03571429       0.004
  -0.17857143  0.32142857  0.03571429       0.004
  -0.10714286  0.32142857  0.03571429       0.004
  -0.03571429  0.32142857  0.03571429       0.004
   0.39285714  0.39285714  0.03571429       0.002
   0.46428571  0.39285714  0.03571429       0.004
  -0.46428571  0.39285714  0.03571429       0.004
  -0.39285714  0.39285714  0.03571429       0.004
  -0.32142857  0.39285714  0.03571429       0.004
  -0.25000000  0.39285714  0.03571429       0.004
  -0.17857143  0.39285714  0.03571429       0.004
  -0.10714286  0.39285714  0.03571429       0.004
  -0.03571429  0.39285714  0.03571429       0.004
   0.46428571  0.46428571  0.03571429       0.002
  -0.46428571  0.46428571  0.03571429       0.004
  -0.39285714  0.46428571  0.03571429       0.004
  -0.32142857  0.46428571  0.03571429       0.004
  -0.25000000  0.46428571  0.03571429       0.004
  -0.17857143  0.46428571  0.03571429       0.004
  -0.10714286  0.46428571  0.03571429       0.004
  -0.03571429  0.46428571  0.03571429       0.004
  -0.46428571 -0.46428571  0.03571429       0.002
  -0.39285714 -0.46428571  0.03571429       0.004
  -0.32142857 -0.46428571  0.03571429       0.004
  -0.25000000 -0.46428571  0.03571429       0.004
  -0.17857143 -0.46428571  0.03571429       0.004
  -0.10714286 -0.46428571  0.03571429       0.004
  -0.39285714 -0.39285714  0.03571429       0.002
  -0.32142857 -0.39285714  0.03571429       0.004
  -0.25000000 -0.39285714  0.03571429       0.004
  -0.17857143 -0.39285714  0.03571429       0.004
  -0.10714286 -0.39285714  0.03571429       0.004
  -0.32142857 -0.32142857  0.03571429       0.002
  -0.25000000 -0.32142857  0.03571429       0.004
  -0.17857143 -0.32142857  0.03571429       0.004
  -0.10714286 -0.32142857  0.03571429       0.004
  -0.25000000 -0.25000000  0.03571429       0.002
  -0.17857143 -0.25000000  0.03571429       0.004
  -0.10714286 -0.25000000  0.03571429       0.004
  -0.17857143 -0.17857143  0.03571429       0.002
  -0.10714286 -0.17857143  0.03571429       0.004
  -0.10714286 -0.10714286  0.03571429       0.002
   0.10714286  0.10714286  0.10714286       0.001
   0.17857143  0.10714286  0.10714286       0.002
   0.25000000  0.10714286  0.10714286       0.002
   0.32142857  0.10714286  0.10714286       0.002
   0.39285714  0.10714286  0.10714286       0.002
   0.46428571  0.10714286  0.10714286       0.002
  -0.46428571  0.10714286  0.10714286       0.002
  -0.39285714  0.10714286  0.10714286       0.002
  -0.32142857  0.10714286  0.10714286       0.002
  -0.25000000  0.10714286  0.10714286       0.002
  -0.17857143  0.10714286  0.10714286       0.002
  -0.10714286  0.10714286  0.10714286       0.002
   0.17857143  0.17857143  0.10714286       0.002
   0.25000000  0.17857143  0.10714286       0.004
   0.32142857  0.17857143  0.10714286       0.004
   0.39285714  0.17857143  0.10714286       0.004
   0.46428571  0.17857143  0.10714286       0.004
  -0.46428571  0.17857143  0.10714286       0.004
  -0.39285714  0.17857143  0.10714286       0.004
  -0.32142857  0.17857143  0.10714286       0.004
  -0.25000000  0.17857143  0.10714286       0.004
  -0.17857143  0.17857143  0.10714286       0.004
  -0.10714286  0.17857143  0.10714286       0.004
   0.25000000  0.25000000  0.10714286       0.002
   0.32142857  0.25000000  0.10714286       0.004
   0.39285714  0.25000000  0.10714286       0.004
   0.46428571  0.25000000  0.10714286       0.004
  -0.46428571  0.25000000  0.10714286       0.004
  -0.39285714  0.25000000  0.10714286       0.004
  -0.32142857  0.25000000  0.10714286       0.004
  -0.25000000  0.25000000  0.10714286       0.004
  -0.17857143  0.25000000  0.10714286       0.004
  -0.10714286  0.25000000  0.10714286       0.004
   0.32142857  0.32142857  0.10714286       0.002
   0.39285714  0.32142857  0.10714286       0.004
   0.46428571  0.32142857  0.10714286       0.004
  -0.46428571  0.32142857  0.10714286       0.004
  -0.39285714  0.32142857  0.10714286       0.004
  -0.32142857  0.32142857  0.10714286       0.004
  -0.25000000  0.32142857  0.10714286       0.004
  -0.17857143  0.32142857  0.10714286       0.004
  -0.10714286  0.32142857  0.10714286       0.004
   0.39285714  0.39285714  0.10714286       0.002
   0.46428571  0.39285714  0.10714286       0.004
  -0.46428571  0.39285714  0.10714286       0.004
  -0.39285714  0.39285714  0.10714286       0.004
  -0.32142857  0.39285714  0.10714286       0.004
  -0.25000000  0.39285714  0.10714286       0.004
  -0.17857143  0.39285714  0.10714286       0.004
  -0.10714286  0.39285714  0.10714286       0.004
   0.46428571  0.46428571  0.10714286       0.002
  -0.46428571  0.46428571  0.10714286       0.004
  -0.39285714  0.46428571  0.10714286       0.004
  -0.32142857  0.46428571  0.10714286       0.004
  -0.25000000  0.46428571  0.10714286       0.004
  -0.17857143  0.46428571  0.10714286       0.004
  -0.10714286  0.46428571  0.10714286       0.004
  -0.46428571 -0.46428571  0.10714286       0.002
  -0.39285714 -0.46428571  0.10714286       0.004
  -0.32142857 -0.46428571  0.10714286       0.004
  -0.25000000 -0.46428571  0.10714286       0.004
  -0.17857143 -0.46428571  0.10714286       0.004
  -0.39285714 -0.39285714  0.10714286       0.002
  -0.32142857 -0.39285714  0.10714286       0.004
  -0.25000000 -0.39285714  0.10714286       0.004
  -0.17857143 -0.39285714  0.10714286       0.004
  -0.32142857 -0.32142857  0.10714286       0.002
  -0.25000000 -0.32142857  0.10714286       0.004
  -0.17857143 -0.32142857  0.10714286       0.004
  -0.25000000 -0.25000000  0.10714286       0.002
  -0.17857143 -0.25000000  0.10714286       0.004
  -0.17857143 -0.17857143  0.10714286       0.002
   0.17857143  0.17857143  0.17857143       0.001
   0.25000000  0.17857143  0.17857143       0.002
   0.32142857  0.17857143  0.17857143       0.002
   0.39285714  0.17857143  0.17857143       0.002
   0.46428571  0.17857143  0.17857143       0.002
  -0.46428571  0.17857143  0.17857143       0.002
  -0.39285714  0.17857143  0.17857143       0.002
  -0.32142857  0.17857143  0.17857143       0.002
  -0.25000000  0.17857143  0.17857143       0.002
  -0.17857143  0.17857143  0.17857143       0.002
   0.25000000  0.25000000  0.17857143       0.002
   0.32142857  0.25000000  0.17857143       0.004
   0.39285714  0.25000000  0.17857143       0.004
   0.46428571  0.25000000  0.17857143       0.004
  -0.46428571  0.25000000  0.17857143       0.004
  -0.39285714  0.25000000  0.17857143       0.004
  -0.32142857  0.25000000  0.17857143       0.004
  -0.25000000  0.25000000  0.17857143       0.004
  -0.17857143  0.25000000  0.17857143       0.004
   0.32142857  0.32142857  0.17857143       0.002
   0.39285714  0.32142857  0.17857143       0.004
   0.46428571  0.32142857  0.17857143       0.004
  -0.46428571  0.32142857  0.17857143       0.004
  -0.39285714  0.32142857  0.17857143       0.004
  -0.32142857  0.32142857  0.17857143       0.004
  -0.25000000  0.32142857  0.17857143       0.004
  -0.17857143  0.32142857  0.17857143       0.004
   0.39285714  0.39285714  0.17857143       0.002
   0.46428571  0.39285714  0.17857143       0.004
  -0.46428571  0.39285714  0.17857143       0.004
  -0.39285714  0.39285714  0.17857143       0.004
  -0.32142857  0.39285714  0.17857143       0.004
  -0.25000000  0.39285714  0.17857143       0.004
  -0.17857143  0.39285714  0.17857143       0.004
   0.46428571  0.46428571  0.17857143       0.002
  -0.46428571  0.46428571  0.17857143       0.004
  -0.39285714  0.46428571  0.17857143       0.004
  -0.32142857  0.46428571  0.17857143       0.004
  -0.25000000  0.46428571  0.17857143       0.004
  -0.17857143  0.46428571  0.17857143       0.004
  -0.46428571 -0.46428571  0.17857143       0.002
  -0.39285714 -0.46428571  0.17857143       0.004
  -0.32142857 -0.46428571  0.17857143       0.004
  -0.25000000 -0.46428571  0.17857143       0.004
  -0.39285714 -0.39285714  0.17857143       0.002
  -0.32142857 -0.39285714  0.17857143       0.004
  -0.25000000 -0.39285714  0.17857143       0.004
  -0.32142857 -0.32142857  0.17857143       0.002
  -0.25000000 -0.32142857  0.17857143       0.004
  -0.25000000 -0.25000000  0.17857143       0.002
   0.25000000  0.25000000  0.25000000       0.001
   0.32142857  0.25000000  0.25000000       0.002
   0.39285714  0.25000000  0.25000000       0.002
   0.46428571  0.25000000  0.25000000       0.002
  -0.46428571  0.25000000  0.25000000       0.002
  -0.39285714  0.25000000  0.25000000       0.002
  -0.32142857  0.25000000  0.25000000       0.002
  -0.25000000  0.25000000  0.25000000       0.002
   0.32142857  0.32142857  0.25000000       0.002
   0.39285714  0.32142857  0.25000000       0.004
   0.46428571  0.32142857  0.25000000       0.004
  -0.46428571  0.32142857  0.25000000       0.004
  -0.39285714  0.32142857  0.25000000       0.004
  -0.32142857  0.32142857  0.25000000       0.004
  -0.25000000  0.32142857  0.25000000       0.004
   0.39285714  0.39285714  0.25000000       0.002
   0.46428571  0.39285714  0.25000000       0.004
  -0.46428571  0.39285714  0.25000000       0.004
  -0.39285714  0.39285714  0.25000000       0.004
  -0.32142857  0.39285714  0.25000000       0.004
  -0.25000000  0.39285714  0.25000000       0.004
   0.46428571  0.46428571  0.25000000       0.002
  -0.46428571  0.46428571  0.25000000       0.004
  -0.39285714  0.46428571  0.25000000       0.004
  -0.32142857  0.46428571  0.25000000       0.004
  -0.25000000  0.46428571  0.25000000       0.004
  -0.46428571 -0.46428571  0.25000000       0.002
  -0.39285714 -0.46428571  0.25000000       0.004
  -0.32142857 -0.46428571  0.25000000       0.004
  -0.39285714 -0.39285714  0.25000000       0.002
  -0.32142857 -0.39285714  0.25000000       0.004
  -0.32142857 -0.32142857  0.25000000       0.002
   0.32142857  0.32142857  0.32142857       0.001
   0.39285714  0.32142857  0.32142857       0.002
   0.46428571  0.32142857  0.32142857       0.002
  -0.46428571  0.32142857  0.32142857       0.002
  -0.39285714  0.32142857  0.32142857       0.002
  -0.32142857  0.32142857  0.32142857       0.002
   0.39285714  0.39285714  0.32142857       0.002
   0.46428571  0.39285714  0.32142857       0.004
  -0.46428571  0.39285714  0.32142857       0.004
  -0.39285714  0.39285714  0.32142857       0.004
  -0.32142857  0.39285714  0.32142857       0.004
   0.46428571  0.46428571  0.32142857       0.002
  -0.46428571  0.46428571  0.32142857       0.004
  -0.39285714  0.46428571  0.32142857       0.004
  -0.32142857  0.46428571  0.32142857       0.004
  -0.46428571 -0.46428571  0.32142857       0.002
  -0.39285714 -0.46428571  0.32142857       0.004
  -0.39285714 -0.39285714  0.32142857       0.002
   0.39285714  0.39285714  0.39285714       0.001
   0.46428571  0.39285714  0.39285714       0.002
  -0.46428571  0.39285714  0.39285714       0.002
  -0.39285714  0.39285714  0.39285714       0.002
   0.46428571  0.46428571  0.39285714       0.002
  -0.46428571  0.46428571  0.39285714       0.004
  -0.39285714  0.46428571  0.39285714       0.004
  -0.46428571 -0.46428571  0.39285714       0.002
   0.46428571  0.46428571  0.46428571       0.001
  -0.46428571  0.46428571  0.46428571       0.002
 
 position of ions in fractional coordinates (direct lattice) 
   0.00000000  0.00000000  0.00000000
 
 position of ions in cartesian coordinates  (Angst):
   0.00000000  0.00000000  0.00000000
 


--------------------------------------------------------------------------------------------------------


 k-point   1 :   0.0357 0.0357 0.0357  plane waves:     319
 k-point   2 :   0.1071 0.0357 0.0357  plane waves:     313
 k-point   3 :   0.1786 0.0357 0.0357  plane waves:     308
 k-point   4 :   0.2500 0.0357 0.0357  plane waves:     305
 k-point   5 :   0.3214 0.0357 0.0357  plane waves:     304
 k-point   6 :   0.3929 0.0357 0.0357  plane waves:     306
 k-point   7 :   0.4643 0.0357 0.0357  plane waves:     303
 k-point   8 :  -0.4643 0.0357 0.0357  plane waves:     302
 k-point   9 :  -0.3929 0.0357 0.0357  plane waves:     306
 k-point  10 :  -0.3214 0.0357 0.0357  plane waves:     305
 k-point  11 :  -0.2500 0.0357 0.0357  plane waves:     303
 k-point  12 :  -0.1786 0.0357 0.0357  plane waves:     309
 k-point  13 :  -0.1071 0.0357 0.0357  plane waves:     310
 k-point  14 :  -0.0357 0.0357 0.0357  plane waves:     310
 k-point  15 :   0.1071 0.1071 0.0357  plane waves:     307
 k-point  16 :   0.1786 0.1071 0.0357  plane waves:     308
 k-point  17 :   0.2500 0.1071 0.0357  plane waves:     308
 k-point  18 :   0.3214 0.1071 0.0357  plane waves:     301
 k-point  19 :   0.3929 0.1071 0.0357  plane waves:     302
 k-point  20 :   0.4643 0.1071 0.0357  plane waves:     304
 k-point  21 :  -0.4643 0.1071 0.0357  plane waves:     302
 k-point  22 :  -0.3929 0.1071 0.0357  plane waves:     303
 k-point  23 :  -0.3214 0.1071 0.0357  plane waves:     304
 k-point  24 :  -0.2500 0.1071 0.0357  plane waves:     304
 k-point  25 :  -0.1786 0.1071 0.0357  plane waves:     307
 k-point  26 :  -0.1071 0.1071 0.0357  plane waves:     309
 k-point  27 :  -0.0357 0.1071 0.0357  plane waves:     310
 k-point  28 :   0.1786 0.1786 0.0357  plane waves:     305
 k-point  29 :   0.2500 0.1786 0.0357  plane waves:     302
 k-point  30 :   0.3214 0.1786 0.0357  plane waves:     302
 k-point  31 :   0.3929 0.1786 0.0357  plane waves:     307
 k-point  32 :   0.4643 0.1786 0.0357  plane waves:     307
 k-point  33 :  -0.4643 0.1786 0.0357  plane waves:     303
 k-point  34 :  -0.3929 0.1786 0.0357  plane waves:     301
 k-point  35 :  -0.3214 0.1786 0.0357  plane waves:     304
 k-point  36 :  -0.2500 0.1786 0.0357  plane waves:     305
 k-point  37 :  -0.1786 0.1786 0.0357  plane waves:     303
 k-point  38 :  -0.1071 0.1786 0.0357  plane waves:     305
 k-point  39 :  -0.0357 0.1786 0.0357  plane waves:     310
 k-point  40 :   0.2500 0.2500 0.0357  plane waves:     303
 k-point  41 :   0.3214 0.2500 0.0357  plane waves:     307
 k-point  42 :   0.3929 0.2500 0.0357  plane waves:     308
 k-point  43 :   0.4643 0.2500 0.0357  plane waves:     306
 k-point  44 :  -0.4643 0.2500 0.0357  plane waves:     304
 k-point  45 :  -0.3929 0.2500 0.0357  plane waves:     301
 k-point  46 :  -0.3214 0.2500 0.0357  plane waves:     299
 k-point  47 :  -0.2500 0.2500 0.0357  plane waves:     306
 k-point  48 :  -0.1786 0.2500 0.0357  plane waves:     305
 k-point  49 :  -0.1071 0.2500 0.0357  plane waves:     305
 k-point  50 :  -0.0357 0.2500 0.0357  plane waves:     305
 k-point  51 :   0.3214 0.3214 0.0357  plane waves:     310
 k-point  52 :   0.3929 0.3214 0.0357  plane waves:     311
 k-point  53 :   0.4643 0.3214 0.0357  plane waves:     307
 k-point  54 :  -0.4643 0.3214 0.0357  plane waves:     303
 k-point  55 :  -0.3929 0.3214 0.0357  plane waves:     300
 k-point  56 :  -0.3214 0.3214 0.0357  plane waves:     297
 k-point  57 :  -0.2500 0.3214 0.0357  plane waves:     300
 k-point  58 :  -0.1786 0.3214 0.0357  plane waves:     304
 k-point  59 :  -0.1071 0.3214 0.0357  plane waves:     304
 k-point  60 :  -0.0357 0.3214 0.0357  plane waves:     302
 k-point  61 :   0.3929 0.3929 0.0357  plane waves:     316
 k-point  62 :   0.4643 0.3929 0.0357  plane waves:     309
 k-point  63 :  -0.4643 0.3929 0.0357  plane waves:     307
 k-point  64 :  -0.3929 0.3929 0.0357  plane waves:     300
 k-point  65 :  -0.3214 0.3929 0.0357  plane waves:     297
 k-point  66 :  -0.2500 0.3929 0.0357  plane waves:     302
 k-point  67 :  -0.1786 0.3929 0.0357  plane waves:     299
 k-point  68 :  -0.1071 0.3929 0.0357  plane waves:     304
 k-point  69 :  -0.0357 0.3929 0.0357  plane waves:     302
 k-point  70 :   0.4643 0.4643 0.0357  plane waves:     306
 k-point  71 :  -0.4643 0.4643 0.0357  plane waves:     304
 k-point  72 :  -0.3929 0.4643 0.0357  plane waves:     308
 k-point  73 :  -0.3214 0.4643 0.0357  plane waves:     303
 k-point  74 :  -0.2500 0.4643 0.0357  plane waves:     303
 k-point  75 :  -0.1786 0.4643 0.0357  plane waves:     303
 k-point  76 :  -0.1071 0.4643 0.0357  plane waves:     301
 k-point  77 :  -0.0357 0.4643 0.0357  plane waves:     303
 k-point  78 :  -0.4643-0.4643 0.0357  plane waves:     302
 k-point  79 :  -0.3929-0.4643 0.0357  plane waves:     305
 k-point  80 :  -0.3214-0.4643 0.0357  plane waves:     306
 k-point  81 :  -0.2500-0.4643 0.0357  plane waves:     304
 k-point  82 :  -0.1786-0.4643 0.0357  plane waves:     306
 k-point  83 :  -0.1071-0.4643 0.0357  plane waves:     304
 k-point  84 :  -0.3929-0.3929 0.0357  plane waves:     314
 k-point  85 :  -0.3214-0.3929 0.0357  plane waves:     314
 k-point  86 :  -0.2500-0.3929 0.0357  plane waves:     311
 k-point  87 :  -0.1786-0.3929 0.0357  plane waves:     311
 k-point  88 :  -0.1071-0.3929 0.0357  plane waves:     304
 k-point  89 :  -0.3214-0.3214 0.0357  plane waves:     310
 k-point  90 :  -0.2500-0.3214 0.0357  plane waves:     308
 k-point  91 :  -0.1786-0.3214 0.0357  plane waves:     303
 k-point  92 :  -0.1071-0.3214 0.0357  plane waves:     302
 k-point  93 :  -0.2500-0.2500 0.0357  plane waves:     307
 k-point  94 :  -0.1786-0.2500 0.0357  plane waves:     304
 k-point  95 :  -0.1071-0.2500 0.0357  plane waves:     304
 k-point  96 :  -0.1786-0.1786 0.0357  plane waves:     303
 k-point  97 :  -0.1071-0.1786 0.0357  plane waves:     304
 k-point  98 :  -0.1071-0.1071 0.0357  plane waves:     307
 k-point  99 :   0.1071 0.1071 0.1071  plane waves:     310
 k-point 100 :   0.1786 0.1071 0.1071  plane waves:     311
 k-point 101 :   0.2500 0.1071 0.1071  plane waves:     308
 k-point 102 :   0.3214 0.1071 0.1071  plane waves:     306
 k-point 103 :   0.3929 0.1071 0.1071  plane waves:     305
 k-point 104 :   0.4643 0.1071 0.1071  plane waves:     306
[...]

 k-point   269 :      -0.3929   -0.4643    0.3214
  band No.  band energies     occupation 
      1     -41.0710      2.00000
      2     -40.9190      2.00000
      3     -40.8166      2.00000
      4       5.9794      2.00000
      5       6.9522      2.00000
      6       8.1936      2.00000
      7       9.5586      2.00000
      8      11.6313      1.99999
      9      16.9731      0.00000
     10      17.2233      0.00000
     11      24.6614      0.00000
     12      27.1804      0.00000
     13      30.9516      0.00000
     14      37.8948      0.00000
     15      40.3786      0.00000
     16      41.3358      0.00000
     17      45.4274      0.00000
     18      47.0380      0.00000
     19      50.4791      0.00000
     20      51.5691      0.00000
     21      52.5128      0.00000
     22      53.3519      0.00000
     23      56.4677      0.00000
     24      58.6188      0.00000

 k-point   270 :      -0.3929   -0.3929    0.3214
  band No.  band energies     occupation 
      1     -41.0526      2.00000
      2     -40.9526      2.00000
      3     -40.8155      2.00000
      4       5.9421      2.00000
      5       6.9534      2.00000
      6       8.2995      2.00000
      7       9.7751      2.00000
      8      11.4352      2.00000
      9      16.4954      0.00000
     10      18.4568      0.00000
     11      23.2111      0.00000
     12      28.1364      0.00000
     13      30.3883      0.00000
     14      38.7878      0.00000
     15      38.9972      0.00000
     16      40.6424      0.00000
     17      47.7630      0.00000
     18      48.0926      0.00000
     19      49.6552      0.00000
     20      51.4828      0.00000
     21      52.5148      0.00000
     22      53.0125      0.00000
     23      55.3095      0.00000
     24      59.3675      0.00000

 k-point   271 :       0.3929    0.3929    0.3929
  band No.  band energies     occupation 
      1     -41.1012      2.00000
      2     -40.7603      2.00000
      3     -40.7603      2.00000
      4       4.5628      2.00000
      5       8.1335      2.00000
      6       8.1335      2.00000
      7       9.7387      2.00000
      8      11.4347      2.00000
      9      11.4347      2.00000
     10      19.8325      0.00000
     11      26.5072      0.00000
     12      31.6932      0.00000
     13      31.6932      0.00000
     14      38.5623      0.00000
     15      38.5623      0.00000
     16      38.6306      0.00000
     17      46.9461      0.00000
     18      46.9461      0.00000
     19      48.4826      0.00000
     20      52.5147      0.00000
     21      54.6758      0.00000
     22      54.6758      0.00000
     23      54.8089      0.00000
     24      58.7798      0.00000

 k-point   272 :       0.4643    0.3929    0.3929
  band No.  band energies     occupation 
      1     -41.1140      2.00000
      2     -40.7831      2.00000
      3     -40.7627      2.00000
      4       4.7493      2.00000
      5       7.9861      2.00000
      6       8.1998      2.00000
      7       9.6699      2.00000
      8      11.3532      2.00000
      9      12.4361      0.00000
     10      19.0757      0.00000
     11      26.5685      0.00000
     12      30.1232      0.00000
     13      31.6834      0.00000
     14      38.0293      0.00000
     15      39.5163      0.00000
     16      40.4474      0.00000
     17      45.6106      0.00000
     18      47.2416      0.00000
     19      48.9411      0.00000
     20      52.2972      0.00000
     21      52.5111      0.00000
     22      55.7970      0.00000
     23      56.3923      0.00000
     24      57.2260      0.00000

 k-point   273 :      -0.4643    0.3929    0.3929
  band No.  band energies     occupation 
      1     -41.1076      2.00000
      2     -40.8305      2.00000
      3     -40.7743      2.00000
      4       5.2200      2.00000
      5       7.6336      2.00000
      6       8.5281      2.00000
      7       9.0899      2.00000
      8      11.3130      2.00000
      9      13.9232      0.00000
     10      18.4963      0.00000
     11      26.7757      0.00000
     12      28.6057      0.00000
     13      31.0537      0.00000
     14      37.7530      0.00000
     15      39.5767      0.00000
     16      42.3688      0.00000
     17      46.1493      0.00000
     18      47.1411      0.00000
     19      48.1850      0.00000
     20      50.8561      0.00000
     21      52.5122      0.00000
     22      53.7717      0.00000
     23      58.0881      0.00000
     24      58.1456      0.00000

 k-point   274 :      -0.3929    0.3929    0.3929
  band No.  band energies     occupation 
      1     -41.0832      2.00000
      2     -40.8928      2.00000
      3     -40.7930      2.00000
      4       5.7897      2.00000
      5       7.2398      2.00000
      6       8.4700      2.00000
      7       9.0797      2.00000
      8      11.3342      2.00000
      9      15.3608      0.00000
     10      18.2510      0.00000
     11      25.2801      0.00000
     12      29.0876      0.00000
     13      29.8121      0.00000
     14      37.9639      0.00000
     15      39.1477      0.00000
     16      42.5375      0.00000
     17      46.9898      0.00000
     18      47.9354      0.00000
     19      48.0952      0.00000
     20      51.3659      0.00000
     21      51.9748      0.00000
     22      52.5192      0.00000
     23      56.9209      0.00000
     24      58.9378      0.00000

 k-point   275 :       0.4643    0.4643    0.3929
  band No.  band energies     occupation 
      1     -41.1279      2.00000
      2     -40.7769      2.00000
      3     -40.7731      2.00000
      4       4.7492      2.00000
      5       7.9156      2.00000
      6       8.2007      2.00000
      7       9.8963      2.00000
      8      11.8245      0.26385
      9      12.4944      0.00000
     10      18.3452      0.00000
     11      26.4321      0.00000
     12      30.3964      0.00000
     13      30.7644      0.00000
     14      38.9886      0.00000
     15      39.7666      0.00000
     16      40.7327      0.00000
     17      44.9425      0.00000
     18      48.0605      0.00000
     19      48.2683      0.00000
     20      52.5116      0.00000
     21      52.8552      0.00000
     22      55.3518      0.00000
     23      56.6487      0.00000
     24      57.2433      0.00000

 k-point   276 :      -0.4643    0.4643    0.3929
  band No.  band energies     occupation 
      1     -41.1233      2.00000
      2     -40.8110      2.00000
      3     -40.7790      2.00000
      4       5.0587      2.00000
      5       7.6657      2.00000
      6       8.4240      2.00000
      7       9.4178      2.00000
      8      11.6965      1.98769
      9      13.8652      0.00000
     10      17.7681      0.00000
     11      26.7653      0.00000
     12      29.0216      0.00000
     13      30.5197      0.00000
     14      38.7326      0.00000
     15      39.8485      0.00000
     16      42.2161      0.00000
     17      44.8957      0.00000
     18      47.4228      0.00000
     19      48.5220      0.00000
     20      51.7075      0.00000
     21      52.5144      0.00000
     22      53.7906      0.00000
     23      57.1847      0.00000
     24      58.6607      0.00000

 k-point   277 :      -0.3929    0.4643    0.3929
  band No.  band energies     occupation 
      1     -41.1016      2.00000
      2     -40.8634      2.00000
      3     -40.7947      2.00000
      4       5.5898      2.00000
      5       7.2752      2.00000
      6       8.7176      2.00000
      7       8.9013      2.00000
      8      11.5998      2.00000
      9      15.4588      0.00000
     10      17.3796      0.00000
     11      26.5054      0.00000
     12      27.8436      0.00000
     13      30.3471      0.00000
     14      38.1857      0.00000
     15      39.8769      0.00000
     16      42.9826      0.00000
     17      45.4772      0.00000
     18      46.1025      0.00000
     19      49.7991      0.00000
     20      51.4955      0.00000
     21      52.3549      0.00000
     22      52.5127      0.00000
     23      57.3366      0.00000
     24      58.8280      0.00000

 k-point   278 :      -0.4643   -0.4643    0.3929
  band No.  band energies     occupation 
      1     -41.1212      2.00000
      2     -40.8245      2.00000
      3     -40.7844      2.00000
      4       5.1875      2.00000
      5       7.5545      2.00000
      6       8.5372      2.00000
      7       9.2422      2.00000
      8      11.7745      1.23192
      9      14.4841      0.00000
     10      17.3467      0.00000
     11      26.7676      0.00000
     12      29.0851      0.00000
     13      29.8258      0.00000
     14      39.2280      0.00000
     15      39.4813      0.00000
     16      42.7254      0.00000
     17      44.3827      0.00000
     18      47.7725      0.00000
     19      48.6099      0.00000
     20      51.6730      0.00000
     21      52.5157      0.00000
     22      53.1120      0.00000
     23      57.1151      0.00000
     24      58.8008      0.00000

 k-point   279 :       0.4643    0.4643    0.4643
  band No.  band energies     occupation 
      1     -41.1434      2.00000
      2     -40.7665      2.00000
      3     -40.7665      2.00000
      4       4.5899      2.00000
      5       8.0310      2.00000
      6       8.0310      2.00000
      7      11.1138      2.00000
      8      11.7833      1.03814
      9      11.7833      1.03814
     10      17.8415      0.00000
     11      26.0624      0.00000
     12      30.7808      0.00000
     13      30.7808      0.00000
     14      39.6586      0.00000
     15      39.6586      0.00000
     16      40.7869      0.00000
     17      46.8373      0.00000
     18      46.8373      0.00000
     19      47.1865      0.00000
     20      52.5168      0.00000
     21      55.4221      0.00000
     22      55.4221      0.00000
     23      56.7405      0.00000
     24      56.9505      0.00000

 k-point   280 :      -0.4643    0.4643    0.4643
  band No.  band energies     occupation 
      1     -41.1412      2.00000
      2     -40.7837      2.00000
      3     -40.7708      2.00000
      4       4.7523      2.00000
      5       7.8921      2.00000
      6       8.1466      2.00000
      7      10.3206      2.00000
      8      11.7644      1.43880
      9      13.0213      0.00000
     10      17.5009      0.00000
     11      26.2900      0.00000
     12      30.0286      0.00000
     13      30.5941      0.00000
     14      39.5268      0.00000
     15      39.7149      0.00000
     16      41.6395      0.00000
     17      46.5216      0.00000
     18      46.9690      0.00000
     19      47.0727      0.00000
     20      52.5155      0.00000
     21      53.6553      0.00000
     22      54.1470      0.00000
     23      57.2056      0.00000
     24      57.6564      0.00000


--------------------------------------------------------------------------------------------------------


 soft charge-density along one line, spin component           1
         0         1         2         3         4         5         6         7         8         9
 total charge-density along one line
 
 pseudopotential strength for first ion, spin component:           1
-31.477  -0.000  -0.000  10.531   0.000   0.000  -0.000   0.000
 -0.000 -31.477  -0.000   0.000  10.531   0.000   0.000  -0.000
 -0.000  -0.000 -31.477   0.000   0.000  10.531  -0.000   0.000
 10.531   0.000   0.000  16.330  -0.000  -0.000   0.000  -0.000
  0.000  10.531   0.000  -0.000  16.330  -0.000   0.000   0.000
  0.000   0.000  10.531  -0.000  -0.000  16.330   0.000   0.000
 -0.000   0.000  -0.000   0.000   0.000   0.000  -3.582   0.000
  0.000  -0.000   0.000  -0.000   0.000   0.000   0.000  -3.582
  0.000   0.000   0.000  -0.000  -0.000  -0.000   0.000  -0.000
  0.000  -0.000   0.000   0.000   0.000  -0.000   0.000   0.000
  0.000   0.000   0.000  -0.000  -0.000   0.000   0.000   0.000
 -0.000  -0.000  -0.000   0.000  -0.000   0.000  -3.795   0.000
  0.000  -0.000  -0.000  -0.000   0.000   0.000   0.000  -3.795
  0.000   0.000   0.000  -0.000  -0.000  -0.000   0.000  -0.000
 -0.000  -0.000   0.000   0.000   0.000  -0.000   0.000   0.000
  0.000   0.000  -0.000  -0.000  -0.000   0.000   0.000   0.000
  0.000  -0.000   0.000   0.000  -0.000   0.000   0.000   0.000
 -0.000   0.000  -0.000  -0.000   0.000  -0.000  -0.000  -0.000
 total augmentation occupancy for first ion, spin component:           1
  2.002  -0.000   0.000  -0.021  -0.000   0.000   0.000   0.000   0.000   0.000   0.000   0.000   0.000   0.000   0.000   0.000
 -0.000   2.002   0.000   0.000  -0.021  -0.000   0.000   0.000   0.000   0.000   0.000   0.000   0.000   0.000   0.000   0.000
  0.000   0.000   2.002  -0.000   0.000  -0.021   0.000   0.000   0.000   0.000   0.000   0.000   0.000   0.000   0.000   0.000
 -0.021   0.000  -0.000   0.050   0.000  -0.000   0.000   0.000   0.000   0.000   0.000   0.000   0.000   0.000   0.000   0.000
 -0.000  -0.021  -0.000   0.000   0.050   0.000   0.000   0.000   0.000   0.000   0.000   0.000   0.000   0.000   0.000   0.000
  0.000  -0.000  -0.021  -0.000  -0.000   0.050   0.000   0.000   0.000   0.000   0.000   0.000   0.000   0.000   0.000   0.000
  0.000   0.000   0.000   0.000   0.000   0.000   5.396  -0.000  -0.000   0.000  -0.000  -3.065   0.000   0.000   0.000  -0.000
  0.000   0.000   0.000   0.000   0.000   0.000   0.000   5.396  -0.000   0.000  -0.000   0.000  -3.065   0.000   0.000   0.000
  0.000   0.000   0.000   0.000   0.000   0.000  -0.000  -0.000   4.435  -0.000   0.000   0.000   0.000  -2.422   0.000  -0.000
  0.000   0.000   0.000   0.000   0.000   0.000  -0.000  -0.000   0.000   5.396   0.000   0.000   0.000  -0.000  -3.065  -0.000
  0.000   0.000   0.000   0.000   0.000   0.000   0.000   0.000   0.000   0.000   4.435   0.000  -0.000   0.000  -0.000  -2.422
  0.000   0.000   0.000   0.000   0.000   0.000  -3.065   0.000   0.000   0.000  -0.000   2.477  -0.000   0.000  -0.000   0.000
  0.000   0.000   0.000   0.000   0.000   0.000   0.000  -3.065   0.000   0.000   0.000  -0.000   2.477   0.000  -0.000  -0.000
  0.000   0.000   0.000   0.000   0.000   0.000   0.000   0.000  -2.422  -0.000   0.000   0.000  -0.000   2.256   0.000   0.000
  0.000   0.000   0.000   0.000   0.000   0.000   0.000   0.000  -0.000  -3.065  -0.000   0.000  -0.000  -0.000   2.477  -0.000
  0.000   0.000   0.000   0.000   0.000   0.000  -0.000   0.000  -0.000  -0.000  -2.422   0.000   0.000   0.000  -0.000   2.256
  0.000   0.000   0.000   0.000   0.000   0.000   0.000   0.000  -0.000   0.000   0.000  -0.000   0.000   0.000   0.000   0.000
  0.000   0.000   0.000   0.000   0.000   0.000  -0.000  -0.000  -0.000  -0.000   0.000  -0.000   0.000  -0.000  -0.000   0.000


------------------------ aborting loop because EDIFF is reached ----------------------------------------


    CHARGE:  cpu time      0.0356: real time      0.0358
    FORLOC:  cpu time      0.0002: real time      0.0002
    FORNL :  cpu time      0.0138: real time      0.0138
    STRESS:  cpu time      0.2863: real time      0.2875
    FORCOR:  cpu time      0.0019: real time      0.0019
    FORHAR:  cpu time      0.0004: real time      0.0004
    MIXING:  cpu time      0.0002: real time      0.0002
    OFIELD:  cpu time      0.0000: real time      0.0000

  FORCE on cell =-STRESS in cart. coord.  units (eV):
  Direction    XX          YY          ZZ          XY          YZ          ZX
  --------------------------------------------------------------------------------------
  Alpha Z   156.91311   156.91311   156.91311
  Ewald    -714.94866  -714.94866  -714.94866    -0.00000     0.00000     0.00000
  Hartree   126.15948   126.15948   126.15948     0.00000     0.00000     0.00000
  E(xc)     -85.52915   -85.52915   -85.52915     0.00000     0.00000     0.00000
  Local     125.02097   125.02097   125.02097     0.00000     0.00000     0.00000
  n-local   -29.64114   -27.20838   -32.91453     3.09190    -3.19948    -0.01339
  augment    73.32920    73.32920    73.32920     0.00000     0.00000     0.00000
  Kinetic   348.70102   353.26494   345.99065     3.96772    -4.50446     0.25675
  Fock        0.00000     0.00000     0.00000     0.00000     0.00000     0.00000
  -------------------------------------------------------------------------------------
  Total       0.34247     0.34247     0.34247    -0.00000    -0.00000     0.00000
  in kB      35.88416    35.88416    35.88416    -0.00000    -0.00000     0.00000
  external pressure =       35.88 kB  Pullay stress =        0.00 kB


 VOLUME and BASIS-vectors are now :
 -----------------------------------------------------------------------------
  energy-cutoff  :      425.00
  volume of cell :       15.29
      direct lattice vectors                 reciprocal lattice vectors
     0.000000000  1.970000000  1.970000000    -0.253807107  0.253807107  0.253807107
     1.970000000  0.000000000  1.970000000     0.253807107 -0.253807107  0.253807107
     1.970000000  1.970000000  0.000000000     0.253807107  0.253807107 -0.253807107

  length of vectors
     2.786000718  2.786000718  2.786000718     0.439606804  0.439606804  0.439606804


 FORCES acting on ions
    electron-ion (+dipol)            ewald-force                    non-local-force                 convergence-correction
 -----------------------------------------------------------------------------------------------
   -.811E-14 -.673E-14 0.570E-15   -.456E-14 -.897E-14 -.116E-13   0.258E-25 0.258E-25 -.258E-25   -.453E-13 -.714E-13 -.106E-13
 -----------------------------------------------------------------------------------------------
   -.811E-14 -.673E-14 0.570E-15   -.456E-14 -.897E-14 -.116E-13   0.258E-25 0.258E-25 -.258E-25   -.453E-13 -.714E-13 -.106E-13
 
 
 POSITION                                       TOTAL-FORCE (eV/Angst)
 -----------------------------------------------------------------------------------
      0.00000      0.00000      0.00000         0.000000      0.000000      0.000000
 -----------------------------------------------------------------------------------
    total drift:                               -0.000000     -0.000000     -0.000000


--------------------------------------------------------------------------------------------------------



  FREE ENERGIE OF THE ION-ELECTRON SYSTEM (eV)
  ---------------------------------------------------
  free  energy   TOTEN  =        -6.07457886 eV

  energy  without entropy=       -6.07189467  energy(sigma->0) =       -6.07323677
 


--------------------------------------------------------------------------------------------------------


    POTLOK:  cpu time      0.0045: real time      0.0045


--------------------------------------------------------------------------------------------------------


     LOOP+:  cpu time     18.8417: real time     18.9364
    4ORBIT:  cpu time      0.0000: real time      0.0000

 total amount of memory used by VASP MPI-rank0    45811. kBytes
=======================================================================

   base      :      30000. kBytes
   nonl-proj :      13552. kBytes
   fftplans  :        147. kBytes
   grid      :        485. kBytes
   one-center:         15. kBytes
   wavefun   :       1612. kBytes
 
  
  
 General timing and accounting informations for this job:
 ========================================================
  
                  Total CPU time used (sec):       21.740
                            User time (sec):       21.269
                          System time (sec):        0.471
                         Elapsed time (sec):       22.994
  
                   Maximum memory used (kb):      234072.
                   Average memory used (kb):          N/A
  
                          Minor page faults:        24918
                          Major page faults:           76
                 Voluntary context switches:         2090
