<?xml version="1.0" encoding="ISO-8859-1"?>
<modeling>
 <generator>
  <i name="program" type="string">vasp </i>
  <i name="version" type="string">6.3.2  </i>
  <i name="subversion" type="string">27Jun22 (build Aug 12 2022 00:53:59) complex                          parallel </i>
  <i name="platform" type="string">tv2STD </i>
  <i name="date" type="string">2024 11 30 </i>
  <i name="time" type="string">15:56:32 </i>
 </generator>
 <incar>
  <i type="string" name="SYSTEM">Pt-fcc</i>
  <i type="int" name="ISTART">     0</i>
  <i type="string" name="PREC">accurate      normal | accurate</i>
  <i type="string" name="ALGO">Normal     Normal, Fast, Very_Fast</i>
  <i type="logical" name="ADDGRID"> F  </i>
  <i type="int" name="ICHARG">     2</i>
  <i type="int" name="INIWAV">     1</i>
  <i type="int" name="NELM">   100</i>
  <i type="int" name="IBRION">    -1</i>
  <i name="EDIFF">      0.00000100</i>
  <i name="EDIFFG">     -0.02000000</i>
  <i type="int" name="NSW">     0</i>
  <i type="int" name="ISIF">     2</i>
  <i type="int" name="ISYM">     1</i>
  <i name="ENCUT">    425.00000000</i>
  <i type="logical" name="LREAL"> F  </i>
  <i type="int" name="ISMEAR">     0</i>
  <i name="SIGMA">      0.05000000</i>
  <i type="int" name="NWRITE">     2</i>
  <i type="logical" name="LWAVE"> F  </i>
  <i type="logical" name="LCHARG"> F  </i>
 </incar>
 <primitive_cell>
  <structure name="primitive_cell" >
   <crystal>
    <varray name="basis" >
     <v>       0.00000000       1.97000000       1.97000000 </v>
     <v>       1.97000000       0.00000000       1.97000000 </v>
     <v>       1.97000000       1.97000000       0.00000000 </v>
    </varray>
    <i name="volume">     15.29074600 </i>
    <varray name="rec_basis" >
     <v>      -0.25380711       0.25380711       0.25380711 </v>
     <v>       0.25380711      -0.25380711       0.25380711 </v>
     <v>       0.25380711       0.25380711      -0.25380711 </v>
    </varray>
   </crystal>
   <varray name="positions" >
    <v>       0.00000000       0.00000000       0.00000000 </v>
   </varray>
  </structure>
  <varray name="primitive_index" >
   <v type="int" >        1 </v>
  </varray>
 </primitive_cell>
 <kpoints>
  <generation param="Monkhorst-Pack">
   <v type="int" name="divisions">      14       14       14 </v>
   <v name="usershift">      0.00000000       0.00000000       0.00000000 </v>
   <v name="genvec1">      0.07142857       0.00000000       0.00000000 </v>
   <v name="genvec2">      0.00000000       0.07142857       0.00000000 </v>
   <v name="genvec3">      0.00000000       0.00000000       0.07142857 </v>
   <v name="shift">      0.50000000       0.50000000       0.50000000 </v>
  </generation>
  <varray name="kpointlist" >
   <v>       0.03571429       0.03571429       0.03571429 </v>
   <v>       0.10714286       0.03571429       0.03571429 </v>
   <v>       0.17857143       0.03571429       0.03571429 </v>
   <v>       0.25000000       0.03571429       0.03571429 </v>
   <v>       0.32142857       0.03571429       0.03571429 </v>
   <v>       0.39285714       0.03571429       0.03571429 </v>
   <v>       0.46428571       0.03571429       0.03571429 </v>
   <v>      -0.46428571       0.03571429       0.03571429 </v>
   <v>      -0.39285714       0.03571429       0.03571429 </v>
   <v>      -0.32142857       0.03571429       0.03571429 </v>
   <v>      -0.25000000       0.03571429       0.03571429 </v>
   <v>      -0.17857143       0.03571429       0.03571429 </v>
   <v>      -0.10714286       0.03571429       0.03571429 </v>
   <v>      -0.03571429       0.03571429       0.03571429 </v>
   <v>       0.10714286       0.10714286       0.03571429 </v>
   <v>       0.17857143       0.10714286       0.03571429 </v>
   <v>       0.25000000       0.10714286       0.03571429 </v>
   <v>       0.32142857       0.10714286       0.03571429 </v>
   <v>       0.39285714       0.10714286       0.03571429 </v>
   <v>       0.46428571       0.10714286       0.03571429 </v>
   <v>      -0.46428571       0.10714286       0.03571429 </v>
   <v>      -0.39285714       0.10714286       0.03571429 </v>
   <v>      -0.32142857       0.10714286       0.03571429 </v>
   <v>      -0.25000000       0.10714286       0.03571429 </v>
   <v>      -0.17857143       0.10714286       0.03571429 </v>
   <v>      -0.10714286       0.10714286       0.03571429 </v>
   <v>      -0.03571429       0.10714286       0.03571429 </v>
   <v>       0.17857143       0.17857143       0.03571429 </v>
   <v>       0.25000000       0.17857143       0.03571429 </v>
   <v>       0.32142857       0.17857143       0.03571429 </v>
   <v>       0.39285714       0.17857143       0.03571429 </v>
   <v>       0.46428571       0.17857143       0.03571429 </v>
   <v>      -0.46428571       0.17857143       0.03571429 </v>
   <v>      -0.39285714       0.17857143       0.03571429 </v>
   <v>      -0.32142857       0.17857143       0.03571429 </v>
   <v>      -0.25000000       0.17857143       0.03571429 </v>
   <v>      -0.17857143       0.17857143       0.03571429 </v>
   <v>      -0.10714286       0.17857143       0.03571429 </v>
   <v>      -0.03571429       0.17857143       0.03571429 </v>
   <v>       0.25000000       0.25000000       0.03571429 </v>
   <v>       0.32142857       0.25000000       0.03571429 </v>
   <v>       0.39285714       0.25000000       0.03571429 </v>
   <v>       0.46428571       0.25000000       0.03571429 </v>
   <v>      -0.46428571       0.25000000       0.03571429 </v>
   <v>      -0.39285714       0.25000000       0.03571429 </v>
   <v>      -0.32142857       0.25000000       0.03571429 </v>
   <v>      -0.25000000       0.25000000       0.03571429 </v>
   <v>      -0.17857143       0.25000000       0.03571429 </v>
   <v>      -0.10714286       0.25000000       0.03571429 </v>
   <v>      -0.03571429       0.25000000       0.03571429 </v>
   <v>       0.32142857       0.32142857       0.03571429 </v>
   <v>       0.39285714       0.32142857       0.03571429 </v>
   <v>       0.46428571       0.32142857       0.03571429 </v>
   <v>      -0.46428571       0.32142857       0.03571429 </v>
   <v>      -0.39285714       0.32142857       0.03571429 </v>
   <v>      -0.32142857       0.32142857       0.03571429 </v>
   <v>      -0.25000000       0.32142857       0.03571429 </v>
   <v>      -0.17857143       0.32142857       0.03571429 </v>
   <v>      -0.10714286       0.32142857       0.03571429 </v>
   <v>      -0.03571429       0.32142857       0.03571429 </v>
   <v>       0.39285714       0.39285714       0.03571429 </v>
   <v>       0.46428571       0.39285714       0.03571429 </v>
   <v>      -0.46428571       0.39285714       0.03571429 </v>
   <v>      -0.39285714       0.39285714       0.03571429 </v>
   <v>      -0.32142857       0.39285714       0.03571429 </v>
   <v>      -0.25000000       0.39285714       0.03571429 </v>
   <v>      -0.17857143       0.39285714       0.03571429 </v>
   <v>      -0.10714286       0.39285714       0.03571429 </v>
   <v>      -0.03571429       0.39285714       0.03571429 </v>
   <v>       0.46428571       0.46428571       0.03571429 </v>
   <v>      -0.46428571       0.46428571       0.03571429 </v>
   <v>      -0.39285714       0.46428571       0.03571429 </v>
   <v>      -0.32142857       0.46428571       0.03571429 </v>
   <v>      -0.25000000       0.46428571       0.03571429 </v>
   <v>      -0.17857143       0.46428571       0.03571429 </v>
   <v>      -0.10714286       0.46428571       0.03571429 </v>
   <v>      -0.03571429       0.46428571       0.03571429 </v>
   <v>      -0.46428571      -0.46428571       0.03571429 </v>
   <v>      -0.39285714      -0.46428571       0.03571429 </v>
   <v>      -0.32142857      -0.46428571       0.03571429 </v>
   <v>      -0.25000000      -0.46428571       0.03571429 </v>
   <v>      -0.17857143      -0.46428571       0.03571429 </v>
   <v>      -0.10714286      -0.46428571       0.03571429 </v>
   <v>      -0.39285714      -0.39285714       0.03571429 </v>
   <v>      -0.32142857      -0.39285714       0.03571429 </v>
   <v>      -0.25000000      -0.39285714       0.03571429 </v>
   <v>      -0.17857143      -0.39285714       0.03571429 </v>
   <v>      -0.10714286      -0.39285714       0.03571429 </v>
   <v>      -0.32142857      -0.32142857       0.03571429 </v>
   <v>      -0.25000000      -0.32142857       0.03571429 </v>
   <v>      -0.17857143      -0.32142857       0.03571429 </v>
   <v>      -0.10714286      -0.32142857       0.03571429 </v>
   <v>      -0.25000000      -0.25000000       0.03571429 </v>
   <v>      -0.17857143      -0.25000000       0.03571429 </v>
   <v>      -0.10714286      -0.25000000       0.03571429 </v>
   <v>      -0.17857143      -0.17857143       0.03571429 </v>
   <v>      -0.10714286      -0.17857143       0.03571429 </v>
   <v>      -0.10714286      -0.10714286       0.03571429 </v>
   <v>       0.10714286       0.10714286       0.10714286 </v>
   <v>       0.17857143       0.10714286       0.10714286 </v>
   <v>       0.25000000       0.10714286       0.10714286 </v>
   <v>       0.32142857       0.10714286       0.10714286 </v>
   <v>       0.39285714       0.10714286       0.10714286 </v>
   <v>       0.46428571       0.10714286       0.10714286 </v>
   <v>      -0.46428571       0.10714286       0.10714286 </v>
   <v>      -0.39285714       0.10714286       0.10714286 </v>
   <v>      -0.32142857       0.10714286       0.10714286 </v>
   <v>      -0.25000000       0.10714286       0.10714286 </v>
   <v>      -0.17857143       0.10714286       0.10714286 </v>
   <v>      -0.10714286       0.10714286       0.10714286 </v>
   <v>       0.17857143       0.17857143       0.10714286 </v>
   <v>       0.25000000       0.17857143       0.10714286 </v>
   <v>       0.32142857       0.17857143       0.10714286 </v>
   <v>       0.39285714       0.17857143       0.10714286 </v>
   <v>       0.46428571       0.17857143       0.10714286 </v>
   <v>      -0.46428571       0.17857143       0.10714286 </v>
   <v>      -0.39285714       0.17857143       0.10714286 </v>
   <v>      -0.32142857       0.17857143       0.10714286 </v>
   <v>      -0.25000000       0.17857143       0.10714286 </v>
   <v>      -0.17857143       0.17857143       0.10714286 </v>
   <v>      -0.10714286       0.17857143       0.10714286 </v>
   <v>       0.25000000       0.25000000       0.10714286 </v>
   <v>       0.32142857       0.25000000       0.10714286 </v>
   <v>       0.39285714       0.25000000       0.10714286 </v>
   <v>       0.46428571       0.25000000       0.10714286 </v>
   <v>      -0.46428571       0.25000000       0.10714286 </v>
   <v>      -0.39285714       0.25000000       0.10714286 </v>
   <v>      -0.32142857       0.25000000       0.10714286 </v>
   <v>      -0.25000000       0.25000000       0.10714286 </v>
   <v>      -0.17857143       0.25000000       0.10714286 </v>
   <v>      -0.10714286       0.25000000       0.10714286 </v>
   <v>       0.32142857       0.32142857       0.10714286 </v>
   <v>       0.39285714       0.32142857       0.10714286 </v>
   <v>       0.46428571       0.32142857       0.10714286 </v>
   <v>      -0.46428571       0.32142857       0.10714286 </v>
   <v>      -0.39285714       0.32142857       0.10714286 </v>
   <v>      -0.32142857       0.32142857       0.10714286 </v>
   <v>      -0.25000000       0.32142857       0.10714286 </v>
   <v>      -0.17857143       0.32142857       0.10714286 </v>
   <v>      -0.10714286       0.32142857       0.10714286 </v>
   <v>       0.39285714       0.39285714       0.10714286 </v>
   <v>       0.46428571       0.39285714       0.10714286 </v>
   <v>      -0.46428571       0.39285714       0.10714286 </v>
   <v>      -0.39285714       0.39285714       0.10714286 </v>
   <v>      -0.32142857       0.39285714       0.10714286 </v>
   <v>      -0.25000000       0.39285714       0.10714286 </v>
   <v>      -0.17857143       0.39285714       0.10714286 </v>
   <v>      -0.10714286       0.39285714       0.10714286 </v>
   <v>       0.46428571       0.46428571       0.10714286 </v>
   <v>      -0.46428571       0.46428571       0.10714286 </v>
   <v>      -0.39285714       0.46428571       0.10714286 </v>
   <v>      -0.32142857       0.46428571       0.10714286 </v>
   <v>      -0.25000000       0.46428571       0.10714286 </v>
   <v>      -0.17857143       0.46428571       0.10714286 </v>
   <v>      -0.10714286       0.46428571       0.10714286 </v>
   <v>      -0.46428571      -0.46428571       0.10714286 </v>
   <v>      -0.39285714      -0.46428571       0.10714286 </v>
   <v>      -0.32142857      -0.46428571       0.10714286 </v>
   <v>      -0.25000000      -0.46428571       0.10714286 </v>
   <v>      -0.17857143      -0.46428571       0.10714286 </v>
   <v>      -0.39285714      -0.39285714       0.10714286 </v>
   <v>      -0.32142857      -0.39285714       0.10714286 </v>
   <v>      -0.25000000      -0.39285714       0.10714286 </v>
   <v>      -0.17857143      -0.39285714       0.10714286 </v>
   <v>      -0.32142857      -0.32142857       0.10714286 </v>
   <v>      -0.25000000      -0.32142857       0.10714286 </v>
   <v>      -0.17857143      -0.32142857       0.10714286 </v>
   <v>      -0.25000000      -0.25000000       0.10714286 </v>
   <v>      -0.17857143      -0.25000000       0.10714286 </v>
   <v>      -0.17857143      -0.17857143       0.10714286 </v>
   <v>       0.17857143       0.17857143       0.17857143 </v>
   <v>       0.25000000       0.17857143       0.17857143 </v>
   <v>       0.32142857       0.17857143       0.17857143 </v>
   <v>       0.39285714       0.17857143       0.17857143 </v>
   <v>       0.46428571       0.17857143       0.17857143 </v>
   <v>      -0.46428571       0.17857143       0.17857143 </v>
   <v>      -0.39285714       0.17857143       0.17857143 </v>
   <v>      -0.32142857       0.17857143       0.17857143 </v>
   <v>      -0.25000000       0.17857143       0.17857143 </v>
   <v>      -0.17857143       0.17857143       0.17857143 </v>
   <v>       0.25000000       0.25000000       0.17857143 </v>
   <v>       0.32142857       0.25000000       0.17857143 </v>
   <v>       0.39285714       0.25000000       0.17857143 </v>
   <v>       0.46428571       0.25000000       0.17857143 </v>
   <v>      -0.46428571       0.25000000       0.17857143 </v>
   <v>      -0.39285714       0.25000000       0.17857143 </v>
   <v>      -0.32142857       0.25000000       0.17857143 </v>
   <v>      -0.25000000       0.25000000       0.17857143 </v>
   <v>      -0.17857143       0.25000000       0.17857143 </v>
   <v>       0.32142857       0.32142857       0.17857143 </v>
   <v>       0.39285714       0.32142857       0.17857143 </v>
   <v>       0.46428571       0.32142857       0.17857143 </v>
   <v>      -0.46428571       0.32142857       0.17857143 </v>
   <v>      -0.39285714       0.32142857       0.17857143 </v>
   <v>      -0.32142857       0.32142857       0.17857143 </v>
   <v>      -0.25000000       0.32142857       0.17857143 </v>
   <v>      -0.17857143       0.32142857       0.17857143 </v>
   <v>       0.39285714       0.39285714       0.17857143 </v>
   <v>       0.46428571       0.39285714       0.17857143 </v>
   <v>      -0.46428571       0.39285714       0.17857143 </v>
   <v>      -0.39285714       0.39285714       0.17857143 </v>
   <v>      -0.32142857       0.39285714       0.17857143 </v>
   <v>      -0.25000000       0.39285714       0.17857143 </v>
   <v>      -0.17857143       0.39285714       0.17857143 </v>
   <v>       0.46428571       0.46428571       0.17857143 </v>
   <v>      -0.46428571       0.46428571       0.17857143 </v>
   <v>      -0.39285714       0.46428571       0.17857143 </v>
   <v>      -0.32142857       0.46428571       0.17857143 </v>
   <v>      -0.25000000       0.46428571       0.17857143 </v>
   <v>      -0.17857143       0.46428571       0.17857143 </v>
   <v>      -0.46428571      -0.46428571       0.17857143 </v>
   <v>      -0.39285714      -0.46428571       0.17857143 </v>
   <v>      -0.32142857      -0.46428571       0.17857143 </v>
   <v>      -0.25000000      -0.46428571       0.17857143 </v>
   <v>      -0.39285714      -0.39285714       0.17857143 </v>
   <v>      -0.32142857      -0.39285714       0.17857143 </v>
   <v>      -0.25000000      -0.39285714       0.17857143 </v>
   <v>      -0.32142857      -0.32142857       0.17857143 </v>
   <v>      -0.25000000      -0.32142857       0.17857143 </v>
   <v>      -0.25000000      -0.25000000       0.17857143 </v>
   <v>       0.25000000       0.25000000       0.25000000 </v>
   <v>       0.32142857       0.25000000       0.25000000 </v>
   <v>       0.39285714       0.25000000       0.25000000 </v>
   <v>       0.46428571       0.25000000       0.25000000 </v>
   <v>      -0.46428571       0.25000000       0.25000000 </v>
   <v>      -0.39285714       0.25000000       0.25000000 </v>
   <v>      -0.32142857       0.25000000       0.25000000 </v>
   <v>      -0.25000000       0.25000000       0.25000000 </v>
   <v>       0.32142857       0.32142857       0.25000000 </v>
   <v>       0.39285714       0.32142857       0.25000000 </v>
   <v>       0.46428571       0.32142857       0.25000000 </v>
   <v>      -0.46428571       0.32142857       0.25000000 </v>
   <v>      -0.39285714       0.32142857       0.25000000 </v>
   <v>      -0.32142857       0.32142857       0.25000000 </v>
   <v>      -0.25000000       0.32142857       0.25000000 </v>
   <v>       0.39285714       0.39285714       0.25000000 </v>
   <v>       0.46428571       0.39285714       0.25000000 </v>
   <v>      -0.46428571       0.39285714       0.25000000 </v>
   <v>      -0.39285714       0.39285714       0.25000000 </v>
   <v>      -0.32142857       0.39285714       0.25000000 </v>
   <v>      -0.25000000       0.39285714       0.25000000 </v>
   <v>       0.46428571       0.46428571       0.25000000 </v>
   <v>      -0.46428571       0.46428571       0.25000000 </v>
   <v>      -0.39285714       0.46428571       0.25000000 </v>
   <v>      -0.32142857       0.46428571       0.25000000 </v>
   <v>      -0.25000000       0.46428571       0.25000000 </v>
   <v>      -0.46428571      -0.46428571       0.25000000 </v>
   <v>      -0.39285714      -0.46428571       0.25000000 </v>
   <v>      -0.32142857      -0.46428571       0.25000000 </v>
   <v>      -0.39285714      -0.39285714       0.25000000 </v>
   <v>      -0.32142857      -0.39285714       0.25000000 </v>
   <v>      -0.32142857      -0.32142857       0.25000000 </v>
   <v>       0.32142857       0.32142857       0.32142857 </v>
   <v>       0.39285714       0.32142857       0.32142857 </v>
   <v>       0.46428571       0.32142857       0.32142857 </v>
   <v>      -0.46428571       0.32142857       0.32142857 </v>
   <v>      -0.39285714       0.32142857       0.32142857 </v>
   <v>      -0.32142857       0.32142857       0.32142857 </v>
   <v>       0.39285714       0.39285714       0.32142857 </v>
   <v>       0.46428571       0.39285714       0.32142857 </v>
   <v>      -0.46428571       0.39285714       0.32142857 </v>
   <v>      -0.39285714       0.39285714       0.32142857 </v>
   <v>      -0.32142857       0.39285714       0.32142857 </v>
   <v>       0.46428571       0.46428571       0.32142857 </v>
   <v>      -0.46428571       0.46428571       0.32142857 </v>
   <v>      -0.39285714       0.46428571       0.32142857 </v>
   <v>      -0.32142857       0.46428571       0.32142857 </v>
   <v>      -0.46428571      -0.46428571       0.32142857 </v>
   <v>      -0.39285714      -0.46428571       0.32142857 </v>
   <v>      -0.39285714      -0.39285714       0.32142857 </v>
   <v>       0.39285714       0.39285714       0.39285714 </v>
   <v>       0.46428571       0.39285714       0.39285714 </v>
   <v>      -0.46428571       0.39285714       0.39285714 </v>
   <v>      -0.39285714       0.39285714       0.39285714 </v>
   <v>       0.46428571       0.46428571       0.39285714 </v>
   <v>      -0.46428571       0.46428571       0.39285714 </v>
   <v>      -0.39285714       0.46428571       0.39285714 </v>
   <v>      -0.46428571      -0.46428571       0.39285714 </v>
   <v>       0.46428571       0.46428571       0.46428571 </v>
   <v>      -0.46428571       0.46428571       0.46428571 </v>
  </varray>
  <varray name="weights" >
   <v>       0.00072886 </v>
   <v>       0.00218659 </v>
   <v>       0.00218659 </v>
   <v>       0.00218659 </v>
   <v>       0.00218659 </v>
   <v>       0.00218659 </v>
   <v>       0.00218659 </v>
   <v>       0.00218659 </v>
   <v>       0.00218659 </v>
   <v>       0.00218659 </v>
   <v>       0.00218659 </v>
   <v>       0.00218659 </v>
   <v>       0.00218659 </v>
   <v>       0.00218659 </v>
   <v>       0.00218659 </v>
   <v>       0.00437318 </v>
   <v>       0.00437318 </v>
   <v>       0.00437318 </v>
   <v>       0.00437318 </v>
   <v>       0.00437318 </v>
   <v>       0.00437318 </v>
   <v>       0.00437318 </v>
   <v>       0.00437318 </v>
   <v>       0.00437318 </v>
   <v>       0.00437318 </v>
   <v>       0.00437318 </v>
   <v>       0.00437318 </v>
   <v>       0.00218659 </v>
   <v>       0.00437318 </v>
   <v>       0.00437318 </v>
   <v>       0.00437318 </v>
   <v>       0.00437318 </v>
   <v>       0.00437318 </v>
   <v>       0.00437318 </v>
   <v>       0.00437318 </v>
   <v>       0.00437318 </v>
   <v>       0.00437318 </v>
   <v>       0.00437318 </v>
   <v>       0.00437318 </v>
   <v>       0.00218659 </v>
   <v>       0.00437318 </v>
   <v>       0.00437318 </v>
   <v>       0.00437318 </v>
   <v>       0.00437318 </v>
   <v>       0.00437318 </v>
   <v>       0.00437318 </v>
   <v>       0.00437318 </v>
   <v>       0.00437318 </v>
   <v>       0.00437318 </v>
   <v>       0.00437318 </v>
   <v>       0.00218659 </v>
   <v>       0.00437318 </v>
   <v>       0.00437318 </v>
   <v>       0.00437318 </v>
   <v>       0.00437318 </v>
   <v>       0.00437318 </v>
   <v>       0.00437318 </v>
   <v>       0.00437318 </v>
   <v>       0.00437318 </v>
   <v>       0.00437318 </v>
   <v>       0.00218659 </v>
   <v>       0.00437318 </v>
   <v>       0.00437318 </v>
   <v>       0.00437318 </v>
   <v>       0.00437318 </v>
   <v>       0.00437318 </v>
   <v>       0.00437318 </v>
   <v>       0.00437318 </v>
   <v>       0.00437318 </v>
   <v>       0.00218659 </v>
   <v>       0.00437318 </v>
   <v>       0.00437318 </v>
   <v>       0.00437318 </v>
   <v>       0.00437318 </v>
   <v>       0.00437318 </v>
   <v>       0.00437318 </v>
   <v>       0.00437318 </v>
   <v>       0.00218659 </v>
   <v>       0.00437318 </v>
   <v>       0.00437318 </v>
   <v>       0.00437318 </v>
   <v>       0.00437318 </v>
   <v>       0.00437318 </v>
   <v>       0.00218659 </v>
   <v>       0.00437318 </v>
   <v>       0.00437318 </v>
   <v>       0.00437318 </v>
   <v>       0.00437318 </v>
   <v>       0.00218659 </v>
   <v>       0.00437318 </v>
   <v>       0.00437318 </v>
   <v>       0.00437318 </v>
   <v>       0.00218659 </v>
   <v>       0.00437318 </v>
   <v>       0.00437318 </v>
   <v>       0.00218659 </v>
   <v>       0.00437318 </v>
   <v>       0.00218659 </v>
   <v>       0.00072886 </v>
   <v>       0.00218659 </v>
   <v>       0.00218659 </v>
   <v>       0.00218659 </v>
   <v>       0.00218659 </v>
   <v>       0.00218659 </v>
   <v>       0.00218659 </v>
   <v>       0.00218659 </v>
   <v>       0.00218659 </v>
   <v>       0.00218659 </v>
   <v>       0.00218659 </v>
   <v>       0.00218659 </v>
   <v>       0.00218659 </v>
   <v>       0.00437318 </v>
   <v>       0.00437318 </v>
   <v>       0.00437318 </v>
   <v>       0.00437318 </v>
   <v>       0.00437318 </v>
   <v>       0.00437318 </v>
   <v>       0.00437318 </v>
   <v>       0.00437318 </v>
   <v>       0.00437318 </v>
   <v>       0.00437318 </v>
   <v>       0.00218659 </v>
   <v>       0.00437318 </v>
   <v>       0.00437318 </v>
   <v>       0.00437318 </v>
   <v>       0.00437318 </v>
   <v>       0.00437318 </v>
   <v>       0.00437318 </v>
   <v>       0.00437318 </v>
   <v>       0.00437318 </v>
   <v>       0.00437318 </v>
   <v>       0.00218659 </v>
   <v>       0.00437318 </v>
   <v>       0.00437318 </v>
   <v>       0.00437318 </v>
   <v>       0.00437318 </v>
   <v>       0.00437318 </v>
   <v>       0.00437318 </v>
   <v>       0.00437318 </v>
   <v>       0.00437318 </v>
   <v>       0.00218659 </v>
   <v>       0.00437318 </v>
   <v>       0.00437318 </v>
   <v>       0.00437318 </v>
   <v>       0.00437318 </v>
   <v>       0.00437318 </v>
   <v>       0.00437318 </v>
   <v>       0.00437318 </v>
   <v>       0.00218659 </v>
   <v>       0.00437318 </v>
   <v>       0.00437318 </v>
   <v>       0.00437318 </v>
   <v>       0.00437318 </v>
   <v>       0.00437318 </v>
   <v>       0.00437318 </v>
   <v>       0.00218659 </v>
   <v>       0.00437318 </v>
   <v>       0.00437318 </v>
   <v>       0.00437318 </v>
   <v>       0.00437318 </v>
   <v>       0.00218659 </v>
   <v>       0.00437318 </v>
   <v>       0.00437318 </v>
   <v>       0.00437318 </v>
   <v>       0.00218659 </v>
   <v>       0.00437318 </v>
   <v>       0.00437318 </v>
   <v>       0.00218659 </v>
   <v>       0.00437318 </v>
   <v>       0.00218659 </v>
   <v>       0.00072886 </v>
   <v>       0.00218659 </v>
   <v>       0.00218659 </v>
   <v>       0.00218659 </v>
   <v>       0.00218659 </v>
   <v>       0.00218659 </v>
   <v>       0.00218659 </v>
   <v>       0.00218659 </v>
   <v>       0.00218659 </v>
   <v>       0.00218659 </v>
   <v>       0.00218659 </v>
   <v>       0.00437318 </v>
   <v>       0.00437318 </v>
   <v>       0.00437318 </v>
   <v>       0.00437318 </v>
   <v>       0.00437318 </v>
   <v>       0.00437318 </v>
   <v>       0.00437318 </v>
   <v>       0.00437318 </v>
   <v>       0.00218659 </v>
   <v>       0.00437318 </v>
   <v>       0.00437318 </v>
   <v>       0.00437318 </v>
   <v>       0.00437318 </v>
   <v>       0.00437318 </v>
   <v>       0.00437318 </v>
   <v>       0.00437318 </v>
   <v>       0.00218659 </v>
   <v>       0.00437318 </v>
   <v>       0.00437318 </v>
   <v>       0.00437318 </v>
   <v>       0.00437318 </v>
   <v>       0.00437318 </v>
   <v>       0.00437318 </v>
   <v>       0.00218659 </v>
   <v>       0.00437318 </v>
   <v>       0.00437318 </v>
   <v>       0.00437318 </v>
   <v>       0.00437318 </v>
   <v>       0.00437318 </v>
   <v>       0.00218659 </v>
   <v>       0.00437318 </v>
   <v>       0.00437318 </v>
   <v>       0.00437318 </v>
   <v>       0.00218659 </v>
   <v>       0.00437318 </v>
   <v>       0.00437318 </v>
   <v>       0.00218659 </v>
   <v>       0.00437318 </v>
   <v>       0.00218659 </v>
   <v>       0.00072886 </v>
   <v>       0.00218659 </v>
   <v>       0.00218659 </v>
   <v>       0.00218659 </v>
   <v>       0.00218659 </v>
   <v>       0.00218659 </v>
   <v>       0.00218659 </v>
   <v>       0.00218659 </v>
   <v>       0.00218659 </v>
   <v>       0.00437318 </v>
   <v>       0.00437318 </v>
   <v>       0.00437318 </v>
   <v>       0.00437318 </v>
   <v>       0.00437318 </v>
   <v>       0.00437318 </v>
   <v>       0.00218659 </v>
   <v>       0.00437318 </v>
   <v>       0.00437318 </v>
   <v>       0.00437318 </v>
   <v>       0.00437318 </v>
   <v>       0.00437318 </v>
   <v>       0.00218659 </v>
   <v>       0.00437318 </v>
   <v>       0.00437318 </v>
   <v>       0.00437318 </v>
   <v>       0.00437318 </v>
   <v>       0.00218659 </v>
   <v>       0.00437318 </v>
   <v>       0.00437318 </v>
   <v>       0.00218659 </v>
   <v>       0.00437318 </v>
   <v>       0.00218659 </v>
   <v>       0.00072886 </v>
   <v>       0.00218659 </v>
   <v>       0.00218659 </v>
   <v>       0.00218659 </v>
   <v>       0.00218659 </v>
   <v>       0.00218659 </v>
   <v>       0.00218659 </v>
   <v>       0.00437318 </v>
   <v>       0.00437318 </v>
   <v>       0.00437318 </v>
   <v>       0.00437318 </v>
   <v>       0.00218659 </v>
   <v>       0.00437318 </v>
   <v>       0.00437318 </v>
   <v>       0.00437318 </v>
   <v>       0.00218659 </v>
   <v>       0.00437318 </v>
   <v>       0.00218659 </v>
   <v>       0.00072886 </v>
   <v>       0.00218659 </v>
   <v>       0.00218659 </v>
   <v>       0.00218659 </v>
   <v>       0.00218659 </v>
   <v>       0.00437318 </v>
   <v>       0.00437318 </v>
   <v>       0.00218659 </v>
   <v>       0.00072886 </v>
   <v>       0.00218659 </v>
  </varray>
 </kpoints>
 <parameters>
  <separator name="general" >
   <i type="string" name="SYSTEM">Pt-fcc</i>
   <i type="logical" name="LCOMPAT"> F  </i>
  </separator>
  <separator name="electronic" >
   <i type="string" name="PREC">accura</i>
   <i name="ENMAX">    425.00000000</i>
   <i name="ENAUG">    527.01400000</i>
   <i name="EDIFF">      0.00000100</i>
   <i type="int" name="IALGO">    38</i>
   <i type="int" name="IWAVPR">    10</i>
   <i type="int" name="NBANDS">    24</i>
   <i type="int" name="NBANDSLOW">    -1</i>
   <i type="int" name="NBANDSHIGH">    -1</i>
   <i name="NELECT">     16.00000000</i>
   <i type="int" name="TURBO">     0</i>
   <i type="int" name="IRESTART">     0</i>
   <i type="int" name="NREBOOT">     0</i>
   <i type="int" name="NMIN">     0</i>
   <i name="EREF">      0.00000000</i>
   <separator name="electronic smearing" >
    <i type="int" name="ISMEAR">     0</i>
    <i name="SIGMA">      0.05000000</i>
    <i name="KSPACING">      0.50000000</i>
    <i type="logical" name="KGAMMA"> T  </i>
    <i type="logical" name="KBLOWUP"> T  </i>
   </separator>
   <separator name="electronic projectors" >
    <i type="logical" name="LREAL"> F  </i>
    <v name="ROPT">      0.00000000</v>
    <i type="int" name="LMAXPAW">  -100</i>
    <i type="int" name="LMAXMIX">     2</i>
    <i type="logical" name="NLSPLINE"> F  </i>
   </separator>
   <separator name="electronic startup" >
    <i type="int" name="ISTART">     0</i>
    <i type="int" name="ICHARG">     2</i>
    <i type="int" name="INIWAV">     1</i>
   </separator>
   <separator name="electronic spin" >
    <i type="int" name="ISPIN">     1</i>
    <i type="logical" name="LNONCOLLINEAR"> F  </i>
    <v name="MAGMOM">      1.00000000</v>
    <i name="NUPDOWN">     -1.00000000</i>
    <i type="logical" name="LSORBIT"> F  </i>
    <v name="SAXIS">      0.00000000      0.00000000      1.00000000</v>
    <i type="logical" name="LSPIRAL"> F  </i>
    <v name="QSPIRAL">      0.00000000      0.00000000      0.00000000</v>
    <i type="logical" name="LZEROZ"> F  </i>
   </separator>
   <separator name="electronic exchange-correlation" >
    <i type="logical" name="LASPH"> F  </i>
    <i type="logical" name="LMETAGGA"> F  </i>
   </separator>
   <separator name="electronic convergence" >
    <i type="int" name="NELM">   100</i>
    <i type="int" name="NELMDL">    -5</i>
    <i type="int" name="NELMIN">     2</i>
    <i name="ENINI">    425.00000000</i>
    <separator name="electronic convergence detail" >
     <i type="logical" name="LDIAG"> T  </i>
     <i type="logical" name="LSUBROT"> F  </i>
     <i name="WEIMIN">      0.00000000</i>
     <i name="EBREAK">      0.00000001</i>
     <i name="DEPER">      0.30000000</i>
     <i type="int" name="NRMM">     4</i>
     <i name="TIME">      0.40000000</i>
    </separator>
   </separator>
   <separator name="electronic mixer" >
    <i name="AMIX">      0.40000000</i>
    <i name="BMIX">      1.00000000</i>
    <i name="AMIN">      0.10000000</i>
    <i name="AMIX_MAG">      1.60000000</i>
    <i name="BMIX_MAG">      1.00000000</i>
    <separator name="electronic mixer details" >
     <i type="int" name="IMIX">     4</i>
     <i type="logical" name="MIXFIRST"> F  </i>
     <i type="int" name="MAXMIX">   -45</i>
     <i name="WC">    100.00000000</i>
     <i type="int" name="INIMIX">     1</i>
     <i type="int" name="MIXPRE">     1</i>
     <i type="int" name="MREMOVE">     5</i>
    </separator>
   </separator>
   <separator name="electronic dipolcorrection" >
    <i type="logical" name="LDIPOL"> F  </i>
    <i type="logical" name="LMONO"> F  </i>
    <i type="int" name="IDIPOL">     0</i>
    <i name="EPSILON">      1.00000000</i>
    <v name="DIPOL">   -100.00000000   -100.00000000   -100.00000000</v>
    <i name="EFIELD">      0.00000000</i>
   </separator>
  </separator>
  <separator name="grids" >
   <i type="int" name="NGX">    20</i>
   <i type="int" name="NGY">    20</i>
   <i type="int" name="NGZ">    20</i>
   <i type="int" name="NGXF">    40</i>
   <i type="int" name="NGYF">    40</i>
   <i type="int" name="NGZF">    40</i>
   <i type="logical" name="ADDGRID"> F  </i>
  </separator>
  <separator name="ionic" >
   <i type="int" name="NSW">     0</i>
   <i type="int" name="IBRION">    -1</i>
   <i type="int" name="MDALGO">     0</i>
   <i type="int" name="ISIF">     2</i>
   <i name="PSTRESS">      0.00000000</i>
   <i name="EDIFFG">     -0.02000000</i>
   <i type="int" name="NFREE">     0</i>
   <i name="POTIM">      0.50000000</i>
   <i name="SMASS">     -3.00000000</i>
   <i name="SCALEE">      1.00000000</i>
  </separator>
  <separator name="ionic md" >
   <i name="TEBEG">      0.00010000</i>
   <i name="TEEND">      0.00010000</i>
   <i type="int" name="NBLOCK">     1</i>
   <i type="int" name="KBLOCK">     1</i>
   <i type="int" name="NPACO">   256</i>
   <i name="APACO">     10.00000000</i>
  </separator>
  <separator name="symmetry" >
   <i type="int" name="ISYM">     1</i>
   <i name="SYMPREC">      0.00001000</i>
  </separator>
  <separator name="dos" >
   <i type="int" name="LORBIT">     0</i>
   <v name="RWIGS">     -1.00000000</v>
   <i type="int" name="NEDOS">   301</i>
   <i name="EMIN">     10.00000000</i>
   <i name="EMAX">    -10.00000000</i>
   <i name="EFERMI">      0.00000000</i>
  </separator>
  <separator name="writing" >
   <i type="int" name="NWRITE">     2</i>
   <i type="logical" name="LWAVE"> F  </i>
   <i type="logical" name="LDOWNSAMPLE"> F  </i>
   <i type="logical" name="LCHARG"> F  </i>
   <i type="logical" name="LPARD"> F  </i>
   <i type="logical" name="LVTOT"> F  </i>
   <i type="logical" name="LVHAR"> F  </i>
   <i type="logical" name="LELF"> F  </i>
   <i type="logical" name="LOPTICS"> F  </i>
   <v name="STM">      0.00000000      0.00000000      0.00000000      0.00000000      0.00000000      0.00000000      0.00000000</v>
  </separator>
  <separator name="performance" >
   <i type="int" name="NPAR">    24</i>
   <i type="int" name="NSIM">     4</i>
   <i type="int" name="NBLK">    -1</i>
   <i type="logical" name="LPLANE"> T  </i>
   <i type="logical" name="LSCALAPACK"> T  </i>
   <i type="logical" name="LSCAAWARE"> T  </i>
   <i type="logical" name="LSCALU"> F  </i>
   <i type="logical" name="LASYNC"> F  </i>
   <i type="logical" name="LORBITALREAL"> F  </i>
  </separator>
  <separator name="miscellaneous" >
   <i type="int" name="IDIOT">     3</i>
   <i type="int" name="PHON_NSTRUCT">    -1</i>
   <i type="logical" name="LMUSIC"> F  </i>
   <v name="POMASS">    195.08000000</v>
   <v name="DARWINR">      0.00000000</v>
   <v name="DARWINV">      1.00000000</v>
   <i type="logical" name="LCORR"> T  </i>
  </separator>
  <i type="logical" name="GGA_COMPAT"> T  </i>
  <i type="logical" name="LBERRY"> F  </i>
  <i type="int" name="ICORELEVEL">     0</i>
  <i type="logical" name="LDAU"> F  </i>
  <i type="int" name="I_CONSTRAINED_M">     0</i>
  <separator name="electronic exchange-correlation" >
   <i type="string" name="GGA">--</i>
   <i type="int" name="VOSKOWN">     0</i>
   <i type="logical" name="LHFCALC"> F  </i>
   <i type="string" name="PRECFOCK"></i>
   <i type="logical" name="LSYMGRAD"> F  </i>
   <i type="logical" name="LHFONE"> F  </i>
   <i type="logical" name="LRHFCALC"> F  </i>
   <i type="logical" name="LTHOMAS"> F  </i>
   <i type="logical" name="LMODELHF"> F  </i>
   <i type="logical" name="LFOCKACE"> F  </i>
   <i name="ENCUT4O">     -1.00000000</i>
   <i type="int" name="EXXOEP">     0</i>
   <i type="int" name="FOURORBIT">     0</i>
   <i name="AEXX">      0.00000000</i>
   <i name="HFALPHA">      0.00000000</i>
   <i name="MCALPHA">      0.00000000</i>
   <i name="ALDAX">      1.00000000</i>
   <i name="AGGAX">      1.00000000</i>
   <i name="ALDAC">      1.00000000</i>
   <i name="AGGAC">      1.00000000</i>
   <i type="int" name="NKREDX">     1</i>
   <i type="int" name="NKREDY">     1</i>
   <i type="int" name="NKREDZ">     1</i>
   <i type="logical" name="SHIFTRED"> F  </i>
   <i type="logical" name="ODDONLY"> F  </i>
   <i type="logical" name="EVENONLY"> F  </i>
   <i type="int" name="LMAXFOCK">     0</i>
   <i type="int" name="NMAXFOCKAE">     0</i>
   <i type="logical" name="LFOCKAEDFT"> F  </i>
   <i name="HFSCREEN">      0.00000000</i>
   <i name="HFSCREENC">      0.00000000</i>
   <i type="int" name="NBANDSGWLOW">     0</i>
  </separator>
  <separator name="vdW DFT" >
   <i type="logical" name="LUSE_VDW"> F  </i>
   <i name="Zab_VDW">     -0.84910000</i>
   <i name="PARAM1">      0.12340000</i>
   <i name="PARAM2">      1.00000000</i>
   <i name="PARAM3">      0.00000000</i>
  </separator>
  <separator name="model GW" >
   <i type="int" name="MODEL_GW">     0</i>
   <i name="MODEL_EPS0">      9.17444760</i>
   <i name="MODEL_ALPHA">      1.00000000</i>
  </separator>
  <separator name="linear response parameters" >
   <i type="logical" name="LEPSILON"> F  </i>
   <i type="logical" name="LRPA"> F  </i>
   <i type="logical" name="LNABLA"> F  </i>
   <i type="logical" name="LVEL"> F  </i>
   <i name="CSHIFT">      0.10000000</i>
   <i name="OMEGAMAX">     -1.00000000</i>
   <i name="DEG_THRESHOLD">      0.00200000</i>
   <i name="RTIME">     -0.10000000</i>
   <i name="WPLASMAI">      0.00000000</i>
   <v name="DFIELD">      0.00000000      0.00000000      0.00000000</v>
   <v name="WPLASMA">      0.00000000      0.00000000      0.00000000      0.00000000      0.00000000      0.00000000      0.00000000      0.00000000      0.00000000</v>
  </separator>
  <separator name="orbital magnetization" >
   <i type="logical" name="NUCIND"> F  </i>
   <v name="MAGPOS">      0.00000000      0.00000000      0.00000000</v>
   <i type="logical" name="LNICSALL"> T  </i>
   <i type="logical" name="ORBITALMAG"> F  </i>
   <i type="logical" name="LMAGBLOCH"> F  </i>
   <i type="logical" name="LCHIMAG"> F  </i>
   <i type="logical" name="LGAUGE"> T  </i>
   <i type="int" name="MAGATOM">     0</i>
   <v name="MAGDIPOL">      0.00000000      0.00000000      0.00000000</v>
   <v name="AVECCONST">      0.00000000      0.00000000      0.00000000</v>
  </separator>
  <separator name="response functions" >
   <i type="logical" name="LFINITE_TEMPERATURE"> F  </i>
   <i type="logical" name="LADDER"> F  </i>
   <i type="logical" name="LRPAFORCE"> F  </i>
   <i type="logical" name="LFXC"> F  </i>
   <i type="logical" name="LHARTREE"> T  </i>
   <i type="int" name="IBSE">     0</i>
   <v type="int" name="KPOINT">    -1     0     0     0</v>
   <i type="logical" name="LTCTC"> F  </i>
   <i type="logical" name="LTCTE"> F  </i>
   <i type="logical" name="LTETE"> F  </i>
   <i type="logical" name="LTRIPLET"> F  </i>
   <i type="logical" name="LFXCEPS"> F  </i>
   <i type="logical" name="LFXHEG"> F  </i>
   <i type="int" name="NATURALO">     2</i>
   <i type="logical" name="LHOLEGF"> F  </i>
   <i type="logical" name="L2ORDER"> F  </i>
   <i type="logical" name="LDMP1"> F  </i>
   <i type="logical" name="LMP2LT"> F  </i>
   <i type="logical" name="LSMP2LT"> F  </i>
   <i type="logical" name="LGWLF"> F  </i>
   <i name="ENCUTGW">     -2.00000000</i>
   <i name="ENCUTGWSOFT">     -2.00000000</i>
   <i name="ENCUTLF">     -1.00000000</i>
   <i type="logical" name="LESF_SPLINES"> F  </i>
   <i type="int" name="LMAXMP2">    -1</i>
   <i name="SCISSOR">      0.00000000</i>
   <i type="int" name="NOMEGA">     0</i>
   <i type="int" name="NOMEGAR">     0</i>
   <i type="int" name="NBANDSGW">    -1</i>
   <i type="int" name="NBANDSO">    -1</i>
   <i type="int" name="NBANDSV">    -1</i>
   <i type="int" name="NELMGW">     1</i>
   <i type="int" name="NELMHF">     1</i>
   <i type="int" name="DIM">     3</i>
   <i type="int" name="IESPILON">     4</i>
   <i type="int" name="ANTIRES">     0</i>
   <i name="OMEGAMAX">    -30.00000000</i>
   <i name="OMEGAMIN">    -30.00000000</i>
   <i name="OMEGATL">   -200.00000000</i>
   <i type="int" name="OMEGAGRID">     0</i>
   <i name="CSHIFT">     -0.10000000</i>
   <i type="logical" name="LSELFENERGY"> F  </i>
   <i type="logical" name="LSPECTRAL"> F  </i>
   <i type="logical" name="LSPECTRALGW"> F  </i>
   <i type="logical" name="LSINGLES"> F  </i>
   <i type="logical" name="LFERMIGW"> F  </i>
   <i type="logical" name="ODDONLYGW"> F  </i>
   <i type="logical" name="EVENONLYGW"> F  </i>
   <i type="int" name="NKREDLFX">     1</i>
   <i type="int" name="NKREDLFY">     1</i>
   <i type="int" name="NKREDLFZ">     1</i>
   <i type="int" name="MAXMEM">  2800</i>
   <i type="int" name="TELESCOPE">     0</i>
   <i type="int" name="NTAUPAR">    -1</i>
   <i type="int" name="NOMEGAPAR">    -1</i>
   <i name="DAMP_NEWTON">      0.80000001</i>
   <i name="LAMBDA">      1.00000000</i>
  </separator>
  <separator name="External order field" >
   <i name="OFIELD_KAPPA">      0.00000000</i>
   <v name="OFIELD_K">      0.00000000      0.00000000      0.00000000</v>
   <i name="OFIELD_Q6_NEAR">      0.00000000</i>
   <i name="OFIELD_Q6_FAR">      0.00000000</i>
   <i name="OFIELD_A">      0.00000000</i>
  </separator>
  <separator name="optional k-points parameters" >
   <i type="int" name="KPOINTS_OPT_MODE">     1</i>
   <i type="logical" name="LKPOINTS_OPT"> F  </i>
  </separator>
 </parameters>
 <atominfo>
  <atoms>       1 </atoms>
  <types>       1 </types>
  <array name="atoms" >
   <dimension dim="1">ion</dimension>
   <field type="string">element</field>
   <field type="int">atomtype</field>
   <set>
    <rc><c>Pt</c><c>   1</c></rc>
   </set>
  </array>
  <array name="atomtypes" >
   <dimension dim="1">type</dimension>
   <field type="int">atomspertype</field>
   <field type="string">element</field>
   <field>mass</field>
   <field>valence</field>
   <field type="string">pseudopotential</field>
   <set>
    <rc><c>   1</c><c>Pt</c><c>    195.08000000</c><c>     16.00000000</c><c>  PAW_PBE Pt_pv 12Dec2005               </c></rc>
   </set>
  </array>
 </atominfo>
 <structure name="initialpos" >
  <crystal>
   <varray name="basis" >
    <v>       0.00000000       1.97000000       1.97000000 </v>
    <v>       1.97000000       0.00000000       1.97000000 </v>
    <v>       1.97000000       1.97000000       0.00000000 </v>
   </varray>
   <i name="volume">     15.29074600 </i>
   <varray name="rec_basis" >
    <v>      -0.25380711       0.25380711       0.25380711 </v>
    <v>       0.25380711      -0.25380711       0.25380711 </v>
    <v>       0.25380711       0.25380711      -0.25380711 </v>
   </varray>
  </crystal>
  <varray name="positions" >
   <v>       0.00000000       0.00000000       0.00000000 </v>
  </varray>
 </structure>
 <calculation>
  <scstep>
   <time name="dav">    1.30    1.31</time>
   <time name="total">    1.31    1.32</time>
   <energy>
    <i name="alphaZ">    156.91311333 </i>
    <i name="ewald">  -2144.84590610 </i>
    <i name="hartreedc">   -397.82488157 </i>
    <i name="XCdc">     63.81680431 </i>
    <i name="pawpsdc">   2065.75261637 </i>
    <i name="pawaedc">  -2030.83594803 </i>
    <i name="eentropy">     -0.00067977 </i>
    <i name="bandstr">   -125.61251098 </i>
    <i name="atom">   2428.19501064 </i>
    <i name="e_fr_energy">     15.55761821 </i>
    <i name="e_wo_entrp">     15.55829798 </i>
    <i name="e_0_energy">     15.55795810 </i>
   </energy>
  </scstep>
  <scstep>
   <time name="dav">    1.65    1.66</time>
   <time name="total">    1.65    1.66</time>
   <energy>
    <i name="e_fr_energy">     -6.39744739 </i>
    <i name="e_wo_entrp">     -6.39462570 </i>
    <i name="e_0_energy">     -6.39603655 </i>
   </energy>
  </scstep>
  <scstep>
   <time name="dav">    1.72    1.73</time>
   <time name="total">    1.73    1.73</time>
   <energy>
    <i name="e_fr_energy">     -6.42804934 </i>
    <i name="e_wo_entrp">     -6.42520862 </i>
    <i name="e_0_energy">     -6.42662898 </i>
   </energy>
  </scstep>
  <scstep>
   <time name="dav">    2.43    2.44</time>
   <time name="total">    2.43    2.44</time>
   <energy>
    <i name="e_fr_energy">     -6.42807480 </i>
    <i name="e_wo_entrp">     -6.42523408 </i>
    <i name="e_0_energy">     -6.42665444 </i>
   </energy>
  </scstep>
  <scstep>
   <time name="dav">    1.71    1.72</time>
   <time name="total">    1.75    1.75</time>
   <energy>
    <i name="e_fr_energy">     -6.42807480 </i>
    <i name="e_wo_entrp">     -6.42523408 </i>
    <i name="e_0_energy">     -6.42665444 </i>
   </energy>
  </scstep>
  <scstep>
   <time name="dav">    1.36    1.36</time>
   <time name="total">    1.40    1.40</time>
   <energy>
    <i name="e_fr_energy">     -6.09504639 </i>
    <i name="e_wo_entrp">     -6.09232996 </i>
    <i name="e_0_energy">     -6.09368818 </i>
   </energy>
  </scstep>
  <scstep>
   <time name="dav">    2.16    2.17</time>
   <time name="total">    2.20    2.21</time>
   <energy>
    <i name="e_fr_energy">     -6.07618797 </i>
    <i name="e_wo_entrp">     -6.07349028 </i>
    <i name="e_0_energy">     -6.07483912 </i>
   </energy>
  </scstep>
  <scstep>
   <time name="dav">    1.33    1.33</time>
   <time name="total">    1.37    1.38</time>
   <energy>
    <i name="e_fr_energy">     -6.07464005 </i>
    <i name="e_wo_entrp">     -6.07195806 </i>
    <i name="e_0_energy">     -6.07329906 </i>
   </energy>
  </scstep>
  <scstep>
   <time name="dav">    1.96    1.97</time>
   <time name="total">    2.00    2.01</time>
   <energy>
    <i name="e_fr_energy">     -6.07457325 </i>
    <i name="e_wo_entrp">     -6.07188952 </i>
    <i name="e_0_energy">     -6.07323139 </i>
   </energy>
  </scstep>
  <scstep>
   <time name="dav">    1.83    1.84</time>
   <time name="total">    1.88    1.88</time>
   <energy>
    <i name="e_fr_energy">     -6.07457892 </i>
    <i name="e_wo_entrp">     -6.07189472 </i>
    <i name="e_0_energy">     -6.07323682 </i>
   </energy>
  </scstep>
  <scstep>
   <time name="dav">    0.77    0.78</time>
   <time name="total">    0.78    0.78</time>
   <energy>
    <i name="alphaZ">    156.91311333 </i>
    <i name="ewald">  -2144.84590610 </i>
    <i name="hartreedc">   -378.48034377 </i>
    <i name="XCdc">     62.96012165 </i>
    <i name="pawpsdc">   2351.37776622 </i>
    <i name="pawaedc">  -2319.11629647 </i>
    <i name="eentropy">     -0.00268419 </i>
    <i name="bandstr">   -163.07536017 </i>
    <i name="atom">   2428.19501064 </i>
    <i name="e_fr_energy">     -6.07457886 </i>
    <i name="e_wo_entrp">     -6.07189467 </i>
    <i name="e_0_energy">     -6.07323677 </i>
   </energy>
  </scstep>
  <structure>
   <crystal>
    <varray name="basis" >
     <v>       0.00000000       1.97000000       1.97000000 </v>
     <v>       1.97000000       0.00000000       1.97000000 </v>
     <v>       1.97000000       1.97000000       0.00000000 </v>
    </varray>
    <i name="volume">     15.29074600 </i>
    <varray name="rec_basis" >
     <v>      -0.25380711       0.25380711       0.25380711 </v>
     <v>       0.25380711      -0.25380711       0.25380711 </v>
     <v>       0.25380711       0.25380711      -0.25380711 </v>
    </varray>
   </crystal>
   <varray name="positions" >
    <v>       0.00000000       0.00000000       0.00000000 </v>
   </varray>
  </structure>
  <varray name="forces" >
   <v>       0.00000000       0.00000000       0.00000000 </v>
  </varray>
  <varray name="stress" >
   <v>      35.88415720       0.00000000       0.00000000 </v>
   <v>      -0.00000000      35.88415720       0.00000000 </v>
   <v>      -0.00000000      -0.00000000      35.88415720 </v>
  </varray>
  <energy>
   <i name="e_fr_energy">     -6.07457886 </i>
   <i name="e_wo_entrp">     -6.07189467 </i>
   <i name="e_0_energy">     -6.07323677 </i>
  </energy>
  <time name="totalsc">   18.84   18.94</time>
  <eigenvalues>
   <array>
    <dimension dim="1">band</dimension>
    <dimension dim="2">kpoint</dimension>
    <dimension dim="3">spin</dimension>
    <field>eigene</field>
    <field>occ</field>
    <set>
     <set comment="spin 1">
      <set comment="kpoint 1">
       <r>  -40.7088    1.0000 </r>
       <r>  -40.7038    1.0000 </r>
       <r>  -40.7038    1.0000 </r>
       <r>    1.7473    1.0000 </r>
       <r>    8.0541    1.0000 </r>
       <r>    8.0978    1.0000 </r>
       <r>    8.0978    1.0000 </r>
       <r>   10.1816    1.0000 </r>
       <r>   10.1816    1.0000 </r>
       <r>   26.5212    0.0000 </r>
       <r>   31.0281    0.0000 </r>
       <r>   31.4021    0.0000 </r>
       <r>   31.4021    0.0000 </r>
       <r>   36.9641    0.0000 </r>
       <r>   42.6011    0.0000 </r>
       <r>   43.0820    0.0000 </r>
       <r>   43.0820    0.0000 </r>
       <r>   45.9506    0.0000 </r>
       <r>   45.9506    0.0000 </r>
       <r>   46.5219    0.0000 </r>
       <r>   52.4965    0.0000 </r>
       <r>   52.7927    0.0000 </r>
       <r>   52.7927    0.0000 </r>
       <r>   59.7299    0.0000 </r>
      </set>
      <set comment="kpoint 2">
       <r>  -40.7361    1.0000 </r>
       <r>  -40.7115    1.0000 </r>
       <r>  -40.7062    1.0000 </r>
       <r>    2.0164    1.0000 </r>
       <r>    7.9285    1.0000 </r>
       <r>    8.1919    1.0000 </r>
       <r>    8.2228    1.0000 </r>
       <r>   10.0590    1.0000 </r>
       <r>   10.1976    1.0000 </r>
       <r>   26.9235    0.0000 </r>
       <r>   29.9518    0.0000 </r>
       <r>   31.4798    0.0000 </r>
       <r>   31.9796    0.0000 </r>
       <r>   38.1347    0.0000 </r>
       <r>   40.6084    0.0000 </r>
       <r>   41.2783    0.0000 </r>
       <r>   42.6433    0.0000 </r>
       <r>   44.9225    0.0000 </r>
       <r>   47.0616    0.0000 </r>
       <r>   48.4551    0.0000 </r>
       <r>   52.0613    0.0000 </r>
       <r>   52.5005    0.0000 </r>
       <r>   53.4941    0.0000 </r>
       <r>   60.5439    0.0000 </r>
      </set>
      <set comment="kpoint 3">
       <r>  -40.8039    1.0000 </r>
       <r>  -40.7231    1.0000 </r>
       <r>  -40.7142    1.0000 </r>
       <r>    2.6469    1.0000 </r>
       <r>    7.7187    1.0000 </r>
       <r>    8.3889    1.0000 </r>
       <r>    8.4054    1.0000 </r>
       <r>    9.9398    1.0000 </r>
       <r>   10.2235    1.0000 </r>
       <r>   27.7059    0.0000 </r>
       <r>   28.0443    0.0000 </r>
       <r>   32.1762    0.0000 </r>
       <r>   33.1067    0.0000 </r>
       <r>   36.6656    0.0000 </r>
       <r>   39.2399    0.0000 </r>
       <r>   40.1596    0.0000 </r>
       <r>   41.8014    0.0000 </r>
       <r>   45.1388    0.0000 </r>
       <r>   47.5928    0.0000 </r>
       <r>   49.8161    0.0000 </r>
       <r>   52.1312    0.0000 </r>
       <r>   52.5041    0.0000 </r>
       <r>   53.9343    0.0000 </r>
       <r>   60.7744    0.0000 </r>
      </set>
      <set comment="kpoint 4">
       <r>  -40.8960    1.0000 </r>
       <r>  -40.7377    1.0000 </r>
       <r>  -40.7267    1.0000 </r>
       <r>    3.4945    1.0000 </r>
       <r>    7.6292    1.0000 </r>
       <r>    8.4726    1.0000 </r>
       <r>    8.4919    1.0000 </r>
       <r>   10.0509    1.0000 </r>
       <r>   10.4519    1.0000 </r>
       <r>   25.8260    0.0000 </r>
       <r>   28.2397    0.0000 </r>
       <r>   33.1044    0.0000 </r>
       <r>   34.6322    0.0000 </r>
       <r>   34.7721    0.0000 </r>
       <r>   37.4137    0.0000 </r>
       <r>   37.4699    0.0000 </r>
       <r>   44.8798    0.0000 </r>
       <r>   45.4404    0.0000 </r>
       <r>   47.9252    0.0000 </r>
       <r>   50.2953    0.0000 </r>
       <r>   52.5059    0.0000 </r>
       <r>   52.7830    0.0000 </r>
       <r>   54.3548    0.0000 </r>
       <r>   61.0768    0.0000 </r>
      </set>
      <set comment="kpoint 5">
       <r>  -40.9938    1.0000 </r>
       <r>  -40.7525    1.0000 </r>
       <r>  -40.7414    1.0000 </r>
       <r>    4.2346    1.0000 </r>
       <r>    8.0129    1.0000 </r>
       <r>    8.3631    1.0000 </r>
       <r>    8.3838    1.0000 </r>
       <r>   10.5079    1.0000 </r>
       <r>   10.9424    1.0000 </r>
       <r>   23.3484    0.0000 </r>
       <r>   27.6957    0.0000 </r>
       <r>   32.7968    0.0000 </r>
       <r>   34.6203    0.0000 </r>
       <r>   35.2777    0.0000 </r>
       <r>   36.6681    0.0000 </r>
       <r>   37.2317    0.0000 </r>
       <r>   45.6926    0.0000 </r>
       <r>   47.3102    0.0000 </r>
       <r>   48.7287    0.0000 </r>
       <r>   50.8701    0.0000 </r>
       <r>   52.5076    0.0000 </r>
       <r>   53.3217    0.0000 </r>
       <r>   54.8522    0.0000 </r>
       <r>   60.9064    0.0000 </r>
      </set>
      <set comment="kpoint 6">
       <r>  -41.0783    1.0000 </r>
       <r>  -40.7643    1.0000 </r>
       <r>  -40.7550    1.0000 </r>
       <r>    4.5683    1.0000 </r>
       <r>    8.1688    1.0000 </r>
       <r>    8.2061    1.0000 </r>
       <r>    9.1287    1.0000 </r>
       <r>   11.1110    1.0000 </r>
       <r>   11.5320    1.0000 </r>
       <r>   20.6931    0.0000 </r>
       <r>   26.8103    0.0000 </r>
       <r>   31.5077    0.0000 </r>
       <r>   32.5762    0.0000 </r>
       <r>   37.2859    0.0000 </r>
       <r>   38.3748    0.0000 </r>
       <r>   38.5286    0.0000 </r>
       <r>   45.9403    0.0000 </r>
       <r>   47.5102    0.0000 </r>
       <r>   49.1852    0.0000 </r>
       <r>   52.5085    0.0000 </r>
       <r>   52.9382    0.0000 </r>
       <r>   54.1607    0.0000 </r>
       <r>   55.4104    0.0000 </r>
       <r>   58.8061    0.0000 </r>
      </set>
      <set comment="kpoint 7">
       <r>  -41.1325    1.0000 </r>
       <r>  -40.7708    1.0000 </r>
       <r>  -40.7642    1.0000 </r>
       <r>    4.6298    1.0000 </r>
       <r>    8.0296    1.0000 </r>
       <r>    8.0803    1.0000 </r>
       <r>   10.4556    1.0000 </r>
       <r>   11.6177    1.0000 </r>
       <r>   12.0744    0.0000 </r>
       <r>   18.3626    0.0000 </r>
       <r>   26.2325    0.0000 </r>
       <r>   30.6254    0.0000 </r>
       <r>   31.1538    0.0000 </r>
       <r>   39.0754    0.0000 </r>
       <r>   39.5881    0.0000 </r>
       <r>   40.4017    0.0000 </r>
       <r>   46.3470    0.0000 </r>
       <r>   47.1268    0.0000 </r>
       <r>   47.8654    0.0000 </r>
       <r>   52.5153    0.0000 </r>
       <r>   53.9595    0.0000 </r>
       <r>   55.7960    0.0000 </r>
       <r>   56.6823    0.0000 </r>
       <r>   56.9182    0.0000 </r>
      </set>
      <set comment="kpoint 8">
       <r>  -41.1465    1.0000 </r>
       <r>  -40.7709    1.0000 </r>
       <r>  -40.7687    1.0000 </r>
       <r>    4.6309    1.0000 </r>
       <r>    7.9840    1.0000 </r>
       <r>    8.0535    1.0000 </r>
       <r>   10.8844    1.0000 </r>
       <r>   11.8340    0.0828 </r>
       <r>   12.2994    0.0000 </r>
       <r>   17.5373    0.0000 </r>
       <r>   26.0854    0.0000 </r>
       <r>   30.5656    0.0000 </r>
       <r>   30.5929    0.0000 </r>
       <r>   39.7066    0.0000 </r>
       <r>   39.8216    0.0000 </r>
       <r>   41.2573    0.0000 </r>
       <r>   46.4944    0.0000 </r>
       <r>   47.0059    0.0000 </r>
       <r>   47.0464    0.0000 </r>
       <r>   52.5165    0.0000 </r>
       <r>   54.7442    0.0000 </r>
       <r>   55.1078    0.0000 </r>
       <r>   56.7298    0.0000 </r>
       <r>   57.2996    0.0000 </r>
      </set>
      <set comment="kpoint 9">
       <r>  -41.1187    1.0000 </r>
       <r>  -40.7666    1.0000 </r>
       <r>  -40.7647    1.0000 </r>
       <r>    4.6225    1.0000 </r>
       <r>    8.0487    1.0000 </r>
       <r>    8.1318    1.0000 </r>
       <r>   10.0256    1.0000 </r>
       <r>   11.6794    0.9986 </r>
       <r>   11.7243    0.9570 </r>
       <r>   19.0485    0.0000 </r>
       <r>   26.3792    0.0000 </r>
       <r>   30.9564    0.0000 </r>
       <r>   31.4073    0.0000 </r>
       <r>   38.7811    0.0000 </r>
       <r>   39.1337    0.0000 </r>
       <r>   39.7369    0.0000 </r>
       <r>   45.8811    0.0000 </r>
       <r>   47.7237    0.0000 </r>
       <r>   48.2671    0.0000 </r>
       <r>   52.5103    0.0000 </r>
       <r>   53.7786    0.0000 </r>
       <r>   55.5292    0.0000 </r>
       <r>   56.0361    0.0000 </r>
       <r>   57.3623    0.0000 </r>
      </set>
      <set comment="kpoint 10">
       <r>  -41.0530    1.0000 </r>
       <r>  -40.7581    1.0000 </r>
       <r>  -40.7533    1.0000 </r>
       <r>    4.5000    1.0000 </r>
       <r>    8.2049    1.0000 </r>
       <r>    8.2878    1.0000 </r>
       <r>    8.6818    1.0000 </r>
       <r>   11.0237    1.0000 </r>
       <r>   11.2373    1.0000 </r>
       <r>   21.5733    0.0000 </r>
       <r>   27.0884    0.0000 </r>
       <r>   32.0696    0.0000 </r>
       <r>   32.9835    0.0000 </r>
       <r>   36.9979    0.0000 </r>
       <r>   37.3918    0.0000 </r>
       <r>   38.0815    0.0000 </r>
       <r>   45.6117    0.0000 </r>
       <r>   48.0487    0.0000 </r>
       <r>   49.0556    0.0000 </r>
       <r>   52.5049    0.0000 </r>
       <r>   52.5293    0.0000 </r>
       <r>   53.1340    0.0000 </r>
       <r>   55.4668    0.0000 </r>
       <r>   59.4440    0.0000 </r>
      </set>
      <set comment="kpoint 11">
       <r>  -40.9618    1.0000 </r>
       <r>  -40.7453    1.0000 </r>
       <r>  -40.7387    1.0000 </r>
       <r>    4.0251    1.0000 </r>
       <r>    7.8026    1.0000 </r>
       <r>    8.3997    1.0000 </r>
       <r>    8.4487    1.0000 </r>
       <r>   10.3826    1.0000 </r>
       <r>   10.7095    1.0000 </r>
       <r>   24.2085    0.0000 </r>
       <r>   27.9762    0.0000 </r>
       <r>   33.2258    0.0000 </r>
       <r>   34.5447    0.0000 </r>
       <r>   35.3467    0.0000 </r>
       <r>   36.4807    0.0000 </r>
       <r>   36.8844    0.0000 </r>
       <r>   45.3666    0.0000 </r>
       <r>   47.2825    0.0000 </r>
       <r>   48.0926    0.0000 </r>
       <r>   50.8075    0.0000 </r>
       <r>   52.5094    0.0000 </r>
       <r>   52.6042    0.0000 </r>
       <r>   55.0029    0.0000 </r>
       <r>   61.3147    0.0000 </r>
      </set>
      <set comment="kpoint 12">
       <r>  -40.8641    1.0000 </r>
       <r>  -40.7309    1.0000 </r>
       <r>  -40.7244    1.0000 </r>
       <r>    3.2036    1.0000 </r>
       <r>    7.6194    1.0000 </r>
       <r>    8.4722    1.0000 </r>
       <r>    8.4895    1.0000 </r>
       <r>    9.9859    1.0000 </r>
       <r>   10.3302    1.0000 </r>
       <r>   26.5899    0.0000 </r>
       <r>   28.1805    0.0000 </r>
       <r>   32.9131    0.0000 </r>
       <r>   33.8271    0.0000 </r>
       <r>   35.5080    0.0000 </r>
       <r>   37.5984    0.0000 </r>
       <r>   38.5137    0.0000 </r>
       <r>   43.8055    0.0000 </r>
       <r>   45.3173    0.0000 </r>
       <r>   48.0159    0.0000 </r>
       <r>   50.2141    0.0000 </r>
       <r>   52.1444    0.0000 </r>
       <r>   52.5022    0.0000 </r>
       <r>   54.4542    0.0000 </r>
       <r>   60.9914    0.0000 </r>
      </set>
      <set comment="kpoint 13">
       <r>  -40.7774    1.0000 </r>
       <r>  -40.7172    1.0000 </r>
       <r>  -40.7129    1.0000 </r>
       <r>    2.4028    1.0000 </r>
       <r>    7.7791    1.0000 </r>
       <r>    8.3336    1.0000 </r>
       <r>    8.3478    1.0000 </r>
       <r>    9.9528    1.0000 </r>
       <r>   10.2136    1.0000 </r>
       <r>   27.4449    0.0000 </r>
       <r>   28.7277    0.0000 </r>
       <r>   32.0049    0.0000 </r>
       <r>   32.4974    0.0000 </r>
       <r>   37.6412    0.0000 </r>
       <r>   39.7606    0.0000 </r>
       <r>   40.8481    0.0000 </r>
       <r>   41.2065    0.0000 </r>
       <r>   44.9133    0.0000 </r>
       <r>   47.8328    0.0000 </r>
       <r>   49.2918    0.0000 </r>
       <r>   51.8658    0.0000 </r>
       <r>   52.5024    0.0000 </r>
       <r>   53.8985    0.0000 </r>
       <r>   60.6770    0.0000 </r>
      </set>
      <set comment="kpoint 14">
       <r>  -40.7205    1.0000 </r>
       <r>  -40.7074    1.0000 </r>
       <r>  -40.7060    1.0000 </r>
       <r>    1.8831    1.0000 </r>
       <r>    7.9730    1.0000 </r>
       <r>    8.1610    1.0000 </r>
       <r>    8.1661    1.0000 </r>
       <r>   10.0846    1.0000 </r>
       <r>   10.2195    1.0000 </r>
       <r>   26.7291    0.0000 </r>
       <r>   30.5558    0.0000 </r>
       <r>   31.4263    0.0000 </r>
       <r>   31.5574    0.0000 </r>
       <r>   37.7233    0.0000 </r>
       <r>   41.4750    0.0000 </r>
       <r>   41.7788    0.0000 </r>
       <r>   43.1910    0.0000 </r>
       <r>   44.7087    0.0000 </r>
       <r>   47.2617    0.0000 </r>
       <r>   47.5944    0.0000 </r>
       <r>   52.0521    0.0000 </r>
       <r>   52.5068    0.0000 </r>
       <r>   53.4351    0.0000 </r>
       <r>   60.3613    0.0000 </r>
      </set>
      <set comment="kpoint 15">
       <r>  -40.7423    1.0000 </r>
       <r>  -40.7154    1.0000 </r>
       <r>  -40.7136    1.0000 </r>
       <r>    2.1504    1.0000 </r>
       <r>    7.8066    1.0000 </r>
       <r>    8.2974    1.0000 </r>
       <r>    8.3013    1.0000 </r>
       <r>    9.9005    1.0000 </r>
       <r>   10.2928    1.0000 </r>
       <r>   27.1323    0.0000 </r>
       <r>   30.0180    0.0000 </r>
       <r>   31.4345    0.0000 </r>
       <r>   31.6285    0.0000 </r>
       <r>   38.8721    0.0000 </r>
       <r>   40.3275    0.0000 </r>
       <r>   40.3756    0.0000 </r>
       <r>   42.6727    0.0000 </r>
       <r>   43.4976    0.0000 </r>
       <r>   48.6859    0.0000 </r>
       <r>   48.9082    0.0000 </r>
       <r>   50.9006    0.0000 </r>
       <r>   52.5073    0.0000 </r>
       <r>   54.0955    0.0000 </r>
       <r>   61.0513    0.0000 </r>
      </set>
      <set comment="kpoint 16">
       <r>  -40.7910    1.0000 </r>
       <r>  -40.7314    1.0000 </r>
       <r>  -40.7201    1.0000 </r>
       <r>    2.6608    1.0000 </r>
       <r>    7.5766    1.0000 </r>
       <r>    8.4943    1.0000 </r>
       <r>    8.5041    1.0000 </r>
       <r>    9.6924    1.0000 </r>
       <r>   10.3873    1.0000 </r>
       <r>   27.8273    0.0000 </r>
       <r>   28.7913    0.0000 </r>
       <r>   31.3753    0.0000 </r>
       <r>   32.4254    0.0000 </r>
       <r>   37.2888    0.0000 </r>
       <r>   39.1889    0.0000 </r>
       <r>   41.1478    0.0000 </r>
       <r>   41.7264    0.0000 </r>
       <r>   43.1359    0.0000 </r>
       <r>   48.8463    0.0000 </r>
       <r>   49.9494    0.0000 </r>
       <r>   51.0417    0.0000 </r>
       <r>   52.5037    0.0000 </r>
       <r>   54.8592    0.0000 </r>
       <r>   61.4019    0.0000 </r>
      </set>
      <set comment="kpoint 17">
       <r>  -40.8714    1.0000 </r>
       <r>  -40.7486    1.0000 </r>
       <r>  -40.7306    1.0000 </r>
       <r>    3.4521    1.0000 </r>
       <r>    7.3854    1.0000 </r>
       <r>    8.5397    1.0000 </r>
       <r>    8.6834    1.0000 </r>
       <r>    9.7435    1.0000 </r>
       <r>   10.6089    1.0000 </r>
       <r>   26.7850    0.0000 </r>
       <r>   28.5264    0.0000 </r>
       <r>   31.7103    0.0000 </r>
       <r>   33.0955    0.0000 </r>
       <r>   35.6767    0.0000 </r>
       <r>   37.7863    0.0000 </r>
       <r>   39.4298    0.0000 </r>
       <r>   42.9698    0.0000 </r>
       <r>   44.7184    0.0000 </r>
       <r>   48.7995    0.0000 </r>
       <r>   49.6635    0.0000 </r>
       <r>   52.2365    0.0000 </r>
       <r>   52.5046    0.0000 </r>
       <r>   56.1132    0.0000 </r>
       <r>   61.4367    0.0000 </r>
      </set>
      <set comment="kpoint 18">
       <r>  -40.9632    1.0000 </r>
       <r>  -40.7646    1.0000 </r>
       <r>  -40.7446    1.0000 </r>
       <r>    4.2749    1.0000 </r>
       <r>    7.4905    1.0000 </r>
       <r>    8.3295    1.0000 </r>
       <r>    8.6546    1.0000 </r>
       <r>   10.2745    1.0000 </r>
       <r>   11.0734    1.0000 </r>
       <r>   24.3686    0.0000 </r>
       <r>   28.2685    0.0000 </r>
       <r>   31.4889    0.0000 </r>
       <r>   33.1913    0.0000 </r>
       <r>   36.4272    0.0000 </r>
       <r>   36.7589    0.0000 </r>
       <r>   38.5127    0.0000 </r>
       <r>   43.0739    0.0000 </r>
       <r>   47.8430    0.0000 </r>
       <r>   49.2476    0.0000 </r>
       <r>   49.7601    0.0000 </r>
       <r>   52.5033    0.0000 </r>
       <r>   52.5740    0.0000 </r>
       <r>   57.0410    0.0000 </r>
       <r>   60.0989    0.0000 </r>
      </set>
      <set comment="kpoint 19">
       <r>  -41.0488    1.0000 </r>
       <r>  -40.7778    1.0000 </r>
       <r>  -40.7600    1.0000 </r>
       <r>    4.7479    1.0000 </r>
       <r>    8.0593    1.0000 </r>
       <r>    8.2010    1.0000 </r>
       <r>    8.5021    1.0000 </r>
       <r>   11.0495    1.0000 </r>
       <r>   11.7103    0.9827 </r>
       <r>   21.6579    0.0000 </r>
       <r>   27.4081    0.0000 </r>
       <r>   30.6101    0.0000 </r>
       <r>   32.6304    0.0000 </r>
       <r>   36.7826    0.0000 </r>
       <r>   38.2550    0.0000 </r>
       <r>   39.2864    0.0000 </r>
       <r>   43.3486    0.0000 </r>
       <r>   48.7532    0.0000 </r>
       <r>   49.9186    0.0000 </r>
       <r>   51.5235    0.0000 </r>
       <r>   52.5129    0.0000 </r>
       <r>   52.8522    0.0000 </r>
       <r>   57.1291    0.0000 </r>
       <r>   58.0174    0.0000 </r>
      </set>
      <set comment="kpoint 20">
       <r>  -41.1102    1.0000 </r>
       <r>  -40.7876    1.0000 </r>
       <r>  -40.7718    1.0000 </r>
       <r>    4.8616    1.0000 </r>
       <r>    7.8688    1.0000 </r>
       <r>    8.3333    1.0000 </r>
       <r>    9.2775    1.0000 </r>
       <r>   11.6552    0.9999 </r>
       <r>   12.5909    0.0000 </r>
       <r>   19.0634    0.0000 </r>
       <r>   26.7466    0.0000 </r>
       <r>   29.9544    0.0000 </r>
       <r>   31.1731    0.0000 </r>
       <r>   38.3043    0.0000 </r>
       <r>   39.6818    0.0000 </r>
       <r>   40.6331    0.0000 </r>
       <r>   44.0649    0.0000 </r>
       <r>   48.5116    0.0000 </r>
       <r>   49.0981    0.0000 </r>
       <r>   51.7132    0.0000 </r>
       <r>   52.5120    0.0000 </r>
       <r>   55.4701    0.0000 </r>
       <r>   56.4491    0.0000 </r>
       <r>   57.1401    0.0000 </r>
      </set>
      <set comment="kpoint 21">
       <r>  -41.1360    1.0000 </r>
       <r>  -40.7935    1.0000 </r>
       <r>  -40.7752    1.0000 </r>
       <r>    4.8685    1.0000 </r>
       <r>    7.7941    1.0000 </r>
       <r>    8.2512    1.0000 </r>
       <r>    9.9386    1.0000 </r>
       <r>   11.7953    0.3852 </r>
       <r>   13.4706    0.0000 </r>
       <r>   17.4572    0.0000 </r>
       <r>   26.4734    0.0000 </r>
       <r>   29.7318    0.0000 </r>
       <r>   30.3785    0.0000 </r>
       <r>   39.3665    0.0000 </r>
       <r>   39.7491    0.0000 </r>
       <r>   41.9403    0.0000 </r>
       <r>   45.6316    0.0000 </r>
       <r>   47.0378    0.0000 </r>
       <r>   47.9061    0.0000 </r>
       <r>   52.5157    0.0000 </r>
       <r>   52.9600    0.0000 </r>
       <r>   53.7377    0.0000 </r>
       <r>   57.0167    0.0000 </r>
       <r>   58.4138    0.0000 </r>
      </set>
      <set comment="kpoint 22">
       <r>  -41.1226    1.0000 </r>
       <r>  -40.7947    1.0000 </r>
       <r>  -40.7693    1.0000 </r>
       <r>    4.8732    1.0000 </r>
       <r>    7.8483    1.0000 </r>
       <r>    8.2732    1.0000 </r>
       <r>    9.6553    1.0000 </r>
       <r>   11.5413    1.0000 </r>
       <r>   13.0522    0.0000 </r>
       <r>   18.3728    0.0000 </r>
       <r>   26.6047    0.0000 </r>
       <r>   29.5817    0.0000 </r>
       <r>   31.1170    0.0000 </r>
       <r>   38.4413    0.0000 </r>
       <r>   39.7663    0.0000 </r>
       <r>   41.3531    0.0000 </r>
       <r>   45.3294    0.0000 </r>
       <r>   47.6621    0.0000 </r>
       <r>   48.2751    0.0000 </r>
       <r>   51.9610    0.0000 </r>
       <r>   52.5138    0.0000 </r>
       <r>   54.8480    0.0000 </r>
       <r>   57.2867    0.0000 </r>
       <r>   57.5877    0.0000 </r>
      </set>
      <set comment="kpoint 23">
       <r>  -41.0718    1.0000 </r>
       <r>  -40.7891    1.0000 </r>
       <r>  -40.7576    1.0000 </r>
       <r>    4.8233    1.0000 </r>
       <r>    8.0098    1.0000 </r>
       <r>    8.3878    1.0000 </r>
       <r>    8.6543    1.0000 </r>
       <r>   10.9621    1.0000 </r>
       <r>   12.1961    0.0000 </r>
       <r>   20.7798    0.0000 </r>
       <r>   27.1256    0.0000 </r>
       <r>   30.0389    0.0000 </r>
       <r>   32.7250    0.0000 </r>
       <r>   36.5119    0.0000 </r>
       <r>   39.0203    0.0000 </r>
       <r>   39.9895    0.0000 </r>
       <r>   44.0843    0.0000 </r>
       <r>   47.8007    0.0000 </r>
       <r>   50.0733    0.0000 </r>
       <r>   51.3705    0.0000 </r>
       <r>   52.5111    0.0000 </r>
       <r>   54.4316    0.0000 </r>
       <r>   56.5215    0.0000 </r>
       <r>   57.7208    0.0000 </r>
      </set>
      <set comment="kpoint 24">
       <r>  -40.9930    1.0000 </r>
       <r>  -40.7770    1.0000 </r>
       <r>  -40.7426    1.0000 </r>
       <r>    4.4942    1.0000 </r>
       <r>    7.6966    1.0000 </r>
       <r>    8.2736    1.0000 </r>
       <r>    8.5825    1.0000 </r>
       <r>   10.2716    1.0000 </r>
       <r>   11.4478    1.0000 </r>
       <r>   23.4833    0.0000 </r>
       <r>   27.9316    0.0000 </r>
       <r>   30.9801    0.0000 </r>
       <r>   33.7979    0.0000 </r>
       <r>   35.6097    0.0000 </r>
       <r>   37.4618    0.0000 </r>
       <r>   38.9923    0.0000 </r>
       <r>   43.3960    0.0000 </r>
       <r>   47.5681    0.0000 </r>
       <r>   49.0952    0.0000 </r>
       <r>   50.5093    0.0000 </r>
       <r>   52.5082    0.0000 </r>
       <r>   53.7196    0.0000 </r>
       <r>   56.4801    0.0000 </r>
       <r>   59.5700    0.0000 </r>
      </set>
      <set comment="kpoint 25">
       <r>  -40.9021    1.0000 </r>
       <r>  -40.7602    1.0000 </r>
       <r>  -40.7280    1.0000 </r>
       <r>    3.7440    1.0000 </r>
       <r>    7.4179    1.0000 </r>
       <r>    8.4745    1.0000 </r>
       <r>    8.6880    1.0000 </r>
       <r>    9.7611    1.0000 </r>
       <r>   10.8210    1.0000 </r>
       <r>   25.9724    0.0000 </r>
       <r>   28.4774    0.0000 </r>
       <r>   31.7309    0.0000 </r>
       <r>   33.1648    0.0000 </r>
       <r>   35.6412    0.0000 </r>
       <r>   37.9015    0.0000 </r>
       <r>   38.9891    0.0000 </r>
       <r>   42.9916    0.0000 </r>
       <r>   45.4730    0.0000 </r>
       <r>   48.1913    0.0000 </r>
       <r>   49.7670    0.0000 </r>
       <r>   52.5029    0.0000 </r>
       <r>   53.6534    0.0000 </r>
       <r>   55.8922    0.0000 </r>
       <r>   61.0537    0.0000 </r>
      </set>
      <set comment="kpoint 26">
       <r>  -40.8182    1.0000 </r>
       <r>  -40.7403    1.0000 </r>
       <r>  -40.7166    1.0000 </r>
       <r>    2.8989    1.0000 </r>
       <r>    7.5541    1.0000 </r>
       <r>    8.4997    1.0000 </r>
       <r>    8.5349    1.0000 </r>
       <r>    9.7009    1.0000 </r>
       <r>   10.4303    1.0000 </r>
       <r>   27.9547    0.0000 </r>
       <r>   28.0835    0.0000 </r>
       <r>   31.3541    0.0000 </r>
       <r>   33.4864    0.0000 </r>
       <r>   35.7328    0.0000 </r>
       <r>   39.3008    0.0000 </r>
       <r>   41.0557    0.0000 </r>
       <r>   42.4648    0.0000 </r>
       <r>   42.7492    0.0000 </r>
       <r>   48.0055    0.0000 </r>
       <r>   50.0872    0.0000 </r>
       <r>   52.2873    0.0000 </r>
       <r>   52.5025    0.0000 </r>
       <r>   55.0414    0.0000 </r>
       <r>   61.3854    0.0000 </r>
      </set>
      <set comment="kpoint 27">
       <r>  -40.7600    1.0000 </r>
       <r>  -40.7196    1.0000 </r>
       <r>  -40.7104    1.0000 </r>
       <r>    2.2787    1.0000 </r>
       <r>    7.7900    1.0000 </r>
       <r>    8.3077    1.0000 </r>
       <r>    8.3371    1.0000 </r>
       <r>    9.9097    1.0000 </r>
       <r>   10.2634    1.0000 </r>
       <r>   27.2990    0.0000 </r>
       <r>   29.3290    0.0000 </r>
       <r>   31.4804    0.0000 </r>
       <r>   32.3267    0.0000 </r>
       <r>   38.1450    0.0000 </r>
       <r>   40.1742    0.0000 </r>
       <r>   40.4636    0.0000 </r>
       <r>   42.3802    0.0000 </r>
       <r>   43.7237    0.0000 </r>
       <r>   47.9248    0.0000 </r>
       <r>   49.6571    0.0000 </r>
       <r>   51.2235    0.0000 </r>
       <r>   52.5025    0.0000 </r>
       <r>   54.1507    0.0000 </r>
       <r>   60.9259    0.0000 </r>
      </set>
      <set comment="kpoint 28">
       <r>  -40.8101    1.0000 </r>
       <r>  -40.7422    1.0000 </r>
       <r>  -40.7408    1.0000 </r>
       <r>    3.0336    1.0000 </r>
       <r>    7.2984    1.0000 </r>
       <r>    8.7464    1.0000 </r>
       <r>    8.7649    1.0000 </r>
       <r>    9.3867    1.0000 </r>
       <r>   10.5360    1.0000 </r>
       <r>   28.4196    0.0000 </r>
       <r>   29.1710    0.0000 </r>
       <r>   31.0062    0.0000 </r>
       <r>   31.2712    0.0000 </r>
       <r>   37.4645    0.0000 </r>
       <r>   38.4088    0.0000 </r>
       <r>   38.9643    0.0000 </r>
       <r>   42.9594    0.0000 </r>
       <r>   43.9031    0.0000 </r>
       <r>   48.0373    0.0000 </r>
       <r>   51.1691    0.0000 </r>
       <r>   51.3086    0.0000 </r>
       <r>   52.5048    0.0000 </r>
       <r>   54.6129    0.0000 </r>
       <r>   63.0122    0.0000 </r>
      </set>
      <set comment="kpoint 29">
       <r>  -40.8678    1.0000 </r>
       <r>  -40.7638    1.0000 </r>
       <r>  -40.7512    1.0000 </r>
       <r>    3.7048    1.0000 </r>
       <r>    7.0262    1.0000 </r>
       <r>    8.6989    1.0000 </r>
       <r>    9.0709    1.0000 </r>
       <r>    9.4925    1.0000 </r>
       <r>   10.7440    1.0000 </r>
       <r>   27.9380    0.0000 </r>
       <r>   29.0952    0.0000 </r>
       <r>   30.5365    0.0000 </r>
       <r>   31.3664    0.0000 </r>
       <r>   35.7304    0.0000 </r>
       <r>   38.0204    0.0000 </r>
       <r>   38.5702    0.0000 </r>
       <r>   43.6586    0.0000 </r>
       <r>   45.4139    0.0000 </r>
       <r>   47.1313    0.0000 </r>
       <r>   50.7169    0.0000 </r>
       <r>   52.5090    0.0000 </r>
       <r>   52.9628    0.0000 </r>
       <r>   55.4702    0.0000 </r>
       <r>   62.6928    0.0000 </r>
      </set>
      <set comment="kpoint 30">
       <r>  -40.9450    1.0000 </r>
       <r>  -40.7839    1.0000 </r>
       <r>  -40.7650    1.0000 </r>
       <r>    4.5143    1.0000 </r>
       <r>    6.9069    1.0000 </r>
       <r>    8.3123    1.0000 </r>
       <r>    9.1554    1.0000 </r>
       <r>   10.2185    1.0000 </r>
       <r>   11.1695    1.0000 </r>
       <r>   25.5762    0.0000 </r>
       <r>   28.9076    0.0000 </r>
       <r>   30.0004    0.0000 </r>
       <r>   31.6320    0.0000 </r>
       <r>   35.7751    0.0000 </r>
       <r>   37.5437    0.0000 </r>
       <r>   39.0845    0.0000 </r>
       <r>   42.8493    0.0000 </r>
       <r>   46.8338    0.0000 </r>
       <r>   48.6756    0.0000 </r>
       <r>   50.4757    0.0000 </r>
       <r>   52.5110    0.0000 </r>
       <r>   53.3293    0.0000 </r>
       <r>   56.7924    0.0000 </r>
       <r>   61.2136    0.0000 </r>
      </set>
      <set comment="kpoint 31">
       <r>  -41.0215    1.0000 </r>
       <r>  -40.8029    1.0000 </r>
       <r>  -40.7804    1.0000 </r>
       <r>    5.1089    1.0000 </r>
       <r>    7.2070    1.0000 </r>
       <r>    7.9595    1.0000 </r>
       <r>    9.0404    1.0000 </r>
       <r>   11.1680    1.0000 </r>
       <r>   11.8471    0.0393 </r>
       <r>   22.7450    0.0000 </r>
       <r>   28.1232    0.0000 </r>
       <r>   29.1565    0.0000 </r>
       <r>   31.6366    0.0000 </r>
       <r>   36.8082    0.0000 </r>
       <r>   38.2110    0.0000 </r>
       <r>   39.9189    0.0000 </r>
       <r>   42.2632    0.0000 </r>
       <r>   47.5418    0.0000 </r>
       <r>   50.0018    0.0000 </r>
       <r>   52.4652    0.0000 </r>
       <r>   52.5140    0.0000 </r>
       <r>   52.6806    0.0000 </r>
       <r>   56.6151    0.0000 </r>
       <r>   59.5737    0.0000 </r>
      </set>
      <set comment="kpoint 32">
       <r>  -41.0804    1.0000 </r>
       <r>  -40.8207    1.0000 </r>
       <r>  -40.7906    1.0000 </r>
       <r>    5.2980    1.0000 </r>
       <r>    7.5327    1.0000 </r>
       <r>    8.1561    1.0000 </r>
       <r>    8.8715    1.0000 </r>
       <r>   11.7511    0.8305 </r>
       <r>   13.0675    0.0000 </r>
       <r>   19.9310    0.0000 </r>
       <r>   27.3766    0.0000 </r>
       <r>   28.7068    0.0000 </r>
       <r>   30.6719    0.0000 </r>
       <r>   38.0327    0.0000 </r>
       <r>   40.1048    0.0000 </r>
       <r>   40.4905    0.0000 </r>
       <r>   42.3826    0.0000 </r>
       <r>   48.8208    0.0000 </r>
       <r>   49.4492    0.0000 </r>
       <r>   51.2235    0.0000 </r>
       <r>   52.5072    0.0000 </r>
       <r>   55.6141    0.0000 </r>
       <r>   55.7192    0.0000 </r>
       <r>   58.5240    0.0000 </r>
      </set>
      <set comment="kpoint 33">
       <r>  -41.1106    1.0000 </r>
       <r>  -40.8365    1.0000 </r>
       <r>  -40.7913    1.0000 </r>
       <r>    5.3391    1.0000 </r>
       <r>    7.4405    1.0000 </r>
       <r>    8.7063    1.0000 </r>
       <r>    8.8748    1.0000 </r>
       <r>   11.8110    0.2311 </r>
       <r>   14.6119    0.0000 </r>
       <r>   17.6657    0.0000 </r>
       <r>   26.8719    0.0000 </r>
       <r>   28.6466    0.0000 </r>
       <r>   29.8510    0.0000 </r>
       <r>   38.7859    0.0000 </r>
       <r>   39.9320    0.0000 </r>
       <r>   42.8073    0.0000 </r>
       <r>   43.2269    0.0000 </r>
       <r>   47.9727    0.0000 </r>
       <r>   49.7271    0.0000 </r>
       <r>   50.6352    0.0000 </r>
       <r>   52.5120    0.0000 </r>
       <r>   53.7670    0.0000 </r>
       <r>   56.8178    0.0000 </r>
       <r>   59.2716    0.0000 </r>
      </set>
      <set comment="kpoint 34">
       <r>  -41.1078    1.0000 </r>
       <r>  -40.8455    1.0000 </r>
       <r>  -40.7834    1.0000 </r>
       <r>    5.3805    1.0000 </r>
       <r>    7.4696    1.0000 </r>
       <r>    8.6740    1.0000 </r>
       <r>    8.9738    1.0000 </r>
       <r>   11.4791    1.0000 </r>
       <r>   14.6312    0.0000 </r>
       <r>   17.8828    0.0000 </r>
       <r>   26.6311    0.0000 </r>
       <r>   28.4236    0.0000 </r>
       <r>   30.4610    0.0000 </r>
       <r>   38.1903    0.0000 </r>
       <r>   39.5313    0.0000 </r>
       <r>   42.7876    0.0000 </r>
       <r>   46.2548    0.0000 </r>
       <r>   46.6984    0.0000 </r>
       <r>   48.4220    0.0000 </r>
       <r>   51.2778    0.0000 </r>
       <r>   52.5144    0.0000 </r>
       <r>   52.8043    0.0000 </r>
       <r>   57.7602    0.0000 </r>
       <r>   58.5606    0.0000 </r>
      </set>
      <set comment="kpoint 35">
       <r>  -41.0740    1.0000 </r>
       <r>  -40.8443    1.0000 </r>
       <r>  -40.7694    1.0000 </r>
       <r>    5.4081    1.0000 </r>
       <r>    7.6366    1.0000 </r>
       <r>    8.3211    1.0000 </r>
       <r>    8.7626    1.0000 </r>
       <r>   10.8687    1.0000 </r>
       <r>   13.4949    0.0000 </r>
       <r>   20.1892    0.0000 </r>
       <r>   26.7148    0.0000 </r>
       <r>   28.5421    0.0000 </r>
       <r>   32.1085    0.0000 </r>
       <r>   36.1637    0.0000 </r>
       <r>   39.6178    0.0000 </r>
       <r>   42.3981    0.0000 </r>
       <r>   44.0582    0.0000 </r>
[...]
       <r>   42.2161    0.0000 </r>
       <r>   44.8957    0.0000 </r>
       <r>   47.4228    0.0000 </r>
       <r>   48.5220    0.0000 </r>
       <r>   51.7075    0.0000 </r>
       <r>   52.5144    0.0000 </r>
       <r>   53.7906    0.0000 </r>
       <r>   57.1847    0.0000 </r>
       <r>   58.6607    0.0000 </r>
      </set>
      <set comment="kpoint 277">
       <r>  -41.1016    1.0000 </r>
       <r>  -40.8634    1.0000 </r>
       <r>  -40.7947    1.0000 </r>
       <r>    5.5898    1.0000 </r>
       <r>    7.2752    1.0000 </r>
       <r>    8.7176    1.0000 </r>
       <r>    8.9013    1.0000 </r>
       <r>   11.5998    1.0000 </r>
       <r>   15.4588    0.0000 </r>
       <r>   17.3796    0.0000 </r>
       <r>   26.5054    0.0000 </r>
       <r>   27.8436    0.0000 </r>
       <r>   30.3471    0.0000 </r>
       <r>   38.1857    0.0000 </r>
       <r>   39.8769    0.0000 </r>
       <r>   42.9826    0.0000 </r>
       <r>   45.4772    0.0000 </r>
       <r>   46.1025    0.0000 </r>
       <r>   49.7991    0.0000 </r>
       <r>   51.4955    0.0000 </r>
       <r>   52.3549    0.0000 </r>
       <r>   52.5127    0.0000 </r>
       <r>   57.3366    0.0000 </r>
       <r>   58.8280    0.0000 </r>
      </set>
      <set comment="kpoint 278">
       <r>  -41.1212    1.0000 </r>
       <r>  -40.8245    1.0000 </r>
       <r>  -40.7844    1.0000 </r>
       <r>    5.1875    1.0000 </r>
       <r>    7.5545    1.0000 </r>
       <r>    8.5372    1.0000 </r>
       <r>    9.2422    1.0000 </r>
       <r>   11.7745    0.6160 </r>
       <r>   14.4841    0.0000 </r>
       <r>   17.3467    0.0000 </r>
       <r>   26.7676    0.0000 </r>
       <r>   29.0851    0.0000 </r>
       <r>   29.8258    0.0000 </r>
       <r>   39.2280    0.0000 </r>
       <r>   39.4813    0.0000 </r>
       <r>   42.7254    0.0000 </r>
       <r>   44.3827    0.0000 </r>
       <r>   47.7725    0.0000 </r>
       <r>   48.6099    0.0000 </r>
       <r>   51.6730    0.0000 </r>
       <r>   52.5157    0.0000 </r>
       <r>   53.1120    0.0000 </r>
       <r>   57.1151    0.0000 </r>
       <r>   58.8008    0.0000 </r>
      </set>
      <set comment="kpoint 279">
       <r>  -41.1434    1.0000 </r>
       <r>  -40.7665    1.0000 </r>
       <r>  -40.7665    1.0000 </r>
       <r>    4.5899    1.0000 </r>
       <r>    8.0310    1.0000 </r>
       <r>    8.0310    1.0000 </r>
       <r>   11.1138    1.0000 </r>
       <r>   11.7833    0.5191 </r>
       <r>   11.7833    0.5191 </r>
       <r>   17.8415    0.0000 </r>
       <r>   26.0624    0.0000 </r>
       <r>   30.7808    0.0000 </r>
       <r>   30.7808    0.0000 </r>
       <r>   39.6586    0.0000 </r>
       <r>   39.6586    0.0000 </r>
       <r>   40.7869    0.0000 </r>
       <r>   46.8373    0.0000 </r>
       <r>   46.8373    0.0000 </r>
       <r>   47.1865    0.0000 </r>
       <r>   52.5168    0.0000 </r>
       <r>   55.4221    0.0000 </r>
       <r>   55.4221    0.0000 </r>
       <r>   56.7405    0.0000 </r>
       <r>   56.9505    0.0000 </r>
      </set>
      <set comment="kpoint 280">
       <r>  -41.1412    1.0000 </r>
       <r>  -40.7837    1.0000 </r>
       <r>  -40.7708    1.0000 </r>
       <r>    4.7523    1.0000 </r>
       <r>    7.8921    1.0000 </r>
       <r>    8.1466    1.0000 </r>
       <r>   10.3206    1.0000 </r>
       <r>   11.7644    0.7194 </r>
       <r>   13.0213    0.0000 </r>
       <r>   17.5009    0.0000 </r>
       <r>   26.2900    0.0000 </r>
       <r>   30.0286    0.0000 </r>
       <r>   30.5941    0.0000 </r>
       <r>   39.5268    0.0000 </r>
       <r>   39.7149    0.0000 </r>
       <r>   41.6395    0.0000 </r>
       <r>   46.5216    0.0000 </r>
       <r>   46.9690    0.0000 </r>
       <r>   47.0727    0.0000 </r>
       <r>   52.5155    0.0000 </r>
       <r>   53.6553    0.0000 </r>
       <r>   54.1470    0.0000 </r>
       <r>   57.2056    0.0000 </r>
       <r>   57.6564    0.0000 </r>
      </set>
     </set>
    </set>
   </array>
  </eigenvalues>
  <separator name="orbital magnetization" >
   <v name="MAGDIPOLOUT">      0.00000000      0.00000000      0.00000000</v>
  </separator>
  <dos>
   <i name="efermi">     11.78495535 </i>
   <total>
    <array>
     <dimension dim="1">gridpoints</dimension>
     <dimension dim="2">spin</dimension>
     <field>energy</field>
     <field>total</field>
     <field>integrated</field>
     <set>
      <set comment="spin 1">
       <r>   -46.4300     0.0000     0.0000 </r>
       <r>   -46.0425     0.0000     0.0000 </r>
       <r>   -45.6551     0.0000     0.0000 </r>
       <r>   -45.2676     0.0000     0.0000 </r>
       <r>   -44.8802     0.0000     0.0000 </r>
       <r>   -44.4927     0.0000     0.0000 </r>
       <r>   -44.1052     0.0000     0.0000 </r>
       <r>   -43.7178     0.0000     0.0000 </r>
       <r>   -43.3303     0.0000     0.0000 </r>
       <r>   -42.9429     0.0000     0.0000 </r>
       <r>   -42.5554     0.0000     0.0000 </r>
       <r>   -42.1680     0.0000     0.0000 </r>
       <r>   -41.7805     0.0000     0.0000 </r>
       <r>   -41.3930     0.0000     0.0000 </r>
       <r>   -41.0056     3.8063     1.4748 </r>
       <r>   -40.6181    11.3485     5.9994 </r>
       <r>   -40.2307     0.0000     6.0000 </r>
       <r>   -39.8432     0.0000     6.0000 </r>
       <r>   -39.4558     0.0000     6.0000 </r>
       <r>   -39.0683     0.0000     6.0000 </r>
       <r>   -38.6808     0.0000     6.0000 </r>
       <r>   -38.2934     0.0000     6.0000 </r>
       <r>   -37.9059     0.0000     6.0000 </r>
       <r>   -37.5185     0.0000     6.0000 </r>
       <r>   -37.1310     0.0000     6.0000 </r>
       <r>   -36.7436     0.0000     6.0000 </r>
       <r>   -36.3561     0.0000     6.0000 </r>
       <r>   -35.9686     0.0000     6.0000 </r>
       <r>   -35.5812     0.0000     6.0000 </r>
       <r>   -35.1937     0.0000     6.0000 </r>
       <r>   -34.8063     0.0000     6.0000 </r>
       <r>   -34.4188     0.0000     6.0000 </r>
       <r>   -34.0314     0.0000     6.0000 </r>
       <r>   -33.6439     0.0000     6.0000 </r>
       <r>   -33.2564     0.0000     6.0000 </r>
       <r>   -32.8690     0.0000     6.0000 </r>
       <r>   -32.4815     0.0000     6.0000 </r>
       <r>   -32.0941     0.0000     6.0000 </r>
       <r>   -31.7066     0.0000     6.0000 </r>
       <r>   -31.3192     0.0000     6.0000 </r>
       <r>   -30.9317     0.0000     6.0000 </r>
       <r>   -30.5442     0.0000     6.0000 </r>
       <r>   -30.1568     0.0000     6.0000 </r>
       <r>   -29.7693     0.0000     6.0000 </r>
       <r>   -29.3819     0.0000     6.0000 </r>
       <r>   -28.9944     0.0000     6.0000 </r>
       <r>   -28.6070     0.0000     6.0000 </r>
       <r>   -28.2195     0.0000     6.0000 </r>
       <r>   -27.8320     0.0000     6.0000 </r>
       <r>   -27.4446     0.0000     6.0000 </r>
       <r>   -27.0571     0.0000     6.0000 </r>
       <r>   -26.6697     0.0000     6.0000 </r>
       <r>   -26.2822     0.0000     6.0000 </r>
       <r>   -25.8948     0.0000     6.0000 </r>
       <r>   -25.5073     0.0000     6.0000 </r>
       <r>   -25.1198     0.0000     6.0000 </r>
       <r>   -24.7324     0.0000     6.0000 </r>
       <r>   -24.3449     0.0000     6.0000 </r>
       <r>   -23.9575     0.0000     6.0000 </r>
       <r>   -23.5700     0.0000     6.0000 </r>
       <r>   -23.1826     0.0000     6.0000 </r>
       <r>   -22.7951     0.0000     6.0000 </r>
       <r>   -22.4076     0.0000     6.0000 </r>
       <r>   -22.0202     0.0000     6.0000 </r>
       <r>   -21.6327     0.0000     6.0000 </r>
       <r>   -21.2453     0.0000     6.0000 </r>
       <r>   -20.8578     0.0000     6.0000 </r>
       <r>   -20.4704     0.0000     6.0000 </r>
       <r>   -20.0829     0.0000     6.0000 </r>
       <r>   -19.6954     0.0000     6.0000 </r>
       <r>   -19.3080     0.0000     6.0000 </r>
       <r>   -18.9205     0.0000     6.0000 </r>
       <r>   -18.5331     0.0000     6.0000 </r>
       <r>   -18.1456     0.0000     6.0000 </r>
       <r>   -17.7582     0.0000     6.0000 </r>
       <r>   -17.3707     0.0000     6.0000 </r>
       <r>   -16.9832     0.0000     6.0000 </r>
       <r>   -16.5958     0.0000     6.0000 </r>
       <r>   -16.2083     0.0000     6.0000 </r>
       <r>   -15.8209     0.0000     6.0000 </r>
       <r>   -15.4334     0.0000     6.0000 </r>
       <r>   -15.0460     0.0000     6.0000 </r>
       <r>   -14.6585     0.0000     6.0000 </r>
       <r>   -14.2710     0.0000     6.0000 </r>
       <r>   -13.8836     0.0000     6.0000 </r>
       <r>   -13.4961     0.0000     6.0000 </r>
       <r>   -13.1087     0.0000     6.0000 </r>
       <r>   -12.7212     0.0000     6.0000 </r>
       <r>   -12.3338     0.0000     6.0000 </r>
       <r>   -11.9463     0.0000     6.0000 </r>
       <r>   -11.5588     0.0000     6.0000 </r>
       <r>   -11.1714     0.0000     6.0000 </r>
       <r>   -10.7839     0.0000     6.0000 </r>
       <r>   -10.3965     0.0000     6.0000 </r>
       <r>   -10.0090     0.0000     6.0000 </r>
       <r>    -9.6216     0.0000     6.0000 </r>
       <r>    -9.2341     0.0000     6.0000 </r>
       <r>    -8.8466     0.0000     6.0000 </r>
       <r>    -8.4592     0.0000     6.0000 </r>
       <r>    -8.0717     0.0000     6.0000 </r>
       <r>    -7.6843     0.0000     6.0000 </r>
       <r>    -7.2968     0.0000     6.0000 </r>
       <r>    -6.9094     0.0000     6.0000 </r>
       <r>    -6.5219     0.0000     6.0000 </r>
       <r>    -6.1344     0.0000     6.0000 </r>
       <r>    -5.7470     0.0000     6.0000 </r>
       <r>    -5.3595     0.0000     6.0000 </r>
       <r>    -4.9721     0.0000     6.0000 </r>
       <r>    -4.5846     0.0000     6.0000 </r>
       <r>    -4.1972     0.0000     6.0000 </r>
       <r>    -3.8097     0.0000     6.0000 </r>
       <r>    -3.4222     0.0000     6.0000 </r>
       <r>    -3.0348     0.0000     6.0000 </r>
       <r>    -2.6473     0.0000     6.0000 </r>
       <r>    -2.2599     0.0000     6.0000 </r>
       <r>    -1.8724     0.0000     6.0000 </r>
       <r>    -1.4849     0.0000     6.0000 </r>
       <r>    -1.0975     0.0000     6.0000 </r>
       <r>    -0.7100     0.0000     6.0000 </r>
       <r>    -0.3226     0.0000     6.0000 </r>
       <r>     0.0649     0.0000     6.0000 </r>
       <r>     0.4523     0.0000     6.0000 </r>
       <r>     0.8398     0.0000     6.0000 </r>
       <r>     1.2273     0.0000     6.0000 </r>
       <r>     1.6147     0.0000     6.0000 </r>
       <r>     2.0022     0.0189     6.0073 </r>
       <r>     2.3896     0.0490     6.0263 </r>
       <r>     2.7771     0.0695     6.0533 </r>
       <r>     3.1645     0.0832     6.0855 </r>
       <r>     3.5520     0.1004     6.1270 </r>
       <r>     3.9395     0.1494     6.1852 </r>
       <r>     4.3269     0.1879     6.2596 </r>
       <r>     4.7144     0.3344     6.3909 </r>
       <r>     5.1018     0.6955     6.6637 </r>
       <r>     5.4893     1.0735     7.0858 </r>
       <r>     5.8767     1.4360     7.6518 </r>
       <r>     6.2642     1.2391     8.1479 </r>
       <r>     6.6517     0.9650     8.5362 </r>
       <r>     7.0391     1.2175     9.0150 </r>
       <r>     7.4266     1.3593     9.5560 </r>
       <r>     7.8140     1.5009    10.1445 </r>
       <r>     8.2015     1.7645    10.8396 </r>
       <r>     8.5889     2.1628    11.6927 </r>
       <r>     8.9764     1.4030    12.2493 </r>
       <r>     9.3639     1.1227    12.6910 </r>
       <r>     9.7513     1.3042    13.2091 </r>
       <r>    10.1388     1.4151    13.7726 </r>
       <r>    10.5262     1.2361    14.2607 </r>
       <r>    10.9137     1.0670    14.6878 </r>
       <r>    11.3011     1.1963    15.1650 </r>
       <r>    11.6886     1.5659    15.7784 </r>
       <r>    12.0761     1.7332    16.4599 </r>
       <r>    12.4635     0.4309    16.6497 </r>
       <r>    12.8510     0.2864    16.7621 </r>
       <r>    13.2384     0.3323    16.8913 </r>
       <r>    13.6259     0.2349    16.9847 </r>
       <r>    14.0133     0.2639    17.0906 </r>
       <r>    14.4008     0.2722    17.1984 </r>
       <r>    14.7883     0.2910    17.3129 </r>
       <r>    15.1757     0.2248    17.4010 </r>
       <r>    15.5632     0.2738    17.5098 </r>
       <r>    15.9506     0.2095    17.5964 </r>
       <r>    16.3381     0.2314    17.6873 </r>
       <r>    16.7255     0.2290    17.7782 </r>
       <r>    17.1130     0.1473    17.8375 </r>
       <r>    17.5005     0.4263    18.0027 </r>
       <r>    17.8879     0.3784    18.1539 </r>
       <r>    18.2754     0.2354    18.2478 </r>
       <r>    18.6628     0.3217    18.3763 </r>
       <r>    19.0503     0.2707    18.4841 </r>
       <r>    19.4377     0.3737    18.6295 </r>
       <r>    19.8252     0.1906    18.7075 </r>
       <r>    20.2127     0.4496    18.8817 </r>
       <r>    20.6001     0.2203    18.9708 </r>
       <r>    20.9876     0.3119    19.0943 </r>
       <r>    21.3750     0.2697    19.2033 </r>
       <r>    21.7625     0.2843    19.3138 </r>
       <r>    22.1499     0.3979    19.4740 </r>
       <r>    22.5374     0.3141    19.5972 </r>
       <r>    22.9249     0.3912    19.7511 </r>
       <r>    23.3123     0.3849    19.9072 </r>
       <r>    23.6998     0.3248    20.0341 </r>
       <r>    24.0872     0.4969    20.2303 </r>
       <r>    24.4747     0.5021    20.4259 </r>
       <r>    24.8621     0.5183    20.6347 </r>
       <r>    25.2496     0.3921    20.7910 </r>
       <r>    25.6371     0.4771    20.9784 </r>
       <r>    26.0245     0.5982    21.2124 </r>
       <r>    26.4120     0.5038    21.4106 </r>
       <r>    26.7994     0.6785    21.6768 </r>
       <r>    27.1869     0.9689    22.0596 </r>
       <r>    27.5743     0.6122    22.3026 </r>
       <r>    27.9618     0.5450    22.5168 </r>
       <r>    28.3493     0.7676    22.8237 </r>
       <r>    28.7367     0.6646    23.0846 </r>
       <r>    29.1242     0.5369    23.2956 </r>
       <r>    29.5116     0.3568    23.4413 </r>
       <r>    29.8991     0.3292    23.5690 </r>
       <r>    30.2865     0.4085    23.7305 </r>
       <r>    30.6740     0.4994    23.9281 </r>
       <r>    31.0615     0.5800    24.1568 </r>
       <r>    31.4489     0.7895    24.4687 </r>
       <r>    31.8364     0.7754    24.7799 </r>
       <r>    32.2238     0.7292    25.0653 </r>
       <r>    32.6113     0.7060    25.3494 </r>
       <r>    32.9987     0.5164    25.5543 </r>
       <r>    33.3862     0.4452    25.7370 </r>
       <r>    33.7737     0.4342    25.9071 </r>
       <r>    34.1611     0.2598    26.0101 </r>
       <r>    34.5486     0.3591    26.1506 </r>
       <r>    34.9360     0.4751    26.3365 </r>
       <r>    35.3235     0.3723    26.4822 </r>
       <r>    35.7109     0.5169    26.6848 </r>
       <r>    36.0984     0.5825    26.9178 </r>
       <r>    36.4859     0.5065    27.1171 </r>
       <r>    36.8733     0.5286    27.3291 </r>
       <r>    37.2608     0.4641    27.5159 </r>
       <r>    37.6482     0.5821    27.7483 </r>
       <r>    38.0357     0.5058    27.9457 </r>
       <r>    38.4231     0.6668    28.2074 </r>
       <r>    38.8106     0.7878    28.5187 </r>
       <r>    39.1981     0.8859    28.8714 </r>
       <r>    39.5855     1.2078    29.3504 </r>
       <r>    39.9730     1.4711    29.9239 </r>
       <r>    40.3604     0.8221    30.2470 </r>
       <r>    40.7479     0.7748    30.5521 </r>
       <r>    41.1353     0.5099    30.7569 </r>
       <r>    41.5228     0.6434    31.0082 </r>
       <r>    41.9103     0.7275    31.2923 </r>
       <r>    42.2977     0.5289    31.4981 </r>
       <r>    42.6852     0.7109    31.7805 </r>
       <r>    43.0726     1.0722    32.1971 </r>
       <r>    43.4601     0.7488    32.4952 </r>
       <r>    43.8475     0.6084    32.7403 </r>
       <r>    44.2350     0.8257    33.0622 </r>
       <r>    44.6225     0.7020    33.3434 </r>
       <r>    45.0099     0.5373    33.5602 </r>
       <r>    45.3974     0.3812    33.7124 </r>
       <r>    45.7848     0.6005    33.9462 </r>
       <r>    46.1723     0.7381    34.2331 </r>
       <r>    46.5598     0.5643    34.4600 </r>
       <r>    46.9472     0.6988    34.7342 </r>
       <r>    47.3347     0.9641    35.1114 </r>
       <r>    47.7221     1.1017    35.5476 </r>
       <r>    48.1096     1.1655    36.0033 </r>
       <r>    48.4970     1.0436    36.4225 </r>
       <r>    48.8845     0.9001    36.7777 </r>
       <r>    49.2720     1.1185    37.2214 </r>
       <r>    49.6594     0.9122    37.5891 </r>
       <r>    50.0469     0.7524    37.8855 </r>
       <r>    50.4343     0.7443    38.1776 </r>
       <r>    50.8218     0.7109    38.4568 </r>
       <r>    51.2092     0.5424    38.6774 </r>
       <r>    51.5967     0.7900    38.9867 </r>
       <r>    51.9842     0.8858    39.3399 </r>
       <r>    52.3716     0.7215    39.6313 </r>
       <r>    52.7591     5.9192    41.9357 </r>
       <r>    53.1465     0.8182    42.2608 </r>
       <r>    53.5340     0.7832    42.5686 </r>
       <r>    53.9214     0.8573    42.9074 </r>
       <r>    54.3089     0.9002    43.2642 </r>
       <r>    54.6964     0.7095    43.5513 </r>
       <r>    55.0838     0.9104    43.9078 </r>
       <r>    55.4713     0.7792    44.2189 </r>
       <r>    55.8587     0.6358    44.4732 </r>
       <r>    56.2462     0.8156    44.7935 </r>
       <r>    56.6336     0.9179    45.1603 </r>
       <r>    57.0211     0.9173    45.5319 </r>
       <r>    57.4086     0.8271    45.8556 </r>
       <r>    57.7960     0.8459    46.1907 </r>
       <r>    58.1835     0.7617    46.4937 </r>
       <r>    58.5709     0.7041    46.7701 </r>
       <r>    58.9584     0.7698    47.0756 </r>
       <r>    59.3458     0.4359    47.2530 </r>
       <r>    59.7333     0.4686    47.4388 </r>
       <r>    60.1208     0.4158    47.6048 </r>
       <r>    60.5082     0.1396    47.6620 </r>
       <r>    60.8957     0.1340    47.7159 </r>
       <r>    61.2831     0.2792    47.8244 </r>
       <r>    61.6706     0.2183    47.9098 </r>
       <r>    62.0580     0.0500    47.9319 </r>
       <r>    62.4455     0.0523    47.9524 </r>
       <r>    62.8330     0.0325    47.9650 </r>
       <r>    63.2204     0.0502    47.9845 </r>
       <r>    63.6079     0.0000    47.9869 </r>
       <r>    63.9953     0.0113    47.9913 </r>
       <r>    64.3828     0.0113    47.9956 </r>
       <r>    64.7702     0.0113    48.0000 </r>
       <r>    65.1577     0.0000    48.0000 </r>
       <r>    65.5452     0.0000    48.0000 </r>
       <r>    65.9326     0.0000    48.0000 </r>
       <r>    66.3201     0.0000    48.0000 </r>
       <r>    66.7075     0.0000    48.0000 </r>
       <r>    67.0950     0.0000    48.0000 </r>
       <r>    67.4824     0.0000    48.0000 </r>
       <r>    67.8699     0.0000    48.0000 </r>
       <r>    68.2574     0.0000    48.0000 </r>
       <r>    68.6448     0.0000    48.0000 </r>
       <r>    69.0323     0.0000    48.0000 </r>
       <r>    69.4197     0.0000    48.0000 </r>
       <r>    69.8072     0.0000    48.0000 </r>
      </set>
     </set>
    </array>
   </total>
  </dos>
 </calculation>
 <structure name="finalpos" >
  <crystal>
   <varray name="basis" >
    <v>       0.00000000       1.97000000       1.97000000 </v>
    <v>       1.97000000       0.00000000       1.97000000 </v>
    <v>       1.97000000       1.97000000       0.00000000 </v>
   </varray>
   <i name="volume">     15.29074600 </i>
   <varray name="rec_basis" >
    <v>      -0.25380711       0.25380711       0.25380711 </v>
    <v>       0.25380711      -0.25380711       0.25380711 </v>
    <v>       0.25380711       0.25380711      -0.25380711 </v>
   </varray>
  </crystal>
  <varray name="positions" >
   <v>       0.00000000       0.00000000       0.00000000 </v>
  </varray>
 </structure>
</modeling>
