Pt-fcc                                  
   1.00000000000000     
     0.000000    2.097580    2.097580
     2.097580    0.000000    2.097580
     2.097580    2.097580    0.000000
   Pt
     1
Direct
  0.000000  0.000000  0.000000
 
   40   40   40
  161.66      161.50      160.51      157.45      150.85      139.65      123.80      104.38      83.407      63.220    
  45.793      32.240      22.662      16.330      12.097      9.2157      7.3277      6.1336      5.4150      5.0331    
  4.9135      5.0331      5.4150      6.1336      7.3277      9.2157      12.097      16.330      22.662      32.240    
  45.793      63.220      83.407      104.38      123.80      139.65      150.85      157.45      160.51      161.50    
  161.50      160.92      158.87      153.96      144.92      131.18      113.29      92.884      72.181      53.376    
  38.015      26.668      18.964      13.895      10.429      8.1132      6.6217      5.6971      5.1649      4.9222    
  4.9222      5.1649      5.6971      6.6217      8.1132      10.429      13.895      18.964      26.668      38.015    
  53.376      72.181      92.884      113.29      131.18      144.92      153.96      158.87      160.92      161.50    
  160.51      158.87      154.91      147.39      135.48      119.29      99.987      79.520      60.088      43.491    
  30.691      21.691      15.729      11.700      8.9526      7.1500      6.0065      5.3160      4.9477      4.8322    
  4.9478      5.3160      6.0065      7.1500      8.9526      11.700      15.729      21.691      30.691      43.491    
  60.088      79.520      99.987      119.29      135.48      147.39      154.91      158.87      160.51      160.92    
  157.45      153.96      147.39      136.89      122.29      104.35      84.691      65.330      48.146      34.364    
  24.314      17.511      12.956      9.8059      7.6985      6.3343      5.4827      4.9890      4.7626      4.7626    
  4.9890      5.4827      6.3343      7.6985      9.8059      12.956      17.511      24.314      34.364      48.146    
  65.330      84.691      104.35      122.29      136.89      147.39      153.96      157.45      158.87      158.87    
  150.85      144.92      135.48      122.29      105.82      87.355      68.654      51.525      37.311      26.586    
  19.124      14.110      10.621      8.2385      6.6661      5.6588      5.0436      4.7123      4.6077      4.7123    
  5.0436      5.6588      6.6661      8.2385      10.621      14.110      19.124      26.586      37.311      51.525    
  68.654      87.355      105.82      122.29      135.48      144.92      150.85      153.96      154.91      153.96    
  139.65      131.18      119.29      104.35      87.355      69.792      53.300      39.218      28.263      20.421    
  15.074      11.339      8.7349      6.9827      5.8349      5.1075      4.6794      4.4809      4.4809      4.6794    
  5.1075      5.8349      6.9827      8.7349      11.339      15.074      20.421      28.263      39.218      53.300    
  69.792      87.355      104.35      119.29      131.18      139.65      144.92      147.39      147.39      144.92    
  123.80      113.29      99.987      84.691      68.654      53.300      39.878      29.154      21.265      15.772    
  11.901      9.1502      7.2620      5.9990      5.1749      4.6614      4.3800      4.2903      4.3800      4.6614    
  5.1749      5.9990      7.2620      9.1502      11.901      15.772      21.265      29.154      39.878      53.300    
  68.654      84.691      99.987      113.29      123.80      131.18      135.48      136.89      135.48      131.18    
  104.38      92.884      79.520      65.330      51.525      39.218      29.154      21.558      16.140      12.261    
  9.4497      7.4816      6.1380      5.2388      4.6547      4.3028      4.1370      4.1370      4.3028      4.6547    
  5.2388      6.1380      7.4816      9.4497      12.261      16.140      21.558      29.154      39.218      51.525    
  65.330      79.520      92.884      104.38      113.29      119.29      122.29      122.29      119.29      113.29    
  83.407      72.181      60.088      48.146      37.311      28.263      21.265      16.140      12.384      9.6067    
  7.6221      6.2392      5.2917      4.6552      4.2469      4.0180      3.9441      4.0180      4.2469      4.6552    
  5.2917      6.2392      7.6221      9.6068      12.384      16.140      21.265      28.263      37.311      48.146    
  60.088      72.181      83.407      92.884      99.987      104.35      105.82      104.35      99.987      92.884    
  63.220      53.376      43.491      34.364      26.586      20.421      15.772      12.261      9.6067      7.6705    
  6.2925      5.3266      4.6585      4.2095      3.9310      3.7971      3.7971      3.9310      4.2095      4.6585    
  5.3266      6.2925      7.6705      9.6068      12.261      15.772      20.421      26.586      34.364      43.491    
  53.376      63.220      72.181      79.520      84.691      87.355      87.355      84.691      79.520      72.181    
  45.793      38.015      30.691      24.314      19.124      15.074      11.901      9.4497      7.6221      6.2925    
  5.3388      4.6612      4.1882      3.8741      3.6936      3.6346      3.6936      3.8741      4.1882      4.6612    
  5.3388      6.2925      7.6221      9.4497      11.901      15.074      19.124      24.314      30.691      38.015    
  45.793      53.376      60.088      65.330      68.654      69.792      68.654      65.330      60.088      53.376    
  32.240      26.668      21.691      17.511      14.110      11.339      9.1502      7.4816      6.2392      5.3266    
  4.6612      4.1813      3.8461      3.6320      3.5272      3.5272      3.6320      3.8461      4.1813      4.6612    
  5.3266      6.2392      7.4816      9.1502      11.339      14.110      17.511      21.691      26.668      32.240    
  38.015      43.491      48.146      51.525      53.300      53.300      51.525      48.146      43.491      38.015    
  22.662      18.964      15.729      12.956      10.621      8.7349      7.2620      6.1380      5.2917      4.6585    
  4.1882      3.8461      3.6115      3.4738      3.4282      3.4738      3.6115      3.8461      4.1882      4.6585    
  5.2917      6.1380      7.2620      8.7349      10.621      12.956      15.729      18.964      22.662      26.668    
  30.691      34.364      37.311      39.218      39.878      39.218      37.311      34.364      30.691      26.668    
  16.330      13.895      11.700      9.8059      8.2385      6.9827      5.9990      5.2388      4.6552      4.2095    
  3.8741      3.6320      3.4738      3.3953      3.3953      3.4738      3.6320      3.8741      4.2095      4.6552    
  5.2388      5.9990      6.9827      8.2385      9.8059      11.700      13.895      16.330      18.964      21.691    
  24.314      26.586      28.263      29.154      29.154      28.263      26.586      24.314      21.691      18.964    
  12.097      10.429      8.9526      7.6985      6.6661      5.8349      5.1749      4.6547      4.2469      3.9310    
  3.6936      3.5272      3.4282      3.3953      3.4282      3.5272      3.6936      3.9310      4.2469      4.6547    
  5.1749      5.8349      6.6661      7.6986      8.9526      10.429      12.097      13.895      15.729      17.511    
  19.124      20.421      21.265      21.558      21.265      20.421      19.124      17.511      15.729      13.895    
  9.2157      8.1132      7.1500      6.3343      5.6588      5.1075      4.6614      4.3028      4.0180      3.7971    
  3.6346      3.5272      3.4738      3.4738      3.5272      3.6346      3.7971      4.0180      4.3028      4.6614    
  5.1075      5.6588      6.3343      7.1501      8.1132      9.2157      10.429      11.700      12.956      14.110    
  15.074      15.772      16.140      16.140      15.772      15.074      14.110      12.956      11.700      10.429    
  7.3277      6.6217      6.0065      5.4827      5.0436      4.6794      4.3800      4.1370      3.9441      3.7971    
  3.6936      3.6320      3.6115      3.6320      3.6936      3.7971      3.9441      4.1370      4.3800      4.6794    
  5.0436      5.4827      6.0066      6.6217      7.3278      8.1132      8.9526      9.8059      10.621      11.339    
  11.901      12.261      12.384      12.261      11.901      11.339      10.621      9.8059      8.9526      8.1132    
  6.1336      5.6971      5.3160      4.9890      4.7123      4.4809      4.2903      4.1370      4.0180      3.9310    
  3.8741      3.8461      3.8461      3.8741      3.9310      4.0180      4.1370      4.2903      4.4809      4.7123    
  4.9890      5.3160      5.6971      6.1336      6.6217      7.1501      7.6986      8.2385      8.7349      9.1502    
  9.4497      9.6068      9.6068      9.4497      9.1502      8.7349      8.2385      7.6985      7.1500      6.6217    
  5.4150      5.1649      4.9477      4.7626      4.6077      4.4809      4.3800      4.3028      4.2469      4.2095    
  4.1882      4.1813      4.1882      4.2095      4.2469      4.3028      4.3800      4.4809      4.6077      4.7626    
  4.9477      5.1649      5.4150      5.6971      6.0066      6.3343      6.6661      6.9827      7.2620      7.4816    
  7.6221      7.6705      7.6221      7.4816      7.2620      6.9827      6.6661      6.3343      6.0065      5.6971    
  5.0331      4.9222      4.8322      4.7626      4.7123      4.6794      4.6614      4.6547      4.6552      4.6585    
  4.6612      4.6612      4.6585      4.6552      4.6547      4.6614      4.6794      4.7123      4.7626      4.8322    
  4.9222      5.0331      5.1649      5.3160      5.4827      5.6588      5.8349      5.9990      6.1380      6.2392    
  6.2925      6.2925      6.2392      6.1380      5.9990      5.8349      5.6588      5.4827      5.3160      5.1649    
  4.9135      4.9222      4.9478      4.9890      5.0436      5.1075      5.1749      5.2388      5.2917      5.3266    
  5.3388      5.3266      5.2917      5.2388      5.1749      5.1075      5.0436      4.9890      4.9477      4.9222    
  4.9135      4.9222      4.9477      4.9890      5.0436      5.1075      5.1749      5.2388      5.2917      5.3266    
  5.3388      5.3266      5.2917      5.2388      5.1749      5.1075      5.0436      4.9890      4.9478      4.9222    
  5.0331      5.1649      5.3160      5.4827      5.6588      5.8349      5.9990      6.1380      6.2392      6.2925    
  6.2925      6.2392      6.1380      5.9990      5.8349      5.6588      5.4827      5.3160      5.1649      5.0331    
  4.9222      4.8322      4.7626      4.7123      4.6794      4.6614      4.6547      4.6552      4.6585      4.6612    
  4.6612      4.6585      4.6552      4.6547      4.6614      4.6794      4.7123      4.7626      4.8322      4.9222    
  5.4150      5.6971      6.0065      6.3343      6.6661      6.9827      7.2620      7.4816      7.6221      7.6705    
  7.6221      7.4816      7.2620      6.9827      6.6661      6.3343      6.0066      5.6971      5.4150      5.1649    
  4.9477      4.7626      4.6077      4.4809      4.3800      4.3028      4.2469      4.2095      4.1882      4.1813    
  4.1882      4.2095      4.2469      4.3028      4.3800      4.4809      4.6077      4.7626      4.9477      5.1649    
  6.1336      6.6217      7.1500      7.6985      8.2385      8.7349      9.1502      9.4497      9.6068      9.6068    
  9.4497      9.1502      8.7349      8.2385      7.6986      7.1501      6.6217      6.1336      5.6971      5.3160    
  4.9890      4.7123      4.4809      4.2903      4.1370      4.0180      3.9310      3.8741      3.8461      3.8461    
  3.8741      3.9310      4.0180      4.1370      4.2903      4.4809      4.7123      4.9890      5.3160      5.6971    
  7.3277      8.1132      8.9526      9.8059      10.621      11.339      11.901      12.261      12.384      12.261    
  11.901      11.339      10.621      9.8059      8.9526      8.1132      7.3278      6.6217      6.0066      5.4827    
  5.0436      4.6794      4.3800      4.1370      3.9441      3.7971      3.6936      3.6320      3.6115      3.6320    
  3.6936      3.7971      3.9441      4.1370      4.3800      4.6794      5.0436      5.4827      6.0065      6.6217    
  9.2157      10.429      11.700      12.956      14.110      15.074      15.772      16.140      16.140      15.772    
  15.074      14.110      12.956      11.700      10.429      9.2157      8.1132      7.1501      6.3343      5.6588    
  5.1075      4.6614      4.3028      4.0180      3.7971      3.6346      3.5272      3.4738      3.4738      3.5272    
  3.6346      3.7971      4.0180      4.3028      4.6614      5.1075      5.6588      6.3343      7.1500      8.1132    
  12.097      13.895      15.729      17.511      19.124      20.421      21.265      21.558      21.265      20.421    
  19.124      17.511      15.729      13.895      12.097      10.429      8.9526      7.6986      6.6661      5.8349    
  5.1749      4.6547      4.2469      3.9310      3.6936      3.5272      3.4282      3.3953      3.4282      3.5272    
  3.6936      3.9310      4.2469      4.6547      5.1749      5.8349      6.6661      7.6985      8.9526      10.429    
  16.330      18.964      21.691      24.314      26.586      28.263      29.154      29.154      28.263      26.586    
  24.314      21.691      18.964      16.330      13.895      11.700      9.8059      8.2385      6.9827      5.9990    
  5.2388      4.6552      4.2095      3.8741      3.6320      3.4738      3.3953      3.3953      3.4738      3.6320    
  3.8741      4.2095      4.6552      5.2388      5.9990      6.9827      8.2385      9.8059      11.700      13.895    
  22.662      26.668      30.691      34.364      37.311      39.218      39.878      39.218      37.311      34.364    
  30.691      26.668      22.662      18.964      15.729      12.956      10.621      8.7349      7.2620      6.1380    
  5.2917      4.6585      4.1882      3.8461      3.6115      3.4738      3.4282      3.4738      3.6115      3.8461    
  4.1882      4.6585      5.2917      6.1380      7.2620      8.7349      10.621      12.956      15.729      18.964    
  32.240      38.015      43.491      48.146      51.525      53.300      53.300      51.525      48.146      43.491    
  38.015      32.240      26.668      21.691      17.511      14.110      11.339      9.1502      7.4816      6.2392    
  5.3266      4.6612      4.1813      3.8461      3.6320      3.5272      3.5272      3.6320      3.8461      4.1813    
  4.6612      5.3266      6.2392      7.4816      9.1502      11.339      14.110      17.511      21.691      26.668    
  45.793      53.376      60.088      65.330      68.654      69.792      68.654      65.330      60.088      53.376    
  45.793      38.015      30.691      24.314      19.124      15.074      11.901      9.4497      7.6221      6.2925    
  5.3388      4.6612      4.1882      3.8741      3.6936      3.6346      3.6936      3.8741      4.1882      4.6612    
  5.3388      6.2925      7.6221      9.4497      11.901      15.074      19.124      24.314      30.691      38.015    
  63.220      72.181      79.520      84.691      87.355      87.355      84.691      79.520      72.181      63.220    
  53.376      43.491      34.364      26.586      20.421      15.772      12.261      9.6068      7.6705      6.2925    
  5.3266      4.6585      4.2095      3.9310      3.7971      3.7971      3.9310      4.2095      4.6585      5.3266    
  6.2925      7.6705      9.6067      12.261      15.772      20.421      26.586      34.364      43.491      53.376    
  83.407      92.884      99.987      104.35      105.82      104.35      99.987      92.884      83.407      72.181    
  60.088      48.146      37.311      28.263      21.265      16.140      12.384      9.6068      7.6221      6.2392    
  5.2917      4.6552      4.2469      4.0180      3.9441      4.0180      4.2469      4.6552      5.2917      6.2392    
  7.6221      9.6067      12.384      16.140      21.265      28.263      37.311      48.146      60.088      72.181    
  104.38      113.29      119.29      122.29      122.29      119.29      113.29      104.38      92.884      79.520    
  65.330      51.525      39.218      29.154      21.558      16.140      12.261      9.4497      7.4816      6.1380    
  5.2388      4.6547      4.3028      4.1370      4.1370      4.3028      4.6547      5.2388      6.1380      7.4816    
  9.4497      12.261      16.140      21.558      29.154      39.218      51.525      65.330      79.520      92.884    
  123.80      131.18      135.48      136.89      135.48      131.18      123.80      113.29      99.987      84.691    
  68.654      53.300      39.878      29.154      21.265      15.772      11.901      9.1502      7.2620      5.9990    
  5.1749      4.6614      4.3800      4.2903      4.3800      4.6614      5.1749      5.9990      7.2620      9.1502    
  11.901      15.772      21.265      29.154      39.878      53.300      68.654      84.691      99.987      113.29    
  139.65      144.92      147.39      147.39      144.92      139.65      131.18      119.29      104.35      87.355    
  69.792      53.300      39.218      28.263      20.421      15.074      11.339      8.7349      6.9827      5.8349    
  5.1075      4.6794      4.4809      4.4809      4.6794      5.1075      5.8349      6.9827      8.7349      11.339    
  15.074      20.421      28.263      39.218      53.300      69.792      87.355      104.35      119.29      131.18    
  150.85      153.96      154.91      153.96      150.85      144.92      135.48      122.29      105.82      87.355    
  68.654      51.525      37.311      26.586      19.124      14.110      10.621      8.2385      6.6661      5.6588    
  5.0436      4.7123      4.6077      4.7123      5.0436      5.6588      6.6661      8.2385      10.621      14.110    
  19.124      26.586      37.311      51.525      68.654      87.355      105.82      122.29      135.48      144.92    
  157.45      158.87      158.87      157.45      153.96      147.39      136.89      122.29      104.35      84.691    
  65.330      48.146      34.364      24.314      17.511      12.956      9.8059      7.6985      6.3343      5.4827    
  4.9890      4.7626      4.7626      4.9890      5.4827      6.3343      7.6985      9.8059      12.956      17.511    
  24.314      34.364      48.146      65.330      84.691      104.35      122.29      136.89      147.39      153.96    
  160.51      160.92      160.51      158.87      154.91      147.39      135.48      119.29      99.987      79.520    
  60.088      43.491      30.691      21.691      15.729      11.700      8.9526      7.1500      6.0065      5.3160    
  4.9478      4.8322      4.9477      5.3160      6.0065      7.1500      8.9526      11.700      15.729      21.691    
  30.691      43.491      60.088      79.520      99.987      119.29      135.48      147.39      154.91      158.87    
  161.50      161.50      160.92      158.87      153.96      144.92      131.18      113.29      92.884      72.181    
  53.376      38.015      26.668      18.964      13.895      10.429      8.1132      6.6217      5.6971      5.1649    
  4.9222      4.9222      5.1649      5.6971      6.6217      8.1132      10.429      13.895      18.964      26.668    
  38.015      53.376      72.181      92.884      113.29      131.18      144.92      153.96      158.87      160.92    
  161.50      160.92      158.87      153.96      144.92      131.18      113.29      92.884      72.181      53.376    
  38.015      26.668      18.964      13.895      10.429      8.1132      6.6217      5.6971      5.1649      4.9222    
  4.9222      5.1649      5.6971      6.6217      8.1132      10.429      13.895      18.964      26.668      38.015    
  53.376      72.181      92.884      113.29      131.18      144.92      153.96      158.87      160.92      161.50    
  160.92      159.42      155.66      148.34      136.60      120.50      101.17      80.587      60.963      44.146    
  31.139      21.975      15.907      11.820      9.0338      7.2066      6.0485      5.3498      4.9777      4.8610    
  4.9777      5.3498      6.0485      7.2066      9.0338      11.820      15.907      21.975      31.139      44.146    
  60.963      80.587      101.17      120.50      136.60      148.34      155.66      159.42      160.92      161.27    
  158.87      155.66      149.41      139.19      124.75      106.80      86.936      67.222      49.607      35.395    
  24.986      17.930      13.232      9.9929      7.8265      6.4261      5.5538      5.0493      4.8183      4.8183    
  5.0493      5.5538      6.4261      7.8265      9.9929      13.232      17.930      24.986      35.395      49.607    
  67.222      86.936      106.80      124.75      139.19      149.41      155.66      158.87      160.12      160.12    
  153.96      148.34      139.19      126.15      109.63      90.863      71.655      53.893      39.029      27.734    
  19.847      14.576      10.937      8.4527      6.8159      5.7706      5.1345      4.7930      4.6855      4.7931    
  5.1345      5.7706      6.8159      8.4527      10.937      14.575      19.847      27.734      39.029      53.893    
  71.655      90.863      109.63      126.15      139.19      148.34      153.96      156.84      157.70      156.84    
  144.92      136.60      124.75      109.63      92.188      73.945      56.622      41.675      29.942      21.496    
  15.758      11.803      9.0482      7.1981      5.9908      5.2294      4.7835      4.5774      4.5775      4.7835    
  5.2294      5.9908      7.1981      9.0482      11.803      15.758      21.496      29.942      41.675      56.622    
  73.945      92.188      109.63      124.75      136.60      144.92      149.99      152.34      152.34      149.99    
  131.18      120.50      106.80      90.863      73.945      57.557      43.068      31.373      22.710      16.693    
  12.524      9.5712      7.5483      6.2014      5.3278      4.7870      4.4923      4.3987      4.4923      4.7870    
  5.3278      6.2014      7.5483      9.5712      12.524      16.693      22.710      31.373      43.068      57.557    
  73.945      90.863      106.80      120.50      131.18      138.59      142.87      144.26      142.87      138.59    
  113.29      101.17      86.936      71.655      56.622      43.068      31.868      23.354      17.295      13.043    
  9.9805      7.8409      6.3877      5.4221      4.7999      4.4280      4.2536      4.2536      4.4280      4.7999    
  5.4221      6.3877      7.8409      9.9805      13.043      17.295      23.354      31.868      43.068      56.622    
  71.655      86.936      101.17      113.29      122.61      128.84      131.93      131.93      128.84      122.61    
  92.884      80.587      67.222      53.893      41.675      31.373      23.354      17.503      13.314      10.242    
  8.0517      6.5344      5.5035      4.8177      4.3818      4.1392      4.0613      4.1392      4.3818      4.8177    
  5.5035      6.5344      8.0517      10.242      13.314      17.503      23.354      31.373      41.675      53.893    
  67.222      80.587      92.884      103.19      110.86      115.56      117.14      115.56      110.86      103.19    
  72.181      60.963      49.607      39.029      29.942      22.710      17.295      13.314      10.331      8.1621    
  6.6285      5.5636      4.8352      4.3510      4.0534      3.9113      3.9113      4.0534      4.3510      4.8352    
  5.5636      6.6285      8.1621      10.331      13.314      17.295      22.710      29.942      39.029      49.607    
  60.963      72.181      82.323      90.585      96.384      99.364      99.364      96.384      90.585      82.322    
  53.376      44.146      35.395      27.734      21.496      16.693      13.043      10.242      8.1621      6.6609    
  5.5955      4.8479      4.3325      3.9940      3.8008      3.7379      3.8008      3.9940      4.3325      4.8479    
  5.5955      6.6609      8.1621      10.242      13.043      16.693      21.496      27.734      35.395      44.146    
  53.376      62.321      70.197      76.326      80.203      81.529      80.203      76.326      70.197      62.321    
  38.015      31.139      24.986      19.847      15.758      12.524      9.9805      8.0517      6.6285      5.5955    
  4.8526      4.3240      3.9591      3.7281      3.6156      3.6156      3.7281      3.9591      4.3240      4.8526    
  5.5955      6.6285      8.0517      9.9805      12.524      15.758      19.847      24.986      31.139      38.015    
  45.114      51.817      57.495      61.607      63.764      63.764      61.607      57.495      51.817      45.114    
  26.668      21.975      17.930      14.576      11.803      9.5712      7.8409      6.5344      5.5636      4.8479    
  4.3240      3.9476      3.6920      3.5427      3.4935      3.5427      3.6920      3.9476      4.3240      4.8479    
  5.5636      6.5344      7.8409      9.5712      11.803      14.575      17.930      21.975      26.668      31.774    
  36.899      41.569      45.311      47.729      48.565      47.729      45.311      41.569      36.899      31.774    
  18.964      15.907      13.232      10.937      9.0482      7.5483      6.3877      5.5035      4.8352      4.3325    
  3.9591      3.6920      3.5185      3.4327      3.4327      3.5185      3.6920      3.9591      4.3325      4.8352    
  5.5035      6.3877      7.5483      9.0482      10.937      13.232      15.907      18.964      22.366      25.936    
  29.388      32.383      34.596      35.772      35.772      34.596      32.383      29.388      25.936      22.366    
  13.895      11.820      9.9929      8.4527      7.1981      6.2014      5.4221      4.8177      4.3510      3.9940    
  3.7281      3.5427      3.4327      3.3962      3.4327      3.5427      3.7281      3.9940      4.3510      4.8177    
  5.4221      6.2014      7.1981      8.4527      9.9929      11.820      13.895      16.145      18.508      20.867    
  23.034      24.791      25.938      26.337      25.938      24.791      23.034      20.867      18.508      16.145    
  10.429      9.0338      7.8265      6.8159      5.9908      5.3278      4.7999      4.3818      4.0534      3.8008    
  3.6156      3.4935      3.4327      3.4327      3.4935      3.6156      3.8008      4.0534      4.3818      4.7999    
  5.3278      5.9908      6.8159      7.8265      9.0339      10.429      11.973      13.599      15.210      16.711    
  17.994      18.938      19.440      19.440      18.938      17.994      16.711      15.210      13.599      11.973    
  8.1132      7.2066      6.4261      5.7706      5.2294      4.7870      4.4280      4.1392      3.9113      3.7379    
  3.6156      3.5427      3.5185      3.5427      3.6156      3.7379      3.9113      4.1392      4.4280      4.7870    
  5.2294      5.7706      6.4261      7.2066      8.1132      9.1316      10.228      11.348      12.422      13.371    
  14.115      14.591      14.754      14.591      14.115      13.371      12.422      11.348      10.228      9.1315    
  6.6217      6.0485      5.5538      5.1345      4.7835      4.4923      4.2536      4.0613      3.9113      3.8008    
  3.7281      3.6920      3.6920      3.7281      3.8008      3.9113      4.0613      4.2536      4.4923      4.7835    
  5.1345      5.5538      6.0485      6.6217      7.2692      7.9761      8.7149      9.4457      10.120      10.685    
  11.093      11.307      11.307      11.093      10.685      10.120      9.4457      8.7148      7.9761      7.2692    
  5.6971      5.3498      5.0493      4.7930      4.5774      4.3987      4.2536      4.1392      4.0534      3.9940    
  3.9591      3.9476      3.9591      3.9940      4.0534      4.1392      4.2536      4.3987      4.5774      4.7930    
  5.0493      5.3498      5.6971      6.0903      6.5237      6.9843      7.4518      7.8987      8.2934      8.6039    
  8.8027      8.8711      8.8027      8.6039      8.2934      7.8987      7.4518      6.9843      6.5237      6.0903    
  5.1649      4.9777      4.8183      4.6855      4.5775      4.4923      4.4280      4.3818      4.3510      4.3325    
  4.3240      4.3240      4.3325      4.3510      4.3818      4.4280      4.4923      4.5774      4.6855      4.8183    
  4.9777      5.1649      5.3801      5.6214      5.8835      6.1569      6.4276      6.6780      6.8888      7.0416    
  7.1220      7.1220      7.0416      6.8888      6.6780      6.4276      6.1569      5.8835      5.6214      5.3801    
  4.9222      4.8610      4.8183      4.7931      4.7835      4.7870      4.7999      4.8177      4.8352      4.8479    
  4.8526      4.8479      4.8352      4.8177      4.7999      4.7870      4.7835      4.7930      4.8183      4.8610    
  4.9222      5.0023      5.1009      5.2164      5.3449      5.4801      5.6132      5.7337      5.8301      5.8927    
  5.9143      5.8927      5.8301      5.7337      5.6132      5.4801      5.3449      5.2164      5.1009      5.0023    
  4.9222      4.9777      5.0493      5.1345      5.2294      5.3278      5.4221      5.5035      5.5636      5.5955    
  5.5955      5.5636      5.5035      5.4221      5.3278      5.2294      5.1345      5.0493      4.9777      4.9222    
  4.8839      4.8631      4.8596      4.8719      4.8978      4.9333      4.9731      5.0110      5.0407      5.0570    
  5.0570      5.0407      5.0110      4.9731      4.9333      4.8978      4.8719      4.8596      4.8632      4.8839    
  5.1649      5.3498      5.5538      5.7706      5.9908      6.2014      6.3877      6.5344      6.6285      6.6609    