Pt-fcc                                  
   1.00000000000000     
     0.000000    2.097580    2.097580
     2.097580    0.000000    2.097580
     2.097580    2.097580    0.000000
   Pt
     1
Direct
  0.000000  0.000000  0.000000
 
   40   40   40
 0.16166387812E+03 0.16149617543E+03 0.16050941848E+03 0.15745462689E+03 0.15085109682E+03
 0.13965425794E+03 0.12379677439E+03 0.10437692604E+03 0.83406523737E+02 0.63219966048E+02
 0.45792540604E+02 0.32239872536E+02 0.22662474253E+02 0.16330007385E+02 0.12097269683E+02
 0.92156859525E+01 0.73277436032E+01 0.61336092178E+01 0.54150192681E+01 0.50331240005E+01
 0.49135359928E+01 0.50331240005E+01 0.54150192681E+01 0.61336092178E+01 0.73277436032E+01
 0.92156859525E+01 0.12097269683E+02 0.16330007385E+02 0.22662474253E+02 0.32239872536E+02
 0.45792540604E+02 0.63219966048E+02 0.83406523737E+02 0.10437692604E+03 0.12379677439E+03
 0.13965425794E+03 0.15085109682E+03 0.15745462689E+03 0.16050941848E+03 0.16149617543E+03
 0.16149617543E+03 0.16091543884E+03 0.15886869286E+03 0.15396323754E+03 0.14491637248E+03
 0.13117630546E+03 0.11329418472E+03 0.92884253549E+02 0.72180679496E+02 0.53376102929E+02
 0.38015126772E+02 0.26668434694E+02 0.18964185874E+02 0.13894895354E+02 0.10428541035E+02
 0.81131949845E+01 0.66216961918E+01 0.56970638267E+01 0.51648868624E+01 0.49221771658E+01
 0.49221783077E+01 0.51648897114E+01 0.56970669413E+01 0.66216979393E+01 0.81131943635E+01
 0.10428538199E+02 0.13894891649E+02 0.18964183239E+02 0.26668434741E+02 0.38015129801E+02
 0.53376107436E+02 0.72180682306E+02 0.92884250788E+02 0.11329417314E+03 0.13117628385E+03
 0.14491634252E+03 0.15396320374E+03 0.15886866165E+03 0.16091541680E+03 0.16149616748E+03
 0.16050941848E+03 0.15886869286E+03 0.15491147530E+03 0.14738680678E+03 0.13548059542E+03
 0.11929384614E+03 0.99987311603E+02 0.79520303130E+02 0.60087792271E+02 0.43491034303E+02
 0.30691425439E+02 0.21691495575E+02 0.15728969454E+02 0.11699539295E+02 0.89525989897E+01
 0.71500359436E+01 0.60065392855E+01 0.53159546120E+01 0.49477463243E+01 0.48322206306E+01
 0.49477501243E+01 0.53159603047E+01 0.60065439578E+01 0.71500370765E+01 0.89525957346E+01
 0.11699533018E+02 0.15728963253E+02 0.21691492876E+02 0.30691428254E+02 0.43491041799E+02
 0.60087800418E+02 0.79520305607E+02 0.99987301900E+02 0.11929381999E+03 0.13548055292E+03
 0.14738675314E+03 0.15491141999E+03 0.15886864725E+03 0.16050939270E+03 0.16091541680E+03
 0.15745462689E+03 0.15396323754E+03 0.14738680678E+03 0.13688611680E+03 0.12228826032E+03
 0.10435458584E+03 0.84691449696E+02 0.65329670653E+02 0.48146026834E+02 0.34363626864E+02
 0.24314206021E+02 0.17511307623E+02 0.12955538245E+02 0.98058834964E+01 0.76985441000E+01
 0.63343232198E+01 0.54827198934E+01 0.49890338265E+01 0.47626434736E+01 0.47626459562E+01
 0.49890400423E+01 0.54827267219E+01 0.63343271178E+01 0.76985428211E+01 0.98058772826E+01
 0.12955529919E+02 0.17511301452E+02 0.24314205748E+02 0.34363633691E+02 0.48146038229E+02
 0.65329680603E+02 0.84691450419E+02 0.10435457055E+03 0.12228822597E+03 0.13688606592E+03
 0.14738674752E+03 0.15396318181E+03 0.15745458715E+03 0.15886864725E+03 0.15886866165E+03
 0.15085109682E+03 0.14491637248E+03 0.13548059542E+03 0.12228826032E+03 0.10582444208E+03
 0.87355002932E+02 0.68654213695E+02 0.51525241376E+02 0.37310907748E+02 0.26585809345E+02
 0.19124012282E+02 0.14109811749E+02 0.10620813850E+02 0.82385396053E+01 0.66660657614E+01
 0.56588172087E+01 0.50436139143E+01 0.47122919081E+01 0.46077222279E+01 0.47122964432E+01
 0.50436207567E+01 0.56588229254E+01 0.66660673193E+01 0.82385358614E+01 0.10620806252E+02
 0.14109803889E+02 0.19124008425E+02 0.26585812457E+02 0.37310917862E+02 0.51525254981E+02
 0.68654224543E+02 0.87355004063E+02 0.10582442836E+03 0.12228823073E+03 0.13548055392E+03
 0.14491632737E+03 0.15085105858E+03 0.15396318181E+03 0.15491141999E+03 0.15396320374E+03
 0.13965425794E+03 0.13117630546E+03 0.11929384614E+03 0.10435458584E+03 0.87355002932E+02
 0.69792062945E+02 0.53300051647E+02 0.39218241801E+02 0.28263086541E+02 0.20421233212E+02
 0.15074168972E+02 0.11338546454E+02 0.87349281138E+01 0.69826618144E+01 0.58348844644E+01
 0.51074768511E+01 0.46793920860E+01 0.44808868566E+01 0.44808887556E+01 0.46793968763E+01
 0.51074822329E+01 0.58348877580E+01 0.69826612136E+01 0.87349235780E+01 0.11338539913E+02
 0.15074163637E+02 0.20421232329E+02 0.28263091954E+02 0.39218253018E+02 0.53300065700E+02
 0.69792075278E+02 0.87355008942E+02 0.10435458254E+03 0.11929383346E+03 0.13117628644E+03
 0.13965423790E+03 0.14491632737E+03 0.14738674752E+03 0.14738675314E+03 0.14491634252E+03
 0.12379677439E+03 0.11329418472E+03 0.99987311603E+02 0.84691449696E+02 0.68654213695E+02
 0.53300051647E+02 0.39878071454E+02 0.29154244029E+02 0.21265070517E+02 0.15772053253E+02
 0.11901303069E+02 0.91502295030E+01 0.72619643384E+01 0.59990169617E+01 0.51749113719E+01
 0.46613515577E+01 0.43800083350E+01 0.42903377575E+01 0.43800103748E+01 0.46613547373E+01
 0.51749142640E+01 0.59990182052E+01 0.72619632403E+01 0.91502263862E+01 0.11901299276E+02
 0.15772050720E+02 0.21265071162E+02 0.29154249057E+02 0.39878080982E+02 0.53300064614E+02
 0.68654228191E+02 0.84691463619E+02 0.99987323185E+02 0.11329419305E+03 0.12379677949E+03
 0.13117628644E+03 0.13548055392E+03 0.13688606592E+03 0.13548055292E+03 0.13117628385E+03
 0.10437692604E+03 0.92884253549E+02 0.79520303130E+02 0.65329670653E+02 0.51525241376E+02
 0.39218241801E+02 0.29154244029E+02 0.21558039323E+02 0.16139657828E+02 0.12260556303E+02
 0.94497383101E+01 0.74815648132E+01 0.61380019275E+01 0.52388435631E+01 0.46546709387E+01
 0.43028288756E+01 0.41369871265E+01 0.41369873143E+01 0.43028294259E+01 0.46546717628E+01
 0.52388444956E+01 0.61380026826E+01 0.74815650761E+01 0.94497378228E+01 0.12260555104E+02
 0.16139656372E+02 0.21558038610E+02 0.29154245459E+02 0.39218246913E+02 0.51525251431E+02
 0.65329686102E+02 0.79520323367E+02 0.92884276720E+02 0.10437694926E+03 0.11329419305E+03
 0.11929383346E+03 0.12228823073E+03 0.12228822597E+03 0.11929381999E+03 0.11329417314E+03
 0.83406523737E+02 0.72180679496E+02 0.60087792271E+02 0.48146026834E+02 0.37310907748E+02
 0.28263086541E+02 0.21265070517E+02 0.16139657828E+02 0.12384069155E+02 0.96067488092E+01
 0.76221236544E+01 0.62391777367E+01 0.52916941523E+01 0.46551638982E+01 0.42468576693E+01
 0.40179652912E+01 0.39440816070E+01 0.40179642449E+01 0.42468562251E+01 0.46551630081E+01
 0.52916945556E+01 0.62391794881E+01 0.76221259960E+01 0.96067503935E+01 0.12384068689E+02
 0.16139654752E+02 0.21265065573E+02 0.28263081835E+02 0.37310906241E+02 0.48146031501E+02
 0.60087804835E+02 0.72180699715E+02 0.83406549050E+02 0.92884276720E+02 0.99987323185E+02
 0.10435458254E+03 0.10582442836E+03 0.10435457055E+03 0.99987301900E+02 0.92884250788E+02
 0.63219966048E+02 0.53376102929E+02 0.43491034303E+02 0.34363626864E+02 0.26585809345E+02
 0.20421233212E+02 0.15772053253E+02 0.12260556303E+02 0.96067488092E+01 0.76705244499E+01
 0.62925335310E+01 0.53266206883E+01 0.46585430109E+01 0.42094590066E+01 0.39309719889E+01
 0.37971401952E+01 0.37971391422E+01 0.39309693757E+01 0.42094562606E+01 0.46585416925E+01
 0.53266217454E+01 0.62925366620E+01 0.76705281270E+01 0.96067507340E+01 0.12260554415E+02
 0.15772046642E+02 0.20421222764E+02 0.26585797745E+02 0.34363617727E+02 0.43491031167E+02
 0.53376107802E+02 0.63219978576E+02 0.72180699715E+02 0.79520323367E+02 0.84691463619E+02
 0.87355008942E+02 0.87355004063E+02 0.84691450419E+02 0.79520305607E+02 0.72180682306E+02
 0.45792540604E+02 0.38015126772E+02 0.30691425439E+02 0.24314206021E+02 0.19124012282E+02
 0.15074168972E+02 0.11901303069E+02 0.94497383101E+01 0.76221236544E+01 0.62925335310E+01
 0.53388366949E+01 0.46612469812E+01 0.41881965826E+01 0.38741465349E+01 0.36936040373E+01
 0.36345582299E+01 0.36936017266E+01 0.38741430499E+01 0.41881936802E+01 0.46612462134E+01
 0.53388386391E+01 0.62925373664E+01 0.76221273279E+01 0.94497392203E+01 0.11901299031E+02
 0.15074159174E+02 0.19123997604E+02 0.24314189098E+02 0.30691409596E+02 0.38015115142E+02
 0.45792535019E+02 0.53376107802E+02 0.60087804835E+02 0.65329686102E+02 0.68654228191E+02
 0.69792075278E+02 0.68654224543E+02 0.65329680603E+02 0.60087800418E+02 0.53376107436E+02
 0.32239872536E+02 0.26668434694E+02 0.21691495575E+02 0.17511307623E+02 0.14109811749E+02
 0.11338546454E+02 0.91502295030E+01 0.74815648132E+01 0.62391777367E+01 0.53266206883E+01
 0.46612469812E+01 0.41813218349E+01 0.38461092363E+01 0.36319906150E+01 0.35272047107E+01
 0.35272035790E+01 0.36319877349E+01 0.38461059071E+01 0.41813196248E+01 0.46612470047E+01
 0.53266230977E+01 0.62391814989E+01 0.74815679675E+01 0.91502297746E+01 0.11338541936E+02
 0.14109801686E+02 0.17511292464E+02 0.21691477101E+02 0.26668415332E+02 0.32239854621E+02
 0.38015115142E+02 0.43491031167E+02 0.48146031501E+02 0.51525251431E+02 0.53300064614E+02
 0.53300065700E+02 0.51525254981E+02 0.48146038229E+02 0.43491041799E+02 0.38015129801E+02
 0.22662474253E+02 0.18964185874E+02 0.15728969454E+02 0.12955538245E+02 0.10620813850E+02
 0.87349281138E+01 0.72619643384E+01 0.61380019275E+01 0.52916941523E+01 0.46585430109E+01
 0.41881965826E+01 0.38461092363E+01 0.36115322042E+01 0.34737536205E+01 0.34282211396E+01
 0.34737520642E+01 0.36115297128E+01 0.38461068360E+01 0.41881953350E+01 0.46585436304E+01
 0.52916966828E+01 0.61380056811E+01 0.72619679438E+01 0.87349299541E+01 0.10620812281E+02
 0.12955532234E+02 0.15728958643E+02 0.18964170704E+02 0.22662456091E+02 0.26668415332E+02
 0.30691409596E+02 0.34363617727E+02 0.37310906241E+02 0.39218246913E+02 0.39878080982E+02
 0.39218253018E+02 0.37310917862E+02 0.34363633691E+02 0.30691428254E+02 0.26668434741E+02
 0.16330007385E+02 0.13894895354E+02 0.11699539295E+02 0.98058834964E+01 0.82385396053E+01
 0.69826618144E+01 0.59990169617E+01 0.52388435631E+01 0.46551638982E+01 0.42094590066E+01
 0.38741465349E+01 0.36319906150E+01 0.34737536205E+01 0.33953277950E+01 0.33953274065E+01
 0.34737525684E+01 0.36319892309E+01 0.38741453329E+01 0.42094586097E+01 0.46551649130E+01
 0.52388463848E+01 0.59990216128E+01 0.69826677333E+01 0.82385457202E+01 0.98058882488E+01
 0.11699540981E+02 0.13894892691E+02 0.16329999617E+02 0.18964170704E+02 0.21691477101E+02
 0.24314189098E+02 0.26585797745E+02 0.28263081835E+02 0.29154245459E+02 0.29154249057E+02
 0.28263091954E+02 0.26585812457E+02 0.24314205748E+02 0.21691492876E+02 0.18964183239E+02
 0.12097269683E+02 0.10428541035E+02 0.89525989897E+01 0.76985441000E+01 0.66660657614E+01
 0.58348844644E+01 0.51749113719E+01 0.46546709387E+01 0.42468576693E+01 0.39309719889E+01
 0.36936040373E+01 0.35272047107E+01 0.34282211396E+01 0.33953274065E+01 0.34282212796E+01
 0.35272048194E+01 0.36936039386E+01 0.39309717316E+01 0.42468576975E+01 0.46546721043E+01
 0.51749146787E+01 0.58348907295E+01 0.66660750962E+01 0.76985557220E+01 0.89526111984E+01
 0.10428551477E+02 0.12097276130E+02 0.13894892691E+02 0.15728958643E+02 0.17511292464E+02
 0.19123997604E+02 0.20421222764E+02 0.21265065573E+02 0.21558038610E+02 0.21265071162E+02
 0.20421232329E+02 0.19124008425E+02 0.17511301452E+02 0.15728963253E+02 0.13894891649E+02
 0.92156859525E+01 0.81131949845E+01 0.71500359436E+01 0.63343232198E+01 0.56588172087E+01
 0.51074768511E+01 0.46613515577E+01 0.43028288756E+01 0.40179652912E+01 0.37971401952E+01
 0.36345582299E+01 0.35272035790E+01 0.34737520642E+01 0.34737525684E+01 0.35272048194E+01
 0.36345595320E+01 0.37971408846E+01 0.40179651527E+01 0.43028284446E+01 0.46613521231E+01
 0.51074800373E+01 0.56588244375E+01 0.63343350118E+01 0.71500515625E+01 0.81132125309E+01
 0.92157027240E+01 0.10428551477E+02 0.11699540981E+02 0.12955532234E+02 0.14109801686E+02
 0.15074159174E+02 0.15772046642E+02 0.16139654752E+02 0.16139656372E+02 0.15772050720E+02
 0.15074163637E+02 0.14109803889E+02 0.12955529919E+02 0.11699533018E+02 0.10428538199E+02
 0.73277436032E+01 0.66216961918E+01 0.60065392855E+01 0.54827198934E+01 0.50436139143E+01
 0.46793920860E+01 0.43800083350E+01 0.41369871265E+01 0.39440816070E+01 0.37971391422E+01
 0.36936017266E+01 0.36319877349E+01 0.36115297128E+01 0.36319892309E+01 0.36936039386E+01
 0.37971408846E+01 0.39440818797E+01 0.41369856845E+01 0.43800059552E+01 0.46793904824E+01
 0.50436151492E+01 0.54827257090E+01 0.60065503924E+01 0.66217118582E+01 0.73277618559E+01
 0.81132125309E+01 0.89526111984E+01 0.98058882488E+01 0.10620812281E+02 0.11338541936E+02
 0.11901299031E+02 0.12260554415E+02 0.12384068689E+02 0.12260555104E+02 0.11901299276E+02
 0.11338539913E+02 0.10620806252E+02 0.98058772826E+01 0.89525957346E+01 0.81131943635E+01
 0.61336092178E+01 0.56970638267E+01 0.53159546120E+01 0.49890338265E+01 0.47122919081E+01
 0.44808868566E+01 0.42903377575E+01 0.41369873143E+01 0.40179642449E+01 0.39309693757E+01
 0.38741430499E+01 0.38461059071E+01 0.38461068360E+01 0.38741453329E+01 0.39309717316E+01
 0.40179651527E+01 0.41369856845E+01 0.42903334799E+01 0.44808809517E+01 0.47122863290E+01
 0.49890308048E+01 0.53159559416E+01 0.56970702997E+01 0.61336202751E+01 0.66217118582E+01
 0.71500515625E+01 0.76985557220E+01 0.82385457202E+01 0.87349299541E+01 0.91502297746E+01
 0.94497392203E+01 0.96067507340E+01 0.96067503935E+01 0.94497378228E+01 0.91502263862E+01
 0.87349235780E+01 0.82385358614E+01 0.76985428211E+01 0.71500370765E+01 0.66216979393E+01
 0.54150192681E+01 0.51648868624E+01 0.49477463243E+01 0.47626434736E+01 0.46077222279E+01
 0.44808887556E+01 0.43800103748E+01 0.43028294259E+01 0.42468562251E+01 0.42094562606E+01
 0.41881936802E+01 0.41813196248E+01 0.41881953350E+01 0.42094586097E+01 0.42468576975E+01
 0.43028284446E+01 0.43800059552E+01 0.44808809517E+01 0.46077121485E+01 0.47626330390E+01
 0.49477376735E+01 0.51648817001E+01 0.54150184523E+01 0.56970702997E+01 0.60065503924E+01
 0.63343350118E+01 0.66660750962E+01 0.69826677333E+01 0.72619679438E+01 0.74815679675E+01
 0.76221273279E+01 0.76705281270E+01 0.76221259960E+01 0.74815650761E+01 0.72619632403E+01
 0.69826612136E+01 0.66660673193E+01 0.63343271178E+01 0.60065439578E+01 0.56970669413E+01
 0.50331240005E+01 0.49221771658E+01 0.48322206306E+01 0.47626459562E+01 0.47122964432E+01
 0.46793968763E+01 0.46613547373E+01 0.46546717628E+01 0.46551630081E+01 0.46585416925E+01
 0.46612462134E+01 0.46612470047E+01 0.46585436304E+01 0.46551649130E+01 0.46546721043E+01
 0.46613521231E+01 0.46793904824E+01 0.47122863290E+01 0.47626330390E+01 0.48322064783E+01
 0.49221636277E+01 0.50331126980E+01 0.51648817001E+01 0.53159559416E+01 0.54827257090E+01
 0.56588244375E+01 0.58348907295E+01 0.59990216128E+01 0.61380056811E+01 0.62391814989E+01
 0.62925373664E+01 0.62925366620E+01 0.62391794881E+01 0.61380026826E+01 0.59990182052E+01
 0.58348877580E+01 0.56588229254E+01 0.54827267219E+01 0.53159603047E+01 0.51648897114E+01
 0.49135359928E+01 0.49221783077E+01 0.49477501243E+01 0.49890400423E+01 0.50436207567E+01
 0.51074822329E+01 0.51749142640E+01 0.52388444956E+01 0.52916945556E+01 0.53266217454E+01
 0.53388386391E+01 0.53266230977E+01 0.52916966828E+01 0.52388463848E+01 0.51749146787E+01
 0.51074800373E+01 0.50436151492E+01 0.49890308048E+01 0.49477376735E+01 0.49221636277E+01
 0.49135205119E+01 0.49221636277E+01 0.49477376735E+01 0.49890308048E+01 0.50436151492E+01
 0.51074800373E+01 0.51749146787E+01 0.52388463848E+01 0.52916966828E+01 0.53266230977E+01
 0.53388386391E+01 0.53266217454E+01 0.52916945556E+01 0.52388444956E+01 0.51749142640E+01
 0.51074822329E+01 0.50436207567E+01 0.49890400423E+01 0.49477501243E+01 0.49221783077E+01
 0.50331240005E+01 0.51648897114E+01 0.53159603047E+01 0.54827267219E+01 0.56588229254E+01
 0.58348877580E+01 0.59990182052E+01 0.61380026826E+01 0.62391794881E+01 0.62925366620E+01
 0.62925373664E+01 0.62391814989E+01 0.61380056811E+01 0.59990216128E+01 0.58348907295E+01
 0.56588244375E+01 0.54827257090E+01 0.53159559416E+01 0.51648817001E+01 0.50331126980E+01
 0.49221636277E+01 0.48322064783E+01 0.47626330390E+01 0.47122863290E+01 0.46793904824E+01
 0.46613521231E+01 0.46546721043E+01 0.46551649130E+01 0.46585436304E+01 0.46612470047E+01
 0.46612462134E+01 0.46585416925E+01 0.46551630081E+01 0.46546717628E+01 0.46613547373E+01
 0.46793968763E+01 0.47122964432E+01 0.47626459562E+01 0.48322206306E+01 0.49221771658E+01
 0.54150192681E+01 0.56970669413E+01 0.60065439578E+01 0.63343271178E+01 0.66660673193E+01
 0.69826612136E+01 0.72619632403E+01 0.74815650761E+01 0.76221259960E+01 0.76705281270E+01
 0.76221273279E+01 0.74815679675E+01 0.72619679438E+01 0.69826677333E+01 0.66660750962E+01
 0.63343350118E+01 0.60065503924E+01 0.56970702997E+01 0.54150184523E+01 0.51648817001E+01
 0.49477376735E+01 0.47626330390E+01 0.46077121485E+01 0.44808809517E+01 0.43800059552E+01
 0.43028284446E+01 0.42468576975E+01 0.42094586097E+01 0.41881953350E+01 0.41813196248E+01
 0.41881936802E+01 0.42094562606E+01 0.42468562251E+01 0.43028294259E+01 0.43800103748E+01
 0.44808887556E+01 0.46077222279E+01 0.47626434736E+01 0.49477463243E+01 0.51648868624E+01
 0.61336092178E+01 0.66216979393E+01 0.71500370765E+01 0.76985428211E+01 0.82385358614E+01
 0.87349235780E+01 0.91502263862E+01 0.94497378228E+01 0.96067503935E+01 0.96067507340E+01
 0.94497392203E+01 0.91502297746E+01 0.87349299541E+01 0.82385457202E+01 0.76985557220E+01
 0.71500515625E+01 0.66217118582E+01 0.61336202751E+01 0.56970702997E+01 0.53159559416E+01
 0.49890308048E+01 0.47122863290E+01 0.44808809517E+01 0.42903334799E+01 0.41369856845E+01
 0.40179651527E+01 0.39309717316E+01 0.38741453329E+01 0.38461068360E+01 0.38461059071E+01
 0.38741430499E+01 0.39309693757E+01 0.40179642449E+01 0.41369873143E+01 0.42903377575E+01
 0.44808868566E+01 0.47122919081E+01 0.49890338265E+01 0.53159546120E+01 0.56970638267E+01
 0.73277436032E+01 0.81131943635E+01 0.89525957346E+01 0.98058772826E+01 0.10620806252E+02
 0.11338539913E+02 0.11901299276E+02 0.12260555104E+02 0.12384068689E+02 0.12260554415E+02
 0.11901299031E+02 0.11338541936E+02 0.10620812281E+02 0.98058882488E+01 0.89526111984E+01
 0.81132125309E+01 0.73277618559E+01 0.66217118582E+01 0.60065503924E+01 0.54827257090E+01
 0.50436151492E+01 0.46793904824E+01 0.43800059552E+01 0.41369856845E+01 0.39440818797E+01
 0.37971408846E+01 0.36936039386E+01 0.36319892309E+01 0.36115297128E+01 0.36319877349E+01
 0.36936017266E+01 0.37971391422E+01 0.39440816070E+01 0.41369871265E+01 0.43800083350E+01
 0.46793920860E+01 0.50436139143E+01 0.54827198934E+01 0.60065392855E+01 0.66216961918E+01
 0.92156859525E+01 0.10428538199E+02 0.11699533018E+02 0.12955529919E+02 0.14109803889E+02
 0.15074163637E+02 0.15772050720E+02 0.16139656372E+02 0.16139654752E+02 0.15772046642E+02
 0.15074159174E+02 0.14109801686E+02 0.12955532234E+02 0.11699540981E+02 0.10428551477E+02
 0.92157027240E+01 0.81132125309E+01 0.71500515625E+01 0.63343350118E+01 0.56588244375E+01
 0.51074800373E+01 0.46613521231E+01 0.43028284446E+01 0.40179651527E+01 0.37971408846E+01
 0.36345595320E+01 0.35272048194E+01 0.34737525684E+01 0.34737520642E+01 0.35272035790E+01
 0.36345582299E+01 0.37971401952E+01 0.40179652912E+01 0.43028288756E+01 0.46613515577E+01
 0.51074768511E+01 0.56588172087E+01 0.63343232198E+01 0.71500359436E+01 0.81131949845E+01
 0.12097269683E+02 0.13894891649E+02 0.15728963253E+02 0.17511301452E+02 0.19124008425E+02
 0.20421232329E+02 0.21265071162E+02 0.21558038610E+02 0.21265065573E+02 0.20421222764E+02
 0.19123997604E+02 0.17511292464E+02 0.15728958643E+02 0.13894892691E+02 0.12097276130E+02
 0.10428551477E+02 0.89526111984E+01 0.76985557220E+01 0.66660750962E+01 0.58348907295E+01
 0.51749146787E+01 0.46546721043E+01 0.42468576975E+01 0.39309717316E+01 0.36936039386E+01
 0.35272048194E+01 0.34282212796E+01 0.33953274065E+01 0.34282211396E+01 0.35272047107E+01
 0.36936040373E+01 0.39309719889E+01 0.42468576693E+01 0.46546709387E+01 0.51749113719E+01
 0.58348844644E+01 0.66660657614E+01 0.76985441000E+01 0.89525989897E+01 0.10428541035E+02
 0.16330007385E+02 0.18964183239E+02 0.21691492876E+02 0.24314205748E+02 0.26585812457E+02
 0.28263091954E+02 0.29154249057E+02 0.29154245459E+02 0.28263081835E+02 0.26585797745E+02
 0.24314189098E+02 0.21691477101E+02 0.18964170704E+02 0.16329999617E+02 0.13894892691E+02
 0.11699540981E+02 0.98058882488E+01 0.82385457202E+01 0.69826677333E+01 0.59990216128E+01
 0.52388463848E+01 0.46551649130E+01 0.42094586097E+01 0.38741453329E+01 0.36319892309E+01
 0.34737525684E+01 0.33953274065E+01 0.33953277950E+01 0.34737536205E+01 0.36319906150E+01
 0.38741465349E+01 0.42094590066E+01 0.46551638982E+01 0.52388435631E+01 0.59990169617E+01
 0.69826618144E+01 0.82385396053E+01 0.98058834964E+01 0.11699539295E+02 0.13894895354E+02
 0.22662474253E+02 0.26668434741E+02 0.30691428254E+02 0.34363633691E+02 0.37310917862E+02
 0.39218253018E+02 0.39878080982E+02 0.39218246913E+02 0.37310906241E+02 0.34363617727E+02
 0.30691409596E+02 0.26668415332E+02 0.22662456091E+02 0.18964170704E+02 0.15728958643E+02
 0.12955532234E+02 0.10620812281E+02 0.87349299541E+01 0.72619679438E+01 0.61380056811E+01
 0.52916966828E+01 0.46585436304E+01 0.41881953350E+01 0.38461068360E+01 0.36115297128E+01
 0.34737520642E+01 0.34282211396E+01 0.34737536205E+01 0.36115322042E+01 0.38461092363E+01
 0.41881965826E+01 0.46585430109E+01 0.52916941523E+01 0.61380019275E+01 0.72619643384E+01
 0.87349281138E+01 0.10620813850E+02 0.12955538245E+02 0.15728969454E+02 0.18964185874E+02
 0.32239872536E+02 0.38015129801E+02 0.43491041799E+02 0.48146038229E+02 0.51525254981E+02
 0.53300065700E+02 0.53300064614E+02 0.51525251431E+02 0.48146031501E+02 0.43491031167E+02
 0.38015115142E+02 0.32239854621E+02 0.26668415332E+02 0.21691477101E+02 0.17511292464E+02
 0.14109801686E+02 0.11338541936E+02 0.91502297746E+01 0.74815679675E+01 0.62391814989E+01
 0.53266230977E+01 0.46612470047E+01 0.41813196248E+01 0.38461059071E+01 0.36319877349E+01
 0.35272035790E+01 0.35272047107E+01 0.36319906150E+01 0.38461092363E+01 0.41813218349E+01
 0.46612469812E+01 0.53266206883E+01 0.62391777367E+01 0.74815648132E+01 0.91502295030E+01
 0.11338546454E+02 0.14109811749E+02 0.17511307623E+02 0.21691495575E+02 0.26668434694E+02
 0.45792540604E+02 0.53376107436E+02 0.60087800418E+02 0.65329680603E+02 0.68654224543E+02
 0.69792075278E+02 0.68654228191E+02 0.65329686102E+02 0.60087804835E+02 0.53376107802E+02
 0.45792535019E+02 0.38015115142E+02 0.30691409596E+02 0.24314189098E+02 0.19123997604E+02
 0.15074159174E+02 0.11901299031E+02 0.94497392203E+01 0.76221273279E+01 0.62925373664E+01
 0.53388386391E+01 0.46612462134E+01 0.41881936802E+01 0.38741430499E+01 0.36936017266E+01
 0.36345582299E+01 0.36936040373E+01 0.38741465349E+01 0.41881965826E+01 0.46612469812E+01
 0.53388366949E+01 0.62925335310E+01 0.76221236544E+01 0.94497383101E+01 0.11901303069E+02
 0.15074168972E+02 0.19124012282E+02 0.24314206021E+02 0.30691425439E+02 0.38015126772E+02
 0.63219966048E+02 0.72180682306E+02 0.79520305607E+02 0.84691450419E+02 0.87355004063E+02
 0.87355008942E+02 0.84691463619E+02 0.79520323367E+02 0.72180699715E+02 0.63219978576E+02
 0.53376107802E+02 0.43491031167E+02 0.34363617727E+02 0.26585797745E+02 0.20421222764E+02
 0.15772046642E+02 0.12260554415E+02 0.96067507340E+01 0.76705281270E+01 0.62925366620E+01
 0.53266217454E+01 0.46585416925E+01 0.42094562606E+01 0.39309693757E+01 0.37971391422E+01
 0.37971401952E+01 0.39309719889E+01 0.42094590066E+01 0.46585430109E+01 0.53266206883E+01
 0.62925335310E+01 0.76705244499E+01 0.96067488092E+01 0.12260556303E+02 0.15772053253E+02
 0.20421233212E+02 0.26585809345E+02 0.34363626864E+02 0.43491034303E+02 0.53376102929E+02
 0.83406523737E+02 0.92884250788E+02 0.99987301900E+02 0.10435457055E+03 0.10582442836E+03
 0.10435458254E+03 0.99987323185E+02 0.92884276720E+02 0.83406549050E+02 0.72180699715E+02
 0.60087804835E+02 0.48146031501E+02 0.37310906241E+02 0.28263081835E+02 0.21265065573E+02
 0.16139654752E+02 0.12384068689E+02 0.96067503935E+01 0.76221259960E+01 0.62391794881E+01
 0.52916945556E+01 0.46551630081E+01 0.42468562251E+01 0.40179642449E+01 0.39440816070E+01
 0.40179652912E+01 0.42468576693E+01 0.46551638982E+01 0.52916941523E+01 0.62391777367E+01
 0.76221236544E+01 0.96067488092E+01 0.12384069155E+02 0.16139657828E+02 0.21265070517E+02
 0.28263086541E+02 0.37310907748E+02 0.48146026834E+02 0.60087792271E+02 0.72180679496E+02
 0.10437692604E+03 0.11329417314E+03 0.11929381999E+03 0.12228822597E+03 0.12228823073E+03
 0.11929383346E+03 0.11329419305E+03 0.10437694926E+03 0.92884276720E+02 0.79520323367E+02
 0.65329686102E+02 0.51525251431E+02 0.39218246913E+02 0.29154245459E+02 0.21558038610E+02
 0.16139656372E+02 0.12260555104E+02 0.94497378228E+01 0.74815650761E+01 0.61380026826E+01
 0.52388444956E+01 0.46546717628E+01 0.43028294259E+01 0.41369873143E+01 0.41369871265E+01
 0.43028288756E+01 0.46546709387E+01 0.52388435631E+01 0.61380019275E+01 0.74815648132E+01
 0.94497383101E+01 0.12260556303E+02 0.16139657828E+02 0.21558039323E+02 0.29154244029E+02
 0.39218241801E+02 0.51525241376E+02 0.65329670653E+02 0.79520303130E+02 0.92884253549E+02
 0.12379677439E+03 0.13117628385E+03 0.13548055292E+03 0.13688606592E+03 0.13548055392E+03
 0.13117628644E+03 0.12379677949E+03 0.11329419305E+03 0.99987323185E+02 0.84691463619E+02
 0.68654228191E+02 0.53300064614E+02 0.39878080982E+02 0.29154249057E+02 0.21265071162E+02
 0.15772050720E+02 0.11901299276E+02 0.91502263862E+01 0.72619632403E+01 0.59990182052E+01
 0.51749142640E+01 0.46613547373E+01 0.43800103748E+01 0.42903377575E+01 0.43800083350E+01
 0.46613515577E+01 0.51749113719E+01 0.59990169617E+01 0.72619643384E+01 0.91502295030E+01
 0.11901303069E+02 0.15772053253E+02 0.21265070517E+02 0.29154244029E+02 0.39878071454E+02
 0.53300051647E+02 0.68654213695E+02 0.84691449696E+02 0.99987311603E+02 0.11329418472E+03
 0.13965425794E+03 0.14491634252E+03 0.14738675314E+03 0.14738674752E+03 0.14491632737E+03
 0.13965423790E+03 0.13117628644E+03 0.11929383346E+03 0.10435458254E+03 0.87355008942E+02
 0.69792075278E+02 0.53300065700E+02 0.39218253018E+02 0.28263091954E+02 0.20421232329E+02
 0.15074163637E+02 0.11338539913E+02 0.87349235780E+01 0.69826612136E+01 0.58348877580E+01
 0.51074822329E+01 0.46793968763E+01 0.44808887556E+01 0.44808868566E+01 0.46793920860E+01
 0.51074768511E+01 0.58348844644E+01 0.69826618144E+01 0.87349281138E+01 0.11338546454E+02
 0.15074168972E+02 0.20421233212E+02 0.28263086541E+02 0.39218241801E+02 0.53300051647E+02
 0.69792062945E+02 0.87355002932E+02 0.10435458584E+03 0.11929384614E+03 0.13117630546E+03
 0.15085109682E+03 0.15396320374E+03 0.15491141999E+03 0.15396318181E+03 0.15085105858E+03
 0.14491632737E+03 0.13548055392E+03 0.12228823073E+03 0.10582442836E+03 0.87355004063E+02
 0.68654224543E+02 0.51525254981E+02 0.37310917862E+02 0.26585812457E+02 0.19124008425E+02
 0.14109803889E+02 0.10620806252E+02 0.82385358614E+01 0.66660673193E+01 0.56588229254E+01
 0.50436207567E+01 0.47122964432E+01 0.46077222279E+01 0.47122919081E+01 0.50436139143E+01
 0.56588172087E+01 0.66660657614E+01 0.82385396053E+01 0.10620813850E+02 0.14109811749E+02
 0.19124012282E+02 0.26585809345E+02 0.37310907748E+02 0.51525241376E+02 0.68654213695E+02
 0.87355002932E+02 0.10582444208E+03 0.12228826032E+03 0.13548059542E+03 0.14491637248E+03
 0.15745462689E+03 0.15886866165E+03 0.15886864725E+03 0.15745458715E+03 0.15396318181E+03
 0.14738674752E+03 0.13688606592E+03 0.12228822597E+03 0.10435457055E+03 0.84691450419E+02
 0.65329680603E+02 0.48146038229E+02 0.34363633691E+02 0.24314205748E+02 0.17511301452E+02
 0.12955529919E+02 0.98058772826E+01 0.76985428211E+01 0.63343271178E+01 0.54827267219E+01
 0.49890400423E+01 0.47626459562E+01 0.47626434736E+01 0.49890338265E+01 0.54827198934E+01
 0.63343232198E+01 0.76985441000E+01 0.98058834964E+01 0.12955538245E+02 0.17511307623E+02
 0.24314206021E+02 0.34363626864E+02 0.48146026834E+02 0.65329670653E+02 0.84691449696E+02
 0.10435458584E+03 0.12228826032E+03 0.13688611680E+03 0.14738680678E+03 0.15396323754E+03
 0.16050941848E+03 0.16091541680E+03 0.16050939270E+03 0.15886864725E+03 0.15491141999E+03
 0.14738675314E+03 0.13548055292E+03 0.11929381999E+03 0.99987301900E+02 0.79520305607E+02
 0.60087800418E+02 0.43491041799E+02 0.30691428254E+02 0.21691492876E+02 0.15728963253E+02
 0.11699533018E+02 0.89525957346E+01 0.71500370765E+01 0.60065439578E+01 0.53159603047E+01
 0.49477501243E+01 0.48322206306E+01 0.49477463243E+01 0.53159546120E+01 0.60065392855E+01
 0.71500359436E+01 0.89525989897E+01 0.11699539295E+02 0.15728969454E+02 0.21691495575E+02
 0.30691425439E+02 0.43491034303E+02 0.60087792271E+02 0.79520303130E+02 0.99987311603E+02
 0.11929384614E+03 0.13548059542E+03 0.14738680678E+03 0.15491147530E+03 0.15886869286E+03
 0.16149617543E+03 0.16149616748E+03 0.16091541680E+03 0.15886866165E+03 0.15396320374E+03
 0.14491634252E+03 0.13117628385E+03 0.11329417314E+03 0.92884250788E+02 0.72180682306E+02
 0.53376107436E+02 0.38015129801E+02 0.26668434741E+02 0.18964183239E+02 0.13894891649E+02
 0.10428538199E+02 0.81131943635E+01 0.66216979393E+01 0.56970669413E+01 0.51648897114E+01
 0.49221783077E+01 0.49221771658E+01 0.51648868624E+01 0.56970638267E+01 0.66216961918E+01
 0.81131949845E+01 0.10428541035E+02 0.13894895354E+02 0.18964185874E+02 0.26668434694E+02
 0.38015126772E+02 0.53376102929E+02 0.72180679496E+02 0.92884253549E+02 0.11329418472E+03
 0.13117630546E+03 0.14491637248E+03 0.15396323754E+03 0.15886869286E+03 0.16091543884E+03
 0.16149617543E+03 0.16091543884E+03 0.15886869286E+03 0.15396323754E+03 0.14491637248E+03
 0.13117630546E+03 0.11329418472E+03 0.92884253549E+02 0.72180679496E+02 0.53376102929E+02
 0.38015126772E+02 0.26668434694E+02 0.18964185874E+02 0.13894895354E+02 0.10428541035E+02
 0.81131949845E+01 0.66216961918E+01 0.56970638267E+01 0.51648868624E+01 0.49221771658E+01
 0.49221783077E+01 0.51648897114E+01 0.56970669413E+01 0.66216979393E+01 0.81131943635E+01
 0.10428538199E+02 0.13894891649E+02 0.18964183239E+02 0.26668434741E+02 0.38015129801E+02