   1   1   1   0
  0.1845803E+02  0.2966425E-09  0.2966425E-09  0.2966425E-09  0.5000000E-15
  1.000000000000000E-004
  CAR 
 Pt-fcc                                  
     60.45414338    -48.66625984  301      8.46890770      1.00000000
    -48.666  0.0000E+00  0.0000E+00
    -48.303  0.0000E+00  0.0000E+00
    -47.939  0.0000E+00  0.0000E+00
    -47.575  0.0000E+00  0.0000E+00
    -47.211  0.0000E+00  0.0000E+00
    -46.848  0.0000E+00  0.0000E+00
    -46.484  0.0000E+00  0.0000E+00
    -46.120  0.0000E+00  0.0000E+00
    -45.756  0.0000E+00  0.0000E+00
    -45.393  0.0000E+00  0.0000E+00
    -45.029  0.0000E+00  0.0000E+00
    -44.665  0.0000E+00  0.0000E+00
    -44.301  0.0000E+00  0.0000E+00
    -43.938  0.2796E-13  0.1017E-13
    -43.574  0.8561E-01  0.3114E-01
    -43.210  0.7806E-01  0.6000E-01
    -42.847  0.0000E+00  0.6000E-01
    -42.483  0.0000E+00  0.6000E-01
    -42.119  0.0000E+00  0.6000E-01
    -41.755  0.0000E+00  0.6000E-01
    -41.392  0.0000E+00  0.6000E-01
    -41.028  0.0000E+00  0.6000E-01
    -40.664  0.0000E+00  0.6000E-01
    -40.300  0.0000E+00  0.6000E-01
    -39.937  0.0000E+00  0.6000E-01
    -39.573  0.0000E+00  0.6000E-01
    -39.209  0.0000E+00  0.6000E-01
    -38.845  0.0000E+00  0.6000E-01
    -38.482  0.0000E+00  0.6000E-01
    -38.118  0.0000E+00  0.6000E-01
    -37.754  0.0000E+00  0.6000E-01
    -37.390  0.0000E+00  0.6000E-01
    -37.027  0.0000E+00  0.6000E-01
    -36.663  0.0000E+00  0.6000E-01
    -36.299  0.0000E+00  0.6000E-01
    -35.936  0.0000E+00  0.6000E-01
    -35.572  0.0000E+00  0.6000E-01
    -35.208  0.0000E+00  0.6000E-01
    -34.844  0.0000E+00  0.6000E-01
    -34.481  0.0000E+00  0.6000E-01
    -34.117  0.0000E+00  0.6000E-01
    -33.753  0.0000E+00  0.6000E-01
    -33.389  0.0000E+00  0.6000E-01
    -33.026  0.0000E+00  0.6000E-01
    -32.662  0.0000E+00  0.6000E-01
    -32.298  0.0000E+00  0.6000E-01
    -31.934  0.0000E+00  0.6000E-01
    -31.571  0.0000E+00  0.6000E-01
    -31.207  0.0000E+00  0.6000E-01
    -30.843  0.0000E+00  0.6000E-01
    -30.480  0.0000E+00  0.6000E-01
    -30.116  0.0000E+00  0.6000E-01
    -29.752  0.0000E+00  0.6000E-01
    -29.388  0.0000E+00  0.6000E-01
    -29.025  0.0000E+00  0.6000E-01
    -28.661  0.0000E+00  0.6000E-01
    -28.297  0.0000E+00  0.6000E-01
    -27.933  0.0000E+00  0.6000E-01
    -27.570  0.0000E+00  0.6000E-01
    -27.206  0.0000E+00  0.6000E-01
    -26.842  0.0000E+00  0.6000E-01
    -26.478  0.0000E+00  0.6000E-01
    -26.115  0.0000E+00  0.6000E-01
    -25.751  0.0000E+00  0.6000E-01
    -25.387  0.0000E+00  0.6000E-01
    -25.024  0.0000E+00  0.6000E-01
    -24.660  0.0000E+00  0.6000E-01
    -24.296  0.0000E+00  0.6000E-01
    -23.932  0.0000E+00  0.6000E-01
    -23.569  0.0000E+00  0.6000E-01
    -23.205  0.0000E+00  0.6000E-01
    -22.841  0.0000E+00  0.6000E-01
    -22.477  0.0000E+00  0.6000E-01
    -22.114  0.0000E+00  0.6000E-01
    -21.750  0.0000E+00  0.6000E-01
    -21.386  0.0000E+00  0.6000E-01
    -21.022  0.0000E+00  0.6000E-01
    -20.659  0.0000E+00  0.6000E-01
    -20.295  0.0000E+00  0.6000E-01
    -19.931  0.0000E+00  0.6000E-01
    -19.567  0.0000E+00  0.6000E-01
    -19.204  0.0000E+00  0.6000E-01
    -18.840  0.0000E+00  0.6000E-01
    -18.476  0.0000E+00  0.6000E-01
    -18.113  0.0000E+00  0.6000E-01
    -17.749  0.0000E+00  0.6000E-01
    -17.385  0.0000E+00  0.6000E-01
    -17.021  0.0000E+00  0.6000E-01
    -16.658  0.0000E+00  0.6000E-01
    -16.294  0.0000E+00  0.6000E-01
    -15.930  0.0000E+00  0.6000E-01
    -15.566  0.0000E+00  0.6000E-01
    -15.203  0.0000E+00  0.6000E-01
    -14.839  0.0000E+00  0.6000E-01
    -14.475  0.0000E+00  0.6000E-01
    -14.111  0.0000E+00  0.6000E-01
    -13.748  0.0000E+00  0.6000E-01
    -13.384  0.0000E+00  0.6000E-01
    -13.020  0.0000E+00  0.6000E-01
    -12.657  0.0000E+00  0.6000E-01
    -12.293  0.0000E+00  0.6000E-01
    -11.929  0.0000E+00  0.6000E-01
    -11.565  0.0000E+00  0.6000E-01
    -11.202  0.0000E+00  0.6000E-01
    -10.838  0.0000E+00  0.6000E-01
    -10.474  0.0000E+00  0.6000E-01
    -10.110  0.0000E+00  0.6000E-01
     -9.747  0.0000E+00  0.6000E-01
     -9.383  0.0000E+00  0.6000E-01
     -9.019  0.0000E+00  0.6000E-01
     -8.655  0.0000E+00  0.6000E-01
     -8.292  0.0000E+00  0.6000E-01
     -7.928  0.0000E+00  0.6000E-01
     -7.564  0.0000E+00  0.6000E-01
     -7.201  0.0000E+00  0.6000E-01
     -6.837  0.0000E+00  0.6000E-01
     -6.473  0.0000E+00  0.6000E-01
     -6.109  0.0000E+00  0.6000E-01
     -5.746  0.0000E+00  0.6000E-01
     -5.382  0.0000E+00  0.6000E-01
     -5.018  0.0000E+00  0.6000E-01
     -4.654  0.0000E+00  0.6000E-01
     -4.291  0.0000E+00  0.6000E-01
     -3.927  0.0000E+00  0.6000E-01
     -3.563  0.0000E+00  0.6000E-01
     -3.199  0.0000E+00  0.6000E-01
     -2.836  0.0000E+00  0.6000E-01
     -2.472  0.0000E+00  0.6000E-01
     -2.108  0.0000E+00  0.6000E-01
     -1.744  0.0000E+00  0.6000E-01
     -1.381  0.0000E+00  0.6000E-01
     -1.017  0.0000E+00  0.6000E-01
     -0.653  0.0000E+00  0.6000E-01
     -0.290  0.0000E+00  0.6000E-01
      0.074  0.0000E+00  0.6000E-01
      0.438  0.1061E-03  0.6004E-01
      0.802  0.4724E-03  0.6021E-01
      1.165  0.6616E-03  0.6045E-01
      1.529  0.9595E-03  0.6080E-01
      1.893  0.1645E-02  0.6140E-01
      2.257  0.1410E-02  0.6192E-01
      2.620  0.1950E-02  0.6263E-01
      2.984  0.3265E-02  0.6381E-01
      3.348  0.6271E-02  0.6610E-01
      3.712  0.1171E-01  0.7035E-01
      4.075  0.1567E-01  0.7612E-01
      4.439  0.1574E-01  0.8185E-01
      4.803  0.1285E-01  0.8655E-01
      5.166  0.1910E-01  0.9352E-01
      5.530  0.1989E-01  0.1009E+00
      5.894  0.2186E-01  0.1089E+00
      6.258  0.2863E-01  0.1193E+00
      6.621  0.1598E-01  0.1252E+00
      6.985  0.1761E-01  0.1316E+00
      7.349  0.1859E-01  0.1384E+00
      7.713  0.1625E-01  0.1444E+00
      8.076  0.1728E-01  0.1507E+00
      8.440  0.2367E-01  0.1593E+00
      8.804  0.1894E-01  0.1662E+00
      9.168  0.8375E-03  0.1666E+00
      9.531  0.4972E-02  0.1684E+00
      9.895  0.2964E-02  0.1694E+00
     10.259  0.3202E-02  0.1706E+00
     10.622  0.3162E-02  0.1718E+00
     10.986  0.3377E-02  0.1730E+00
     11.350  0.2172E-02  0.1738E+00
     11.714  0.3877E-02  0.1752E+00
     12.077  0.1971E-02  0.1759E+00
     12.441  0.2978E-02  0.1770E+00
     12.805  0.2989E-02  0.1781E+00
     13.169  0.5200E-02  0.1800E+00
     13.532  0.2333E-02  0.1809E+00
     13.896  0.4467E-02  0.1825E+00
     14.260  0.1746E-02  0.1832E+00
     14.624  0.3890E-02  0.1846E+00
     14.987  0.3883E-02  0.1860E+00
     15.351  0.4096E-02  0.1875E+00
     15.715  0.2904E-02  0.1886E+00
     16.079  0.2438E-02  0.1895E+00
     16.442  0.3412E-02  0.1907E+00
     16.806  0.3156E-02  0.1919E+00
     17.170  0.3002E-02  0.1930E+00
     17.533  0.6072E-02  0.1952E+00
     17.897  0.1310E-02  0.1957E+00
     18.261  0.4799E-02  0.1974E+00
     18.625  0.3063E-02  0.1986E+00
     18.988  0.3994E-02  0.2000E+00
     19.352  0.5228E-02  0.2019E+00
     19.716  0.5670E-02  0.2040E+00
     20.080  0.5813E-02  0.2061E+00
     20.443  0.2947E-02  0.2072E+00
     20.807  0.7027E-02  0.2098E+00
     21.171  0.6151E-02  0.2120E+00
     21.535  0.2731E-02  0.2130E+00
     21.898  0.6440E-02  0.2154E+00
     22.262  0.5156E-02  0.2173E+00
     22.626  0.5439E-02  0.2193E+00
     22.989  0.6428E-02  0.2216E+00
     23.353  0.7866E-02  0.2245E+00
     23.717  0.3809E-02  0.2259E+00
     24.081  0.7405E-02  0.2286E+00
     24.444  0.7982E-02  0.2315E+00
     24.808  0.5285E-02  0.2334E+00
     25.172  0.4508E-02  0.2351E+00
     25.536  0.4706E-02  0.2368E+00
     25.899  0.8209E-02  0.2398E+00
     26.263  0.5942E-02  0.2420E+00
     26.627  0.8456E-02  0.2451E+00
     26.991  0.1048E-01  0.2490E+00
     27.354  0.5484E-02  0.2510E+00
     27.718  0.9462E-02  0.2545E+00
     28.082  0.3640E-02  0.2558E+00
     28.445  0.6382E-02  0.2581E+00
     28.809  0.4904E-02  0.2599E+00
     29.173  0.3818E-02  0.2613E+00
     29.537  0.4781E-02  0.2631E+00
     29.900  0.4612E-02  0.2647E+00
     30.264  0.4168E-02  0.2663E+00
     30.628  0.4061E-02  0.2677E+00
     30.992  0.7358E-02  0.2704E+00
     31.355  0.2348E-02  0.2714E+00
     31.719  0.4622E-02  0.2730E+00
     32.083  0.7087E-02  0.2756E+00
     32.447  0.6754E-02  0.2781E+00
     32.810  0.6154E-02  0.2803E+00
     33.174  0.8913E-02  0.2836E+00
     33.538  0.9930E-02  0.2873E+00
     33.902  0.1084E-01  0.2912E+00
     34.265  0.1445E-01  0.2965E+00
     34.629  0.1122E-01  0.3006E+00
     34.993  0.7867E-02  0.3035E+00
     35.356  0.1047E-01  0.3073E+00
     35.720  0.8157E-02  0.3103E+00
     36.084  0.7946E-02  0.3132E+00
     36.448  0.1194E-01  0.3176E+00
     36.811  0.9008E-02  0.3209E+00
     37.175  0.8012E-02  0.3238E+00
     37.539  0.6259E-02  0.3262E+00
     37.903  0.6029E-02  0.3284E+00
     38.266  0.7485E-02  0.3311E+00
     38.630  0.6220E-02  0.3334E+00
     38.994  0.9291E-02  0.3368E+00
     39.358  0.6179E-02  0.3391E+00
     39.721  0.5363E-02  0.3411E+00
     40.085  0.9758E-02  0.3446E+00
     40.449  0.8649E-02  0.3478E+00
     40.812  0.1096E-01  0.3518E+00
     41.176  0.9397E-02  0.3552E+00
     41.540  0.1133E-01  0.3594E+00
     41.904  0.1493E-01  0.3649E+00
     42.267  0.1033E-01  0.3687E+00
     42.631  0.1357E-01  0.3737E+00
     42.995  0.7599E-02  0.3765E+00
     43.359  0.8435E-02  0.3796E+00
     43.722  0.6740E-02  0.3821E+00
     44.086  0.8360E-02  0.3851E+00
     44.450  0.1092E-01  0.3892E+00
     44.814  0.9060E-02  0.3925E+00
     45.177  0.7411E-02  0.3953E+00
     45.541  0.9352E-02  0.3987E+00
     45.905  0.7407E-02  0.4015E+00
     46.268  0.7296E-02  0.4041E+00
     46.632  0.1311E-01  0.4089E+00
     46.996  0.9628E-02  0.4125E+00
     47.360  0.1057E-01  0.4163E+00
     47.723  0.7620E-02  0.4191E+00
     48.087  0.8130E-02  0.4221E+00
     48.451  0.1156E-01  0.4263E+00
     48.815  0.8567E-02  0.4295E+00
     49.178  0.8026E-02  0.4324E+00
     49.542  0.9479E-02  0.4359E+00
     49.906  0.5206E-01  0.4548E+00
     50.270  0.1703E-01  0.4613E+00
     50.633  0.1002E-01  0.4649E+00
     50.997  0.6965E-02  0.4675E+00
     51.361  0.1028E-01  0.4712E+00
     51.725  0.6533E-02  0.4736E+00
     52.088  0.4972E-02  0.4755E+00
     52.452  0.2486E-02  0.4764E+00
     52.816  0.2935E-02  0.4775E+00
     53.179  0.2773E-02  0.4785E+00
     53.543  0.9816E-03  0.4789E+00
     53.907  0.1981E-02  0.4796E+00
     54.271  0.0000E+00  0.4796E+00
     54.634  0.1244E-03  0.4797E+00
     54.998  0.5354E-03  0.4799E+00
     55.362  0.3022E-07  0.4799E+00
     55.726  0.3299E-03  0.4800E+00
     56.089  0.0000E+00  0.4800E+00
     56.453  0.0000E+00  0.4800E+00
     56.817  0.0000E+00  0.4800E+00
     57.181  0.0000E+00  0.4800E+00
     57.544  0.0000E+00  0.4800E+00
     57.908  0.0000E+00  0.4800E+00
     58.272  0.0000E+00  0.4800E+00
     58.635  0.0000E+00  0.4800E+00
     58.999  0.0000E+00  0.4800E+00
     59.363  0.0000E+00  0.4800E+00
     59.727  0.0000E+00  0.4800E+00
     60.090  0.0000E+00  0.4800E+00
     60.454  0.0000E+00  0.4800E+00
     60.45414338    -48.66625984  301      8.46890770      1.00000000
    -48.666  0.0000E+00  0.0000E+00  0.0000E+00  0.0000E+00  0.0000E+00  0.0000E+00  0.0000E+00  0.0000E+00  0.0000E+00
    -48.303  0.0000E+00  0.0000E+00  0.0000E+00  0.0000E+00  0.0000E+00  0.0000E+00  0.0000E+00  0.0000E+00  0.0000E+00
    -47.939  0.0000E+00  0.0000E+00  0.0000E+00  0.0000E+00  0.0000E+00  0.0000E+00  0.0000E+00  0.0000E+00  0.0000E+00
    -47.575  0.0000E+00  0.0000E+00  0.0000E+00  0.0000E+00  0.0000E+00  0.0000E+00  0.0000E+00  0.0000E+00  0.0000E+00
    -47.211  0.0000E+00  0.0000E+00  0.0000E+00  0.0000E+00  0.0000E+00  0.0000E+00  0.0000E+00  0.0000E+00  0.0000E+00
    -46.848  0.0000E+00  0.0000E+00  0.0000E+00  0.0000E+00  0.0000E+00  0.0000E+00  0.0000E+00  0.0000E+00  0.0000E+00
    -46.484  0.0000E+00  0.0000E+00  0.0000E+00  0.0000E+00  0.0000E+00  0.0000E+00  0.0000E+00  0.0000E+00  0.0000E+00
    -46.120  0.0000E+00  0.0000E+00  0.0000E+00  0.0000E+00  0.0000E+00  0.0000E+00  0.0000E+00  0.0000E+00  0.0000E+00
    -45.756  0.0000E+00  0.0000E+00  0.0000E+00  0.0000E+00  0.0000E+00  0.0000E+00  0.0000E+00  0.0000E+00  0.0000E+00
    -45.393  0.0000E+00  0.0000E+00  0.0000E+00  0.0000E+00  0.0000E+00  0.0000E+00  0.0000E+00  0.0000E+00  0.0000E+00
    -45.029  0.0000E+00  0.0000E+00  0.0000E+00  0.0000E+00  0.0000E+00  0.0000E+00  0.0000E+00  0.0000E+00  0.0000E+00
    -44.665  0.0000E+00  0.0000E+00  0.0000E+00  0.0000E+00  0.0000E+00  0.0000E+00  0.0000E+00  0.0000E+00  0.0000E+00
    -44.301  0.0000E+00  0.0000E+00  0.0000E+00  0.0000E+00  0.0000E+00  0.0000E+00  0.0000E+00  0.0000E+00  0.0000E+00
    -43.938  0.3125E-17  0.9192E-12  0.9192E-12  0.9192E-12  0.1495E-17  0.1495E-17  0.9409E-18  0.1495E-17  0.9409E-18
    -43.574  0.4959E-04  0.2823E+01  0.2823E+01  0.2823E+01  0.1931E-04  0.1931E-04  0.8488E-05  0.1931E-04  0.8488E-05
    -43.210  0.1105E-04  0.2583E+01  0.2583E+01  0.2583E+01  0.1189E-04  0.1189E-04  0.7979E-05  0.1189E-04  0.7979E-05
    -42.847  0.0000E+00  0.0000E+00  0.0000E+00  0.0000E+00  0.0000E+00  0.0000E+00  0.0000E+00  0.0000E+00  0.0000E+00
    -42.483  0.0000E+00  0.0000E+00  0.0000E+00  0.0000E+00  0.0000E+00  0.0000E+00  0.0000E+00  0.0000E+00  0.0000E+00
    -42.119  0.0000E+00  0.0000E+00  0.0000E+00  0.0000E+00  0.0000E+00  0.0000E+00  0.0000E+00  0.0000E+00  0.0000E+00
    -41.755  0.0000E+00  0.0000E+00  0.0000E+00  0.0000E+00  0.0000E+00  0.0000E+00  0.0000E+00  0.0000E+00  0.0000E+00
    -41.392  0.0000E+00  0.0000E+00  0.0000E+00  0.0000E+00  0.0000E+00  0.0000E+00  0.0000E+00  0.0000E+00  0.0000E+00
    -41.028  0.0000E+00  0.0000E+00  0.0000E+00  0.0000E+00  0.0000E+00  0.0000E+00  0.0000E+00  0.0000E+00  0.0000E+00
    -40.664  0.0000E+00  0.0000E+00  0.0000E+00  0.0000E+00  0.0000E+00  0.0000E+00  0.0000E+00  0.0000E+00  0.0000E+00
    -40.300  0.0000E+00  0.0000E+00  0.0000E+00  0.0000E+00  0.0000E+00  0.0000E+00  0.0000E+00  0.0000E+00  0.0000E+00
    -39.937  0.0000E+00  0.0000E+00  0.0000E+00  0.0000E+00  0.0000E+00  0.0000E+00  0.0000E+00  0.0000E+00  0.0000E+00
    -39.573  0.0000E+00  0.0000E+00  0.0000E+00  0.0000E+00  0.0000E+00  0.0000E+00  0.0000E+00  0.0000E+00  0.0000E+00
    -39.209  0.0000E+00  0.0000E+00  0.0000E+00  0.0000E+00  0.0000E+00  0.0000E+00  0.0000E+00  0.0000E+00  0.0000E+00
    -38.845  0.0000E+00  0.0000E+00  0.0000E+00  0.0000E+00  0.0000E+00  0.0000E+00  0.0000E+00  0.0000E+00  0.0000E+00
    -38.482  0.0000E+00  0.0000E+00  0.0000E+00  0.0000E+00  0.0000E+00  0.0000E+00  0.0000E+00  0.0000E+00  0.0000E+00
    -38.118  0.0000E+00  0.0000E+00  0.0000E+00  0.0000E+00  0.0000E+00  0.0000E+00  0.0000E+00  0.0000E+00  0.0000E+00
    -37.754  0.0000E+00  0.0000E+00  0.0000E+00  0.0000E+00  0.0000E+00  0.0000E+00  0.0000E+00  0.0000E+00  0.0000E+00
    -37.390  0.0000E+00  0.0000E+00  0.0000E+00  0.0000E+00  0.0000E+00  0.0000E+00  0.0000E+00  0.0000E+00  0.0000E+00
    -37.027  0.0000E+00  0.0000E+00  0.0000E+00  0.0000E+00  0.0000E+00  0.0000E+00  0.0000E+00  0.0000E+00  0.0000E+00
    -36.663  0.0000E+00  0.0000E+00  0.0000E+00  0.0000E+00  0.0000E+00  0.0000E+00  0.0000E+00  0.0000E+00  0.0000E+00
    -36.299  0.0000E+00  0.0000E+00  0.0000E+00  0.0000E+00  0.0000E+00  0.0000E+00  0.0000E+00  0.0000E+00  0.0000E+00
    -35.936  0.0000E+00  0.0000E+00  0.0000E+00  0.0000E+00  0.0000E+00  0.0000E+00  0.0000E+00  0.0000E+00  0.0000E+00
    -35.572  0.0000E+00  0.0000E+00  0.0000E+00  0.0000E+00  0.0000E+00  0.0000E+00  0.0000E+00  0.0000E+00  0.0000E+00
    -35.208  0.0000E+00  0.0000E+00  0.0000E+00  0.0000E+00  0.0000E+00  0.0000E+00  0.0000E+00  0.0000E+00  0.0000E+00
    -34.844  0.0000E+00  0.0000E+00  0.0000E+00  0.0000E+00  0.0000E+00  0.0000E+00  0.0000E+00  0.0000E+00  0.0000E+00
    -34.481  0.0000E+00  0.0000E+00  0.0000E+00  0.0000E+00  0.0000E+00  0.0000E+00  0.0000E+00  0.0000E+00  0.0000E+00
    -34.117  0.0000E+00  0.0000E+00  0.0000E+00  0.0000E+00  0.0000E+00  0.0000E+00  0.0000E+00  0.0000E+00  0.0000E+00
    -33.753  0.0000E+00  0.0000E+00  0.0000E+00  0.0000E+00  0.0000E+00  0.0000E+00  0.0000E+00  0.0000E+00  0.0000E+00
    -33.389  0.0000E+00  0.0000E+00  0.0000E+00  0.0000E+00  0.0000E+00  0.0000E+00  0.0000E+00  0.0000E+00  0.0000E+00
    -33.026  0.0000E+00  0.0000E+00  0.0000E+00  0.0000E+00  0.0000E+00  0.0000E+00  0.0000E+00  0.0000E+00  0.0000E+00
    -32.662  0.0000E+00  0.0000E+00  0.0000E+00  0.0000E+00  0.0000E+00  0.0000E+00  0.0000E+00  0.0000E+00  0.0000E+00
    -32.298  0.0000E+00  0.0000E+00  0.0000E+00  0.0000E+00  0.0000E+00  0.0000E+00  0.0000E+00  0.0000E+00  0.0000E+00
    -31.934  0.0000E+00  0.0000E+00  0.0000E+00  0.0000E+00  0.0000E+00  0.0000E+00  0.0000E+00  0.0000E+00  0.0000E+00
    -31.571  0.0000E+00  0.0000E+00  0.0000E+00  0.0000E+00  0.0000E+00  0.0000E+00  0.0000E+00  0.0000E+00  0.0000E+00
    -31.207  0.0000E+00  0.0000E+00  0.0000E+00  0.0000E+00  0.0000E+00  0.0000E+00  0.0000E+00  0.0000E+00  0.0000E+00
    -30.843  0.0000E+00  0.0000E+00  0.0000E+00  0.0000E+00  0.0000E+00  0.0000E+00  0.0000E+00  0.0000E+00  0.0000E+00
    -30.480  0.0000E+00  0.0000E+00  0.0000E+00  0.0000E+00  0.0000E+00  0.0000E+00  0.0000E+00  0.0000E+00  0.0000E+00
    -30.116  0.0000E+00  0.0000E+00  0.0000E+00  0.0000E+00  0.0000E+00  0.0000E+00  0.0000E+00  0.0000E+00  0.0000E+00
    -29.752  0.0000E+00  0.0000E+00  0.0000E+00  0.0000E+00  0.0000E+00  0.0000E+00  0.0000E+00  0.0000E+00  0.0000E+00
    -29.388  0.0000E+00  0.0000E+00  0.0000E+00  0.0000E+00  0.0000E+00  0.0000E+00  0.0000E+00  0.0000E+00  0.0000E+00
    -29.025  0.0000E+00  0.0000E+00  0.0000E+00  0.0000E+00  0.0000E+00  0.0000E+00  0.0000E+00  0.0000E+00  0.0000E+00
    -28.661  0.0000E+00  0.0000E+00  0.0000E+00  0.0000E+00  0.0000E+00  0.0000E+00  0.0000E+00  0.0000E+00  0.0000E+00
    -28.297  0.0000E+00  0.0000E+00  0.0000E+00  0.0000E+00  0.0000E+00  0.0000E+00  0.0000E+00  0.0000E+00  0.0000E+00
    -27.933  0.0000E+00  0.0000E+00  0.0000E+00  0.0000E+00  0.0000E+00  0.0000E+00  0.0000E+00  0.0000E+00  0.0000E+00
    -27.570  0.0000E+00  0.0000E+00  0.0000E+00  0.0000E+00  0.0000E+00  0.0000E+00  0.0000E+00  0.0000E+00  0.0000E+00
    -27.206  0.0000E+00  0.0000E+00  0.0000E+00  0.0000E+00  0.0000E+00  0.0000E+00  0.0000E+00  0.0000E+00  0.0000E+00
    -26.842  0.0000E+00  0.0000E+00  0.0000E+00  0.0000E+00  0.0000E+00  0.0000E+00  0.0000E+00  0.0000E+00  0.0000E+00
    -26.478  0.0000E+00  0.0000E+00  0.0000E+00  0.0000E+00  0.0000E+00  0.0000E+00  0.0000E+00  0.0000E+00  0.0000E+00
    -26.115  0.0000E+00  0.0000E+00  0.0000E+00  0.0000E+00  0.0000E+00  0.0000E+00  0.0000E+00  0.0000E+00  0.0000E+00
    -25.751  0.0000E+00  0.0000E+00  0.0000E+00  0.0000E+00  0.0000E+00  0.0000E+00  0.0000E+00  0.0000E+00  0.0000E+00
    -25.387  0.0000E+00  0.0000E+00  0.0000E+00  0.0000E+00  0.0000E+00  0.0000E+00  0.0000E+00  0.0000E+00  0.0000E+00
    -25.024  0.0000E+00  0.0000E+00  0.0000E+00  0.0000E+00  0.0000E+00  0.0000E+00  0.0000E+00  0.0000E+00  0.0000E+00
    -24.660  0.0000E+00  0.0000E+00  0.0000E+00  0.0000E+00  0.0000E+00  0.0000E+00  0.0000E+00  0.0000E+00  0.0000E+00
    -24.296  0.0000E+00  0.0000E+00  0.0000E+00  0.0000E+00  0.0000E+00  0.0000E+00  0.0000E+00  0.0000E+00  0.0000E+00
    -23.932  0.0000E+00  0.0000E+00  0.0000E+00  0.0000E+00  0.0000E+00  0.0000E+00  0.0000E+00  0.0000E+00  0.0000E+00
    -23.569  0.0000E+00  0.0000E+00  0.0000E+00  0.0000E+00  0.0000E+00  0.0000E+00  0.0000E+00  0.0000E+00  0.0000E+00
    -23.205  0.0000E+00  0.0000E+00  0.0000E+00  0.0000E+00  0.0000E+00  0.0000E+00  0.0000E+00  0.0000E+00  0.0000E+00
    -22.841  0.0000E+00  0.0000E+00  0.0000E+00  0.0000E+00  0.0000E+00  0.0000E+00  0.0000E+00  0.0000E+00  0.0000E+00
    -22.477  0.0000E+00  0.0000E+00  0.0000E+00  0.0000E+00  0.0000E+00  0.0000E+00  0.0000E+00  0.0000E+00  0.0000E+00
    -22.114  0.0000E+00  0.0000E+00  0.0000E+00  0.0000E+00  0.0000E+00  0.0000E+00  0.0000E+00  0.0000E+00  0.0000E+00
    -21.750  0.0000E+00  0.0000E+00  0.0000E+00  0.0000E+00  0.0000E+00  0.0000E+00  0.0000E+00  0.0000E+00  0.0000E+00
    -21.386  0.0000E+00  0.0000E+00  0.0000E+00  0.0000E+00  0.0000E+00  0.0000E+00  0.0000E+00  0.0000E+00  0.0000E+00
    -21.022  0.0000E+00  0.0000E+00  0.0000E+00  0.0000E+00  0.0000E+00  0.0000E+00  0.0000E+00  0.0000E+00  0.0000E+00
    -20.659  0.0000E+00  0.0000E+00  0.0000E+00  0.0000E+00  0.0000E+00  0.0000E+00  0.0000E+00  0.0000E+00  0.0000E+00
    -20.295  0.0000E+00  0.0000E+00  0.0000E+00  0.0000E+00  0.0000E+00  0.0000E+00  0.0000E+00  0.0000E+00  0.0000E+00
    -19.931  0.0000E+00  0.0000E+00  0.0000E+00  0.0000E+00  0.0000E+00  0.0000E+00  0.0000E+00  0.0000E+00  0.0000E+00
    -19.567  0.0000E+00  0.0000E+00  0.0000E+00  0.0000E+00  0.0000E+00  0.0000E+00  0.0000E+00  0.0000E+00  0.0000E+00
    -19.204  0.0000E+00  0.0000E+00  0.0000E+00  0.0000E+00  0.0000E+00  0.0000E+00  0.0000E+00  0.0000E+00  0.0000E+00
    -18.840  0.0000E+00  0.0000E+00  0.0000E+00  0.0000E+00  0.0000E+00  0.0000E+00  0.0000E+00  0.0000E+00  0.0000E+00
    -18.476  0.0000E+00  0.0000E+00  0.0000E+00  0.0000E+00  0.0000E+00  0.0000E+00  0.0000E+00  0.0000E+00  0.0000E+00
    -18.113  0.0000E+00  0.0000E+00  0.0000E+00  0.0000E+00  0.0000E+00  0.0000E+00  0.0000E+00  0.0000E+00  0.0000E+00
    -17.749  0.0000E+00  0.0000E+00  0.0000E+00  0.0000E+00  0.0000E+00  0.0000E+00  0.0000E+00  0.0000E+00  0.0000E+00
    -17.385  0.0000E+00  0.0000E+00  0.0000E+00  0.0000E+00  0.0000E+00  0.0000E+00  0.0000E+00  0.0000E+00  0.0000E+00
    -17.021  0.0000E+00  0.0000E+00  0.0000E+00  0.0000E+00  0.0000E+00  0.0000E+00  0.0000E+00  0.0000E+00  0.0000E+00
    -16.658  0.0000E+00  0.0000E+00  0.0000E+00  0.0000E+00  0.0000E+00  0.0000E+00  0.0000E+00  0.0000E+00  0.0000E+00
    -16.294  0.0000E+00  0.0000E+00  0.0000E+00  0.0000E+00  0.0000E+00  0.0000E+00  0.0000E+00  0.0000E+00  0.0000E+00
    -15.930  0.0000E+00  0.0000E+00  0.0000E+00  0.0000E+00  0.0000E+00  0.0000E+00  0.0000E+00  0.0000E+00  0.0000E+00
    -15.566  0.0000E+00  0.0000E+00  0.0000E+00  0.0000E+00  0.0000E+00  0.0000E+00  0.0000E+00  0.0000E+00  0.0000E+00
    -15.203  0.0000E+00  0.0000E+00  0.0000E+00  0.0000E+00  0.0000E+00  0.0000E+00  0.0000E+00  0.0000E+00  0.0000E+00
    -14.839  0.0000E+00  0.0000E+00  0.0000E+00  0.0000E+00  0.0000E+00  0.0000E+00  0.0000E+00  0.0000E+00  0.0000E+00
    -14.475  0.0000E+00  0.0000E+00  0.0000E+00  0.0000E+00  0.0000E+00  0.0000E+00  0.0000E+00  0.0000E+00  0.0000E+00
    -14.111  0.0000E+00  0.0000E+00  0.0000E+00  0.0000E+00  0.0000E+00  0.0000E+00  0.0000E+00  0.0000E+00  0.0000E+00
    -13.748  0.0000E+00  0.0000E+00  0.0000E+00  0.0000E+00  0.0000E+00  0.0000E+00  0.0000E+00  0.0000E+00  0.0000E+00
    -13.384  0.0000E+00  0.0000E+00  0.0000E+00  0.0000E+00  0.0000E+00  0.0000E+00  0.0000E+00  0.0000E+00  0.0000E+00
    -13.020  0.0000E+00  0.0000E+00  0.0000E+00  0.0000E+00  0.0000E+00  0.0000E+00  0.0000E+00  0.0000E+00  0.0000E+00
    -12.657  0.0000E+00  0.0000E+00  0.0000E+00  0.0000E+00  0.0000E+00  0.0000E+00  0.0000E+00  0.0000E+00  0.0000E+00
    -12.293  0.0000E+00  0.0000E+00  0.0000E+00  0.0000E+00  0.0000E+00  0.0000E+00  0.0000E+00  0.0000E+00  0.0000E+00
    -11.929  0.0000E+00  0.0000E+00  0.0000E+00  0.0000E+00  0.0000E+00  0.0000E+00  0.0000E+00  0.0000E+00  0.0000E+00
    -11.565  0.0000E+00  0.0000E+00  0.0000E+00  0.0000E+00  0.0000E+00  0.0000E+00  0.0000E+00  0.0000E+00  0.0000E+00
    -11.202  0.0000E+00  0.0000E+00  0.0000E+00  0.0000E+00  0.0000E+00  0.0000E+00  0.0000E+00  0.0000E+00  0.0000E+00
    -10.838  0.0000E+00  0.0000E+00  0.0000E+00  0.0000E+00  0.0000E+00  0.0000E+00  0.0000E+00  0.0000E+00  0.0000E+00
    -10.474  0.0000E+00  0.0000E+00  0.0000E+00  0.0000E+00  0.0000E+00  0.0000E+00  0.0000E+00  0.0000E+00  0.0000E+00
    -10.110  0.0000E+00  0.0000E+00  0.0000E+00  0.0000E+00  0.0000E+00  0.0000E+00  0.0000E+00  0.0000E+00  0.0000E+00
     -9.747  0.0000E+00  0.0000E+00  0.0000E+00  0.0000E+00  0.0000E+00  0.0000E+00  0.0000E+00  0.0000E+00  0.0000E+00
     -9.383  0.0000E+00  0.0000E+00  0.0000E+00  0.0000E+00  0.0000E+00  0.0000E+00  0.0000E+00  0.0000E+00  0.0000E+00
     -9.019  0.0000E+00  0.0000E+00  0.0000E+00  0.0000E+00  0.0000E+00  0.0000E+00  0.0000E+00  0.0000E+00  0.0000E+00
     -8.655  0.0000E+00  0.0000E+00  0.0000E+00  0.0000E+00  0.0000E+00  0.0000E+00  0.0000E+00  0.0000E+00  0.0000E+00
     -8.292  0.0000E+00  0.0000E+00  0.0000E+00  0.0000E+00  0.0000E+00  0.0000E+00  0.0000E+00  0.0000E+00  0.0000E+00
     -7.928  0.0000E+00  0.0000E+00  0.0000E+00  0.0000E+00  0.0000E+00  0.0000E+00  0.0000E+00  0.0000E+00  0.0000E+00
     -7.564  0.0000E+00  0.0000E+00  0.0000E+00  0.0000E+00  0.0000E+00  0.0000E+00  0.0000E+00  0.0000E+00  0.0000E+00
     -7.201  0.0000E+00  0.0000E+00  0.0000E+00  0.0000E+00  0.0000E+00  0.0000E+00  0.0000E+00  0.0000E+00  0.0000E+00
     -6.837  0.0000E+00  0.0000E+00  0.0000E+00  0.0000E+00  0.0000E+00  0.0000E+00  0.0000E+00  0.0000E+00  0.0000E+00
     -6.473  0.0000E+00  0.0000E+00  0.0000E+00  0.0000E+00  0.0000E+00  0.0000E+00  0.0000E+00  0.0000E+00  0.0000E+00
     -6.109  0.0000E+00  0.0000E+00  0.0000E+00  0.0000E+00  0.0000E+00  0.0000E+00  0.0000E+00  0.0000E+00  0.0000E+00
     -5.746  0.0000E+00  0.0000E+00  0.0000E+00  0.0000E+00  0.0000E+00  0.0000E+00  0.0000E+00  0.0000E+00  0.0000E+00
     -5.382  0.0000E+00  0.0000E+00  0.0000E+00  0.0000E+00  0.0000E+00  0.0000E+00  0.0000E+00  0.0000E+00  0.0000E+00
     -5.018  0.0000E+00  0.0000E+00  0.0000E+00  0.0000E+00  0.0000E+00  0.0000E+00  0.0000E+00  0.0000E+00  0.0000E+00
     -4.654  0.0000E+00  0.0000E+00  0.0000E+00  0.0000E+00  0.0000E+00  0.0000E+00  0.0000E+00  0.0000E+00  0.0000E+00
     -4.291  0.0000E+00  0.0000E+00  0.0000E+00  0.0000E+00  0.0000E+00  0.0000E+00  0.0000E+00  0.0000E+00  0.0000E+00
     -3.927  0.0000E+00  0.0000E+00  0.0000E+00  0.0000E+00  0.0000E+00  0.0000E+00  0.0000E+00  0.0000E+00  0.0000E+00
     -3.563  0.0000E+00  0.0000E+00  0.0000E+00  0.0000E+00  0.0000E+00  0.0000E+00  0.0000E+00  0.0000E+00  0.0000E+00
     -3.199  0.0000E+00  0.0000E+00  0.0000E+00  0.0000E+00  0.0000E+00  0.0000E+00  0.0000E+00  0.0000E+00  0.0000E+00
     -2.836  0.0000E+00  0.0000E+00  0.0000E+00  0.0000E+00  0.0000E+00  0.0000E+00  0.0000E+00  0.0000E+00  0.0000E+00
     -2.472  0.0000E+00  0.0000E+00  0.0000E+00  0.0000E+00  0.0000E+00  0.0000E+00  0.0000E+00  0.0000E+00  0.0000E+00
     -2.108  0.0000E+00  0.0000E+00  0.0000E+00  0.0000E+00  0.0000E+00  0.0000E+00  0.0000E+00  0.0000E+00  0.0000E+00
     -1.744  0.0000E+00  0.0000E+00  0.0000E+00  0.0000E+00  0.0000E+00  0.0000E+00  0.0000E+00  0.0000E+00  0.0000E+00
     -1.381  0.0000E+00  0.0000E+00  0.0000E+00  0.0000E+00  0.0000E+00  0.0000E+00  0.0000E+00  0.0000E+00  0.0000E+00
     -1.017  0.0000E+00  0.0000E+00  0.0000E+00  0.0000E+00  0.0000E+00  0.0000E+00  0.0000E+00  0.0000E+00  0.0000E+00
     -0.653  0.0000E+00  0.0000E+00  0.0000E+00  0.0000E+00  0.0000E+00  0.0000E+00  0.0000E+00  0.0000E+00  0.0000E+00
     -0.290  0.0000E+00  0.0000E+00  0.0000E+00  0.0000E+00  0.0000E+00  0.0000E+00  0.0000E+00  0.0000E+00  0.0000E+00
      0.074  0.0000E+00  0.0000E+00  0.0000E+00  0.0000E+00  0.0000E+00  0.0000E+00  0.0000E+00  0.0000E+00  0.0000E+00
      0.438  0.3566E-02  0.3270E-05  0.3270E-05  0.3270E-05  0.2158E-06  0.2158E-06  0.1823E-10  0.2158E-06  0.1823E-10
      0.802  0.1563E-01  0.6333E-04  0.6333E-04  0.6333E-04  0.1479E-04  0.1479E-04  0.5212E-05  0.1479E-04  0.5212E-05
      1.165  0.2144E-01  0.1622E-03  0.1622E-03  0.1622E-03  0.5602E-04  0.5602E-04  0.4416E-04  0.5602E-04  0.4416E-04
      1.529  0.3032E-01  0.3333E-03  0.3333E-03  0.3333E-03  0.2961E-03  0.2961E-03  0.7068E-04  0.2961E-03  0.7068E-04
      1.893  0.4983E-01  0.8073E-03  0.8073E-03  0.8073E-03  0.8700E-03  0.8700E-03  0.5665E-03  0.8700E-03  0.5665E-03
      2.257  0.4035E-01  0.8150E-03  0.8150E-03  0.8150E-03  0.2099E-02  0.2099E-02  0.4096E-03  0.2099E-02  0.4096E-03
      2.620  0.5217E-01  0.1268E-02  0.1268E-02  0.1268E-02  0.3515E-02  0.3515E-02  0.2525E-02  0.3515E-02  0.2525E-02
      2.984  0.7448E-01  0.1846E-02  0.1846E-02  0.1846E-02  0.1769E-01  0.1769E-01  0.2601E-02  0.1769E-01  0.2601E-02
      3.348  0.1055E+00  0.2601E-02  0.2601E-02  0.2601E-02  0.5907E-01  0.5907E-01  0.1296E-01  0.5907E-01  0.1296E-01
      3.712  0.1260E+00  0.3942E-02  0.3942E-02  0.3942E-02  0.9138E-01  0.9138E-01  0.1264E+00  0.9138E-01  0.1264E+00
      4.075  0.9633E-01  0.4222E-02  0.4222E-02  0.4222E-02  0.2019E+00  0.2019E+00  0.1388E+00  0.2019E+00  0.1388E+00
      4.439  0.5340E-01  0.4415E-02  0.4415E-02  0.4415E-02  0.2287E+00  0.2287E+00  0.1503E+00  0.2287E+00  0.1503E+00
      4.803  0.1292E-01  0.4682E-02  0.4682E-02  0.4682E-02  0.1947E+00  0.1947E+00  0.1388E+00  0.1947E+00  0.1388E+00
      5.166  0.9543E-02  0.7871E-02  0.7871E-02  0.7871E-02  0.2621E+00  0.2621E+00  0.2636E+00  0.2621E+00  0.2636E+00
      5.530  0.1755E-01  0.7388E-02  0.7388E-02  0.7388E-02  0.3163E+00  0.3163E+00  0.2328E+00  0.3163E+00  0.2328E+00
      5.894  0.2304E-01  0.7903E-02  0.7903E-02  0.7903E-02  0.3269E+00  0.3269E+00  0.3062E+00  0.3269E+00  0.3062E+00
      6.258  0.2760E-01  0.1085E-01  0.1085E-01  0.1085E-01  0.4898E+00  0.4898E+00  0.3327E+00  0.4898E+00  0.3327E+00
      6.621  0.1341E-01  0.6745E-02  0.6745E-02  0.6745E-02  0.2362E+00  0.2362E+00  0.2482E+00  0.2362E+00  0.2482E+00
      6.985  0.1298E-01  0.5917E-02  0.5917E-02  0.5917E-02  0.1877E+00  0.1877E+00  0.4108E+00  0.1877E+00  0.4108E+00
      7.349  0.1108E-01  0.4771E-02  0.4771E-02  0.4771E-02  0.1564E+00  0.1564E+00  0.5242E+00  0.1564E+00  0.5242E+00
      7.713  0.1065E-01  0.3170E-02  0.3170E-02  0.3170E-02  0.1765E+00  0.1765E+00  0.4206E+00  0.1765E+00  0.4206E+00
      8.076  0.8405E-02  0.3262E-02  0.3262E-02  0.3262E-02  0.2528E+00  0.2528E+00  0.3676E+00  0.2528E+00  0.3676E+00