       N       E                     dE             d eps       ncg     rms          rms(c)
DAV:   1     0.179612125901E+02    0.17961E+02   -0.11430E+04  6024   0.570E+02
DAV:   2    -0.613728937618E+01   -0.24099E+02   -0.23928E+02  7200   0.887E+01
DAV:   3    -0.616959099577E+01   -0.32302E-01   -0.32300E-01  6480   0.379E+00
DAV:   4    -0.616962934622E+01   -0.38350E-04   -0.38351E-04  8952   0.962E-02
DAV:   5    -0.616962934737E+01   -0.11578E-08   -0.10273E-08  6504   0.354E-04    0.953E+00
DAV:   6    -0.582022375584E+01    0.34941E+00   -0.16523E+00  6120   0.525E+00    0.198E+00
DAV:   7    -0.581213990408E+01    0.80839E-02   -0.25941E-02  7824   0.529E-01    0.863E-01
DAV:   8    -0.581121396179E+01    0.92594E-03   -0.39153E-03  6384   0.464E-01    0.357E-02
DAV:   9    -0.581120694002E+01    0.70218E-05   -0.20501E-05  7464   0.264E-02    0.163E-02
DAV:  10    -0.581121607278E+01   -0.91328E-05   -0.88080E-06  7488   0.159E-02    0.479E-03
DAV:  11    -0.581121595910E+01    0.11368E-06   -0.12556E-08  4344   0.675E-04
   1 F= -.58112160E+01 E0= -.58095079E+01  d E =-.581122E+01
