 vasp.6.3.2 27Jun22 (build Aug 12 2022 00:53:59) complex                        
  
 executed on               tv2STD date 2024.12.03  01:39:25
 running   24 mpi-ranks, with    1 threads/rank
 distrk:  each k-point on   24 cores,    1 groups
 distr:  one band on NCORE=   1 cores,   24 groups


--------------------------------------------------------------------------------------------------------


 INCAR:
   SYSTEM = Pt-fcc
   NWRITE = 2    write-flag
   ISTART = 0    job   : 0-new, 1-cont, 2-samecut
   ICHARG = 2    charge: 0-wave, 1-file, 2-atom, >10-const
   INIWAV = 1    electr: 0-lowe 1-rand  2-diag
   ENCUT = 425.0     energy cutoff in eV
   PREC = accurate      normal | accurate
   ADDGRID = .FALSE.  (use fine grid)
   NELM = 100     number of ELM steps
   EDIFF = 1E-06    energy stopping-criterion for ELM
   LREAL = .FALSE.      real-space projection (.FALSE., .TRUE., On, Auto)
   ALGO = Normal     Normal, Fast, Very_Fast
   LWAVE = .TRUE.
   LCHARG = .TRUE.
   NSW = 100       max number of geometry steps
   IBRION = 2     ionic relax: 0-MD, 1-quasi-Newton, 2-CG, 3-Damped MD
   EDIFFG = -0.02  force (eV/A) stopping-criterion for geometry steps
   ISIF = 2     (1:force\=y stress\=trace only ions\=y shape\=n volume\=n)
   ISYM = 1     (1-use symmetry, 0-no symmetry)
   ISMEAR = 0     (-1-Fermi, 1-Methfessel/Paxton)
   SIGMA = 0.05   broadening in eV
   LORBIT = 11

 POTCAR:    PAW_PBE Pt_pv 12Dec2005               
 POTCAR:    PAW_PBE Pt_pv 12Dec2005               
   SHA256 =  e5abf7e8cd8db70d0153315afc5ad66b6e3eeee29cc2d5b91b16730957c1d208 Pt_pv/POTCAR          
   COPYR  = (c) Copyright 12Dec2005 Georg Kresse                                                    
   COPYR  = This file is part of the software VASP. Any use, copying, and all other rights are regul
   COPYR  = If you do not have a valid VASP license, you may not use, copy or distribute this file. 
   VRHFIN =Pt: 5ps1d9                                                                               
   LEXCH  = PE                                                                                      
   EATOM  =  2428.2504 eV,  178.4714 Ry                                                             
                                                                                                    
   TITEL  = PAW_PBE Pt_pv 12Dec2005                                                                 
   LULTRA =        F    use ultrasoft PP ?                                                          
   IUNSCR =        1    unscreen: 0-lin 1-nonlin 2-no                                               
   RPACOR =    2.000    partial core radius                                                         
   POMASS =  195.080; ZVAL   =   16.000    mass and valenz                                          
   RCORE  =    2.200    outmost cutoff radius                                                       
   RWIGS  =    2.200; RWIGS  =    1.164    wigner-seitz radius (au A)                               
   ENMAX  =  294.607; ENMIN  =  220.955 eV                                                          
   ICORE  =        3    local potential                                                             
   LCOR   =        T    correct aug charges                                                         
   LPAW   =        T    paw PP                                                                      
   EAUG   =  527.014                                                                                
   DEXC   =    0.000                                                                                
   RMAX   =    2.247    core radius for proj-oper                                                   
   RAUG   =    1.300    factor for augmentation sphere                                              
   RDEP   =    2.279    radius for radial grids                                                     
   RDEPT  =    1.878    core radius for aug-charge                                                  
                                                                                                    
   Atomic configuration                                                                             
   16 entries                                                                                       
     n  l   j            E        occ.                                                              
     1  0  0.50    -78401.1885   2.0000                                                             
     2  0  0.50    -13770.7750   2.0000                                                             
     2  1  1.50    -11931.0468   6.0000                                                             
     3  0  0.50     -3234.7234   2.0000                                                             
     3  1  1.50     -2699.2216   6.0000                                                             
     3  2  2.50     -2119.5714  10.0000                                                             
     4  0  0.50      -695.1528   2.0000                                                             
     4  1  1.50      -519.6034   6.0000                                                             
     4  2  2.50      -306.6786  10.0000                                                             
     4  3  3.50       -70.1041  14.0000                                                             
     5  0  0.50      -101.7747   2.0000                                                             
     5  1  1.50       -55.9873   6.0000                                                             
     6  1  1.50        -6.8029   0.0000                                                             
     5  2  2.50        -6.1423   9.0000                                                             
     6  0  0.50        -5.6573   1.0000                                                             
     5  3  2.50        -1.3606   0.0000                                                             
   Description                                                                                      
     l       E           TYP  RCUT    TYP  RCUT                                                     
     1    -55.9873477     23  2.000                                                                 
     1     27.2116520     23  2.000                                                                 
     2     -6.1423404     23  2.200                                                                 
     2     -4.6754623     23  2.200                                                                 
     0     -5.6573207     23  2.200                                                                 
     0     47.6203910     23  2.200                                                                 
     3      6.8029130     23  2.200                                                                 
  local pseudopotential read in
  partial core-charges read in
  partial kinetic energy density read in
  atomic valenz-charges read in
  non local Contribution for L=           1  read in
    real space projection operators read in
  non local Contribution for L=           1  read in
    real space projection operators read in
  non local Contribution for L=           2  read in
    real space projection operators read in
  non local Contribution for L=           2  read in
    real space projection operators read in
  non local Contribution for L=           0  read in
    real space projection operators read in
  non local Contribution for L=           0  read in
    real space projection operators read in
    PAW grid and wavefunctions read in
 
   number of l-projection  operators is LMAX  =           6
   number of lm-projection operators is LMMAX =          18
 
  PAW_PBE Pt_pv 12Dec2005               :
 energy of atom  1       EATOM=-2428.2504
 kinetic energy error for atom=    0.0554 (will be added to EATOM!!)
 
 
 POSCAR: Pt
  positions in cartesian coordinates
  No initial velocities read in
 exchange correlation table for  LEXCH =        8
   RHO(1)=    0.500       N(1)  =     2000
   RHO(2)=  100.500       N(2)  =     4000
 


--------------------------------------------------------------------------------------------------------


 ion  position               nearest neighbor table
   1  0.000  0.000  0.000-
 
  LATTYP: Found a face centered cubic cell.
 ALAT       =     4.1951590944
  
  Lattice vectors:
  
 A1 = (   0.0000000000,   2.0975795472,   2.0975795472)
 A2 = (   2.0975795472,   0.0000000000,   2.0975795472)
 A3 = (   2.0975795472,   2.0975795472,   0.0000000000)


Analysis of symmetry for initial positions (statically):
=====================================================================
 Subroutine PRICEL returns:
 Original cell was already a primitive cell.
 

 Routine SETGRP: Setting up the symmetry group for a 
 face centered cubic supercell.


 Subroutine GETGRP returns: Found 48 space group operations
 (whereof 48 operations were pure point group operations)
 out of a pool of 48 trial point group operations.


The static configuration has the point symmetry O_h .


Analysis of symmetry for dynamics (positions and initial velocities):
=====================================================================
 Subroutine PRICEL returns:
 Original cell was already a primitive cell.
 

 Routine SETGRP: Setting up the symmetry group for a 
 face centered cubic supercell.


 Subroutine GETGRP returns: Found 48 space group operations
 (whereof 48 operations were pure point group operations)
 out of a pool of 48 trial point group operations.


The dynamic configuration has the point symmetry O_h .


 Subroutine INISYM returns: Found 48 space group operations
 (whereof 48 operations are pure point group operations),
 and found     1 'primitive' translations


----------------------------------------------------------------------------------------

                                     Primitive cell                                     

  volume of cell :      18.4580

  direct lattice vectors                    reciprocal lattice vectors
     0.000000000  2.097579547  2.097579547    -0.238369983  0.238369983  0.238369983
     2.097579547  0.000000000  2.097579547     0.238369983 -0.238369983  0.238369983
     2.097579547  2.097579547  0.000000000     0.238369983  0.238369983 -0.238369983

  length of vectors
     2.966425444  2.966425444  2.966425444     0.412868921  0.412868921  0.412868921

  position of ions in fractional coordinates (direct lattice)
     0.000000000  0.000000000  0.000000000

  ion indices of the primitive-cell ions
   primitive index   ion index
                 1           1

----------------------------------------------------------------------------------------

 
 
 KPOINTS: Automatic mesh                          

Automatic generation of k-mesh.
 Grid dimensions read from file:
 generate k-points for:   10   10   10

 Generating k-lattice:

  Cartesian coordinates                     Fractional coordinates (reciprocal lattice)
    -0.023836998  0.023836998  0.023836998     0.100000000  0.000000000  0.000000000
     0.023836998 -0.023836998  0.023836998     0.000000000  0.100000000  0.000000000
     0.023836998  0.023836998 -0.023836998     0.000000000  0.000000000  0.100000000

  Length of vectors
     0.041286892  0.041286892  0.041286892

  Shift w.r.t. Gamma in fractional coordinates (k-lattice)
     0.500000000  0.500000000  0.500000000

 
 Subroutine IBZKPT returns following result:
 ===========================================
 
 Found    110 irreducible k-points:
 
 Following reciprocal coordinates:
            Coordinates               Weight
  0.050000  0.050000  0.050000      8.000000
  0.150000  0.050000  0.050000     24.000000
  0.250000  0.050000  0.050000     24.000000
  0.350000  0.050000  0.050000     24.000000
  0.450000  0.050000  0.050000     24.000000
 -0.450000  0.050000  0.050000     24.000000
 -0.350000  0.050000  0.050000     24.000000
 -0.250000  0.050000  0.050000     24.000000
 -0.150000  0.050000  0.050000     24.000000
 -0.050000  0.050000  0.050000     24.000000
  0.150000  0.150000  0.050000     24.000000
  0.250000  0.150000  0.050000     48.000000
  0.350000  0.150000  0.050000     48.000000
  0.450000  0.150000  0.050000     48.000000
 -0.450000  0.150000  0.050000     48.000000
 -0.350000  0.150000  0.050000     48.000000
 -0.250000  0.150000  0.050000     48.000000
 -0.150000  0.150000  0.050000     48.000000
 -0.050000  0.150000  0.050000     48.000000
  0.250000  0.250000  0.050000     24.000000
  0.350000  0.250000  0.050000     48.000000
  0.450000  0.250000  0.050000     48.000000
 -0.450000  0.250000  0.050000     48.000000
 -0.350000  0.250000  0.050000     48.000000
 -0.250000  0.250000  0.050000     48.000000
 -0.150000  0.250000  0.050000     48.000000
 -0.050000  0.250000  0.050000     48.000000
  0.350000  0.350000  0.050000     24.000000
  0.450000  0.350000  0.050000     48.000000
 -0.450000  0.350000  0.050000     48.000000
 -0.350000  0.350000  0.050000     48.000000
 -0.250000  0.350000  0.050000     48.000000
 -0.150000  0.350000  0.050000     48.000000
 -0.050000  0.350000  0.050000     48.000000
  0.450000  0.450000  0.050000     24.000000
 -0.450000  0.450000  0.050000     48.000000
 -0.350000  0.450000  0.050000     48.000000
 -0.250000  0.450000  0.050000     48.000000
 -0.150000  0.450000  0.050000     48.000000
 -0.050000  0.450000  0.050000     48.000000
 -0.450000 -0.450000  0.050000     24.000000
 -0.350000 -0.450000  0.050000     48.000000
 -0.250000 -0.450000  0.050000     48.000000
 -0.150000 -0.450000  0.050000     48.000000
 -0.350000 -0.350000  0.050000     24.000000
 -0.250000 -0.350000  0.050000     48.000000
 -0.150000 -0.350000  0.050000     48.000000
 -0.250000 -0.250000  0.050000     24.000000
 -0.150000 -0.250000  0.050000     48.000000
 -0.150000 -0.150000  0.050000     24.000000
  0.150000  0.150000  0.150000      8.000000
  0.250000  0.150000  0.150000     24.000000
  0.350000  0.150000  0.150000     24.000000
  0.450000  0.150000  0.150000     24.000000
 -0.450000  0.150000  0.150000     24.000000
 -0.350000  0.150000  0.150000     24.000000
 -0.250000  0.150000  0.150000     24.000000
 -0.150000  0.150000  0.150000     24.000000
  0.250000  0.250000  0.150000     24.000000
  0.350000  0.250000  0.150000     48.000000
  0.450000  0.250000  0.150000     48.000000
 -0.450000  0.250000  0.150000     48.000000
 -0.350000  0.250000  0.150000     48.000000
 -0.250000  0.250000  0.150000     48.000000
 -0.150000  0.250000  0.150000     48.000000
  0.350000  0.350000  0.150000     24.000000
  0.450000  0.350000  0.150000     48.000000
 -0.450000  0.350000  0.150000     48.000000
 -0.350000  0.350000  0.150000     48.000000
 -0.250000  0.350000  0.150000     48.000000
 -0.150000  0.350000  0.150000     48.000000
  0.450000  0.450000  0.150000     24.000000
 -0.450000  0.450000  0.150000     48.000000
 -0.350000  0.450000  0.150000     48.000000
 -0.250000  0.450000  0.150000     48.000000
 -0.150000  0.450000  0.150000     48.000000
 -0.450000 -0.450000  0.150000     24.000000
 -0.350000 -0.450000  0.150000     48.000000
 -0.250000 -0.450000  0.150000     48.000000
 -0.350000 -0.350000  0.150000     24.000000
 -0.250000 -0.350000  0.150000     48.000000
 -0.250000 -0.250000  0.150000     24.000000
  0.250000  0.250000  0.250000      8.000000
  0.350000  0.250000  0.250000     24.000000
  0.450000  0.250000  0.250000     24.000000
 -0.450000  0.250000  0.250000     24.000000
 -0.350000  0.250000  0.250000     24.000000
 -0.250000  0.250000  0.250000     24.000000
  0.350000  0.350000  0.250000     24.000000
  0.450000  0.350000  0.250000     48.000000
 -0.450000  0.350000  0.250000     48.000000
 -0.350000  0.350000  0.250000     48.000000
 -0.250000  0.350000  0.250000     48.000000
  0.450000  0.450000  0.250000     24.000000
 -0.450000  0.450000  0.250000     48.000000
 -0.350000  0.450000  0.250000     48.000000
 -0.250000  0.450000  0.250000     48.000000
 -0.450000 -0.450000  0.250000     24.000000
 -0.350000 -0.450000  0.250000     48.000000
 -0.350000 -0.350000  0.250000     24.000000
  0.350000  0.350000  0.350000      8.000000
  0.450000  0.350000  0.350000     24.000000
 -0.450000  0.350000  0.350000     24.000000
 -0.350000  0.350000  0.350000     24.000000
  0.450000  0.450000  0.350000     24.000000
 -0.450000  0.450000  0.350000     48.000000
 -0.350000  0.450000  0.350000     48.000000
 -0.450000 -0.450000  0.350000     24.000000
  0.450000  0.450000  0.450000      8.000000
 -0.450000  0.450000  0.450000     24.000000
 
 Following cartesian coordinates:
            Coordinates               Weight
  0.011918  0.011918  0.011918      8.000000
 -0.011918  0.035755  0.035755     24.000000
 -0.035755  0.059592  0.059592     24.000000
 -0.059592  0.083429  0.083429     24.000000
 -0.083429  0.107266  0.107266     24.000000
  0.131103 -0.107266 -0.107266     24.000000
  0.107266 -0.083429 -0.083429     24.000000
  0.083429 -0.059592 -0.059592     24.000000
  0.059592 -0.035755 -0.035755     24.000000
  0.035755 -0.011918 -0.011918     24.000000
  0.011918  0.011918  0.059592     24.000000
 -0.011918  0.035755  0.083429     48.000000
 -0.035755  0.059592  0.107266     48.000000
 -0.059592  0.083429  0.131103     48.000000
  0.154940 -0.131103 -0.083429     48.000000
  0.131103 -0.107266 -0.059592     48.000000
  0.107266 -0.083429 -0.035755     48.000000
  0.083429 -0.059592 -0.011918     48.000000
  0.059592 -0.035755  0.011918     48.000000
  0.011918  0.011918  0.107266     24.000000
 -0.011918  0.035755  0.131103     48.000000
 -0.035755  0.059592  0.154940     48.000000
  0.178777 -0.154940 -0.059592     48.000000
  0.154940 -0.131103 -0.035755     48.000000
  0.131103 -0.107266 -0.011918     48.000000
  0.107266 -0.083429  0.011918     48.000000
  0.083429 -0.059592  0.035755     48.000000
  0.011918  0.011918  0.154940     24.000000
 -0.011918  0.035755  0.178777     48.000000
  0.202614 -0.178777 -0.035755     48.000000
  0.178777 -0.154940 -0.011918     48.000000
  0.154940 -0.131103  0.011918     48.000000
  0.131103 -0.107266  0.035755     48.000000
  0.107266 -0.083429  0.059592     48.000000
  0.011918  0.011918  0.202614     24.000000
  0.226451 -0.202614 -0.011918     48.000000
  0.202614 -0.178777  0.011918     48.000000
  0.178777 -0.154940  0.035755     48.000000
  0.154940 -0.131103  0.059592     48.000000
  0.131103 -0.107266  0.083429     48.000000
  0.011918  0.011918 -0.226451     24.000000
 -0.011918  0.035755 -0.202614     48.000000
 -0.035755  0.059592 -0.178777     48.000000
 -0.059592  0.083429 -0.154940     48.000000
  0.011918  0.011918 -0.178777     24.000000
 -0.011918  0.035755 -0.154940     48.000000
 -0.035755  0.059592 -0.131103     48.000000
  0.011918  0.011918 -0.131103     24.000000
 -0.011918  0.035755 -0.107266     48.000000
  0.011918  0.011918 -0.083429     24.000000
  0.035755  0.035755  0.035755      8.000000
  0.011918  0.059592  0.059592     24.000000
 -0.011918  0.083429  0.083429     24.000000
 -0.035755  0.107266  0.107266     24.000000
  0.178777 -0.107266 -0.107266     24.000000
  0.154940 -0.083429 -0.083429     24.000000
  0.131103 -0.059592 -0.059592     24.000000
  0.107266 -0.035755 -0.035755     24.000000
  0.035755  0.035755  0.083429     24.000000
  0.011918  0.059592  0.107266     48.000000
 -0.011918  0.083429  0.131103     48.000000
  0.202614 -0.131103 -0.083429     48.000000
  0.178777 -0.107266 -0.059592     48.000000
  0.154940 -0.083429 -0.035755     48.000000
  0.131103 -0.059592 -0.011918     48.000000
  0.035755  0.035755  0.131103     24.000000
  0.011918  0.059592  0.154940     48.000000
  0.226451 -0.154940 -0.059592     48.000000
  0.202614 -0.131103 -0.035755     48.000000
  0.178777 -0.107266 -0.011918     48.000000
  0.154940 -0.083429  0.011918     48.000000
  0.035755  0.035755  0.178777     24.000000
  0.250288 -0.178777 -0.035755     48.000000
  0.226451 -0.154940 -0.011918     48.000000
  0.202614 -0.131103  0.011918     48.000000
  0.178777 -0.107266  0.035755     48.000000
  0.035755  0.035755 -0.250288     24.000000
  0.011918  0.059592 -0.226451     48.000000
 -0.011918  0.083429 -0.202614     48.000000
  0.035755  0.035755 -0.202614     24.000000
  0.011918  0.059592 -0.178777     48.000000
  0.035755  0.035755 -0.154940     24.000000
  0.059592  0.059592  0.059592      8.000000
  0.035755  0.083429  0.083429     24.000000
  0.011918  0.107266  0.107266     24.000000
  0.226451 -0.107266 -0.107266     24.000000
  0.202614 -0.083429 -0.083429     24.000000
  0.178777 -0.059592 -0.059592     24.000000
  0.059592  0.059592  0.107266     24.000000
  0.035755  0.083429  0.131103     48.000000
  0.250288 -0.131103 -0.083429     48.000000
  0.226451 -0.107266 -0.059592     48.000000
  0.202614 -0.083429 -0.035755     48.000000
  0.059592  0.059592  0.154940     24.000000
  0.274125 -0.154940 -0.059592     48.000000
  0.250288 -0.131103 -0.035755     48.000000
  0.226451 -0.107266 -0.011918     48.000000
  0.059592  0.059592 -0.274125     24.000000
  0.035755  0.083429 -0.250288     48.000000
  0.059592  0.059592 -0.226451     24.000000
  0.083429  0.083429  0.083429      8.000000
  0.059592  0.107266  0.107266     24.000000
  0.274125 -0.107266 -0.107266     24.000000
  0.250288 -0.083429 -0.083429     24.000000
  0.083429  0.083429  0.131103     24.000000
  0.297962 -0.131103 -0.083429     48.000000
  0.274125 -0.107266 -0.059592     48.000000
  0.083429  0.083429 -0.297962     24.000000
  0.107266  0.107266  0.107266      8.000000
  0.321799 -0.107266 -0.107266     24.000000
 


--------------------------------------------------------------------------------------------------------




 Dimension of arrays:
   k-points           NKPTS =    110   k-points in BZ     NKDIM =    110   number of bands    NBANDS=     24
   number of dos      NEDOS =    301   number of ions     NIONS =      1
   non local maximal  LDIM  =      6   non local SUM 2l+1 LMDIM =     18
   total plane-waves  NPLWV =   8000
   max r-space proj   IRMAX =      1   max aug-charges    IRDMAX=  14955
   dimension x,y,z NGX =    20 NGY =   20 NGZ =   20
   dimension x,y,z NGXF=    40 NGYF=   40 NGZF=   40
   support grid    NGXF=    40 NGYF=   40 NGZF=   40
   ions per type =               1
   NGX,Y,Z   is equivalent  to a cutoff of  11.21, 11.21, 11.21 a.u.
   NGXF,Y,Z  is equivalent  to a cutoff of  22.42, 22.42, 22.42 a.u.

 SYSTEM =  Pt-fcc                                  
 POSCAR =  Pt                                      

 Startparameter for this run:
   NWRITE =      2    write-flag & timer
   PREC   = accura    normal or accurate (medium, high low for compatibility)
   ISTART =      0    job   : 0-new  1-cont  2-samecut
   ICHARG =      2    charge: 1-file 2-atom 10-const
   ISPIN  =      1    spin polarized calculation?
   LNONCOLLINEAR =      F non collinear calculations
   LSORBIT =      F    spin-orbit coupling
   INIWAV =      1    electr: 0-lowe 1-rand  2-diag
   LASPH  =      F    aspherical Exc in radial PAW
 Electronic Relaxation 1
   ENCUT  =  425.0 eV  31.24 Ry    5.59 a.u.   4.99  4.99  4.99*2*pi/ulx,y,z
   ENINI  =  425.0     initial cutoff
   ENAUG  =  527.0 eV  augmentation charge cutoff
   NELM   =    100;   NELMIN=  2; NELMDL= -5     # of ELM steps 
   EDIFF  = 0.1E-05   stopping-criterion for ELM
   LREAL  =      F    real-space projection
   NLSPLINE    = F    spline interpolate recip. space projectors
   LCOMPAT=      F    compatible to vasp.4.4
   GGA_COMPAT  = T    GGA compatible to vasp.4.4-vasp.4.6
   LMAXPAW     = -100 max onsite density
   LMAXMIX     =    2 max onsite mixed and CHGCAR
   VOSKOWN=      0    Vosko Wilk Nusair interpolation
   ROPT   =    0.00000
 Ionic relaxation
   EDIFFG = -.2E-01   stopping-criterion for IOM
   NSW    =    100    number of steps for IOM
   NBLOCK =      1;   KBLOCK =    100    inner block; outer block 
   IBRION =      2    ionic relax: 0-MD 1-quasi-New 2-CG
   NFREE  =      1    steps in history (QN), initial steepest desc. (CG)
   ISIF   =      2    stress and relaxation
   IWAVPR =     11    prediction:  0-non 1-charg 2-wave 3-comb
   ISYM   =      1    0-nonsym 1-usesym 2-fastsym
   LCORR  =      T    Harris-Foulkes like correction to forces

   POTIM  = 0.5000    time-step for ionic-motion
   TEIN   =    0.0    initial temperature
   TEBEG  =    0.0;   TEEND  =   0.0 temperature during run
   SMASS  =  -3.00    Nose mass-parameter (am)
   estimated Nose-frequenzy (Omega)   =  0.10E-29 period in steps = 0.13E+47 mass=  -0.201E-27a.u.
   SCALEE = 1.0000    scale energy and forces
   NPACO  =    256;   APACO  = 10.0  distance and # of slots for P.C.
   PSTRESS=    0.0 pullay stress

  Mass of Ions in am
   POMASS = 195.08
  Ionic Valenz
   ZVAL   =  16.00
  Atomic Wigner-Seitz radii
   RWIGS  =  -1.00
  virtual crystal weights 
   VCA    =   1.00
   NELECT =      16.0000    total number of electrons
   NUPDOWN=      -1.0000    fix difference up-down

 DOS related values:
   EMIN   =  10.00;   EMAX   =-10.00  energy-range for DOS
   EFERMI =   0.00
   ISMEAR =     0;   SIGMA  =   0.05  broadening in eV -4-tet -1-fermi 0-gaus

 Electronic relaxation 2 (details)
   IALGO  =     38    algorithm
   LDIAG  =      T    sub-space diagonalisation (order eigenvalues)
   LSUBROT=      F    optimize rotation matrix (better conditioning)
   TURBO    =      0    0=normal 1=particle mesh
   IRESTART =      0    0=no restart 2=restart with 2 vectors
   NREBOOT  =      0    no. of reboots
   NMIN     =      0    reboot dimension
   EREF     =   0.00    reference energy to select bands
   IMIX   =      4    mixing-type and parameters
     AMIX     =   0.40;   BMIX     =  1.00
     AMIX_MAG =   1.60;   BMIX_MAG =  1.00
     AMIN     =   0.10
     WC   =   100.;   INIMIX=   1;  MIXPRE=   1;  MAXMIX= -45

 Intra band minimization:
   WEIMIN = 0.0010     energy-eigenvalue tresh-hold
   EBREAK =  0.10E-07  absolut break condition
   DEPER  =   0.30     relativ break condition  

   TIME   =   0.40     timestep for ELM

  volume/ion in A,a.u.               =      18.46       124.56
  Fermi-wavevector in a.u.,A,eV,Ry     =   1.560941  2.949750 33.151080  2.436536
  Thomas-Fermi vector in A             =   2.664079
 
 Write flags
   LWAVE        =      T    write WAVECAR
   LDOWNSAMPLE  =      F    k-point downsampling of WAVECAR
   LCHARG       =      T    write CHGCAR
   LVTOT        =      F    write LOCPOT, total local potential
   LVHAR        =      F    write LOCPOT, Hartree potential only
   LELF         =      F    write electronic localiz. function (ELF)
   LORBIT       =     11    0 simple, 1 ext, 2 COOP (PROOUT), +10 PAW based schemes


 Dipole corrections
   LMONO  =      F    monopole corrections only (constant potential shift)
   LDIPOL =      F    correct potential (dipole corrections)
   IDIPOL =      0    1-x, 2-y, 3-z, 4-all directions 
   EPSILON=  1.0000000 bulk dielectric constant

 Exchange correlation treatment:
   GGA     =    --    GGA type
   LEXCH   =     8    internal setting for exchange type
   LIBXC   =     F    Libxc                    
   VOSKOWN =     0    Vosko Wilk Nusair interpolation
   LHFCALC =     F    Hartree Fock is set to
   LHFONE  =     F    Hartree Fock one center treatment
   AEXX    =    0.0000 exact exchange contribution

 Linear response parameters
   LEPSILON=     F    determine dielectric tensor
   LRPA    =     F    only Hartree local field effects (RPA)
   LNABLA  =     F    use nabla operator in PAW spheres
   LVEL    =     F    velocity operator in full k-point grid
   CSHIFT  =0.1000    complex shift for real part using Kramers Kronig
   OMEGAMAX=  -1.0    maximum frequency
   DEG_THRESHOLD= 0.2000000E-02 threshold for treating states as degnerate
   RTIME   =   -0.100 relaxation time in fs
  (WPLASMAI=    0.000 imaginary part of plasma frequency in eV, 0.658/RTIME)
   DFIELD  = 0.0000000 0.0000000 0.0000000 field for delta impulse in time
 
  Optional k-point grid parameters
   LKPOINTS_OPT  =     F    use optional k-point grid
   KPOINTS_OPT_MODE=     1    mode for optional k-point grid
 
 Orbital magnetization related:
   ORBITALMAG=     F  switch on orbital magnetization
   LCHIMAG   =     F  perturbation theory with respect to B field
   DQ        =  0.001000  dq finite difference perturbation B field
   LLRAUG    =     F  two centre corrections for induced B field



--------------------------------------------------------------------------------------------------------


 conjugate gradient relaxation of ions
 charge density and potential will be updated during run
 non-spin polarized calculation
 Variant of blocked Davidson
 Davidson routine will perform the subspace rotation
 perform sub-space diagonalisation
    after iterative eigenvector-optimisation
 modified Broyden-mixing scheme, WC =      100.0
 initial mixing is a Kerker type mixing with AMIX =  0.4000 and BMIX =      1.0000
 Hartree-type preconditioning will be used
 using additional bands           16
 reciprocal scheme for non local part
 use partial core corrections
 calculate Harris-corrections to forces 
   (improved forces if not selfconsistent)
 use gradient corrections 
 use of overlap-Matrix (Vanderbilt PP)
 Gauss-broadening in eV      SIGMA  =   0.05


--------------------------------------------------------------------------------------------------------


  energy-cutoff  :      425.00
  volume of cell :       18.46
      direct lattice vectors                 reciprocal lattice vectors
     0.000000000  2.097579547  2.097579547    -0.238369983  0.238369983  0.238369983
     2.097579547  0.000000000  2.097579547     0.238369983 -0.238369983  0.238369983
     2.097579547  2.097579547  0.000000000     0.238369983  0.238369983 -0.238369983

  length of vectors
     2.966425444  2.966425444  2.966425444     0.412868921  0.412868921  0.412868921


 
 k-points in units of 2pi/SCALE and weight: Automatic mesh                          
   0.01191850  0.01191850  0.01191850       0.002
  -0.01191850  0.03575550  0.03575550       0.006
  -0.03575550  0.05959250  0.05959250       0.006
  -0.05959250  0.08342949  0.08342949       0.006
  -0.08342949  0.10726649  0.10726649       0.006
   0.13110349 -0.10726649 -0.10726649       0.006
   0.10726649 -0.08342949 -0.08342949       0.006
   0.08342949 -0.05959250 -0.05959250       0.006
   0.05959250 -0.03575550 -0.03575550       0.006
   0.03575550 -0.01191850 -0.01191850       0.006
   0.01191850  0.01191850  0.05959250       0.006
  -0.01191850  0.03575550  0.08342949       0.012
  -0.03575550  0.05959250  0.10726649       0.012
  -0.05959250  0.08342949  0.13110349       0.012
   0.15494049 -0.13110349 -0.08342949       0.012
   0.13110349 -0.10726649 -0.05959250       0.012
   0.10726649 -0.08342949 -0.03575550       0.012
   0.08342949 -0.05959250 -0.01191850       0.012
   0.05959250 -0.03575550  0.01191850       0.012
   0.01191850  0.01191850  0.10726649       0.006
  -0.01191850  0.03575550  0.13110349       0.012
  -0.03575550  0.05959250  0.15494049       0.012
   0.17877749 -0.15494049 -0.05959250       0.012
   0.15494049 -0.13110349 -0.03575550       0.012
   0.13110349 -0.10726649 -0.01191850       0.012
   0.10726649 -0.08342949  0.01191850       0.012
   0.08342949 -0.05959250  0.03575550       0.012
   0.01191850  0.01191850  0.15494049       0.006
  -0.01191850  0.03575550  0.17877749       0.012
   0.20261449 -0.17877749 -0.03575550       0.012
   0.17877749 -0.15494049 -0.01191850       0.012
   0.15494049 -0.13110349  0.01191850       0.012
   0.13110349 -0.10726649  0.03575550       0.012
   0.10726649 -0.08342949  0.05959250       0.012
   0.01191850  0.01191850  0.20261449       0.006
   0.22645148 -0.20261449 -0.01191850       0.012
   0.20261449 -0.17877749  0.01191850       0.012
   0.17877749 -0.15494049  0.03575550       0.012
   0.15494049 -0.13110349  0.05959250       0.012
   0.13110349 -0.10726649  0.08342949       0.012
   0.01191850  0.01191850 -0.22645148       0.006
  -0.01191850  0.03575550 -0.20261449       0.012
  -0.03575550  0.05959250 -0.17877749       0.012
  -0.05959250  0.08342949 -0.15494049       0.012
   0.01191850  0.01191850 -0.17877749       0.006
  -0.01191850  0.03575550 -0.15494049       0.012
  -0.03575550  0.05959250 -0.13110349       0.012
   0.01191850  0.01191850 -0.13110349       0.006
  -0.01191850  0.03575550 -0.10726649       0.012
   0.01191850  0.01191850 -0.08342949       0.006
   0.03575550  0.03575550  0.03575550       0.002
   0.01191850  0.05959250  0.05959250       0.006
  -0.01191850  0.08342949  0.08342949       0.006
  -0.03575550  0.10726649  0.10726649       0.006
   0.17877749 -0.10726649 -0.10726649       0.006
   0.15494049 -0.08342949 -0.08342949       0.006
   0.13110349 -0.05959250 -0.05959250       0.006
   0.10726649 -0.03575550 -0.03575550       0.006
   0.03575550  0.03575550  0.08342949       0.006
   0.01191850  0.05959250  0.10726649       0.012
  -0.01191850  0.08342949  0.13110349       0.012
   0.20261449 -0.13110349 -0.08342949       0.012
   0.17877749 -0.10726649 -0.05959250       0.012
   0.15494049 -0.08342949 -0.03575550       0.012
   0.13110349 -0.05959250 -0.01191850       0.012
   0.03575550  0.03575550  0.13110349       0.006
   0.01191850  0.05959250  0.15494049       0.012
   0.22645148 -0.15494049 -0.05959250       0.012
   0.20261449 -0.13110349 -0.03575550       0.012
   0.17877749 -0.10726649 -0.01191850       0.012
   0.15494049 -0.08342949  0.01191850       0.012
   0.03575550  0.03575550  0.17877749       0.006
   0.25028848 -0.17877749 -0.03575550       0.012
   0.22645148 -0.15494049 -0.01191850       0.012
   0.20261449 -0.13110349  0.01191850       0.012
   0.17877749 -0.10726649  0.03575550       0.012
   0.03575550  0.03575550 -0.25028848       0.006
   0.01191850  0.05959250 -0.22645148       0.012
  -0.01191850  0.08342949 -0.20261449       0.012
   0.03575550  0.03575550 -0.20261449       0.006
   0.01191850  0.05959250 -0.17877749       0.012
   0.03575550  0.03575550 -0.15494049       0.006
   0.05959250  0.05959250  0.05959250       0.002
   0.03575550  0.08342949  0.08342949       0.006
   0.01191850  0.10726649  0.10726649       0.006
   0.22645148 -0.10726649 -0.10726649       0.006
   0.20261449 -0.08342949 -0.08342949       0.006
   0.17877749 -0.05959250 -0.05959250       0.006
   0.05959250  0.05959250  0.10726649       0.006
   0.03575550  0.08342949  0.13110349       0.012
   0.25028848 -0.13110349 -0.08342949       0.012
   0.22645148 -0.10726649 -0.05959250       0.012
   0.20261449 -0.08342949 -0.03575550       0.012
   0.05959250  0.05959250  0.15494049       0.006
   0.27412548 -0.15494049 -0.05959250       0.012
   0.25028848 -0.13110349 -0.03575550       0.012
   0.22645148 -0.10726649 -0.01191850       0.012
   0.05959250  0.05959250 -0.27412548       0.006
   0.03575550  0.08342949 -0.25028848       0.012
   0.05959250  0.05959250 -0.22645148       0.006
   0.08342949  0.08342949  0.08342949       0.002
   0.05959250  0.10726649  0.10726649       0.006
   0.27412548 -0.10726649 -0.10726649       0.006
   0.25028848 -0.08342949 -0.08342949       0.006
   0.08342949  0.08342949  0.13110349       0.006
   0.29796248 -0.13110349 -0.08342949       0.012
   0.27412548 -0.10726649 -0.05959250       0.012
   0.08342949  0.08342949 -0.29796248       0.006
   0.10726649  0.10726649  0.10726649       0.002
   0.32179948 -0.10726649 -0.10726649       0.006
 
 k-points in reciprocal lattice and weights: Automatic mesh                          
   0.05000000  0.05000000  0.05000000       0.002
   0.15000000  0.05000000  0.05000000       0.006
   0.25000000  0.05000000  0.05000000       0.006
   0.35000000  0.05000000  0.05000000       0.006
   0.45000000  0.05000000  0.05000000       0.006
  -0.45000000  0.05000000  0.05000000       0.006
  -0.35000000  0.05000000  0.05000000       0.006
  -0.25000000  0.05000000  0.05000000       0.006
  -0.15000000  0.05000000  0.05000000       0.006
  -0.05000000  0.05000000  0.05000000       0.006
   0.15000000  0.15000000  0.05000000       0.006
   0.25000000  0.15000000  0.05000000       0.012
   0.35000000  0.15000000  0.05000000       0.012
   0.45000000  0.15000000  0.05000000       0.012
  -0.45000000  0.15000000  0.05000000       0.012
  -0.35000000  0.15000000  0.05000000       0.012
  -0.25000000  0.15000000  0.05000000       0.012
  -0.15000000  0.15000000  0.05000000       0.012
  -0.05000000  0.15000000  0.05000000       0.012
   0.25000000  0.25000000  0.05000000       0.006
   0.35000000  0.25000000  0.05000000       0.012
   0.45000000  0.25000000  0.05000000       0.012
  -0.45000000  0.25000000  0.05000000       0.012
  -0.35000000  0.25000000  0.05000000       0.012
  -0.25000000  0.25000000  0.05000000       0.012
  -0.15000000  0.25000000  0.05000000       0.012
  -0.05000000  0.25000000  0.05000000       0.012
   0.35000000  0.35000000  0.05000000       0.006
   0.45000000  0.35000000  0.05000000       0.012
  -0.45000000  0.35000000  0.05000000       0.012
  -0.35000000  0.35000000  0.05000000       0.012
  -0.25000000  0.35000000  0.05000000       0.012
  -0.15000000  0.35000000  0.05000000       0.012
  -0.05000000  0.35000000  0.05000000       0.012
   0.45000000  0.45000000  0.05000000       0.006
  -0.45000000  0.45000000  0.05000000       0.012
  -0.35000000  0.45000000  0.05000000       0.012
  -0.25000000  0.45000000  0.05000000       0.012
  -0.15000000  0.45000000  0.05000000       0.012
  -0.05000000  0.45000000  0.05000000       0.012
  -0.45000000 -0.45000000  0.05000000       0.006
  -0.35000000 -0.45000000  0.05000000       0.012
  -0.25000000 -0.45000000  0.05000000       0.012
  -0.15000000 -0.45000000  0.05000000       0.012
  -0.35000000 -0.35000000  0.05000000       0.006
  -0.25000000 -0.35000000  0.05000000       0.012
  -0.15000000 -0.35000000  0.05000000       0.012
  -0.25000000 -0.25000000  0.05000000       0.006
  -0.15000000 -0.25000000  0.05000000       0.012
  -0.15000000 -0.15000000  0.05000000       0.006
   0.15000000  0.15000000  0.15000000       0.002
   0.25000000  0.15000000  0.15000000       0.006
   0.35000000  0.15000000  0.15000000       0.006
   0.45000000  0.15000000  0.15000000       0.006
  -0.45000000  0.15000000  0.15000000       0.006
  -0.35000000  0.15000000  0.15000000       0.006
  -0.25000000  0.15000000  0.15000000       0.006
  -0.15000000  0.15000000  0.15000000       0.006
   0.25000000  0.25000000  0.15000000       0.006
   0.35000000  0.25000000  0.15000000       0.012
   0.45000000  0.25000000  0.15000000       0.012
  -0.45000000  0.25000000  0.15000000       0.012
  -0.35000000  0.25000000  0.15000000       0.012
  -0.25000000  0.25000000  0.15000000       0.012
  -0.15000000  0.25000000  0.15000000       0.012
   0.35000000  0.35000000  0.15000000       0.006
   0.45000000  0.35000000  0.15000000       0.012
  -0.45000000  0.35000000  0.15000000       0.012
  -0.35000000  0.35000000  0.15000000       0.012
  -0.25000000  0.35000000  0.15000000       0.012
  -0.15000000  0.35000000  0.15000000       0.012
   0.45000000  0.45000000  0.15000000       0.006
  -0.45000000  0.45000000  0.15000000       0.012
  -0.35000000  0.45000000  0.15000000       0.012
  -0.25000000  0.45000000  0.15000000       0.012
  -0.15000000  0.45000000  0.15000000       0.012
  -0.45000000 -0.45000000  0.15000000       0.006
  -0.35000000 -0.45000000  0.15000000       0.012
  -0.25000000 -0.45000000  0.15000000       0.012
  -0.35000000 -0.35000000  0.15000000       0.006
  -0.25000000 -0.35000000  0.15000000       0.012
  -0.25000000 -0.25000000  0.15000000       0.006
   0.25000000  0.25000000  0.25000000       0.002
   0.35000000  0.25000000  0.25000000       0.006
   0.45000000  0.25000000  0.25000000       0.006
  -0.45000000  0.25000000  0.25000000       0.006
  -0.35000000  0.25000000  0.25000000       0.006
  -0.25000000  0.25000000  0.25000000       0.006
   0.35000000  0.35000000  0.25000000       0.006
   0.45000000  0.35000000  0.25000000       0.012
  -0.45000000  0.35000000  0.25000000       0.012
  -0.35000000  0.35000000  0.25000000       0.012
  -0.25000000  0.35000000  0.25000000       0.012
   0.45000000  0.45000000  0.25000000       0.006
  -0.45000000  0.45000000  0.25000000       0.012
  -0.35000000  0.45000000  0.25000000       0.012
  -0.25000000  0.45000000  0.25000000       0.012
  -0.45000000 -0.45000000  0.25000000       0.006
  -0.35000000 -0.45000000  0.25000000       0.012
  -0.35000000 -0.35000000  0.25000000       0.006
   0.35000000  0.35000000  0.35000000       0.002
   0.45000000  0.35000000  0.35000000       0.006
  -0.45000000  0.35000000  0.35000000       0.006
  -0.35000000  0.35000000  0.35000000       0.006
   0.45000000  0.45000000  0.35000000       0.006
  -0.45000000  0.45000000  0.35000000       0.012
  -0.35000000  0.45000000  0.35000000       0.012
  -0.45000000 -0.45000000  0.35000000       0.006
   0.45000000  0.45000000  0.45000000       0.002
  -0.45000000  0.45000000  0.45000000       0.006
 
 position of ions in fractional coordinates (direct lattice) 
   0.00000000  0.00000000  0.00000000
 
 position of ions in cartesian coordinates  (Angst):
   0.00000000  0.00000000  0.00000000
 


--------------------------------------------------------------------------------------------------------


 k-point   1 :   0.0500 0.0500 0.0500  plane waves:     339
 k-point   2 :   0.1500 0.0500 0.0500  plane waves:     353
 k-point   3 :   0.2500 0.0500 0.0500  plane waves:     362
 k-point   4 :   0.3500 0.0500 0.0500  plane waves:     361
 k-point   5 :   0.4500 0.0500 0.0500  plane waves:     364
 k-point   6 :  -0.4500 0.0500 0.0500  plane waves:     370
 k-point   7 :  -0.3500 0.0500 0.0500  plane waves:     361
 k-point   8 :  -0.2500 0.0500 0.0500  plane waves:     362
 k-point   9 :  -0.1500 0.0500 0.0500  plane waves:     358
 k-point  10 :  -0.0500 0.0500 0.0500  plane waves:     347
 k-point  11 :   0.1500 0.1500 0.0500  plane waves:     355
 k-point  12 :   0.2500 0.1500 0.0500  plane waves:     360
 k-point  13 :   0.3500 0.1500 0.0500  plane waves:     367
 k-point  14 :   0.4500 0.1500 0.0500  plane waves:     369
 k-point  15 :  -0.4500 0.1500 0.0500  plane waves:     369
 k-point  16 :  -0.3500 0.1500 0.0500  plane waves:     368
 k-point  17 :  -0.2500 0.1500 0.0500  plane waves:     365
 k-point  18 :  -0.1500 0.1500 0.0500  plane waves:     363
 k-point  19 :  -0.0500 0.1500 0.0500  plane waves:     360
 k-point  20 :   0.2500 0.2500 0.0500  plane waves:     359
 k-point  21 :   0.3500 0.2500 0.0500  plane waves:     359
 k-point  22 :   0.4500 0.2500 0.0500  plane waves:     368
 k-point  23 :  -0.4500 0.2500 0.0500  plane waves:     369
 k-point  24 :  -0.3500 0.2500 0.0500  plane waves:     371
 k-point  25 :  -0.2500 0.2500 0.0500  plane waves:     370
 k-point  26 :  -0.1500 0.2500 0.0500  plane waves:     365
 k-point  27 :  -0.0500 0.2500 0.0500  plane waves:     363
 k-point  28 :   0.3500 0.3500 0.0500  plane waves:     361
 k-point  29 :   0.4500 0.3500 0.0500  plane waves:     367
 k-point  30 :  -0.4500 0.3500 0.0500  plane waves:     372
 k-point  31 :  -0.3500 0.3500 0.0500  plane waves:     373
 k-point  32 :  -0.2500 0.3500 0.0500  plane waves:     369
 k-point  33 :  -0.1500 0.3500 0.0500  plane waves:     368
 k-point  34 :  -0.0500 0.3500 0.0500  plane waves:     364
 k-point  35 :   0.4500 0.4500 0.0500  plane waves:     368
 k-point  36 :  -0.4500 0.4500 0.0500  plane waves:     367
 k-point  37 :  -0.3500 0.4500 0.0500  plane waves:     370
 k-point  38 :  -0.2500 0.4500 0.0500  plane waves:     372
 k-point  39 :  -0.1500 0.4500 0.0500  plane waves:     371
 k-point  40 :  -0.0500 0.4500 0.0500  plane waves:     369
 k-point  41 :  -0.4500-0.4500 0.0500  plane waves:     369
 k-point  42 :  -0.3500-0.4500 0.0500  plane waves:     364
 k-point  43 :  -0.2500-0.4500 0.0500  plane waves:     367
 k-point  44 :  -0.1500-0.4500 0.0500  plane waves:     371
 k-point  45 :  -0.3500-0.3500 0.0500  plane waves:     366
 k-point  46 :  -0.2500-0.3500 0.0500  plane waves:     365
 k-point  47 :  -0.1500-0.3500 0.0500  plane waves:     366
 k-point  48 :  -0.2500-0.2500 0.0500  plane waves:     360
 k-point  49 :  -0.1500-0.2500 0.0500  plane waves:     358
 k-point  50 :  -0.1500-0.1500 0.0500  plane waves:     356
 k-point  51 :   0.1500 0.1500 0.1500  plane waves:     362
 k-point  52 :   0.2500 0.1500 0.1500  plane waves:     364
 k-point  53 :   0.3500 0.1500 0.1500  plane waves:     366
 k-point  54 :   0.4500 0.1500 0.1500  plane waves:     367
 k-point  55 :  -0.4500 0.1500 0.1500  plane waves:     367
 k-point  56 :  -0.3500 0.1500 0.1500  plane waves:     369
 k-point  57 :  -0.2500 0.1500 0.1500  plane waves:     368
 k-point  58 :  -0.1500 0.1500 0.1500  plane waves:     363
 k-point  59 :   0.2500 0.2500 0.1500  plane waves:     364
 k-point  60 :   0.3500 0.2500 0.1500  plane waves:     368
 k-point  61 :   0.4500 0.2500 0.1500  plane waves:     367
 k-point  62 :  -0.4500 0.2500 0.1500  plane waves:     370
 k-point  63 :  -0.3500 0.2500 0.1500  plane waves:     373
 k-point  64 :  -0.2500 0.2500 0.1500  plane waves:     368
 k-point  65 :  -0.1500 0.2500 0.1500  plane waves:     362
 k-point  66 :   0.3500 0.3500 0.1500  plane waves:     362
 k-point  67 :   0.4500 0.3500 0.1500  plane waves:     364
 k-point  68 :  -0.4500 0.3500 0.1500  plane waves:     369
 k-point  69 :  -0.3500 0.3500 0.1500  plane waves:     370
 k-point  70 :  -0.2500 0.3500 0.1500  plane waves:     372
 k-point  71 :  -0.1500 0.3500 0.1500  plane waves:     365
 k-point  72 :   0.4500 0.4500 0.1500  plane waves:     369
 k-point  73 :  -0.4500 0.4500 0.1500  plane waves:     365
 k-point  74 :  -0.3500 0.4500 0.1500  plane waves:     374
 k-point  75 :  -0.2500 0.4500 0.1500  plane waves:     375
 k-point  76 :  -0.1500 0.4500 0.1500  plane waves:     374
 k-point  77 :  -0.4500-0.4500 0.1500  plane waves:     362
 k-point  78 :  -0.3500-0.4500 0.1500  plane waves:     366
 k-point  79 :  -0.2500-0.4500 0.1500  plane waves:     370
 k-point  80 :  -0.3500-0.3500 0.1500  plane waves:     366
 k-point  81 :  -0.2500-0.3500 0.1500  plane waves:     365
 k-point  82 :  -0.2500-0.2500 0.1500  plane waves:     363
 k-point  83 :   0.2500 0.2500 0.2500  plane waves:     359
 k-point  84 :   0.3500 0.2500 0.2500  plane waves:     364
 k-point  85 :   0.4500 0.2500 0.2500  plane waves:     366
 k-point  86 :  -0.4500 0.2500 0.2500  plane waves:     373
 k-point  87 :  -0.3500 0.2500 0.2500  plane waves:     369
 k-point  88 :  -0.2500 0.2500 0.2500  plane waves:     370
 k-point  89 :   0.3500 0.3500 0.2500  plane waves:     364
 k-point  90 :   0.4500 0.3500 0.2500  plane waves:     366
 k-point  91 :  -0.4500 0.3500 0.2500  plane waves:     371
 k-point  92 :  -0.3500 0.3500 0.2500  plane waves:     372
 k-point  93 :  -0.2500 0.3500 0.2500  plane waves:     372
 k-point  94 :   0.4500 0.4500 0.2500  plane waves:     368
 k-point  95 :  -0.4500 0.4500 0.2500  plane waves:     369
 k-point  96 :  -0.3500 0.4500 0.2500  plane waves:     374
 k-point  97 :  -0.2500 0.4500 0.2500  plane waves:     374
 k-point  98 :  -0.4500-0.4500 0.2500  plane waves:     368
 k-point  99 :  -0.3500-0.4500 0.2500  plane waves:     374
 k-point 100 :  -0.3500-0.3500 0.2500  plane waves:     370
 k-point 101 :   0.3500 0.3500 0.3500  plane waves:     359
 k-point 102 :   0.4500 0.3500 0.3500  plane waves:     363
 k-point 103 :  -0.4500 0.3500 0.3500  plane waves:     372
 k-point 104 :  -0.3500 0.3500 0.3500  plane waves:     371
 k-point 105 :   0.4500 0.4500 0.3500  plane waves:     370
 k-point 106 :  -0.4500 0.4500 0.3500  plane waves:     371
 k-point 107 :  -0.3500 0.4500 0.3500  plane waves:     373
 k-point 108 :  -0.4500-0.4500 0.3500  plane waves:     372
 k-point 109 :   0.4500 0.4500 0.4500  plane waves:     368
 k-point 110 :  -0.4500 0.4500 0.4500  plane waves:     370

 maximum and minimum number of plane-waves per node :       375      339

 maximum number of plane-waves:       375
 maximum index in each direction: 
   IXMAX=    5   IYMAX=    5   IZMAX=    4
   IXMIN=   -5   IYMIN=   -5   IZMIN=   -5


 serial   3D FFT for wavefunctions
 parallel 3D FFT for charge:
    minimum data exchange during FFTs selected (reduces bandwidth)


 total amount of memory used by VASP MPI-rank0    37453. kBytes
=======================================================================

   base      :      30000. kBytes
   nonl-proj :       6088. kBytes
   fftplans  :        147. kBytes
   grid      :        485. kBytes
   one-center:         15. kBytes
   wavefun   :        718. kBytes
 
     INWAV:  cpu time      0.0000: real time      0.0004
 Broyden mixing: mesh for mixing (old mesh)
   NGX =  9   NGY =  9   NGZ =  9
  (NGX  = 40   NGY  = 40   NGZ  = 40)
  gives a total of    729 points

 initial charge density was supplied:
 charge density of overlapping atoms calculated
 number of electron      16.0000000 magnetization 
 keeping initial charge density in first step


--------------------------------------------------------------------------------------------------------


 Maximum index for augmentation-charges          685 (set IRDMAX)


--------------------------------------------------------------------------------------------------------


 First call to EWALD:  gamma=   0.671
 Maximum number of real-space cells 3x 3x 3
 Maximum number of reciprocal cells 3x 3x 3

    FEWALD:  cpu time      0.0014: real time      0.0014


--------------------------------------- Iteration      1(   1)  ---------------------------------------


    POTLOK:  cpu time      0.0032: real time      0.0033
    SETDIJ:  cpu time      0.0021: real time      0.0022
     EDDAV:  cpu time      0.5121: real time      0.5151
       DOS:  cpu time      0.0010: real time      0.0010
    --------------------------------------------
      LOOP:  cpu time      0.5184: real time      0.5216

 eigenvalue-minimisations  :  6024
 total energy-change (2. order) : 0.1796121E+02  (-0.1142987E+04)
 number of electron      16.0000000 magnetization 
 augmentation part       16.0000000 magnetization 

 Free energy of the ion-electron system (eV)
  ---------------------------------------------------
  alpha Z        PSCENC =       129.98780156
  Ewald energy   TEWEN  =     -2014.39151171
  -Hartree energ DENC   =      -461.24850205
  -exchange      EXHF   =         0.00000000
  -V(xc)+E(xc)   XCENC  =        62.97667355
  PAW double counting   =      2065.75261637    -2030.83594803
  entropy T*S    EENTRO =        -0.00157962
  eigenvalues    EBANDS =      -162.47334813
  atomic energy  EATOM  =      2428.19501064
  Solvation  Ediel_sol  =         0.00000000
  ---------------------------------------------------
  free energy    TOTEN  =        17.96121259 eV

  energy without entropy =       17.96279221  energy(sigma->0) =       17.96200240


--------------------------------------------------------------------------------------------------------




--------------------------------------- Iteration      1(   2)  ---------------------------------------


     EDDAV:  cpu time      0.6768: real time      0.6809
       DOS:  cpu time      0.0005: real time      0.0005
    --------------------------------------------
      LOOP:  cpu time      0.6773: real time      0.6814

 eigenvalue-minimisations  :  7200
 total energy-change (2. order) :-0.2409850E+02  (-0.2392771E+02)
 number of electron      16.0000000 magnetization 
 augmentation part       16.0000000 magnetization 

 Free energy of the ion-electron system (eV)
  ---------------------------------------------------
  alpha Z        PSCENC =       129.98780156
  Ewald energy   TEWEN  =     -2014.39151171
  -Hartree energ DENC   =      -461.24850205
  -exchange      EXHF   =         0.00000000
  -V(xc)+E(xc)   XCENC  =        62.97667355
  PAW double counting   =      2065.75261637    -2030.83594803
  entropy T*S    EENTRO =        -0.00283128
  eigenvalues    EBANDS =      -186.57059844
  atomic energy  EATOM  =      2428.19501064
  Solvation  Ediel_sol  =         0.00000000
  ---------------------------------------------------
  free energy    TOTEN  =        -6.13728938 eV

  energy without entropy =       -6.13445810  energy(sigma->0) =       -6.13587374


--------------------------------------------------------------------------------------------------------




--------------------------------------- Iteration      1(   3)  ---------------------------------------


     EDDAV:  cpu time      0.6118: real time      0.6151
       DOS:  cpu time      0.0005: real time      0.0005
    --------------------------------------------
      LOOP:  cpu time      0.6123: real time      0.6156

 eigenvalue-minimisations  :  6480
 total energy-change (2. order) :-0.3230162E-01  (-0.3229953E-01)
 number of electron      16.0000000 magnetization 
 augmentation part       16.0000000 magnetization 

 Free energy of the ion-electron system (eV)
  ---------------------------------------------------
  alpha Z        PSCENC =       129.98780156
  Ewald energy   TEWEN  =     -2014.39151171
  -Hartree energ DENC   =      -461.24850205
  -exchange      EXHF   =         0.00000000
  -V(xc)+E(xc)   XCENC  =        62.97667355
  PAW double counting   =      2065.75261637    -2030.83594803
  entropy T*S    EENTRO =        -0.00283798
  eigenvalues    EBANDS =      -186.60289336
  atomic energy  EATOM  =      2428.19501064
  Solvation  Ediel_sol  =         0.00000000
  ---------------------------------------------------
  free energy    TOTEN  =        -6.16959100 eV

  energy without entropy =       -6.16675301  energy(sigma->0) =       -6.16817200


--------------------------------------------------------------------------------------------------------




--------------------------------------- Iteration      1(   4)  ---------------------------------------


     EDDAV:  cpu time      1.0238: real time      1.0293
       DOS:  cpu time      0.0005: real time      0.0005
    --------------------------------------------
      LOOP:  cpu time      1.0243: real time      1.0298

 eigenvalue-minimisations  :  8952
 total energy-change (2. order) :-0.3835045E-04  (-0.3835052E-04)
 number of electron      16.0000000 magnetization 
 augmentation part       16.0000000 magnetization 

 Free energy of the ion-electron system (eV)
  ---------------------------------------------------
  alpha Z        PSCENC =       129.98780156
  Ewald energy   TEWEN  =     -2014.39151171
  -Hartree energ DENC   =      -461.24850205
  -exchange      EXHF   =         0.00000000
  -V(xc)+E(xc)   XCENC  =        62.97667355
  PAW double counting   =      2065.75261637    -2030.83594803
  entropy T*S    EENTRO =        -0.00283800
  eigenvalues    EBANDS =      -186.60293169
  atomic energy  EATOM  =      2428.19501064
  Solvation  Ediel_sol  =         0.00000000
  ---------------------------------------------------
  free energy    TOTEN  =        -6.16962935 eV

  energy without entropy =       -6.16679135  energy(sigma->0) =       -6.16821035


--------------------------------------------------------------------------------------------------------




--------------------------------------- Iteration      1(   5)  ---------------------------------------


     EDDAV:  cpu time      0.6183: real time      0.6215
       DOS:  cpu time      0.0005: real time      0.0005
    CHARGE:  cpu time      0.0181: real time      0.0182
    MIXING:  cpu time      0.0003: real time      0.0003
    --------------------------------------------
      LOOP:  cpu time      0.6372: real time      0.6405

 eigenvalue-minimisations  :  6504
 total energy-change (2. order) :-0.1157787E-08  (-0.1027272E-08)
 number of electron      16.0000003 magnetization 
 augmentation part        3.9694540 magnetization 

 Broyden mixing:
  rms(total) = 0.95325E+00    rms(broyden)= 0.95295E+00
  rms(prec ) = 0.16794E+01
  weight for this iteration     100.00

 Free energy of the ion-electron system (eV)
  ---------------------------------------------------
  alpha Z        PSCENC =       129.98780156
  Ewald energy   TEWEN  =     -2014.39151171
  -Hartree energ DENC   =      -461.24850205
  -exchange      EXHF   =         0.00000000
  -V(xc)+E(xc)   XCENC  =        62.97667355
  PAW double counting   =      2065.75261637    -2030.83594803
  entropy T*S    EENTRO =        -0.00283800
  eigenvalues    EBANDS =      -186.60293170
  atomic energy  EATOM  =      2428.19501064
  Solvation  Ediel_sol  =         0.00000000
  ---------------------------------------------------
  free energy    TOTEN  =        -6.16962935 eV

  energy without entropy =       -6.16679135  energy(sigma->0) =       -6.16821035


--------------------------------------------------------------------------------------------------------




--------------------------------------- Iteration      1(   6)  ---------------------------------------


    POTLOK:  cpu time      0.0025: real time      0.0027
    SETDIJ:  cpu time      0.0020: real time      0.0020
     EDDAV:  cpu time      0.5371: real time      0.5401
       DOS:  cpu time      0.0005: real time      0.0005
    CHARGE:  cpu time      0.0175: real time      0.0176
    MIXING:  cpu time      0.0002: real time      0.0002
    --------------------------------------------
      LOOP:  cpu time      0.5599: real time      0.5631

 eigenvalue-minimisations  :  6120
 total energy-change (2. order) : 0.3494056E+00  (-0.1652307E+00)
 number of electron      16.0000003 magnetization 
 augmentation part        4.1041192 magnetization 

 Broyden mixing:
  rms(total) = 0.19836E+00    rms(broyden)= 0.19833E+00
  rms(prec ) = 0.32373E+00
  weight for this iteration     100.00

 eigenvalues of (default mixing * dielectric matrix)
  average eigenvalue GAMMA=   1.1989
  1.1989

 Free energy of the ion-electron system (eV)
  ---------------------------------------------------
  alpha Z        PSCENC =       129.98780156
  Ewald energy   TEWEN  =     -2014.39151171
  -Hartree energ DENC   =      -444.18147612
  -exchange      EXHF   =         0.00000000
  -V(xc)+E(xc)   XCENC  =        62.25746237
  PAW double counting   =      2141.57029906    -2108.48969194
  entropy T*S    EENTRO =        -0.00336424
  eigenvalues    EBANDS =      -200.76475339
  atomic energy  EATOM  =      2428.19501064
  Solvation  Ediel_sol  =         0.00000000
  ---------------------------------------------------
  free energy    TOTEN  =        -5.82022376 eV

  energy without entropy =       -5.81685952  energy(sigma->0) =       -5.81854164


--------------------------------------------------------------------------------------------------------




--------------------------------------- Iteration      1(   7)  ---------------------------------------


    POTLOK:  cpu time      0.0023: real time      0.0024
    SETDIJ:  cpu time      0.0018: real time      0.0018
     EDDAV:  cpu time      0.7869: real time      0.7910
       DOS:  cpu time      0.0005: real time      0.0005
    CHARGE:  cpu time      0.0173: real time      0.0173
    MIXING:  cpu time      0.0004: real time      0.0004
    --------------------------------------------
      LOOP:  cpu time      0.8091: real time      0.8134

 eigenvalue-minimisations  :  7824
 total energy-change (2. order) : 0.8083852E-02  (-0.2594137E-02)
 number of electron      16.0000003 magnetization 
 augmentation part        4.1185267 magnetization 

 Broyden mixing:
  rms(total) = 0.86339E-01    rms(broyden)= 0.86337E-01
  rms(prec ) = 0.14090E+00
  weight for this iteration     100.00

 eigenvalues of (default mixing * dielectric matrix)
  average eigenvalue GAMMA=   1.8518
  1.0896  2.6140

 Free energy of the ion-electron system (eV)
  ---------------------------------------------------
  alpha Z        PSCENC =       129.98780156
  Ewald energy   TEWEN  =     -2014.39151171
  -Hartree energ DENC   =      -441.95106092
  -exchange      EXHF   =         0.00000000
  -V(xc)+E(xc)   XCENC  =        62.15258356
  PAW double counting   =      2147.15307545    -2114.20931212
  entropy T*S    EENTRO =        -0.00338457
  eigenvalues    EBANDS =      -202.74534180
  atomic energy  EATOM  =      2428.19501064
  Solvation  Ediel_sol  =         0.00000000
  ---------------------------------------------------
  free energy    TOTEN  =        -5.81213990 eV

  energy without entropy =       -5.80875534  energy(sigma->0) =       -5.81044762


--------------------------------------------------------------------------------------------------------




--------------------------------------- Iteration      1(   8)  ---------------------------------------


    POTLOK:  cpu time      0.0022: real time      0.0024
    SETDIJ:  cpu time      0.0018: real time      0.0018
     EDDAV:  cpu time      0.5778: real time      0.5810
       DOS:  cpu time      0.0005: real time      0.0005
    CHARGE:  cpu time      0.0173: real time      0.0173
    MIXING:  cpu time      0.0002: real time      0.0002
    --------------------------------------------
      LOOP:  cpu time      0.5998: real time      0.6032

 eigenvalue-minimisations  :  6384
 total energy-change (2. order) : 0.9259423E-03  (-0.3915345E-03)
 number of electron      16.0000003 magnetization 
 augmentation part        4.1167360 magnetization 

 Broyden mixing:
  rms(total) = 0.35724E-02    rms(broyden)= 0.35101E-02
  rms(prec ) = 0.71170E-02
  weight for this iteration     100.00

 eigenvalues of (default mixing * dielectric matrix)
  average eigenvalue GAMMA=   1.5580
  2.4189  1.0743  1.1808

 Free energy of the ion-electron system (eV)
  ---------------------------------------------------
  alpha Z        PSCENC =       129.98780156
  Ewald energy   TEWEN  =     -2014.39151171
  -Hartree energ DENC   =      -441.62668974
  -exchange      EXHF   =         0.00000000
  -V(xc)+E(xc)   XCENC  =        62.12476969
  PAW double counting   =      2146.71517309    -2113.63731668
  entropy T*S    EENTRO =        -0.00341909
  eigenvalues    EBANDS =      -203.17503172
  atomic energy  EATOM  =      2428.19501064
  Solvation  Ediel_sol  =         0.00000000
  ---------------------------------------------------
  free energy    TOTEN  =        -5.81121396 eV

  energy without entropy =       -5.80779487  energy(sigma->0) =       -5.80950441


--------------------------------------------------------------------------------------------------------




--------------------------------------- Iteration      1(   9)  ---------------------------------------


    POTLOK:  cpu time      0.0022: real time      0.0023
    SETDIJ:  cpu time      0.0017: real time      0.0018
     EDDAV:  cpu time      0.7557: real time      0.7596
       DOS:  cpu time      0.0005: real time      0.0005
    CHARGE:  cpu time      0.0172: real time      0.0172
    MIXING:  cpu time      0.0002: real time      0.0002
    --------------------------------------------
      LOOP:  cpu time      0.7775: real time      0.7816

 eigenvalue-minimisations  :  7464
 total energy-change (2. order) : 0.7021764E-05  (-0.2050100E-05)
 number of electron      16.0000003 magnetization 
 augmentation part        4.1167346 magnetization 

 Broyden mixing:
  rms(total) = 0.16284E-02    rms(broyden)= 0.16240E-02
  rms(prec ) = 0.33489E-02
  weight for this iteration     100.00

 eigenvalues of (default mixing * dielectric matrix)
  average eigenvalue GAMMA=   1.8154
  1.0232  1.1064  2.7919  2.3401

 Free energy of the ion-electron system (eV)
  ---------------------------------------------------
  alpha Z        PSCENC =       129.98780156
  Ewald energy   TEWEN  =     -2014.39151171
  -Hartree energ DENC   =      -441.67063877
  -exchange      EXHF   =         0.00000000
  -V(xc)+E(xc)   XCENC  =        62.12699188
  PAW double counting   =      2147.83579891    -2114.74044468
  entropy T*S    EENTRO =        -0.00341672
  eigenvalues    EBANDS =      -203.15079806
  atomic energy  EATOM  =      2428.19501064
  Solvation  Ediel_sol  =         0.00000000
  ---------------------------------------------------
  free energy    TOTEN  =        -5.81120694 eV

  energy without entropy =       -5.80779022  energy(sigma->0) =       -5.80949858


--------------------------------------------------------------------------------------------------------




--------------------------------------- Iteration      1(  10)  ---------------------------------------


    POTLOK:  cpu time      0.0022: real time      0.0024
    SETDIJ:  cpu time      0.0018: real time      0.0018
     EDDAV:  cpu time      0.7551: real time      0.7591
       DOS:  cpu time      0.0005: real time      0.0005
    CHARGE:  cpu time      0.0178: real time      0.0178
    MIXING:  cpu time      0.0003: real time      0.0003
    --------------------------------------------
      LOOP:  cpu time      0.7777: real time      0.7819

 eigenvalue-minimisations  :  7488
 total energy-change (2. order) :-0.9132758E-05  (-0.8808016E-06)
 number of electron      16.0000003 magnetization 
 augmentation part        4.1167965 magnetization 

 Broyden mixing:
  rms(total) = 0.47935E-03    rms(broyden)= 0.47858E-03
  rms(prec ) = 0.50114E-03
  weight for this iteration     100.00

 eigenvalues of (default mixing * dielectric matrix)
  average eigenvalue GAMMA=   1.7648
  2.6920  2.3705  0.9962  1.1076  1.6577

 Free energy of the ion-electron system (eV)
  ---------------------------------------------------
  alpha Z        PSCENC =       129.98780156
  Ewald energy   TEWEN  =     -2014.39151171
  -Hartree energ DENC   =      -441.69424808
  -exchange      EXHF   =         0.00000000
  -V(xc)+E(xc)   XCENC  =        62.12785534
  PAW double counting   =      2149.21481495    -2116.09141774
  entropy T*S    EENTRO =        -0.00341615
  eigenvalues    EBANDS =      -203.15610490
  atomic energy  EATOM  =      2428.19501064
  Solvation  Ediel_sol  =         0.00000000
  ---------------------------------------------------
  free energy    TOTEN  =        -5.81121607 eV

  energy without entropy =       -5.80779992  energy(sigma->0) =       -5.80950800


--------------------------------------------------------------------------------------------------------




--------------------------------------- Iteration      1(  11)  ---------------------------------------


    POTLOK:  cpu time      0.0024: real time      0.0024
    SETDIJ:  cpu time      0.0019: real time      0.0019
     EDDAV:  cpu time      0.3791: real time      0.3813
       DOS:  cpu time      0.0005: real time      0.0005
    --------------------------------------------
      LOOP:  cpu time      0.3840: real time      0.3862

 eigenvalue-minimisations  :  4344
 total energy-change (2. order) : 0.1136841E-06  (-0.1255606E-08)
 number of electron      16.0000003 magnetization 
 augmentation part        4.1167965 magnetization 

 Free energy of the ion-electron system (eV)
  ---------------------------------------------------
  alpha Z        PSCENC =       129.98780156
  Ewald energy   TEWEN  =     -2014.39151171
  -Hartree energ DENC   =      -441.69298631
  -exchange      EXHF   =         0.00000000
  -V(xc)+E(xc)   XCENC  =        62.12781181
  PAW double counting   =      2149.00437093    -2115.88249033
  entropy T*S    EENTRO =        -0.00341609
  eigenvalues    EBANDS =      -203.15580646
  atomic energy  EATOM  =      2428.19501064
  Solvation  Ediel_sol  =         0.00000000
  ---------------------------------------------------
  free energy    TOTEN  =        -5.81121596 eV

  energy without entropy =       -5.80779987  energy(sigma->0) =       -5.80950791


--------------------------------------------------------------------------------------------------------




 average (electrostatic) potential at core
  the test charge radii are     0.9952
  (the norm of the test charge is              1.0000)
       1 -91.7117
 
 
 
 E-fermi :   8.4689     XC(G=0): -12.7269     alpha+bet :-14.2121

 Fermi energy:         8.4689077029

 k-point     1 :       0.0500    0.0500    0.0500
  band No.  band energies     occupation 
      1     -43.4952      2.00000
      2     -43.4907      2.00000
      3     -43.4907      2.00000
      4       0.3741      2.00000
      5       5.7092      2.00000
      6       5.7702      2.00000
      7       5.7702      2.00000
      8       7.2763      2.00000
      9       7.2763      2.00000
     10      23.4985      0.00000
     11      26.6985      0.00000
     12      27.3533      0.00000
     13      27.3533      0.00000
     14      32.4204      0.00000
     15      35.2218      0.00000
     16      35.8462      0.00000
     17      35.8462      0.00000
     18      38.0636      0.00000
     19      38.0636      0.00000
     20      38.8677      0.00000
     21      44.9867      0.00000
     22      44.9867      0.00000
     23      49.3430      0.00000
     24      49.9031      0.00000

 k-point     2 :       0.1500    0.0500    0.0500
  band No.  band energies     occupation 
      1     -43.5218      2.00000
      2     -43.4985      2.00000
      3     -43.4940      2.00000
      4       0.8077      2.00000
      5       5.5493      2.00000
      6       5.9051      2.00000
      7       5.9338      2.00000
      8       7.1239      2.00000
      9       7.3217      2.00000
     10      23.9452      0.00000
     11      24.9863      0.00000
     12      27.1698      0.00000
     13      28.2538      0.00000
     14      31.8102      0.00000
     15      34.0151      0.00000
     16      35.0288      0.00000
     17      35.2638      0.00000
     18      36.8641      0.00000
     19      39.3920      0.00000
     20      41.2835      0.00000
     21      44.2676      0.00000
     22      46.1490      0.00000
     23      49.8741      0.00000
     24      51.5213      0.00000

 k-point     3 :       0.2500    0.0500    0.0500
  band No.  band energies     occupation 
      1     -43.5788      2.00000
      2     -43.5099      2.00000
      3     -43.5022      2.00000
      4       1.7624      2.00000
      5       5.3953      2.00000
      6       6.0507      2.00000
      7       6.0774      2.00000
      8       7.1239      2.00000
      9       7.5206      2.00000
     10      21.6567      0.00000
     11      24.5830      0.00000
     12      27.5466      0.00000
     13      29.5577      0.00000
     14      29.6969      0.00000
     15      31.9602      0.00000
     16      32.7269      0.00000
     17      37.4523      0.00000
     18      38.4463      0.00000
     19      40.3932      0.00000
     20      42.3136      0.00000
     21      45.0746      0.00000
     22      47.0500      0.00000
     23      49.8698      0.00000
     24      53.7231      0.00000

 k-point     4 :       0.3500    0.0500    0.0500
  band No.  band energies     occupation 
      1     -43.6434      2.00000
      2     -43.5204      2.00000
      3     -43.5122      2.00000
      4       2.7060      2.00000
      5       5.8197      2.00000
      6       5.9637      2.00000
      7       5.9684      2.00000
      8       7.5990      2.00000
      9       8.0606      2.00000
     10      17.9911      0.00000
     11      23.9613      0.00000
     12      26.6622      0.00000
     13      28.6679      0.00000
     14      30.6637      0.00000
     15      31.9397      0.00000
     16      32.8397      0.00000
     17      38.1032      0.00000
     18      39.7053      0.00000
     19      41.9714      0.00000
     20      44.3196      0.00000
     21      46.2710      0.00000
     22      47.8988      0.00000
     23      49.8767      0.00000
     24      52.4230      0.00000

 k-point     5 :       0.4500    0.0500    0.0500
  band No.  band energies     occupation 
      1     -43.6921      2.00000
      2     -43.5269      2.00000
      3     -43.5209      2.00000
      4       3.0254      2.00000
      5       5.7337      2.00000
      6       5.8049      2.00000
      7       7.3012      2.00000
      8       8.1919      2.00000
      9       8.7760      0.00000
     10      14.4956      0.00000
     11      23.2099      0.00000
     12      25.6642      0.00000
     13      26.6463      0.00000
     14      32.7149      0.00000
     15      33.2432      0.00000
     16      34.1195      0.00000
     17      39.0898      0.00000
     18      40.0112      0.00000
     19      41.6934      0.00000
     20      46.1643      0.00000
     21      48.7541      0.00000
     22      48.9297      0.00000
     23      49.6936      0.00000
     24      49.8782      0.00000

 k-point     6 :      -0.4500    0.0500    0.0500
  band No.  band energies     occupation 
      1     -43.7062      2.00000
      2     -43.5273      2.00000
      3     -43.5252      2.00000
      4       3.0520      2.00000
      5       5.6691      2.00000
      6       5.7658      2.00000
      7       7.8363      2.00000
      8       8.4764      0.83202
      9       9.3742      0.00000
     10      12.9855      0.00000
     11      23.0030      0.00000
     12      25.6654      0.00000
     13      25.7596      0.00000
     14      33.4368      0.00000
     15      33.5644      0.00000
     16      34.8211      0.00000
     17      39.4683      0.00000
     18      40.2950      0.00000
     19      41.0681      0.00000
     20      47.2659      0.00000
     21      47.9387      0.00000
     22      48.4966      0.00000
     23      49.7618      0.00000
     24      49.8774      0.00000

 k-point     7 :      -0.3500    0.0500    0.0500
  band No.  band energies     occupation 
      1     -43.6791      2.00000
      2     -43.5226      2.00000
      3     -43.5208      2.00000
      4       2.9753      2.00000
      5       5.7646      2.00000
      6       5.8731      2.00000
      7       6.7483      2.00000
      8       8.2747      2.00000
      9       8.2933      2.00000
     10      15.5793      0.00000
     11      23.4288      0.00000
     12      26.1422      0.00000
     13      26.8848      0.00000
     14      32.6602      0.00000
     15      32.6903      0.00000
     16      33.3898      0.00000
     17      38.1973      0.00000
     18      40.8469      0.00000
     19      41.6092      0.00000
     20      45.9590      0.00000
     21      47.5286      0.00000
     22      48.8080      0.00000
     23      49.8781      0.00000
     24      50.1283      0.00000

 k-point     8 :      -0.2500    0.0500    0.0500
  band No.  band energies     occupation 
      1     -43.6229      2.00000
      2     -43.5148      2.00000
      3     -43.5111      2.00000
      4       2.4470      2.00000
      5       5.5661      2.00000
      6       5.9733      2.00000
      7       6.0401      2.00000
      8       7.4955      2.00000
      9       7.7776      2.00000
     10      19.2331      0.00000
     11      24.2966      0.00000
     12      27.2064      0.00000
     13      28.7972      0.00000
     14      30.4590      0.00000
     15      31.8549      0.00000
     16      32.1778      0.00000
     17      37.5254      0.00000
     18      40.7066      0.00000
     19      40.8685      0.00000
     20      43.6258      0.00000
     21      45.1441      0.00000
     22      47.9684      0.00000
     23      49.8746      0.00000
     24      52.9088      0.00000

 k-point     9 :      -0.1500    0.0500    0.0500
  band No.  band energies     occupation 
      1     -43.5575      2.00000
      2     -43.5042      2.00000
      3     -43.5008      2.00000
      4       1.4072      2.00000
      5       5.4044      2.00000
      6       6.0437      2.00000
      7       6.0576      2.00000
      8       7.0809      2.00000
      9       7.4058      2.00000
     10      22.7958      0.00000
     11      24.5941      0.00000
     12      27.5364      0.00000
     13      28.7773      0.00000
     14      30.4107      0.00000
     15      32.5277      0.00000
     16      33.2322      0.00000
     17      36.9566      0.00000
     18      37.8096      0.00000
     19      40.4190      0.00000
     20      41.7783      0.00000
     21      44.4441      0.00000
     22      46.8875      0.00000
     23      49.8726      0.00000
     24      53.6603      0.00000

 k-point    10 :      -0.0500    0.0500    0.0500
  band No.  band energies     occupation 
      1     -43.5075      2.00000
      2     -43.4948      2.00000
      3     -43.4937      2.00000
      4       0.5943      2.00000
      5       5.5996      2.00000
      6       5.8616      2.00000
      7       5.8670      2.00000
      8       7.1491      2.00000
      9       7.3322      2.00000
     10      23.7656      0.00000
     11      25.9291      0.00000
     12      27.2193      0.00000
     13      27.5228      0.00000
     14      33.0054      0.00000
     15      34.3573      0.00000
     16      34.5214      0.00000
     17      35.7124      0.00000
     18      36.6304      0.00000
     19      39.8308      0.00000
     20      40.1995      0.00000
     21      44.1792      0.00000
     22      45.7842      0.00000
     23      49.8753      0.00000
     24      50.6230      0.00000

 k-point    11 :       0.1500    0.1500    0.0500
  band No.  band energies     occupation 
      1     -43.5276      2.00000
      2     -43.5026      2.00000
      3     -43.5016      2.00000
      4       1.0230      2.00000
      5       5.3827      2.00000
      6       6.0540      2.00000
      7       6.0583      2.00000
      8       6.9259      2.00000
      9       7.4398      2.00000
     10      24.2437      0.00000
     11      25.1720      0.00000
     12      26.7797      0.00000
     13      27.2837      0.00000
     14      32.0868      0.00000
     15      33.3222      0.00000
     16      33.9585      0.00000
     17      35.9588      0.00000
     18      36.6320      0.00000
     19      41.4906      0.00000
     20      41.7198      0.00000
     21      43.0013      0.00000
     22      46.3019      0.00000
     23      49.8745      0.00000
     24      52.7763      0.00000

 k-point    12 :       0.2500    0.1500    0.0500
  band No.  band energies     occupation 
      1     -43.5673      2.00000
      2     -43.5175      2.00000
      3     -43.5081      2.00000
      4       1.8111      2.00000
      5       5.1288      2.00000
      6       6.1507      2.00000
      7       6.3292      2.00000
      8       6.8540      2.00000
      9       7.6487      2.00000
     10      23.0402      0.00000
     11      24.5739      0.00000
     12      26.3190      0.00000
     13      27.5256      0.00000
     14      30.1947      0.00000
     15      32.5813      0.00000
     16      33.5374      0.00000
     17      36.3885      0.00000
     18      38.9328      0.00000
     19      41.2830      0.00000
     20      42.0820      0.00000
     21      44.3586      0.00000
     22      47.6075      0.00000
     23      49.8732      0.00000
     24      53.3947      0.00000

 k-point    13 :       0.3500    0.1500    0.0500
  band No.  band energies     occupation 
      1     -43.6241      2.00000
      2     -43.5314      2.00000
      3     -43.5184      2.00000
      4       2.8379      2.00000
      5       5.1524      2.00000
      6       5.8547      2.00000
      7       6.3423      2.00000
      8       7.4757      2.00000
      9       8.1835      2.00000
     10      19.4365      0.00000
     11      24.1532      0.00000
     12      25.3915      0.00000
     13      27.4860      0.00000
     14      30.8126      0.00000
     15      32.2956      0.00000
     16      34.0467      0.00000
     17      35.9414      0.00000
     18      41.1795      0.00000
     19      42.0422      0.00000
     20      43.4815      0.00000
     21      45.1137      0.00000
     22      49.4087      0.00000
     23      49.8714      0.00000
     24      51.5664      0.00000

[...]
     13      27.8887      0.00000
     14      32.3717      0.00000
     15      33.2501      0.00000
     16      37.0499      0.00000
     17      38.9117      0.00000
     18      41.4893      0.00000
     19      44.2814      0.00000
     20      45.4577      0.00000
     21      46.2389      0.00000
     22      49.8702      0.00000
     23      50.2338      0.00000
     24      50.5723      0.00000

 k-point   100 :      -0.3500   -0.3500    0.2500
  band No.  band energies     occupation 
      1     -43.6639      2.00000
      2     -43.6176      2.00000
      3     -43.5573      2.00000
      4       3.9427      2.00000
      5       4.5463      2.00000
      6       6.4439      2.00000
      7       7.5117      2.00000
      8       8.3558      1.99862
      9      13.3545      0.00000
     10      14.1545      0.00000
     11      17.3141      0.00000
     12      21.7404      0.00000
     13      26.4781      0.00000
     14      32.3529      0.00000
     15      34.3712      0.00000
     16      35.5247      0.00000
     17      41.1288      0.00000
     18      42.6157      0.00000
     19      42.8158      0.00000
     20      45.5320      0.00000
     21      45.5374      0.00000
     22      49.4634      0.00000
     23      49.8738      0.00000
     24      50.3276      0.00000

 k-point   101 :       0.3500    0.3500    0.3500
  band No.  band energies     occupation 
      1     -43.6633      2.00000
      2     -43.5169      2.00000
      3     -43.5169      2.00000
      4       2.8080      2.00000
      5       5.8697      2.00000
      6       5.8697      2.00000
      7       6.4236      2.00000
      8       7.9730      2.00000
      9       7.9730      2.00000
     10      16.7302      0.00000
     11      23.6223      0.00000
     12      27.3217      0.00000
     13      27.3217      0.00000
     14      32.0182      0.00000
     15      32.2485      0.00000
     16      32.2485      0.00000
     17      39.6031      0.00000
     18      39.6031      0.00000
     19      40.9951      0.00000
     20      46.4366      0.00000
     21      47.0284      0.00000
     22      47.0284      0.00000
     23      49.8785      0.00000
     24      52.2472      0.00000

 k-point   102 :       0.4500    0.3500    0.3500
  band No.  band energies     occupation 
      1     -43.6753      2.00000
      2     -43.5376      2.00000
      3     -43.5194      2.00000
      4       3.1807      2.00000
      5       5.6824      2.00000
      6       5.9783      2.00000
      7       6.4159      2.00000
      8       7.8622      2.00000
      9       9.0555      0.00000
     10      15.6977      0.00000
     11      23.3565      0.00000
     12      24.8484      0.00000
     13      27.3179      0.00000
     14      31.5466      0.00000
     15      33.2954      0.00000
     16      34.9118      0.00000
     17      37.9239      0.00000
     18      39.6640      0.00000
     19      43.1557      0.00000
     20      44.1178      0.00000
     21      48.6820      0.00000
     22      49.0192      0.00000
     23      49.8781      0.00000
     24      50.0944      0.00000

 k-point   103 :      -0.4500    0.3500    0.3500
  band No.  band energies     occupation 
      1     -43.6716      2.00000
      2     -43.5787      2.00000
      3     -43.5301      2.00000
      4       3.9054      2.00000
      5       5.2917      2.00000
      6       5.9585      2.00000
      7       6.4225      2.00000
      8       7.8361      2.00000
      9      10.5690      0.00000
     10      15.2021      0.00000
     11      20.7157      0.00000
     12      24.8884      0.00000
     13      25.8484      0.00000
     14      31.8079      0.00000
     15      33.8298      0.00000
     16      36.8409      0.00000
     17      38.9050      0.00000
     18      40.2499      0.00000
     19      41.8085      0.00000
     20      43.8591      0.00000
     21      47.2143      0.00000
     22      49.8708      0.00000
     23      50.0981      0.00000
     24      51.0047      0.00000

 k-point   104 :      -0.3500    0.3500    0.3500
  band No.  band energies     occupation 
      1     -43.6511      2.00000
      2     -43.6249      2.00000
      3     -43.5445      2.00000
      4       4.2513      2.00000
      5       5.0463      2.00000
      6       5.7644      2.00000
      7       7.0344      2.00000
      8       7.9786      2.00000
      9      11.9461      0.00000
     10      15.5720      0.00000
     11      17.5174      0.00000
     12      23.7124      0.00000
     13      25.7628      0.00000
     14      33.2308      0.00000
     15      33.9725      0.00000
     16      35.1667      0.00000
     17      40.6994      0.00000
     18      41.4509      0.00000
     19      42.5168      0.00000
     20      45.7173      0.00000
     21      45.8801      0.00000
     22      47.1979      0.00000
     23      49.8740      0.00000
     24      52.0912      0.00000

 k-point   105 :       0.4500    0.4500    0.3500
  band No.  band energies     occupation 
      1     -43.6888      2.00000
      2     -43.5328      2.00000
      3     -43.5289      2.00000
      4       3.2100      2.00000
      5       5.5945      2.00000
      6       5.9777      2.00000
      7       6.6566      2.00000
      8       8.4620      1.15598
      9       9.2312      0.00000
     10      14.5383      0.00000
     11      23.3908      0.00000
     12      25.1973      0.00000
     13      25.6767      0.00000
     14      33.0956      0.00000
     15      33.7459      0.00000
     16      34.6344      0.00000
     17      36.9813      0.00000
     18      41.7621      0.00000
     19      42.1567      0.00000
     20      44.9278      0.00000
     21      48.2140      0.00000
     22      48.6557      0.00000
     23      49.8531      0.00000
     24      49.9142      0.00000

 k-point   106 :      -0.4500    0.4500    0.3500
  band No.  band energies     occupation 
      1     -43.6854      2.00000
      2     -43.5623      2.00000
      3     -43.5350      2.00000
      4       3.6863      2.00000
      5       5.2825      2.00000
      6       6.2022      2.00000
      7       6.3721      2.00000
      8       8.3077      1.99999
      9      10.8647      0.00000
     10      13.7992      0.00000
     11      22.4816      0.00000
     12      23.2114      0.00000
     13      26.0004      0.00000
     14      32.5386      0.00000
     15      34.4884      0.00000
     16      36.4740      0.00000
     17      37.3904      0.00000
     18      40.8083      0.00000
     19      42.5072      0.00000
     20      44.2441      0.00000
     21      47.0978      0.00000
     22      49.8687      0.00000
     23      50.0176      0.00000
     24      51.1433      0.00000

 k-point   107 :      -0.3500    0.4500    0.3500
  band No.  band energies     occupation 
      1     -43.6670      2.00000
      2     -43.6021      2.00000
      3     -43.5488      2.00000
      4       4.3082      2.00000
      5       4.9113      2.00000
      6       5.7535      2.00000
      7       6.8730      2.00000
      8       8.2583      2.00000
      9      12.4919      0.00000
     10      13.8462      0.00000
     11      19.4349      0.00000
     12      22.1342      0.00000
     13      26.9971      0.00000
     14      32.2126      0.00000
     15      35.4964      0.00000
     16      35.7938      0.00000
     17      37.9106      0.00000
     18      40.5560      0.00000
     19      44.0485      0.00000
     20      45.3957      0.00000
     21      46.3114      0.00000
     22      48.5999      0.00000
     23      49.8704      0.00000
     24      51.0566      0.00000

 k-point   108 :      -0.4500   -0.4500    0.3500
  band No.  band energies     occupation 
      1     -43.6841      2.00000
      2     -43.5738      2.00000
      3     -43.5393      2.00000
      4       3.8174      2.00000
      5       5.1790      2.00000
      6       6.1826      2.00000
      7       6.4514      2.00000
      8       8.4073      1.91846
      9      11.9860      0.00000
     10      12.8959      0.00000
     11      21.3858      0.00000
     12      24.0639      0.00000
     13      24.9222      0.00000
     14      33.7606      0.00000
     15      33.8725      0.00000
     16      35.7526      0.00000
     17      38.4556      0.00000
     18      41.5160      0.00000
     19      42.0253      0.00000
     20      44.5329      0.00000
     21      46.6608      0.00000
     22      49.3202      0.00000
     23      49.8709      0.00000
     24      51.9352      0.00000

 k-point   109 :       0.4500    0.4500    0.4500
  band No.  band energies     occupation 
      1     -43.7032      2.00000
      2     -43.5230      2.00000
      3     -43.5230      2.00000
      4       2.9799      2.00000
      5       5.7326      2.00000
      6       5.7326      2.00000
      7       8.2755      2.00000
      8       8.4084      1.91294
      9       8.4084      1.91294
     10      13.5626      0.00000
     11      22.9953      0.00000
     12      26.0982      0.00000
     13      26.0982      0.00000
     14      33.3117      0.00000
     15      33.3117      0.00000
     16      34.2097      0.00000
     17      39.9371      0.00000
     18      39.9371      0.00000
     19      41.0468      0.00000
     20      48.0595      0.00000
     21      48.0595      0.00000
     22      48.4793      0.00000
     23      49.7147      0.00000
     24      49.7147      0.00000

 k-point   110 :      -0.4500    0.4500    0.4500
  band No.  band energies     occupation 
      1     -43.7012      2.00000
      2     -43.5390      2.00000
      3     -43.5272      2.00000
      4       3.2402      2.00000
      5       5.5521      2.00000
      6       5.9020      2.00000
      7       7.2270      2.00000
      8       8.3850      1.98241
      9      10.2231      0.00000
     10      12.9765      0.00000
     11      23.1058      0.00000
     12      24.6926      0.00000
     13      25.6455      0.00000
     14      33.3819      0.00000
     15      33.5786      0.00000
     16      35.6130      0.00000
     17      39.4528      0.00000
     18      40.1074      0.00000
     19      40.9780      0.00000
     20      46.2759      0.00000
     21      46.8443      0.00000
     22      49.5448      0.00000
     23      49.8780      0.00000
     24      50.5093      0.00000


--------------------------------------------------------------------------------------------------------


 soft charge-density along one line, spin component           1
         0         1         2         3         4         5         6         7         8         9
 total charge-density along one line
 
 pseudopotential strength for first ion, spin component:           1
-32.463  -0.000  -0.000  11.516   0.000   0.000  -0.000  -0.000
 -0.000 -32.463  -0.000   0.000  11.516   0.000  -0.000  -0.000
 -0.000  -0.000 -32.463   0.000   0.000  11.516  -0.000  -0.000
 11.516   0.000   0.000  15.937  -0.000  -0.000   0.000   0.000
  0.000  11.516   0.000  -0.000  15.937  -0.000   0.000   0.000
  0.000   0.000  11.516  -0.000  -0.000  15.937   0.000   0.000
 -0.000  -0.000  -0.000   0.000   0.000   0.000  -4.236   0.000
 -0.000  -0.000  -0.000   0.000   0.000   0.000   0.000  -4.236
  0.000   0.000  -0.000  -0.000   0.000   0.000   0.000  -0.000
 -0.000  -0.000  -0.000   0.000   0.000   0.000   0.000   0.000
  0.000   0.000   0.000  -0.000  -0.000   0.000   0.000   0.000
 -0.000  -0.000  -0.000   0.000   0.000   0.000  -4.528   0.000
 -0.000  -0.000  -0.000   0.000   0.000   0.000   0.000  -4.528
  0.000   0.000   0.000  -0.000   0.000  -0.000   0.000  -0.000
 -0.000  -0.000   0.000   0.000   0.000   0.000   0.000   0.000
  0.000   0.000   0.000  -0.000  -0.000  -0.000   0.000   0.000
  0.000   0.000   0.000   0.000   0.000   0.000   0.000   0.000
 -0.000  -0.000  -0.000  -0.000   0.000  -0.000  -0.000  -0.000
 total augmentation occupancy for first ion, spin component:           1
  2.002  -0.000  -0.000  -0.018  -0.000   0.000   0.000   0.000   0.000   0.000   0.000   0.000   0.000   0.000   0.000   0.000
 -0.000   2.002  -0.000   0.000  -0.018   0.000   0.000   0.000   0.000   0.000   0.000   0.000   0.000   0.000   0.000   0.000
  0.000   0.000   2.002  -0.000   0.000  -0.018   0.000   0.000   0.000   0.000   0.000   0.000   0.000   0.000   0.000   0.000
 -0.018   0.000   0.000   0.033   0.000   0.000   0.000   0.000   0.000   0.000   0.000   0.000   0.000   0.000   0.000   0.000
  0.000  -0.018  -0.000   0.000   0.033  -0.000   0.000   0.000   0.000   0.000   0.000   0.000   0.000   0.000   0.000   0.000
 -0.000  -0.000  -0.018   0.000   0.000   0.033   0.000   0.000   0.000   0.000   0.000   0.000   0.000   0.000   0.000   0.000
  0.000   0.000   0.000   0.000   0.000   0.000   3.531  -0.000   0.000   0.000  -0.000  -1.590  -0.000   0.000   0.000  -0.000
  0.000   0.000   0.000   0.000   0.000   0.000   0.000   3.531   0.000  -0.000   0.000   0.000  -1.590   0.000  -0.000   0.000
  0.000   0.000   0.000   0.000   0.000   0.000   0.000   0.000   2.921   0.000   0.000  -0.000  -0.000  -1.185  -0.000   0.000
  0.000   0.000   0.000   0.000   0.000   0.000  -0.000   0.000  -0.000   3.531  -0.000   0.000   0.000   0.000  -1.590  -0.000
  0.000   0.000   0.000   0.000   0.000   0.000   0.000  -0.000  -0.000  -0.000   2.921   0.000   0.000  -0.000   0.000  -1.185
  0.000   0.000   0.000   0.000   0.000   0.000  -1.590   0.000  -0.000   0.000  -0.000   1.337   0.000  -0.000   0.000   0.000
  0.000   0.000   0.000   0.000   0.000   0.000   0.000  -1.590   0.000  -0.000   0.000  -0.000   1.337   0.000  -0.000  -0.000
  0.000   0.000   0.000   0.000   0.000   0.000   0.000   0.000  -1.185   0.000   0.000   0.000  -0.000   1.266  -0.000   0.000
  0.000   0.000   0.000   0.000   0.000   0.000   0.000   0.000   0.000  -1.590  -0.000   0.000  -0.000  -0.000   1.337  -0.000
  0.000   0.000   0.000   0.000   0.000   0.000  -0.000  -0.000  -0.000  -0.000  -1.185  -0.000   0.000   0.000   0.000   1.266
  0.000   0.000   0.000   0.000   0.000   0.000   0.000   0.000   0.000   0.000  -0.000   0.000  -0.000   0.000  -0.000   0.000
  0.000   0.000   0.000   0.000   0.000   0.000   0.000   0.000  -0.000  -0.000  -0.000  -0.000   0.000   0.000   0.000   0.000


------------------------ aborting loop because EDIFF is reached ----------------------------------------





 total charge

# of ion       s       p       d       tot
------------------------------------------
    1        0.301   6.039   7.051  13.391
 
    CHARGE:  cpu time      0.0171: real time      0.0172
    FORLOC:  cpu time      0.0001: real time      0.0001
    FORNL :  cpu time      0.0070: real time      0.0071
    STRESS:  cpu time      0.1404: real time      0.1410
    FORCOR:  cpu time      0.0019: real time      0.0019
    FORHAR:  cpu time      0.0004: real time      0.0004
    MIXING:  cpu time      0.0002: real time      0.0002
    OFIELD:  cpu time      0.0000: real time      0.0000

  FORCE on cell =-STRESS in cart. coord.  units (eV):
  Direction    XX          YY          ZZ          XY          YZ          ZX
  --------------------------------------------------------------------------------------
  Alpha Z   129.98780   129.98780   129.98780
  Ewald    -671.46386  -671.46386  -671.46386     0.00000     0.00000     0.00000
  Hartree   147.23061   147.23061   147.23061     0.00000     0.00000     0.00000
  E(xc)     -84.89218   -84.89218   -84.89218     0.00000     0.00000     0.00000
  Local      88.41174    88.41174    88.41174    -0.00002    -0.00002    -0.00002
  n-local   -33.37599   -31.27909   -36.17446     3.09225    -2.86851     0.15694
  augment    73.33418    73.33418    73.33418     0.00003     0.00003     0.00003
  Kinetic   347.22810   351.45133   344.61591     3.85040    -3.04598    -0.43348
  Fock        0.00000     0.00000     0.00000     0.00000     0.00000     0.00000
  -------------------------------------------------------------------------------------
  Total      -3.23643    -3.23643    -3.23643     0.00000     0.00000    -0.00000
  in kB    -280.92609  -280.92609  -280.92609     0.00000     0.00000    -0.00000
  external pressure =     -280.93 kB  Pullay stress =        0.00 kB


 VOLUME and BASIS-vectors are now :
 -----------------------------------------------------------------------------
  energy-cutoff  :      425.00
  volume of cell :       18.46
      direct lattice vectors                 reciprocal lattice vectors
     0.000000000  2.097579547  2.097579547    -0.238369983  0.238369983  0.238369983
     2.097579547  0.000000000  2.097579547     0.238369983 -0.238369983  0.238369983
     2.097579547  2.097579547  0.000000000     0.238369983  0.238369983 -0.238369983

  length of vectors
     2.966425444  2.966425444  2.966425444     0.412868921  0.412868921  0.412868921


 FORCES acting on ions
    electron-ion (+dipol)            ewald-force                    non-local-force                 convergence-correction
 -----------------------------------------------------------------------------------------------
   -.436E-14 -.578E-14 -.495E-15   -.817E-15 0.102E-14 -.232E-14   -.258E-25 -.103E-24 0.129E-25   -.269E-13 -.856E-13 -.303E-13
 -----------------------------------------------------------------------------------------------
   -.436E-14 -.578E-14 -.495E-15   -.817E-15 0.102E-14 -.232E-14   -.258E-25 -.103E-24 0.129E-25   -.269E-13 -.856E-13 -.303E-13
 
 
 POSITION                                       TOTAL-FORCE (eV/Angst)
 -----------------------------------------------------------------------------------
      0.00000      0.00000      0.00000         0.000000      0.000000      0.000000
 -----------------------------------------------------------------------------------
    total drift:                               -0.000000     -0.000000     -0.000000


--------------------------------------------------------------------------------------------------------



  FREE ENERGIE OF THE ION-ELECTRON SYSTEM (eV)
  ---------------------------------------------------
  free  energy   TOTEN  =        -5.81121596 eV

  energy  without entropy=       -5.80779987  energy(sigma->0) =       -5.80950791
 


--------------------------------------------------------------------------------------------------------


    POTLOK:  cpu time      0.0042: real time      0.0043


--------------------------------------------------------------------------------------------------------




--------------------------------------------------------------------------------------------------------


  
 reached required accuracy - stopping structural energy minimisation
 writing wavefunctions
     LOOP+:  cpu time      7.6500: real time      7.8691
    4ORBIT:  cpu time      0.0000: real time      0.0000



 total charge

# of ion       s       p       d       tot
------------------------------------------
    1        0.301   6.039   7.051  13.391
 

 total amount of memory used by VASP MPI-rank0    37453. kBytes
=======================================================================

   base      :      30000. kBytes
   nonl-proj :       6088. kBytes
   fftplans  :        147. kBytes
   grid      :        485. kBytes
   one-center:         15. kBytes
   wavefun   :        718. kBytes
 
  
  
 General timing and accounting informations for this job:
 ========================================================
  
                  Total CPU time used (sec):        8.796
                            User time (sec):        8.302
                          System time (sec):        0.494
                         Elapsed time (sec):       10.137
  
                   Maximum memory used (kb):      224580.
                   Average memory used (kb):          N/A
  
                          Minor page faults:        27828
                          Major page faults:           62
                 Voluntary context switches:         2558
