PROCAR lm decomposed
# of k-points:  110         # of bands:   24         # of ions:    1

 k-point     1 :    0.05000000 0.05000000 0.05000000     weight = 0.00200000

band     1 # energy  -43.49520395 # occ.  2.00000000
 
ion      s     py     pz     px    dxy    dyz    dz2    dxz  x2-y2    tot
    1  0.000  0.331  0.331  0.331  0.000  0.000  0.000  0.000  0.000  0.994
 
band     2 # energy  -43.49067173 # occ.  2.00000000
 
ion      s     py     pz     px    dxy    dyz    dz2    dxz  x2-y2    tot
    1  0.000  0.512  0.119  0.363  0.000  0.000  0.000  0.000  0.000  0.994
 
band     3 # energy  -43.49067173 # occ.  2.00000000
 
ion      s     py     pz     px    dxy    dyz    dz2    dxz  x2-y2    tot
    1  0.000  0.151  0.543  0.300  0.000  0.000  0.000  0.000  0.000  0.994
 
band     4 # energy    0.37408436 # occ.  2.00000000
 
ion      s     py     pz     px    dxy    dyz    dz2    dxz  x2-y2    tot
    1  0.336  0.000  0.000  0.000  0.000  0.000  0.000  0.000  0.000  0.337
 
band     5 # energy    5.70920366 # occ.  2.00000000
 
ion      s     py     pz     px    dxy    dyz    dz2    dxz  x2-y2    tot
    1  0.000  0.000  0.000  0.000  0.275  0.275  0.000  0.275  0.000  0.826
 
band     6 # energy    5.77023607 # occ.  2.00000000
 
ion      s     py     pz     px    dxy    dyz    dz2    dxz  x2-y2    tot
    1  0.000  0.000  0.000  0.000  0.000  0.417  0.000  0.413  0.000  0.830
 
band     7 # energy    5.77023607 # occ.  2.00000000
 
ion      s     py     pz     px    dxy    dyz    dz2    dxz  x2-y2    tot
    1  0.000  0.000  0.000  0.000  0.553  0.137  0.000  0.140  0.000  0.830
 
band     8 # energy    7.27626689 # occ.  2.00000000
 
ion      s     py     pz     px    dxy    dyz    dz2    dxz  x2-y2    tot
    1  0.000  0.000  0.000  0.000  0.000  0.000  0.000  0.000  0.893  0.893
 
band     9 # energy    7.27626689 # occ.  2.00000000
 
ion      s     py     pz     px    dxy    dyz    dz2    dxz  x2-y2    tot
    1  0.000  0.000  0.000  0.000  0.000  0.000  0.893  0.000  0.000  0.893
 
band    10 # energy   23.49851446 # occ.  0.00000000
 
ion      s     py     pz     px    dxy    dyz    dz2    dxz  x2-y2    tot
    1  0.000  0.000  0.000  0.000  0.002  0.002  0.000  0.002  0.000  0.007
 
band    11 # energy   26.69851124 # occ.  0.00000000
 
ion      s     py     pz     px    dxy    dyz    dz2    dxz  x2-y2    tot
    1  0.012  0.028  0.028  0.028  0.002  0.002  0.000  0.002  0.000  0.103
 
band    12 # energy   27.35333024 # occ.  0.00000000
 
ion      s     py     pz     px    dxy    dyz    dz2    dxz  x2-y2    tot
    1  0.000  0.039  0.001  0.051  0.000  0.001  0.000  0.001  0.002  0.095
 
band    13 # energy   27.35333024 # occ.  0.00000000
 
ion      s     py     pz     px    dxy    dyz    dz2    dxz  x2-y2    tot
    1  0.000  0.022  0.060  0.009  0.001  0.000  0.002  0.001  0.000  0.095
 
band    14 # energy   32.42042529 # occ.  0.00000000
 
ion      s     py     pz     px    dxy    dyz    dz2    dxz  x2-y2    tot
    1  0.053  0.008  0.008  0.008  0.002  0.002  0.000  0.002  0.000  0.083
 
band    15 # energy   35.22180989 # occ.  0.00000000
 
ion      s     py     pz     px    dxy    dyz    dz2    dxz  x2-y2    tot
    1  0.014  0.046  0.046  0.046  0.071  0.071  0.000  0.071  0.000  0.364
 
band    16 # energy   35.84615515 # occ.  0.00000000
 
ion      s     py     pz     px    dxy    dyz    dz2    dxz  x2-y2    tot
    1  0.000  0.050  0.000  0.045  0.000  0.138  0.000  0.153  0.002  0.389
 
band    17 # energy   35.84615515 # occ.  0.00000000
 
ion      s     py     pz     px    dxy    dyz    dz2    dxz  x2-y2    tot
    1  0.000  0.014  0.064  0.018  0.194  0.056  0.002  0.041  0.000  0.389
 
band    18 # energy   38.06361913 # occ.  0.00000000
 
ion      s     py     pz     px    dxy    dyz    dz2    dxz  x2-y2    tot
    1  0.000  0.179  0.001  0.211  0.000  0.052  0.000  0.044  0.010  0.498
 
band    19 # energy   38.06361913 # occ.  0.00000000
 
ion      s     py     pz     px    dxy    dyz    dz2    dxz  x2-y2    tot
    1  0.000  0.082  0.259  0.050  0.064  0.012  0.010  0.020  0.000  0.498
 
band    20 # energy   38.86773870 # occ.  0.00000000
 
ion      s     py     pz     px    dxy    dyz    dz2    dxz  x2-y2    tot
    1  0.025  0.104  0.104  0.104  0.057  0.057  0.000  0.057  0.000  0.507
 
band    21 # energy   44.98665429 # occ.  0.00000000
 
ion      s     py     pz     px    dxy    dyz    dz2    dxz  x2-y2    tot
    1  0.000  0.007  0.000  0.008  0.000  0.000  0.003  0.000  0.372  0.391
 
band    22 # energy   44.98665429 # occ.  0.00000000
 
ion      s     py     pz     px    dxy    dyz    dz2    dxz  x2-y2    tot
    1  0.000  0.003  0.010  0.002  0.000  0.000  0.372  0.000  0.003  0.391
 
band    23 # energy   49.34304130 # occ.  0.00000000
 
ion      s     py     pz     px    dxy    dyz    dz2    dxz  x2-y2    tot
    1  0.741  0.013  0.013  0.013  0.000  0.000  0.000  0.000  0.000  0.780
 
band    24 # energy   49.90306586 # occ.  0.00000000
 
ion      s     py     pz     px    dxy    dyz    dz2    dxz  x2-y2    tot
    1  6.036  0.000  0.000  0.000  0.000  0.000  0.000  0.000  0.000  6.037
 

 k-point     2 :    0.15000000 0.05000000 0.05000000     weight = 0.00600000

band     1 # energy  -43.52180848 # occ.  2.00000000
 
ion      s     py     pz     px    dxy    dyz    dz2    dxz  x2-y2    tot
    1  0.000  0.455  0.455  0.083  0.000  0.000  0.000  0.000  0.000  0.993
 
band     2 # energy  -43.49854545 # occ.  2.00000000
 
ion      s     py     pz     px    dxy    dyz    dz2    dxz  x2-y2    tot
    1  0.000  0.041  0.041  0.911  0.000  0.000  0.000  0.000  0.000  0.994
 
band     3 # energy  -43.49402063 # occ.  2.00000000
 
ion      s     py     pz     px    dxy    dyz    dz2    dxz  x2-y2    tot
    1  0.000  0.497  0.497  0.000  0.000  0.000  0.000  0.000  0.000  0.994
 
band     4 # energy    0.80771663 # occ.  2.00000000
 
ion      s     py     pz     px    dxy    dyz    dz2    dxz  x2-y2    tot
    1  0.328  0.003  0.003  0.000  0.000  0.002  0.000  0.000  0.000  0.336
 
band     5 # energy    5.54931418 # occ.  2.00000000
 
ion      s     py     pz     px    dxy    dyz    dz2    dxz  x2-y2    tot
    1  0.000  0.000  0.000  0.001  0.389  0.028  0.000  0.389  0.000  0.808
 
band     6 # energy    5.90508033 # occ.  2.00000000
 
ion      s     py     pz     px    dxy    dyz    dz2    dxz  x2-y2    tot
    1  0.000  0.000  0.000  0.000  0.415  0.000  0.003  0.415  0.001  0.834
 
band     7 # energy    5.93383301 # occ.  2.00000000
 
ion      s     py     pz     px    dxy    dyz    dz2    dxz  x2-y2    tot
    1  0.000  0.001  0.001  0.000  0.015  0.777  0.006  0.015  0.018  0.831
 
band     8 # energy    7.12393880 # occ.  2.00000000
 
ion      s     py     pz     px    dxy    dyz    dz2    dxz  x2-y2    tot
    1  0.000  0.000  0.000  0.000  0.002  0.000  0.658  0.002  0.219  0.882
 
band     9 # energy    7.32167837 # occ.  2.00000000
 
ion      s     py     pz     px    dxy    dyz    dz2    dxz  x2-y2    tot
    1  0.000  0.000  0.000  0.000  0.001  0.024  0.217  0.001  0.650  0.892
 
band    10 # energy   23.94518877 # occ.  0.00000000
 
ion      s     py     pz     px    dxy    dyz    dz2    dxz  x2-y2    tot
    1  0.001  0.001  0.001  0.005  0.025  0.005  0.000  0.025  0.000  0.064
 
band    11 # energy   24.98629198 # occ.  0.00000000
 
ion      s     py     pz     px    dxy    dyz    dz2    dxz  x2-y2    tot
    1  0.041  0.034  0.034  0.008  0.001  0.019  0.001  0.001  0.003  0.142
 
band    12 # energy   27.16976189 # occ.  0.00000000
 
ion      s     py     pz     px    dxy    dyz    dz2    dxz  x2-y2    tot
    1  0.000  0.004  0.004  0.112  0.012  0.004  0.001  0.012  0.003  0.154
 
band    13 # energy   28.25376104 # occ.  0.00000000
 
ion      s     py     pz     px    dxy    dyz    dz2    dxz  x2-y2    tot
    1  0.000  0.045  0.045  0.000  0.001  0.000  0.016  0.001  0.005  0.113
 
band    14 # energy   31.81020196 # occ.  0.00000000
 
ion      s     py     pz     px    dxy    dyz    dz2    dxz  x2-y2    tot
    1  0.006  0.088  0.088  0.005  0.003  0.085  0.001  0.003  0.002  0.281
 
band    15 # energy   34.01511072 # occ.  0.00000000
 
ion      s     py     pz     px    dxy    dyz    dz2    dxz  x2-y2    tot
    1  0.001  0.002  0.002  0.128  0.058  0.018  0.002  0.058  0.005  0.272
 
band    16 # energy   35.02879846 # occ.  0.00000000
 
ion      s     py     pz     px    dxy    dyz    dz2    dxz  x2-y2    tot
    1  0.000  0.099  0.099  0.000  0.081  0.000  0.021  0.081  0.007  0.389
 
band    17 # energy   35.26378477 # occ.  0.00000000
 
ion      s     py     pz     px    dxy    dyz    dz2    dxz  x2-y2    tot
    1  0.079  0.001  0.001  0.003  0.003  0.004  0.001  0.003  0.004  0.098
 
band    18 # energy   36.86408424 # occ.  0.00000000
 
ion      s     py     pz     px    dxy    dyz    dz2    dxz  x2-y2    tot
    1  0.000  0.110  0.110  0.000  0.096  0.000  0.024  0.096  0.008  0.446
 
band    19 # energy   39.39195705 # occ.  0.00000000
 
ion      s     py     pz     px    dxy    dyz    dz2    dxz  x2-y2    tot
    1  0.066  0.081  0.081  0.022  0.000  0.226  0.004  0.000  0.011  0.493
 
band    20 # energy   41.28353680 # occ.  0.00000000
 
ion      s     py     pz     px    dxy    dyz    dz2    dxz  x2-y2    tot
    1  0.027  0.002  0.002  0.271  0.109  0.003  0.003  0.109  0.008  0.534
 
band    21 # energy   44.26760509 # occ.  0.00000000
 
ion      s     py     pz     px    dxy    dyz    dz2    dxz  x2-y2    tot
    1  0.011  0.004  0.004  0.028  0.001  0.004  0.065  0.001  0.194  0.311
 
band    22 # energy   46.14896945 # occ.  0.00000000
 
ion      s     py     pz     px    dxy    dyz    dz2    dxz  x2-y2    tot
    1  0.000  0.039  0.039  0.000  0.000  0.000  0.211  0.000  0.070  0.359
 
band    23 # energy   49.87406325 # occ.  0.00000000
 
ion      s     py     pz     px    dxy    dyz    dz2    dxz  x2-y2    tot
    1  6.319  0.000  0.000  0.000  0.000  0.000  0.000  0.000  0.000  6.319
 
band    24 # energy   51.52127038 # occ.  0.00000000
 
ion      s     py     pz     px    dxy    dyz    dz2    dxz  x2-y2    tot
    1  0.304  0.087  0.087  0.012  0.002  0.001  0.000  0.002  0.001  0.496
 

 k-point     3 :    0.25000000 0.05000000 0.05000000     weight = 0.00600000

band     1 # energy  -43.57877690 # occ.  2.00000000
 
ion      s     py     pz     px    dxy    dyz    dz2    dxz  x2-y2    tot
    1  0.000  0.389  0.389  0.212  0.000  0.000  0.000  0.000  0.000  0.991
 
band     2 # energy  -43.50993340 # occ.  2.00000000
 
ion      s     py     pz     px    dxy    dyz    dz2    dxz  x2-y2    tot
    1  0.000  0.106  0.106  0.781  0.000  0.000  0.000  0.000  0.000  0.994
 
band     3 # energy  -43.50217002 # occ.  2.00000000
 
ion      s     py     pz     px    dxy    dyz    dz2    dxz  x2-y2    tot
    1  0.000  0.497  0.497  0.000  0.000  0.000  0.000  0.000  0.000  0.994
 
band     4 # energy    1.76240168 # occ.  2.00000000
 
ion      s     py     pz     px    dxy    dyz    dz2    dxz  x2-y2    tot
    1  0.299  0.006  0.006  0.002  0.009  0.018  0.000  0.009  0.001  0.349
 
band     5 # energy    5.39534580 # occ.  2.00000000
 
ion      s     py     pz     px    dxy    dyz    dz2    dxz  x2-y2    tot
    1  0.007  0.002  0.002  0.004  0.338  0.063  0.000  0.338  0.000  0.755
 
band     6 # energy    6.05065110 # occ.  2.00000000
 
ion      s     py     pz     px    dxy    dyz    dz2    dxz  x2-y2    tot
    1  0.001  0.001  0.001  0.000  0.033  0.569  0.048  0.033  0.144  0.828
 
band     7 # energy    6.07744051 # occ.  2.00000000
 
ion      s     py     pz     px    dxy    dyz    dz2    dxz  x2-y2    tot
    1  0.000  0.000  0.000  0.000  0.342  0.000  0.115  0.342  0.038  0.838
 
band     8 # energy    7.12388423 # occ.  2.00000000
 
ion      s     py     pz     px    dxy    dyz    dz2    dxz  x2-y2    tot
    1  0.000  0.000  0.000  0.000  0.080  0.000  0.536  0.080  0.179  0.875
 
band     9 # energy    7.52059430 # occ.  2.00000000
 
ion      s     py     pz     px    dxy    dyz    dz2    dxz  x2-y2    tot
    1  0.002  0.000  0.000  0.000  0.011  0.178  0.172  0.011  0.516  0.891
 
band    10 # energy   21.65667718 # occ.  0.00000000
 
ion      s     py     pz     px    dxy    dyz    dz2    dxz  x2-y2    tot
    1  0.092  0.035  0.035  0.033  0.038  0.046  0.001  0.038  0.002  0.319
 
band    11 # energy   24.58304925 # occ.  0.00000000
 
ion      s     py     pz     px    dxy    dyz    dz2    dxz  x2-y2    tot
    1  0.002  0.000  0.000  0.009  0.033  0.002  0.001  0.033  0.002  0.081
 
band    12 # energy   27.54659395 # occ.  0.00000000
 
ion      s     py     pz     px    dxy    dyz    dz2    dxz  x2-y2    tot
    1  0.003  0.027  0.027  0.126  0.013  0.039  0.002  0.013  0.007  0.259
 
band    13 # energy   29.55771500 # occ.  0.00000000
 
ion      s     py     pz     px    dxy    dyz    dz2    dxz  x2-y2    tot
    1  0.027  0.049  0.049  0.009  0.000  0.011  0.003  0.000  0.010  0.159
 
band    14 # energy   29.69688655 # occ.  0.00000000
 
ion      s     py     pz     px    dxy    dyz    dz2    dxz  x2-y2    tot
    1  0.000  0.070  0.070  0.000  0.017  0.000  0.029  0.017  0.010  0.212
 
band    15 # energy   31.96022258 # occ.  0.00000000
 
ion      s     py     pz     px    dxy    dyz    dz2    dxz  x2-y2    tot
    1  0.000  0.076  0.076  0.000  0.026  0.000  0.054  0.026  0.018  0.275
 
band    16 # energy   32.72689837 # occ.  0.00000000
 
ion      s     py     pz     px    dxy    dyz    dz2    dxz  x2-y2    tot
    1  0.003  0.000  0.000  0.074  0.009  0.007  0.009  0.009  0.026  0.138
 
band    17 # energy   37.45229078 # occ.  0.00000000
 
ion      s     py     pz     px    dxy    dyz    dz2    dxz  x2-y2    tot
    1  0.000  0.085  0.085  0.000  0.107  0.000  0.027  0.107  0.009  0.419
 
band    18 # energy   38.44627140 # occ.  0.00000000
 
ion      s     py     pz     px    dxy    dyz    dz2    dxz  x2-y2    tot
    1  0.150  0.002  0.002  0.003  0.000  0.055  0.004  0.000  0.012  0.229
 
band    19 # energy   40.39320074 # occ.  0.00000000
 
ion      s     py     pz     px    dxy    dyz    dz2    dxz  x2-y2    tot
    1  0.008  0.046  0.046  0.073  0.004  0.153  0.007  0.004  0.020  0.361
 
band    20 # energy   42.31361341 # occ.  0.00000000
 
ion      s     py     pz     px    dxy    dyz    dz2    dxz  x2-y2    tot
    1  0.097  0.001  0.001  0.051  0.100  0.004  0.014  0.100  0.043  0.412
 
band    21 # energy   45.07463853 # occ.  0.00000000
 
ion      s     py     pz     px    dxy    dyz    dz2    dxz  x2-y2    tot
    1  0.002  0.009  0.009  0.137  0.017  0.022  0.021  0.017  0.063  0.297
 
band    22 # energy   47.05003346 # occ.  0.00000000
 
ion      s     py     pz     px    dxy    dyz    dz2    dxz  x2-y2    tot
    1  0.000  0.057  0.057  0.000  0.004  0.000  0.114  0.004  0.038  0.274
 
band    23 # energy   49.86975869 # occ.  0.00000000
 
ion      s     py     pz     px    dxy    dyz    dz2    dxz  x2-y2    tot
    1  6.297  0.000  0.000  0.000  0.000  0.000  0.000  0.000  0.000  6.297
 
band    24 # energy   53.72312690 # occ.  0.00000000
 
ion      s     py     pz     px    dxy    dyz    dz2    dxz  x2-y2    tot
    1  0.000  0.000  0.000  0.000  0.000  0.000  0.041  0.000  0.014  0.055
 

 k-point     4 :    0.35000000 0.05000000 0.05000000     weight = 0.00600000

band     1 # energy  -43.64338691 # occ.  2.00000000
 
ion      s     py     pz     px    dxy    dyz    dz2    dxz  x2-y2    tot
    1  0.000  0.360  0.360  0.269  0.000  0.000  0.000  0.000  0.000  0.988
 
band     2 # energy  -43.52037554 # occ.  2.00000000
 
ion      s     py     pz     px    dxy    dyz    dz2    dxz  x2-y2    tot
    1  0.000  0.135  0.135  0.723  0.000  0.000  0.000  0.000  0.000  0.993
 
band     3 # energy  -43.51221916 # occ.  2.00000000
 
ion      s     py     pz     px    dxy    dyz    dz2    dxz  x2-y2    tot
    1  0.000  0.497  0.497  0.000  0.000  0.000  0.000  0.000  0.000  0.994
 
band     4 # energy    2.70597910 # occ.  2.00000000
 
ion      s     py     pz     px    dxy    dyz    dz2    dxz  x2-y2    tot
    1  0.217  0.005  0.005  0.001  0.070  0.083  0.000  0.070  0.001  0.453
 
band     5 # energy    5.81966041 # occ.  2.00000000
 
ion      s     py     pz     px    dxy    dyz    dz2    dxz  x2-y2    tot
    1  0.030  0.006  0.006  0.010  0.271  0.024  0.018  0.271  0.054  0.690
 
band     6 # energy    5.96373544 # occ.  2.00000000
 
ion      s     py     pz     px    dxy    dyz    dz2    dxz  x2-y2    tot
    1  0.018  0.006  0.006  0.003  0.008  0.353  0.081  0.008  0.244  0.727
 
band     7 # energy    5.96839372 # occ.  2.00000000
 
ion      s     py     pz     px    dxy    dyz    dz2    dxz  x2-y2    tot
    1  0.000  0.000  0.000  0.000  0.215  0.000  0.300  0.215  0.100  0.830
 
band     8 # energy    7.59902363 # occ.  2.00000000
 
ion      s     py     pz     px    dxy    dyz    dz2    dxz  x2-y2    tot
    1  0.000  0.000  0.000  0.000  0.216  0.000  0.343  0.216  0.114  0.891
 
band     9 # energy    8.06061523 # occ.  2.00000000
 
ion      s     py     pz     px    dxy    dyz    dz2    dxz  x2-y2    tot
    1  0.007  0.002  0.002  0.000  0.024  0.365  0.118  0.024  0.353  0.894
 
band    10 # energy   17.99114757 # occ.  0.00000000
 
ion      s     py     pz     px    dxy    dyz    dz2    dxz  x2-y2    tot
    1  0.163  0.032  0.032  0.033  0.063  0.062  0.001  0.063  0.002  0.449
 
band    11 # energy   23.96131176 # occ.  0.00000000
 
ion      s     py     pz     px    dxy    dyz    dz2    dxz  x2-y2    tot
    1  0.000  0.001  0.001  0.011  0.020  0.001  0.001  0.020  0.004  0.060
 
band    12 # energy   26.66221642 # occ.  0.00000000
 
ion      s     py     pz     px    dxy    dyz    dz2    dxz  x2-y2    tot
    1  0.010  0.045  0.045  0.129  0.020  0.026  0.000  0.020  0.001  0.298
 
band    13 # energy   28.66793579 # occ.  0.00000000
 
ion      s     py     pz     px    dxy    dyz    dz2    dxz  x2-y2    tot
    1  0.000  0.125  0.125  0.000  0.023  0.000  0.008  0.023  0.003  0.307
 
band    14 # energy   30.66367249 # occ.  0.00000000
 
ion      s     py     pz     px    dxy    dyz    dz2    dxz  x2-y2    tot
    1  0.026  0.007  0.007  0.027  0.003  0.020  0.012  0.003  0.035  0.141
 
band    15 # energy   31.93967006 # occ.  0.00000000
 
ion      s     py     pz     px    dxy    dyz    dz2    dxz  x2-y2    tot
    1  0.000  0.004  0.004  0.000  0.014  0.000  0.123  0.014  0.041  0.200
 
band    16 # energy   32.83972833 # occ.  0.00000000
 
ion      s     py     pz     px    dxy    dyz    dz2    dxz  x2-y2    tot
    1  0.024  0.003  0.003  0.024  0.006  0.000  0.017  0.006  0.051  0.135
 
band    17 # energy   38.10322959 # occ.  0.00000000
 
ion      s     py     pz     px    dxy    dyz    dz2    dxz  x2-y2    tot
    1  0.000  0.095  0.095  0.000  0.076  0.000  0.016  0.076  0.005  0.363
 
band    18 # energy   39.70534843 # occ.  0.00000000
 
ion      s     py     pz     px    dxy    dyz    dz2    dxz  x2-y2    tot
    1  0.146  0.010  0.010  0.064  0.000  0.153  0.009  0.000  0.028  0.421
 
band    19 # energy   41.97144373 # occ.  0.00000000
 
ion      s     py     pz     px    dxy    dyz    dz2    dxz  x2-y2    tot
    1  0.095  0.028  0.028  0.057  0.070  0.003  0.009  0.070  0.026  0.384
 
band    20 # energy   44.31960015 # occ.  0.00000000
 
ion      s     py     pz     px    dxy    dyz    dz2    dxz  x2-y2    tot
    1  0.004  0.019  0.019  0.020  0.014  0.000  0.005  0.014  0.015  0.110
 
band    21 # energy   46.27101091 # occ.  0.00000000
 
ion      s     py     pz     px    dxy    dyz    dz2    dxz  x2-y2    tot
    1  0.002  0.009  0.009  0.077  0.009  0.054  0.003  0.009  0.009  0.183
 
band    22 # energy   47.89881708 # occ.  0.00000000
 
ion      s     py     pz     px    dxy    dyz    dz2    dxz  x2-y2    tot
    1  0.000  0.061  0.061  0.000  0.011  0.000  0.048  0.011  0.016  0.210
 
band    23 # energy   49.87670670 # occ.  0.00000000
 
ion      s     py     pz     px    dxy    dyz    dz2    dxz  x2-y2    tot
    1  6.298  0.000  0.000  0.000  0.000  0.000  0.000  0.000  0.000  6.298
 
band    24 # energy   52.42299491 # occ.  0.00000000
 
ion      s     py     pz     px    dxy    dyz    dz2    dxz  x2-y2    tot
    1  0.000  0.002  0.002  0.000  0.049  0.000  0.063  0.049  0.021  0.185
 

 k-point     5 :    0.45000000 0.05000000 0.05000000     weight = 0.00600000

band     1 # energy  -43.69208141 # occ.  2.00000000
 
ion      s     py     pz     px    dxy    dyz    dz2    dxz  x2-y2    tot
    1  0.000  0.340  0.340  0.306  0.000  0.000  0.000  0.000  0.000  0.987
 
band     2 # energy  -43.52692063 # occ.  2.00000000
 
ion      s     py     pz     px    dxy    dyz    dz2    dxz  x2-y2    tot
    1  0.000  0.154  0.154  0.686  0.000  0.000  0.000  0.000  0.000  0.993
 
band     3 # energy  -43.52091657 # occ.  2.00000000
 
ion      s     py     pz     px    dxy    dyz    dz2    dxz  x2-y2    tot
    1  0.000  0.497  0.497  0.000  0.000  0.000  0.000  0.000  0.000  0.993
 
band     4 # energy    3.02538289 # occ.  2.00000000
 
ion      s     py     pz     px    dxy    dyz    dz2    dxz  x2-y2    tot
    1  0.135  0.001  0.001  0.000  0.144  0.150  0.000  0.144  0.000  0.576
 
band     5 # energy    5.73373503 # occ.  2.00000000
 
ion      s     py     pz     px    dxy    dyz    dz2    dxz  x2-y2    tot
    1  0.000  0.000  0.000  0.000  0.056  0.243  0.115  0.056  0.345  0.816
 
band     6 # energy    5.80488507 # occ.  2.00000000
 
ion      s     py     pz     px    dxy    dyz    dz2    dxz  x2-y2    tot
    1  0.000  0.000  0.000  0.000  0.172  0.000  0.358  0.172  0.119  0.821
 
band     7 # energy    7.30115682 # occ.  2.00000000
 
ion      s     py     pz     px    dxy    dyz    dz2    dxz  x2-y2    tot
    1  0.042  0.023  0.023  0.023  0.127  0.016  0.025  0.127  0.074  0.480
 
band     8 # energy    8.19190533 # occ.  2.00000000
 
ion      s     py     pz     px    dxy    dyz    dz2    dxz  x2-y2    tot
    1  0.000  0.000  0.000  0.000  0.270  0.000  0.284  0.270  0.095  0.919
 
band     9 # energy    8.77598119 # occ.  0.00000000
 
ion      s     py     pz     px    dxy    dyz    dz2    dxz  x2-y2    tot
    1  0.026  0.010  0.010  0.006  0.013  0.401  0.076  0.013  0.227  0.781
 
band    10 # energy   14.49564375 # occ.  0.00000000
 
ion      s     py     pz     px    dxy    dyz    dz2    dxz  x2-y2    tot
    1  0.254  0.016  0.016  0.019  0.102  0.083  0.001  0.102  0.002  0.594
 
band    11 # energy   23.20987157 # occ.  0.00000000
 
ion      s     py     pz     px    dxy    dyz    dz2    dxz  x2-y2    tot
    1  0.000  0.002  0.002  0.007  0.006  0.000  0.001  0.006  0.004  0.028
 
band    12 # energy   25.66417597 # occ.  0.00000000
 
ion      s     py     pz     px    dxy    dyz    dz2    dxz  x2-y2    tot
    1  0.008  0.039  0.039  0.136  0.012  0.003  0.001  0.012  0.002  0.251
 
band    13 # energy   26.64630625 # occ.  0.00000000
 
ion      s     py     pz     px    dxy    dyz    dz2    dxz  x2-y2    tot
    1  0.000  0.111  0.111  0.000  0.004  0.000  0.009  0.004  0.003  0.243
 
band    14 # energy   32.71490972 # occ.  0.00000000
 
ion      s     py     pz     px    dxy    dyz    dz2    dxz  x2-y2    tot
    1  0.015  0.000  0.000  0.009  0.000  0.072  0.036  0.000  0.108  0.241
 
band    15 # energy   33.24320024 # occ.  0.00000000
 
ion      s     py     pz     px    dxy    dyz    dz2    dxz  x2-y2    tot
    1  0.000  0.002  0.002  0.000  0.044  0.000  0.162  0.044  0.054  0.308
 
band    16 # energy   34.11945025 # occ.  0.00000000
 
ion      s     py     pz     px    dxy    dyz    dz2    dxz  x2-y2    tot
    1  0.095  0.003  0.003  0.013  0.052  0.010  0.009  0.052  0.027  0.262
 
band    17 # energy   39.08981424 # occ.  0.00000000
 
ion      s     py     pz     px    dxy    dyz    dz2    dxz  x2-y2    tot
    1  0.000  0.120  0.120  0.000  0.023  0.000  0.000  0.023  0.000  0.287
 
band    18 # energy   40.01116805 # occ.  0.00000000
 
ion      s     py     pz     px    dxy    dyz    dz2    dxz  x2-y2    tot
    1  0.069  0.009  0.009  0.141  0.000  0.069  0.008  0.000  0.024  0.329
 
band    19 # energy   41.69337444 # occ.  0.00000000
 
ion      s     py     pz     px    dxy    dyz    dz2    dxz  x2-y2    tot
    1  0.048  0.058  0.058  0.017  0.028  0.008  0.002  0.028  0.006  0.253
 
band    20 # energy   46.16426895 # occ.  0.00000000
 
ion      s     py     pz     px    dxy    dyz    dz2    dxz  x2-y2    tot
    1  0.004  0.018  0.018  0.036  0.011  0.058  0.001  0.011  0.003  0.160
 
band    21 # energy   48.75407213 # occ.  0.00000000
 
ion      s     py     pz     px    dxy    dyz    dz2    dxz  x2-y2    tot
    1  0.000  0.051  0.051  0.000  0.007  0.000  0.014  0.007  0.005  0.134
 
band    22 # energy   48.92971799 # occ.  0.00000000
 
ion      s     py     pz     px    dxy    dyz    dz2    dxz  x2-y2    tot
    1  0.110  0.000  0.000  0.012  0.002  0.002  0.000  0.002  0.000  0.129
 
band    23 # energy   49.69364465 # occ.  0.00000000
 
ion      s     py     pz     px    dxy    dyz    dz2    dxz  x2-y2    tot
    1  0.000  0.003  0.003  0.000  0.093  0.000  0.013  0.093  0.004  0.210
 
band    24 # energy   49.87818622 # occ.  0.00000000
 
ion      s     py     pz     px    dxy    dyz    dz2    dxz  x2-y2    tot
    1  6.276  0.000  0.000  0.000  0.000  0.000  0.000  0.000  0.000  6.276
 

 k-point     6 :   -0.45000000 0.05000000 0.05000000     weight = 0.00600000

band     1 # energy  -43.70624152 # occ.  2.00000000
 
ion      s     py     pz     px    dxy    dyz    dz2    dxz  x2-y2    tot
    1  0.000  0.325  0.325  0.336  0.000  0.000  0.000  0.000  0.000  0.986
 
band     2 # energy  -43.52730388 # occ.  2.00000000
 
ion      s     py     pz     px    dxy    dyz    dz2    dxz  x2-y2    tot
    1  0.000  0.169  0.169  0.655  0.000  0.000  0.000  0.000  0.000  0.993
 
band     3 # energy  -43.52517858 # occ.  2.00000000
 
ion      s     py     pz     px    dxy    dyz    dz2    dxz  x2-y2    tot
    1  0.000  0.497  0.497  0.000  0.000  0.000  0.000  0.000  0.000  0.993
 
band     4 # energy    3.05197861 # occ.  2.00000000
 
ion      s     py     pz     px    dxy    dyz    dz2    dxz  x2-y2    tot
    1  0.117  0.000  0.000  0.001  0.158  0.167  0.000  0.158  0.000  0.601
 
band     5 # energy    5.66905650 # occ.  2.00000000
 
ion      s     py     pz     px    dxy    dyz    dz2    dxz  x2-y2    tot
    1  0.000  0.000  0.000  0.000  0.058  0.208  0.122  0.058  0.366  0.812
 
band     6 # energy    5.76581697 # occ.  2.00000000
 
ion      s     py     pz     px    dxy    dyz    dz2    dxz  x2-y2    tot
    1  0.000  0.000  0.000  0.000  0.169  0.000  0.361  0.169  0.120  0.819
 
band     7 # energy    7.83626288 # occ.  2.00000000
 
ion      s     py     pz     px    dxy    dyz    dz2    dxz  x2-y2    tot
    1  0.002  0.018  0.018  0.016  0.046  0.277  0.052  0.046  0.155  0.629
 
band     8 # energy    8.47640698 # occ.  0.83201996
 
ion      s     py     pz     px    dxy    dyz    dz2    dxz  x2-y2    tot
    1  0.000  0.000  0.000  0.000  0.278  0.000  0.284  0.278  0.095  0.934
 
band     9 # energy    9.37420176 # occ.  0.00000000
 
ion      s     py     pz     px    dxy    dyz    dz2    dxz  x2-y2    tot
    1  0.005  0.029  0.029  0.033  0.056  0.096  0.040  0.056  0.121  0.466
 
band    10 # energy   12.98549335 # occ.  0.00000000
 
ion      s     py     pz     px    dxy    dyz    dz2    dxz  x2-y2    tot
    1  0.339  0.002  0.002  0.001  0.129  0.139  0.000  0.129  0.000  0.741
 
band    11 # energy   23.00295053 # occ.  0.00000000
 
ion      s     py     pz     px    dxy    dyz    dz2    dxz  x2-y2    tot
    1  0.000  0.002  0.002  0.005  0.000  0.004  0.001  0.000  0.004  0.019
 
band    12 # energy   25.66543667 # occ.  0.00000000
 
ion      s     py     pz     px    dxy    dyz    dz2    dxz  x2-y2    tot
    1  0.007  0.036  0.036  0.140  0.004  0.004  0.002  0.004  0.005  0.237
 
band    13 # energy   25.75959541 # occ.  0.00000000
 
ion      s     py     pz     px    dxy    dyz    dz2    dxz  x2-y2    tot
    1  0.000  0.108  0.108  0.000  0.001  0.000  0.005  0.001  0.002  0.226
 
band    14 # energy   33.43684099 # occ.  0.00000000
 
ion      s     py     pz     px    dxy    dyz    dz2    dxz  x2-y2    tot
    1  0.000  0.000  0.000  0.000  0.046  0.000  0.161  0.046  0.054  0.308
 
band    15 # energy   33.56437192 # occ.  0.00000000
 
ion      s     py     pz     px    dxy    dyz    dz2    dxz  x2-y2    tot
    1  0.001  0.000  0.000  0.000  0.010  0.077  0.055  0.010  0.166  0.319
 
band    16 # energy   34.82105684 # occ.  0.00000000
 
ion      s     py     pz     px    dxy    dyz    dz2    dxz  x2-y2    tot
    1  0.154  0.002  0.002  0.001  0.067  0.054  0.000  0.067  0.000  0.349
 
band    17 # energy   39.46830180 # occ.  0.00000000
 
ion      s     py     pz     px    dxy    dyz    dz2    dxz  x2-y2    tot
    1  0.016  0.056  0.056  0.126  0.001  0.002  0.001  0.001  0.003  0.261
 
band    18 # energy   40.29503237 # occ.  0.00000000
 
ion      s     py     pz     px    dxy    dyz    dz2    dxz  x2-y2    tot
    1  0.000  0.135  0.135  0.000  0.001  0.000  0.011  0.001  0.004  0.287
 
band    19 # energy   41.06806278 # occ.  0.00000000
 
ion      s     py     pz     px    dxy    dyz    dz2    dxz  x2-y2    tot
    1  0.002  0.015  0.015  0.071  0.005  0.001  0.000  0.005  0.001  0.116
 
band    20 # energy   47.26585543 # occ.  0.00000000
 
ion      s     py     pz     px    dxy    dyz    dz2    dxz  x2-y2    tot
    1  0.000  0.020  0.020  0.000  0.053  0.000  0.001  0.053  0.000  0.146
 
band    21 # energy   47.93866099 # occ.  0.00000000
 
ion      s     py     pz     px    dxy    dyz    dz2    dxz  x2-y2    tot
    1  0.002  0.005  0.005  0.019  0.010  0.064  0.001  0.010  0.003  0.120
 
band    22 # energy   48.49655331 # occ.  0.00000000
 
ion      s     py     pz     px    dxy    dyz    dz2    dxz  x2-y2    tot
    1  0.225  0.003  0.003  0.002  0.001  0.060  0.000  0.001  0.001  0.295
 