Co-hcc                                  
   1.00000000000000     
     2.533332    0.000000    0.000000
    -1.266666    2.193930    0.000000
     0.000000    0.000000    4.098828
   Co
     2
Direct
  0.000000  0.000000  0.000000
  0.333333  0.666667  0.500000
 
   36   36   56
 0.21617708097E+03 0.21222486604E+03 0.20081624018E+03 0.18319659722E+03 0.16114927261E+03
 0.13666681927E+03 0.11165523616E+03 0.87738408590E+02 0.66172240484E+02 0.47830793262E+02
 0.33213569589E+02 0.22444518382E+02 0.15269058633E+02 0.11079314873E+02 0.89954585042E+01
 0.80074051215E+01 0.73713519728E+01 0.69957102910E+01 0.68723633437E+01 0.69957104038E+01
 0.73713521773E+01 0.80074053791E+01 0.89954587656E+01 0.11079315088E+02 0.15269058758E+02
 0.22444518396E+02 0.33213569492E+02 0.47830793079E+02 0.66172240257E+02 0.87738408369E+02
 0.11165523598E+03 0.13666681917E+03 0.16114927258E+03 0.18319659725E+03 0.20081624023E+03
 0.21222486607E+03 0.21222486607E+03 0.21222486723E+03 0.20454785906E+03 0.19004917264E+03
 0.17025566392E+03 0.14706493806E+03 0.12242837340E+03 0.98105234963E+02 0.75525899476E+02
 0.55747167935E+02 0.39451901452E+02 0.26951086812E+02 0.18177826230E+02 0.12694414124E+02
 0.97443464763E+01 0.83659449586E+01 0.76022197883E+01 0.71012163300E+01 0.68553506915E+01
 0.68553509685E+01 0.71012170145E+01 0.76022205177E+01 0.83659453468E+01 0.97443463196E+01
 0.12694413515E+02 0.18177825508E+02 0.26951086378E+02 0.39451901521E+02 0.55747168371E+02
 0.75525899785E+02 0.98105234482E+02 0.12242837160E+03 0.14706493484E+03 0.17025565974E+03
 0.19004916844E+03 0.20454785594E+03 0.20081624023E+03 0.20454445919E+03 0.20081624366E+03
 0.19004917426E+03 0.17340551965E+03 0.15255417235E+03 0.12936844765E+03 0.10565268628E+03
 0.82958390715E+02 0.62498142179E+02 0.45123410303E+02 0.31321743535E+02 0.21209264407E+02
 0.14526829451E+02 0.10668507845E+02 0.87668361365E+01 0.78378834483E+01 0.72232677789E+01
 0.68617298308E+01 0.67432341573E+01 0.68617306055E+01 0.72232688783E+01 0.78378842153E+01
 0.87668360665E+01 0.10668506875E+02 0.14526828018E+02 0.21209263232E+02 0.31321743233E+02
 0.45123410999E+02 0.62498143341E+02 0.82958391308E+02 0.10565268519E+03 0.12936844424E+03
 0.15255416683E+03 0.17340551313E+03 0.19004916844E+03 0.18319659725E+03 0.19004003153E+03
 0.19004003313E+03 0.18319660152E+03 0.17025566529E+03 0.15255417195E+03 0.13176588511E+03
 0.10963143224E+03 0.87744434746E+02 0.67424553934E+02 0.49663600862E+02 0.35107367291E+02
 0.24042768836E+02 0.16386489083E+02 0.11695986910E+02 0.92291723851E+01 0.80628540555E+01
 0.73517668123E+01 0.68867571740E+01 0.66598485863E+01 0.66598490378E+01 0.68867582590E+01
 0.73517678674E+01 0.80628543804E+01 0.92291716330E+01 0.11695985303E+02 0.16386487336E+02
 0.24042767807E+02 0.35107367526E+02 0.49663602252E+02 0.67424555675E+02 0.87744435638E+02
 0.10963143122E+03 0.13176588178E+03 0.15255416683E+03 0.17025565974E+03 0.16114927258E+03
 0.17024034980E+03 0.17338446574E+03 0.17024035119E+03 0.16114927476E+03 0.14706493688E+03
 0.12936844529E+03 0.10963143085E+03 0.89397041623E+02 0.70023881538E+02 0.52599038371E+02
 0.37896710275E+02 0.26353666961E+02 0.18049928399E+02 0.12706502750E+02 0.97236500502E+01
 0.82749920838E+01 0.74756806314E+01 0.69234667578E+01 0.66022622958E+01 0.64975442835E+01
 0.66022629661E+01 0.69234676972E+01 0.74756812467E+01 0.82749919046E+01 0.97236489934E+01
 0.12706501198E+02 0.18049927044E+02 0.26353666490E+02 0.37896711028E+02 0.52599040153E+02
 0.70023883669E+02 0.89397043221E+02 0.10963143122E+03 0.12936844424E+03 0.14706493484E+03
 0.13666681917E+03 0.14704534495E+03 0.15252267282E+03 0.15252267246E+03 0.14704534387E+03
 0.13666681742E+03 0.12242836929E+03 0.10565268255E+03 0.87744432984E+02 0.70023881371E+02
 0.53614409610E+02 0.39376157656E+02 0.27864823241E+02 0.19301910295E+02 0.13561059808E+02
 0.10188782839E+02 0.84761370559E+01 0.75849619719E+01 0.69642350102E+01 0.65654214211E+01
 0.63727767915E+01 0.63727769636E+01 0.65654218467E+01 0.69642354579E+01 0.75849621795E+01
 0.84761368563E+01 0.10188782253E+02 0.13561059055E+02 0.19301909730E+02 0.27864823228E+02
 0.39376158440E+02 0.53614411234E+02 0.70023883669E+02 0.87744435638E+02 0.10565268519E+03
 0.12242837160E+03 0.11165523598E+03 0.12240850634E+03 0.12933240493E+03 0.13172368249E+03
 0.12933240269E+03 0.12240850242E+03 0.11165523131E+03 0.98105230068E+02 0.82958387910E+02
 0.67424553617E+02 0.52599039306E+02 0.39376158362E+02 0.28390341486E+02 0.19973990694E+02
 0.14132874672E+02 0.10552217988E+02 0.86486295382E+01 0.76719468790E+01 0.70022357605E+01
 0.65436094289E+01 0.62810059078E+01 0.61960376683E+01 0.62810057919E+01 0.65436093102E+01
 0.70022357915E+01 0.76719471464E+01 0.86486299913E+01 0.10552218449E+02 0.14132874934E+02
 0.19973990668E+02 0.28390341317E+02 0.39376158440E+02 0.52599040153E+02 0.67424555675E+02
 0.82958391308E+02 0.98105234482E+02 0.87738408369E+02 0.98090318990E+02 0.10562131298E+03
 0.10958963077E+03 0.10958962944E+03 0.10562130943E+03 0.98090314324E+02 0.87738403964E+02
 0.75525896753E+02 0.62498142159E+02 0.49663602658E+02 0.37896712219E+02 0.27864824263E+02
 0.19973990883E+02 0.14333950914E+02 0.10751737732E+02 0.87666055811E+01 0.77318481790E+01
 0.70323672484E+01 0.65316653476E+01 0.62167596252E+01 0.60664923811E+01 0.60664921045E+01
 0.62167589826E+01 0.65316647976E+01 0.70323672615E+01 0.77318489618E+01 0.87666069275E+01
 0.10751739094E+02 0.14333951668E+02 0.19973990668E+02 0.27864823228E+02 0.37896711028E+02
 0.49663602252E+02 0.62498143341E+02 0.75525899785E+02 0.66172240257E+02 0.75521019739E+02
 0.82941928294E+02 0.87717198922E+02 0.89365515538E+02 0.87717197243E+02 0.82941925643E+02
 0.75521017219E+02 0.66172238897E+02 0.55747168688E+02 0.45123412798E+02 0.35107370010E+02
 0.26353668628E+02 0.19301910713E+02 0.14132874504E+02 0.10751737617E+02 0.88086566754E+01
 0.77624888036E+01 0.70514695732E+01 0.65256997102E+01 0.61749016322E+01 0.59773013730E+01
 0.59138749075E+01 0.59773006421E+01 0.61749006199E+01 0.65256990778E+01 0.70514698369E+01
 0.77624900378E+01 0.88086584293E+01 0.10751739094E+02 0.14132874934E+02 0.19301909730E+02
 0.26353666490E+02 0.35107367526E+02 0.45123410999E+02 0.55747168371E+02 0.47830793079E+02
 0.55755881736E+02 0.62505089460E+02 0.67425358923E+02 0.70019905032E+02 0.70019904862E+02
 0.67425358606E+02 0.62505089473E+02 0.55755882588E+02 0.47830795023E+02 0.39451904379E+02
 0.31321746418E+02 0.24042770543E+02 0.18049928679E+02 0.13561059329E+02 0.10552217605E+02
 0.87666055914E+01 0.77624889430E+01 0.70579854511E+01 0.65232794706E+01 0.61514362217E+01
 0.59219954194E+01 0.58137139098E+01 0.58137135101E+01 0.59219944316E+01 0.61514351736E+01
 0.65232789447E+01 0.70579857843E+01 0.77624900378E+01 0.87666069275E+01 0.10552218449E+02
 0.13561059055E+02 0.18049927044E+02 0.24042767807E+02 0.31321743233E+02 0.39451901521E+02
 0.33213569492E+02 0.39475329649E+02 0.45158233315E+02 0.49701534175E+02 0.52636380856E+02
 0.53651097557E+02 0.52636381684E+02 0.49701535806E+02 0.45158235668E+02 0.39475332532E+02
 0.33213572592E+02 0.26951089293E+02 0.21209265565E+02 0.16386488812E+02 0.12706501762E+02
 0.10188782101E+02 0.86486295015E+01 0.77318485656E+01 0.70514698538E+01 0.65232794721E+01
 0.61438909448E+01 0.58956580084E+01 0.57575134645E+01 0.57134310510E+01 0.57575128978E+01
 0.58956571046E+01 0.61438900637E+01 0.65232789447E+01 0.70514698369E+01 0.77318489618E+01
 0.86486299913E+01 0.10188782253E+02 0.12706501198E+02 0.16386487336E+02 0.21209263232E+02
 0.26951086378E+02 0.22444518396E+02 0.26987822060E+02 0.31383923083E+02 0.35184840588E+02
 0.37981938970E+02 0.39464389469E+02 0.39464390082E+02 0.37981940666E+02 0.35184842985E+02
 0.31383925676E+02 0.26987824368E+02 0.22444520091E+02 0.18177826484E+02 0.14526828378E+02
 0.11695985296E+02 0.97236488990E+01 0.84761368980E+01 0.76719474356E+01 0.70323677864E+01
 0.65256997451E+01 0.61514358520E+01 0.58956576742E+01 0.57394651426E+01 0.56661569375E+01
 0.56661568078E+01 0.57394647690E+01 0.58956571046E+01 0.61514351736E+01 0.65256990778E+01
 0.70323672615E+01 0.76719471464E+01 0.84761368563E+01 0.97236489934E+01 0.11695985303E+02
 0.14526828018E+02 0.18177825508E+02 0.15269058758E+02 0.18224658031E+02 0.21294006009E+02
 0.24155485830E+02 0.26484882945E+02 0.28006317880E+02 0.28535100394E+02 0.28006318726E+02
 0.26484884303E+02 0.24155487173E+02 0.21294006829E+02 0.18224658038E+02 0.15269057988E+02
 0.12694412296E+02 0.10668505678E+02 0.92291708673E+01 0.82749917713E+01 0.75849626099E+01
 0.70022365154E+01 0.65316654907E+01 0.61749010469E+01 0.59219945402E+01 0.57575128009E+01
 0.56661566920E+01 0.56370139668E+01 0.56661568078E+01 0.57575128978E+01 0.59219944316E+01
 0.61749006199E+01 0.65316647976E+01 0.70022357915E+01 0.75849621795E+01 0.82749919046E+01
 0.92291716330E+01 0.10668506875E+02 0.12694413515E+02 0.11079315088E+02 0.12747535372E+02
 0.14627067043E+02 0.16525580979E+02 0.18218343722E+02 0.19489732197E+02 0.20171419219E+02
 0.20171419360E+02 0.19489732477E+02 0.18218343789E+02 0.16525580446E+02 0.14627065690E+02
 0.12747533280E+02 0.11079312636E+02 0.97443440397E+01 0.87668344355E+01 0.80628536364E+01
 0.74756812924E+01 0.69642359353E+01 0.65436097641E+01 0.62167590665E+01 0.59773002651E+01
 0.58137128480E+01 0.57134304414E+01 0.56661566920E+01 0.56661569375E+01 0.57134310510E+01
 0.58137135101E+01 0.59773006421E+01 0.62167589826E+01 0.65436093102E+01 0.69642354579E+01
 0.74756812467E+01 0.80628543804E+01 0.87668360665E+01 0.97443463196E+01 0.89954587656E+01
 0.98005389527E+01 0.10777327500E+02 0.11851338177E+02 0.12900079360E+02 0.13782921032E+02
 0.14372053922E+02 0.14578955206E+02 0.14372053789E+02 0.13782920594E+02 0.12900078377E+02
 0.11851336494E+02 0.10777325174E+02 0.98005362830E+01 0.89954562104E+01 0.83659433591E+01
 0.78378830532E+01 0.73517674951E+01 0.69234678105E+01 0.65654219982E+01 0.62810055998E+01
 0.60664914139E+01 0.59138738533E+01 0.58137128480E+01 0.57575128009E+01 0.57394651426E+01
 0.57575134645E+01 0.58137139098E+01 0.59138749075E+01 0.60664921045E+01 0.62810057919E+01
 0.65654218467E+01 0.69234676972E+01 0.73517678674E+01 0.78378842153E+01 0.83659453468E+01
 0.80074053791E+01 0.84233079843E+01 0.88793636374E+01 0.93925540027E+01 0.99312207923E+01
 0.10431648738E+02 0.10819663482E+02 0.11031790108E+02 0.11031790071E+02 0.10819663304E+02
 0.10431648262E+02 0.99312198700E+01 0.93925526026E+01 0.88793619030E+01 0.84233062113E+01
 0.80074039043E+01 0.76022195830E+01 0.72232685316E+01 0.68867583201E+01 0.66022631043E+01
 0.63727768466E+01 0.61960371048E+01 0.60664914139E+01 0.59773002651E+01 0.59219945402E+01
 0.58956576742E+01 0.58956580084E+01 0.59219954194E+01 0.59773013730E+01 0.60664923811E+01
 0.61960376683E+01 0.63727769636E+01 0.66022629661E+01 0.68867582590E+01 0.72232688783E+01
 0.76022205177E+01 0.73713521773E+01 0.76601974467E+01 0.79520106708E+01 0.82297150484E+01
 0.84892378536E+01 0.87302180420E+01 0.89328956459E+01 0.90697105452E+01 0.91181658152E+01
 0.90697107483E+01 0.89328959443E+01 0.87302182754E+01 0.84892378919E+01 0.82297148592E+01
 0.79520103421E+01 0.76601971488E+01 0.73713520854E+01 0.71012172163E+01 0.68617310518E+01
 0.66598495589E+01 0.64975446590E+01 0.63727768466E+01 0.62810055998E+01 0.62167590665E+01
 0.61749010469E+01 0.61514358520E+01 0.61438909448E+01 0.61514362217E+01 0.61749016322E+01
 0.62167596252E+01 0.62810059078E+01 0.63727767915E+01 0.64975442835E+01 0.66598490378E+01
 0.68617306055E+01 0.71012170145E+01 0.69957104038E+01 0.71596764806E+01 0.73386058428E+01
 0.75209225790E+01 0.76938956191E+01 0.78456089576E+01 0.79665084153E+01 0.80501074151E+01
 0.80929415344E+01 0.80929417515E+01 0.80501080205E+01 0.79665092914E+01 0.78456099574E+01
 0.76938966189E+01 0.75209235191E+01 0.73386067317E+01 0.71596773696E+01 0.69957113457E+01
 0.68553519785E+01 0.67432351932E+01 0.66598495589E+01 0.66022631043E+01 0.65654219982E+01
 0.65436097641E+01 0.65316654907E+01 0.65256997451E+01 0.65232794721E+01 0.65232794706E+01
 0.65256997102E+01 0.65316653476E+01 0.65436094289E+01 0.65654214211E+01 0.66022622958E+01
 0.66598485863E+01 0.67432341573E+01 0.68553509685E+01 0.68723633437E+01 0.69140829747E+01
 0.69779046653E+01 0.70576771546E+01 0.71448532460E+01 0.72300952642E+01 0.73048584142E+01
 0.73624900331E+01 0.73986095723E+01 0.74108859324E+01 0.73986099049E+01 0.73624906775E+01
 0.73048593300E+01 0.72300963968E+01 0.71448545323E+01 0.70576785277E+01 0.69779060679E+01
 0.69140843628E+01 0.68723646888E+01 0.68553519785E+01 0.68617310518E+01 0.68867583201E+01
 0.69234678105E+01 0.69642359353E+01 0.70022365154E+01 0.70323677864E+01 0.70514698538E+01
 0.70579854511E+01 0.70514695732E+01 0.70323672484E+01 0.70022357605E+01 0.69642350102E+01
 0.69234667578E+01 0.68867571740E+01 0.68617298308E+01 0.68553506915E+01 0.69957102910E+01
 0.69140831665E+01 0.68597104923E+01 0.68317447508E+01 0.68257737168E+01 0.68351452329E+01
 0.68525415829E+01 0.68713554073E+01 0.68865443856E+01 0.68948951600E+01 0.68948951328E+01
 0.68865443474E+01 0.68713554662E+01 0.68525418650E+01 0.68351458239E+01 0.68257746224E+01
 0.68317458925E+01 0.68597117326E+01 0.69140843628E+01 0.69957113457E+01 0.71012172163E+01
 0.72232685316E+01 0.73517674951E+01 0.74756812924E+01 0.75849626099E+01 0.76719474356E+01
 0.77318485656E+01 0.77624889430E+01 0.77624888036E+01 0.77318481790E+01 0.76719468790E+01
 0.75849619719E+01 0.74756806314E+01 0.73517668123E+01 0.72232677789E+01 0.71012163300E+01
 0.73713519728E+01 0.71596769247E+01 0.69779054174E+01 0.68317452667E+01 0.67218094098E+01
 0.66445862318E+01 0.65940398702E+01 0.65633244695E+01 0.65461876867E+01 0.65378510463E+01
 0.65353961037E+01 0.65378505559E+01 0.65461868892E+01 0.65633236592E+01 0.65940393342E+01
 0.66445861413E+01 0.67218097612E+01 0.68317458925E+01 0.69779060679E+01 0.71596773696E+01
 0.73713520854E+01 0.76022195830E+01 0.78378830532E+01 0.80628536364E+01 0.82749917713E+01
 0.84761368980E+01 0.86486295015E+01 0.87666055914E+01 0.88086566754E+01 0.87666055811E+01
 0.86486295382E+01 0.84761370559E+01 0.82749920838E+01 0.80628540555E+01 0.78378834483E+01
 0.76022197883E+01 0.80074051215E+01 0.76601978230E+01 0.73386068956E+01 0.70576784173E+01
 0.68257745862E+01 0.66445864906E+01 0.65105026932E+01 0.64166864456E+01 0.63552073543E+01
 0.63187889824E+01 0.63020116227E+01 0.63020112211E+01 0.63187879111E+01 0.63552059607E+01
 0.64166851482E+01 0.65105018168E+01 0.66445861413E+01 0.68257746224E+01 0.70576785277E+01
 0.73386067317E+01 0.76601971488E+01 0.80074039043E+01 0.83659433591E+01 0.87668344355E+01
 0.92291708673E+01 0.97236488990E+01 0.10188782101E+02 0.10552217605E+02 0.10751737617E+02
 0.10751737732E+02 0.10552217988E+02 0.10188782839E+02 0.97236500502E+01 0.92291723851E+01
 0.87668361365E+01 0.83659449586E+01 0.89954585042E+01 0.84233079712E+01 0.79520113678E+01
 0.75209238832E+01 0.71448545441E+01 0.68351459057E+01 0.65940398218E+01 0.64166861440E+01
 0.62940574645E+01 0.62158859514E+01 0.61730969916E+01 0.61595538920E+01 0.61730962257E+01
 0.62158846942E+01 0.62940561426E+01 0.64166851482E+01 0.65940393342E+01 0.68351458239E+01
 0.71448545323E+01 0.75209235191E+01 0.79520103421E+01 0.84233062113E+01 0.89954562104E+01
 0.97443440397E+01 0.10668505678E+02 0.11695985296E+02 0.12706501762E+02 0.13561059329E+02
 0.14132874504E+02 0.14333950914E+02 0.14132874672E+02 0.13561059808E+02 0.12706502750E+02
 0.11695986910E+02 0.10668507845E+02 0.97443464763E+01 0.11079314873E+02 0.98005384222E+01
 0.88793634806E+01 0.82297156372E+01 0.76938966823E+01 0.72300960814E+01 0.68525415993E+01
 0.65633237632E+01 0.63552065034E+01 0.62158854838E+01 0.61321518492E+01 0.60932641591E+01
 0.60932638865E+01 0.61321511600E+01 0.62158846942E+01 0.63552059607E+01 0.65633236592E+01
 0.68525418650E+01 0.72300963968E+01 0.76938966189E+01 0.82297148592E+01 0.88793619030E+01
 0.98005362830E+01 0.11079312636E+02 0.12694412296E+02 0.14526828378E+02 0.16386488812E+02
 0.18049928679E+02 0.19301910713E+02 0.19973990883E+02 0.19973990694E+02 0.19301910295E+02
 0.18049928399E+02 0.16386489083E+02 0.14526829451E+02 0.12694414124E+02 0.15269058633E+02
 0.12747534489E+02 0.10777326441E+02 0.93925534733E+01 0.84892381243E+01 0.78456095965E+01
 0.73048586415E+01 0.68713547836E+01 0.65461864614E+01 0.63187878005E+01 0.61730963231E+01
 0.60932640038E+01 0.60680062168E+01 0.60932638865E+01 0.61730962257E+01 0.63187879111E+01
 0.65461868892E+01 0.68713554662E+01 0.73048593300E+01 0.78456099574E+01 0.84892378919E+01
 0.93925526026E+01 0.10777325174E+02 0.12747533280E+02 0.15269057988E+02 0.18177826484E+02
 0.21209265565E+02 0.24042770543E+02 0.26353668628E+02 0.27864824263E+02 0.28390341486E+02
 0.27864823241E+02 0.26353666961E+02 0.24042768836E+02 0.21209264407E+02 0.18177826230E+02
 0.22444518382E+02 0.18224657191E+02 0.14627065540E+02 0.11851336710E+02 0.99312201010E+01
 0.87302182593E+01 0.79665089187E+01 0.73624899938E+01 0.68865434936E+01 0.65378497061E+01
 0.63020105218E+01 0.61595534406E+01 0.60932640038E+01 0.60932641591E+01 0.61595538920E+01
 0.63020112211E+01 0.65378505559E+01 0.68865443474E+01 0.73624906775E+01 0.79665092914E+01
 0.87302182754E+01 0.99312198700E+01 0.11851336494E+02 0.14627065690E+02 0.18224658038E+02
 0.22444520091E+02 0.26951089293E+02 0.31321746418E+02 0.35107370010E+02 0.37896712219E+02
 0.39376158362E+02 0.39376157656E+02 0.37896710275E+02 0.35107367291E+02 0.31321743535E+02
 0.26951086812E+02 0.33213569589E+02 0.26987821685E+02 0.21294004804E+02 0.16525579271E+02
 0.12900078021E+02 0.10431648475E+02 0.89328963344E+01 0.80501081855E+01 0.73986095820E+01
 0.68948942883E+01 0.65353949477E+01 0.63020105218E+01 0.61730963231E+01 0.61321518492E+01
 0.61730969916E+01 0.63020116227E+01 0.65353961037E+01 0.68948951328E+01 0.73986099049E+01
 0.80501080205E+01 0.89328959443E+01 0.10431648262E+02 0.12900078377E+02 0.16525580446E+02
 0.21294006829E+02 0.26987824368E+02 0.33213572592E+02 0.39451904379E+02 0.45123412798E+02
 0.49663602658E+02 0.52599039306E+02 0.53614409610E+02 0.52599038371E+02 0.49663600862E+02
 0.45123410303E+02 0.39451901452E+02 0.47830793262E+02 0.39475329938E+02 0.31383922804E+02
 0.24155484744E+02 0.18218342395E+02 0.13782920443E+02 0.10819664124E+02 0.90697119164E+01
 0.80929425651E+01 0.74108859225E+01 0.68948942883E+01 0.65378497061E+01 0.63187878005E+01
 0.62158854838E+01 0.62158859514E+01 0.63187889824E+01 0.65378510463E+01 0.68948951600E+01
 0.74108859324E+01 0.80929417515E+01 0.90697107483E+01 0.10819663304E+02 0.13782920594E+02
 0.18218343789E+02 0.24155487173E+02 0.31383925676E+02 0.39475332532E+02 0.47830795023E+02
 0.55747168688E+02 0.62498142159E+02 0.67424553617E+02 0.70023881371E+02 0.70023881538E+02
 0.67424553934E+02 0.62498142179E+02 0.55747167935E+02 0.66172240484E+02 0.55755882500E+02
 0.45158234084E+02 0.35184840692E+02 0.26484882321E+02 0.19489731601E+02 0.14372054260E+02
 0.11031791510E+02 0.91181674441E+01 0.80929425651E+01 0.73986095820E+01 0.68865434936E+01
 0.65461864614E+01 0.63552065034E+01 0.62940574645E+01 0.63552073543E+01 0.65461876867E+01
 0.68865443856E+01 0.73986095723E+01 0.80929415344E+01 0.91181658152E+01 0.11031790071E+02
 0.14372053789E+02 0.19489732477E+02 0.26484884303E+02 0.35184842985E+02 0.45158235668E+02
 0.55755882588E+02 0.66172238897E+02 0.75525896753E+02 0.82958387910E+02 0.87744432984E+02
 0.89397041623E+02 0.87744434746E+02 0.82958390715E+02 0.75525899476E+02 0.87738408590E+02
 0.75521020408E+02 0.62505090724E+02 0.49701535395E+02 0.37981939430E+02 0.28006317649E+02
 0.20171419135E+02 0.14578955985E+02 0.11031791510E+02 0.90697119164E+01 0.80501081855E+01
 0.73624899938E+01 0.68713547836E+01 0.65633237632E+01 0.64166861440E+01 0.64166864456E+01
 0.65633244695E+01 0.68713554073E+01 0.73624900331E+01 0.80501074151E+01 0.90697105452E+01
 0.11031790108E+02 0.14578955206E+02 0.20171419360E+02 0.28006318726E+02 0.37981940666E+02
 0.49701535806E+02 0.62505089473E+02 0.75521017219E+02 0.87738403964E+02 0.98105230068E+02
 0.10565268255E+03 0.10963143085E+03 0.10963143224E+03 0.10565268628E+03 0.98105234963E+02
 0.11165523616E+03 0.98090318821E+02 0.82941928989E+02 0.67425360483E+02 0.52636382271E+02
 0.39464389899E+02 0.28535100042E+02 0.20171419135E+02 0.14372054260E+02 0.10819664124E+02
 0.89328963344E+01 0.79665089187E+01 0.73048586415E+01 0.68525415993E+01 0.65940398218E+01
 0.65105026932E+01 0.65940398702E+01 0.68525415829E+01 0.73048584142E+01 0.79665084153E+01
 0.89328956459E+01 0.10819663482E+02 0.14372053922E+02 0.20171419219E+02 0.28535100394E+02
 0.39464390082E+02 0.52636381684E+02 0.67425358606E+02 0.82941925643E+02 0.98090314324E+02
 0.11165523131E+03 0.12242836929E+03 0.12936844529E+03 0.13176588511E+03 0.12936844765E+03
 0.12242837340E+03 0.13666681927E+03 0.12240850475E+03 0.10562131196E+03 0.87717199647E+02
 0.70019906796E+02 0.53651098777E+02 0.39464389899E+02 0.28006317649E+02 0.19489731601E+02
 0.13782920443E+02 0.10431648475E+02 0.87302182593E+01 0.78456095965E+01 0.72300960814E+01
 0.68351459057E+01 0.66445864906E+01 0.66445862318E+01 0.68351452329E+01 0.72300952642E+01
 0.78456089576E+01 0.87302180420E+01 0.10431648738E+02 0.13782921032E+02 0.19489732197E+02
 0.28006317880E+02 0.39464389469E+02 0.53651097557E+02 0.70019904862E+02 0.87717197243E+02
 0.10562130943E+03 0.12240850242E+03 0.13666681742E+03 0.14706493688E+03 0.15255417195E+03
 0.15255417235E+03 0.14706493806E+03 0.16114927261E+03 0.14704534181E+03 0.12933240154E+03
 0.10958962961E+03 0.89365516831E+02 0.70019906796E+02 0.52636382271E+02 0.37981939430E+02
 0.26484882321E+02 0.18218342395E+02 0.12900078021E+02 0.99312201010E+01 0.84892381243E+01
 0.76938966823E+01 0.71448545441E+01 0.68257745862E+01 0.67218094098E+01 0.68257737168E+01
 0.71448532460E+01 0.76938956191E+01 0.84892378536E+01 0.99312207923E+01 0.12900079360E+02
 0.18218343722E+02 0.26484882945E+02 0.37981938970E+02 0.52636380856E+02 0.70019905032E+02
 0.89365515538E+02 0.10958962944E+03 0.12933240269E+03 0.14704534387E+03 0.16114927476E+03
 0.17025566529E+03 0.17340551965E+03 0.17025566392E+03 0.18319659722E+03 0.17024034559E+03
 0.15252266726E+03 0.13172367904E+03 0.10958962961E+03 0.87717199647E+02 0.67425360483E+02
 0.49701535395E+02 0.35184840692E+02 0.24155484744E+02 0.16525579271E+02 0.11851336710E+02
 0.93925534733E+01 0.82297156372E+01 0.75209238832E+01 0.70576784173E+01 0.68317452667E+01
 0.68317447508E+01 0.70576771546E+01 0.75209225790E+01 0.82297150484E+01 0.93925540027E+01
 0.11851338177E+02 0.16525580979E+02 0.24155485830E+02 0.35184840588E+02 0.49701534175E+02
 0.67425358923E+02 0.87717198922E+02 0.10958963077E+03 0.13172368249E+03 0.15252267246E+03
 0.17024035119E+03 0.18319660152E+03 0.19004917426E+03 0.19004917264E+03 0.20081624018E+03
 0.19004002723E+03 0.17338445915E+03 0.15252266726E+03 0.12933240154E+03 0.10562131196E+03
 0.82941928989E+02 0.62505090724E+02 0.45158234084E+02 0.31383922804E+02 0.21294004804E+02
 0.14627065540E+02 0.10777326441E+02 0.88793634806E+01 0.79520113678E+01 0.73386068956E+01
 0.69779054174E+01 0.68597104923E+01 0.69779046653E+01 0.73386058428E+01 0.79520106708E+01
 0.88793636374E+01 0.10777327500E+02 0.14627067043E+02 0.21294006009E+02 0.31383923083E+02
 0.45158233315E+02 0.62505089460E+02 0.82941928294E+02 0.10562131298E+03 0.12933240493E+03
 0.15252267282E+03 0.17338446574E+03 0.19004003313E+03 0.20081624366E+03 0.20454785906E+03
 0.21222486604E+03 0.20454445598E+03 0.19004002723E+03 0.17024034559E+03 0.14704534181E+03
 0.12240850475E+03 0.98090318821E+02 0.75521020408E+02 0.55755882500E+02 0.39475329938E+02
 0.26987821685E+02 0.18224657191E+02 0.12747534489E+02 0.98005384222E+01 0.84233079712E+01
 0.76601978230E+01 0.71596769247E+01 0.69140831665E+01 0.69140829747E+01 0.71596764806E+01
 0.76601974467E+01 0.84233079843E+01 0.98005389527E+01 0.12747535372E+02 0.18224658031E+02
 0.26987822060E+02 0.39475329649E+02 0.55755881736E+02 0.75521019739E+02 0.98090318990E+02
 0.12240850634E+03 0.14704534495E+03 0.17024034980E+03 0.19004003153E+03 0.20454445919E+03
 0.21222486723E+03 0.21190142381E+03 0.20803149139E+03 0.19685852974E+03 0.17959741166E+03
 0.15798952760E+03 0.13398382082E+03 0.10944918658E+03 0.85983090140E+02 0.64825511000E+02
 0.46841984085E+02 0.32527245091E+02 0.22002004659E+02 0.15009786510E+02 0.10943431536E+02
 0.89278320218E+01 0.79625222475E+01 0.73344941075E+01 0.69641634350E+01 0.68426491618E+01
 0.69641635128E+01 0.73344942508E+01 0.79625224326E+01 0.89278322160E+01 0.10943431702E+02
 0.15009786614E+02 0.22002004677E+02 0.32527245018E+02 0.46841983935E+02 0.64825510808E+02
 0.85983089947E+02 0.10944918643E+03 0.13398382073E+03 0.15798952758E+03 0.17959741168E+03
 0.19685852978E+03 0.20803149142E+03 0.20803149142E+03 0.20803149249E+03 0.20051310871E+03
 0.18631060344E+03 0.16691430788E+03 0.14417888975E+03 0.12001548475E+03 0.96151988790E+02
 0.73998130785E+02 0.54598926935E+02 0.38630777971E+02 0.26400573440E+02 0.17838564253E+02
 0.12506172797E+02 0.96494715446E+01 0.83137709875E+01 0.75606526609E+01 0.70664797387E+01
 0.68242341906E+01 0.68242344313E+01 0.70664803313E+01 0.75606532852E+01 0.83137713059E+01
 0.96494713851E+01 0.12506172253E+02 0.17838563637E+02 0.26400573110E+02 0.38630778112E+02
 0.54598927405E+02 0.73998131117E+02 0.96151988370E+02 0.12001548309E+03 0.14417888676E+03
 0.16691430401E+03 0.18631059954E+03 0.20051310582E+03 0.19685852978E+03 0.20051030061E+03
 0.19685853296E+03 0.18631060492E+03 0.17000093628E+03 0.14956009524E+03 0.12682143129E+03
 0.10355503625E+03 0.81287620009E+02 0.61216236464E+02 0.44183378489E+02 0.30671024244E+02
 0.20791349106E+02 0.14282918710E+02 0.10540436235E+02 0.87012368627E+01 0.77917920925E+01
 0.71851789282E+01 0.68288732649E+01 0.67121741759E+01 0.68288739628E+01 0.71851799178E+01
 0.77917927818E+01 0.87012368006E+01 0.10540435372E+02 0.14282917449E+02 0.20791348106E+02
 0.30671024056E+02 0.44183379213E+02 0.61216237598E+02 0.81287620592E+02 0.10355503527E+03
 0.12682142814E+03 0.14956009013E+03 0.17000093025E+03 0.18631059954E+03 0.17959741168E+03
 0.18630310936E+03 0.18630311084E+03 0.17959741562E+03 0.16691430912E+03 0.14956009485E+03
 0.12917235372E+03 0.10745746473E+03 0.85981757803E+02 0.66046038944E+02 0.48630235259E+02
 0.34372550325E+02 0.23554518685E+02 0.16089123426E+02 0.11532687498E+02 0.91458217031E+01
 0.80125105580E+01 0.73103810074E+01 0.68519356044E+01 0.66284577267E+01 0.66284581424E+01
 0.68519366055E+01 0.73103819881E+01 0.80125108790E+01 0.91458210481E+01 0.11532686070E+02
 0.16089121878E+02 0.23554517797E+02 0.34372550591E+02 0.48630236573E+02 0.66046040563E+02
 0.85981758627E+02 0.10745746378E+03 0.12917235064E+03 0.14956009013E+03 0.16691430401E+03
 0.15798952758E+03 0.16690193695E+03 0.16998388097E+03 0.16690193820E+03 0.15798952955E+03
 0.14417888861E+03 0.12682142909E+03 0.10745746344E+03 0.87602641887E+02 0.68594627412E+02
 0.51506026051E+02 0.37101202687E+02 0.25809830233E+02 0.17706742022E+02 0.12510152112E+02
 0.96210746013E+01 0.82182664502E+01 0.74312684213E+01 0.68866082370E+01 0.65702077599E+01
 0.64671201913E+01 0.65702083855E+01 0.68866091197E+01 0.74312690155E+01 0.82182663212E+01
 0.96210736667E+01 0.12510150715E+02 0.17706740793E+02 0.25809829796E+02 0.37101203356E+02
 0.51506027656E+02 0.68594629337E+02 0.87602643334E+02 0.10745746378E+03 0.12682142814E+03
 0.14417888676E+03 0.13398382073E+03 0.14416351768E+03 0.14953516929E+03 0.14953516893E+03
 0.14416351663E+03 0.13398381905E+03 0.12001548092E+03 0.10355503282E+03 0.85981756211E+02
 0.68594627286E+02 0.52500873936E+02 0.38548833548E+02 0.27285358636E+02 0.18925245452E+02
 0.13337793984E+02 0.10068496510E+02 0.84116072565E+01 0.75379743339E+01 0.69254365667E+01
 0.65324808614E+01 0.63428305193E+01 0.63428306789E+01 0.65324812577E+01 0.69254369890E+01
 0.75379745412E+01 0.84116070911E+01 0.10068495981E+02 0.13337793285E+02 0.18925244898E+02
 0.27285358562E+02 0.38548834187E+02 0.52500875348E+02 0.68594629337E+02 0.85981758627E+02
 0.10355503527E+03 0.12001548309E+03 0.10944918643E+03 0.12000086638E+03 0.12679427111E+03
 0.12914033260E+03 0.12679426901E+03 0.12000086271E+03 0.10944918208E+03 0.96151984278E+02
 0.81287617476E+02 0.66046038721E+02 0.51506026957E+02 0.38548834206E+02 0.27798607483E+02
 0.19579665551E+02 0.13892053632E+02 0.10418421326E+02 0.85768132272E+01 0.76229605296E+01
 0.69617543562E+01 0.65097047613E+01 0.62511382270E+01 0.61675191075E+01 0.62511381112E+01
 0.65097046380E+01 0.69617543712E+01 0.76229607657E+01 0.85768136349E+01 0.10418421733E+02
 0.13892053839E+02 0.19579665470E+02 0.27798607248E+02 0.38548834187E+02 0.51506027656E+02
 0.66046040563E+02 0.81287620592E+02 0.96151988370E+02 0.85983089947E+02 0.96142946059E+02
 0.10353420643E+03 0.10742879453E+03 0.10742879331E+03 0.10353420314E+03 0.96142941749E+02
 0.85983085882E+02 0.73998128330E+02 0.61216236530E+02 0.48630236980E+02 0.37101204494E+02
 0.27285359557E+02 0.19579665706E+02 0.14087034810E+02 0.10610646979E+02 0.86896762904E+01
 0.76814845601E+01 0.69905914204E+01 0.64968709215E+01 0.61867126768E+01 0.60388101711E+01
 0.60388099105E+01 0.61867120687E+01 0.64968703916E+01 0.69905914061E+01 0.76814852539E+01
 0.86896775030E+01 0.10610648204E+02 0.14087035471E+02 0.19579665470E+02 0.27285358562E+02
 0.37101203356E+02 0.48630236573E+02 0.61216237598E+02 0.73998131117E+02 0.64825510808E+02
 0.73999297153E+02 0.81282516012E+02 0.85969523850E+02 0.87587414581E+02 0.85969522329E+02
 0.81282513609E+02 0.73999294870E+02 0.64825509576E+02 0.54598927693E+02 0.44183380845E+02
 0.34372552842E+02 0.25809831734E+02 0.18925245789E+02 0.13892053451E+02 0.10610646869E+02
 0.87298935617E+01 0.77112746102E+01 0.70088812238E+01 0.64902264223E+01 0.61445767011E+01
 0.59500207463E+01 0.58875943943E+01 0.59500200764E+01 0.61445757706E+01 0.64902258332E+01
 0.70088814474E+01 0.77112757164E+01 0.87298951433E+01 0.10610648204E+02 0.13892053839E+02
 0.18925244898E+02 0.25809829796E+02 0.34372550591E+02 0.44183379213E+02 0.54598927405E+02
 0.46841983935E+02 0.54613458461E+02 0.61234516263E+02 0.66062499855E+02 0.68608684620E+02
 0.68608684490E+02 0.66062499630E+02 0.61234516352E+02 0.54613459297E+02 0.46841985725E+02