   2   2   1   0
  0.1135338E+02  0.2533140E-09  0.2533140E-09  0.4086074E-09  0.5000000E-15
  1.000000000000000E-004
  CAR 
 Co-hcc                                  
     48.98494133     -1.30993613  301      9.58838631      1.00000000
     -1.310  0.0000E+00  0.0000E+00  0.0000E+00  0.0000E+00
     -1.142  0.0000E+00  0.0000E+00  0.0000E+00  0.0000E+00
     -0.975  0.0000E+00  0.0000E+00  0.0000E+00  0.0000E+00
     -0.807  0.0000E+00  0.0000E+00  0.0000E+00  0.0000E+00
     -0.639  0.0000E+00  0.0000E+00  0.0000E+00  0.0000E+00
     -0.472  0.0000E+00  0.0000E+00  0.0000E+00  0.0000E+00
     -0.304  0.0000E+00  0.0000E+00  0.0000E+00  0.0000E+00
     -0.136  0.0000E+00  0.0000E+00  0.0000E+00  0.0000E+00
      0.031  0.0000E+00  0.0000E+00  0.0000E+00  0.0000E+00
      0.199  0.0000E+00  0.0000E+00  0.0000E+00  0.0000E+00
      0.367  0.0000E+00  0.0000E+00  0.0000E+00  0.0000E+00
      0.534  0.0000E+00  0.0000E+00  0.0000E+00  0.0000E+00
      0.702  0.1121E-18  0.2213E-18  0.1879E-19  0.3710E-19
      0.870  0.4963E-07  0.6597E-07  0.8320E-08  0.1106E-07
      1.037  0.4948E-04  0.4998E-04  0.8304E-05  0.8391E-05
      1.205  0.2283E-03  0.2357E-03  0.4658E-04  0.4790E-04
      1.372  0.5552E-03  0.5567E-03  0.1397E-03  0.1412E-03
      1.540  0.2674E-03  0.2576E-03  0.1845E-03  0.1844E-03
      1.708  0.3562E-03  0.3535E-03  0.2442E-03  0.2437E-03
      1.875  0.1338E-02  0.1318E-02  0.4685E-03  0.4647E-03
      2.043  0.6252E-03  0.5985E-03  0.5733E-03  0.5650E-03
      2.211  0.3715E-03  0.3779E-03  0.6356E-03  0.6284E-03
      2.378  0.6217E-03  0.6545E-03  0.7398E-03  0.7381E-03
      2.546  0.1550E-02  0.1338E-02  0.9997E-03  0.9624E-03
      2.714  0.1436E-02  0.1451E-02  0.1240E-02  0.1206E-02
      2.881  0.2631E-03  0.3427E-03  0.1284E-02  0.1263E-02
      3.049  0.1813E-02  0.1109E-02  0.1588E-02  0.1449E-02
      3.217  0.1547E-02  0.2299E-02  0.1848E-02  0.1834E-02
      3.384  0.7338E-03  0.1259E-03  0.1971E-02  0.1856E-02
      3.552  0.8293E-03  0.1276E-02  0.2110E-02  0.2070E-02
      3.720  0.2934E-02  0.1361E-02  0.2602E-02  0.2298E-02
      3.887  0.1895E-02  0.2885E-02  0.2919E-02  0.2781E-02
      4.055  0.2786E-02  0.1486E-02  0.3386E-02  0.3031E-02
      4.223  0.1463E-02  0.1817E-02  0.3632E-02  0.3335E-02
      4.390  0.2779E-02  0.1162E-02  0.4098E-02  0.3530E-02
      4.558  0.2841E-02  0.1706E-02  0.4574E-02  0.3816E-02
      4.725  0.8433E-02  0.2406E-02  0.5988E-02  0.4219E-02
      4.893  0.1030E-01  0.2813E-02  0.7714E-02  0.4691E-02
      5.061  0.9402E-02  0.2668E-02  0.9291E-02  0.5138E-02
      5.228  0.1680E-01  0.2843E-02  0.1211E-01  0.5615E-02
      5.396  0.1334E-01  0.3809E-02  0.1434E-01  0.6253E-02
      5.564  0.2262E-01  0.5329E-02  0.1814E-01  0.7147E-02
      5.731  0.1581E-01  0.2652E-02  0.2079E-01  0.7591E-02
      5.899  0.1767E-01  0.8909E-02  0.2375E-01  0.9085E-02
      6.067  0.1794E-01  0.9931E-02  0.2675E-01  0.1075E-01
      6.234  0.2230E-01  0.8028E-02  0.3049E-01  0.1210E-01
      6.402  0.2358E-01  0.7656E-02  0.3445E-01  0.1338E-01
      6.570  0.1859E-01  0.1189E-01  0.3756E-01  0.1537E-01
      6.737  0.1218E-01  0.1445E-01  0.3961E-01  0.1780E-01
      6.905  0.3034E-01  0.1476E-01  0.4469E-01  0.2027E-01
      7.073  0.3099E-01  0.1235E-01  0.4989E-01  0.2234E-01
      7.240  0.3083E-01  0.1444E-01  0.5506E-01  0.2476E-01
      7.408  0.3193E-01  0.1555E-01  0.6041E-01  0.2737E-01
      7.575  0.3233E-01  0.1954E-01  0.6583E-01  0.3064E-01
      7.743  0.2631E-01  0.2334E-01  0.7024E-01  0.3456E-01
      7.911  0.1806E-01  0.1396E-01  0.7327E-01  0.3690E-01
      8.078  0.2492E-01  0.9988E-02  0.7745E-01  0.3857E-01
      8.246  0.1460E-01  0.8930E-02  0.7989E-01  0.4007E-01
      8.414  0.2015E-01  0.2248E-01  0.8327E-01  0.4384E-01
      8.581  0.2877E-01  0.2462E-01  0.8810E-01  0.4797E-01
      8.749  0.3726E-01  0.2847E-01  0.9434E-01  0.5274E-01
      8.917  0.5065E-01  0.2623E-01  0.1028E+00  0.5714E-01
      9.084  0.9700E-02  0.3176E-01  0.1045E+00  0.6246E-01
      9.252  0.1491E-02  0.2766E-01  0.1047E+00  0.6710E-01
      9.420  0.6994E-02  0.1692E-01  0.1059E+00  0.6993E-01
      9.587  0.5093E-02  0.1971E-01  0.1067E+00  0.7324E-01
      9.755  0.2885E-02  0.1158E-01  0.1072E+00  0.7518E-01
      9.923  0.1051E-02  0.2031E-01  0.1074E+00  0.7859E-01
     10.090  0.1155E-02  0.1103E-01  0.1076E+00  0.8043E-01
     10.258  0.9884E-03  0.1597E-01  0.1078E+00  0.8311E-01
     10.426  0.3013E-02  0.2529E-01  0.1083E+00  0.8735E-01
     10.593  0.7403E-02  0.2665E-01  0.1095E+00  0.9182E-01
     10.761  0.3832E-02  0.4115E-01  0.1101E+00  0.9872E-01
     10.928  0.2731E-02  0.3545E-01  0.1106E+00  0.1047E+00
     11.096  0.1614E-02  0.9785E-02  0.1109E+00  0.1063E+00
     11.264  0.1728E-02  0.4424E-02  0.1112E+00  0.1070E+00
     11.431  0.2228E-02  0.3537E-02  0.1115E+00  0.1076E+00
     11.599  0.2180E-02  0.3221E-02  0.1119E+00  0.1082E+00
     11.767  0.2468E-02  0.4360E-02  0.1123E+00  0.1089E+00
     11.934  0.3291E-02  0.4118E-02  0.1129E+00  0.1096E+00
     12.102  0.1015E-02  0.5099E-02  0.1130E+00  0.1105E+00
     12.270  0.4641E-02  0.4022E-02  0.1138E+00  0.1111E+00
     12.437  0.1212E-02  0.2807E-02  0.1140E+00  0.1116E+00
     12.605  0.1397E-02  0.2881E-02  0.1143E+00  0.1121E+00
     12.773  0.2510E-02  0.1324E-02  0.1147E+00  0.1123E+00
     12.940  0.3297E-02  0.4156E-02  0.1152E+00  0.1130E+00
     13.108  0.3885E-02  0.1789E-02  0.1159E+00  0.1133E+00
     13.276  0.2141E-02  0.3197E-02  0.1162E+00  0.1138E+00
     13.443  0.2117E-02  0.1595E-02  0.1166E+00  0.1141E+00
     13.611  0.2307E-02  0.3233E-02  0.1170E+00  0.1146E+00
     13.779  0.5664E-03  0.4244E-02  0.1171E+00  0.1154E+00
     13.946  0.1386E-02  0.3123E-02  0.1173E+00  0.1159E+00
     14.114  0.1612E-02  0.1186E-02  0.1176E+00  0.1161E+00
     14.281  0.1015E-02  0.2482E-02  0.1177E+00  0.1165E+00
     14.449  0.1173E-02  0.3271E-02  0.1179E+00  0.1170E+00
     14.617  0.2354E-02  0.1439E-02  0.1183E+00  0.1173E+00
     14.784  0.4728E-02  0.1382E-02  0.1191E+00  0.1175E+00
     14.952  0.1735E-02  0.1436E-02  0.1194E+00  0.1178E+00
     15.120  0.1381E-02  0.8582E-03  0.1197E+00  0.1179E+00
     15.287  0.9919E-04  0.1639E-02  0.1197E+00  0.1182E+00
     15.455  0.2723E-06  0.4788E-02  0.1197E+00  0.1190E+00
     15.623  0.3120E-03  0.2548E-02  0.1197E+00  0.1194E+00
     15.790  0.1491E-02  0.1174E-02  0.1200E+00  0.1196E+00
     15.958  0.9792E-03  0.4075E-03  0.1201E+00  0.1197E+00
     16.126  0.7677E-03  0.4377E-08  0.1203E+00  0.1197E+00
     16.293  0.4098E-03  0.3526E-04  0.1203E+00  0.1197E+00
     16.461  0.1106E-02  0.1342E-02  0.1205E+00  0.1199E+00
     16.629  0.2393E-02  0.4535E-03  0.1209E+00  0.1200E+00
     16.796  0.2462E-02  0.8959E-03  0.1213E+00  0.1201E+00
     16.964  0.8965E-02  0.1212E-02  0.1228E+00  0.1203E+00
     17.132  0.4293E-02  0.7720E-03  0.1236E+00  0.1205E+00
     17.299  0.1687E-02  0.8679E-03  0.1238E+00  0.1206E+00
     17.467  0.4756E-02  0.2410E-02  0.1246E+00  0.1210E+00
     17.634  0.2861E-02  0.7128E-02  0.1251E+00  0.1222E+00
     17.802  0.3928E-02  0.5753E-02  0.1258E+00  0.1232E+00
     17.970  0.1822E-02  0.3252E-02  0.1261E+00  0.1237E+00
     18.137  0.4387E-02  0.4530E-02  0.1268E+00  0.1245E+00
     18.305  0.2187E-02  0.3342E-02  0.1272E+00  0.1250E+00
     18.473  0.2958E-02  0.4641E-02  0.1277E+00  0.1258E+00
     18.640  0.3528E-02  0.2700E-02  0.1283E+00  0.1263E+00
     18.808  0.2729E-02  0.3256E-02  0.1287E+00  0.1268E+00
     18.976  0.2472E-02  0.3444E-02  0.1291E+00  0.1274E+00
     19.143  0.5553E-02  0.3221E-02  0.1301E+00  0.1279E+00
     19.311  0.4082E-02  0.3320E-02  0.1308E+00  0.1285E+00
     19.479  0.2110E-02  0.3275E-02  0.1311E+00  0.1290E+00
     19.646  0.6410E-02  0.2196E-02  0.1322E+00  0.1294E+00
     19.814  0.1971E-02  0.5710E-02  0.1325E+00  0.1304E+00
     19.982  0.3836E-02  0.5226E-02  0.1332E+00  0.1312E+00
     20.149  0.5601E-02  0.5274E-02  0.1341E+00  0.1321E+00
     20.317  0.3386E-02  0.2502E-02  0.1347E+00  0.1325E+00
     20.485  0.3100E-02  0.3431E-02  0.1352E+00  0.1331E+00
     20.652  0.2024E-02  0.6440E-02  0.1355E+00  0.1342E+00
     20.820  0.3020E-02  0.2805E-02  0.1360E+00  0.1347E+00
     20.987  0.6086E-02  0.3880E-02  0.1371E+00  0.1353E+00
     21.155  0.2703E-02  0.2328E-02  0.1375E+00  0.1357E+00
     21.323  0.3215E-02  0.3336E-02  0.1380E+00  0.1363E+00
     21.490  0.1622E-02  0.5795E-02  0.1383E+00  0.1372E+00
     21.658  0.2517E-02  0.1700E-02  0.1387E+00  0.1375E+00
     21.826  0.3561E-02  0.3769E-02  0.1393E+00  0.1382E+00
     21.993  0.1721E-02  0.1191E-02  0.1396E+00  0.1384E+00
     22.161  0.1833E-02  0.3536E-02  0.1399E+00  0.1389E+00
     22.329  0.3882E-02  0.2898E-02  0.1406E+00  0.1394E+00
     22.496  0.5569E-02  0.1564E-02  0.1415E+00  0.1397E+00
     22.664  0.2611E-02  0.2495E-02  0.1420E+00  0.1401E+00
     22.832  0.1218E-02  0.6051E-02  0.1422E+00  0.1411E+00
     22.999  0.1966E-02  0.2796E-02  0.1425E+00  0.1416E+00
     23.167  0.6725E-02  0.2751E-02  0.1436E+00  0.1421E+00
     23.335  0.4543E-02  0.1170E-02  0.1444E+00  0.1423E+00
     23.502  0.7075E-03  0.4964E-02  0.1445E+00  0.1431E+00
     23.670  0.4207E-02  0.6016E-02  0.1452E+00  0.1441E+00
     23.838  0.3802E-02  0.1984E-02  0.1458E+00  0.1444E+00
     24.005  0.2951E-02  0.2355E-02  0.1463E+00  0.1448E+00
     24.173  0.5367E-02  0.4424E-02  0.1472E+00  0.1456E+00
     24.340  0.4571E-02  0.4021E-02  0.1480E+00  0.1462E+00
     24.508  0.3619E-02  0.5222E-02  0.1486E+00  0.1471E+00
     24.676  0.7868E-02  0.4387E-02  0.1499E+00  0.1478E+00
     24.843  0.4105E-02  0.4333E-02  0.1506E+00  0.1486E+00
     25.011  0.3335E-02  0.6582E-02  0.1512E+00  0.1497E+00
     25.179  0.1919E-02  0.5092E-02  0.1515E+00  0.1505E+00
     25.346  0.4234E-02  0.2711E-02  0.1522E+00  0.1510E+00
     25.514  0.5558E-02  0.3117E-02  0.1531E+00  0.1515E+00
     25.682  0.1735E-02  0.4956E-02  0.1534E+00  0.1523E+00
     25.849  0.4985E-02  0.5621E-02  0.1543E+00  0.1533E+00
     26.017  0.7624E-02  0.8585E-03  0.1555E+00  0.1534E+00
     26.185  0.3542E-02  0.5634E-02  0.1561E+00  0.1544E+00
     26.352  0.3414E-02  0.7261E-02  0.1567E+00  0.1556E+00
     26.520  0.4486E-02  0.3962E-02  0.1575E+00  0.1563E+00
     26.688  0.5353E-02  0.2949E-02  0.1584E+00  0.1567E+00
     26.855  0.2013E-02  0.6020E-02  0.1587E+00  0.1578E+00
     27.023  0.4721E-02  0.4450E-02  0.1595E+00  0.1585E+00
     27.190  0.3246E-02  0.3803E-02  0.1600E+00  0.1591E+00
     27.358  0.3488E-02  0.2787E-02  0.1606E+00  0.1596E+00
     27.526  0.4590E-02  0.4130E-02  0.1614E+00  0.1603E+00
     27.693  0.3776E-02  0.3331E-02  0.1620E+00  0.1609E+00
     27.861  0.5154E-02  0.4129E-02  0.1629E+00  0.1615E+00
     28.029  0.3896E-02  0.5733E-02  0.1635E+00  0.1625E+00
     28.196  0.3776E-02  0.4585E-02  0.1642E+00  0.1633E+00
     28.364  0.7972E-02  0.4135E-02  0.1655E+00  0.1640E+00
     28.532  0.2225E-02  0.4856E-02  0.1659E+00  0.1648E+00
     28.699  0.3621E-02  0.6079E-02  0.1665E+00  0.1658E+00
     28.867  0.4540E-02  0.2661E-02  0.1672E+00  0.1663E+00
     29.035  0.4868E-02  0.4658E-02  0.1681E+00  0.1670E+00
     29.202  0.2144E-02  0.4078E-02  0.1684E+00  0.1677E+00
     29.370  0.5751E-02  0.4191E-02  0.1694E+00  0.1684E+00
     29.538  0.3192E-02  0.6068E-02  0.1699E+00  0.1694E+00
     29.705  0.5097E-02  0.2533E-02  0.1708E+00  0.1699E+00
     29.873  0.2825E-02  0.2895E-02  0.1712E+00  0.1703E+00
     30.041  0.2986E-02  0.5436E-02  0.1717E+00  0.1713E+00
     30.208  0.2032E-02  0.2638E-02  0.1721E+00  0.1717E+00
     30.376  0.6450E-02  0.3203E-02  0.1732E+00  0.1722E+00
     30.543  0.6185E-02  0.4517E-02  0.1742E+00  0.1730E+00
     30.711  0.5697E-02  0.6549E-02  0.1752E+00  0.1741E+00
     30.879  0.4099E-02  0.6144E-02  0.1758E+00  0.1751E+00
     31.046  0.3198E-02  0.3467E-02  0.1764E+00  0.1757E+00
     31.214  0.4537E-02  0.2502E-02  0.1771E+00  0.1761E+00
     31.382  0.4066E-02  0.5458E-02  0.1778E+00  0.1770E+00
     31.549  0.5993E-02  0.5060E-02  0.1788E+00  0.1779E+00
     31.717  0.5831E-02  0.5682E-02  0.1798E+00  0.1788E+00
     31.885  0.3843E-02  0.5083E-02  0.1805E+00  0.1797E+00
     32.052  0.1791E-02  0.4483E-02  0.1808E+00  0.1804E+00
     32.220  0.1185E-02  0.1489E-02  0.1810E+00  0.1807E+00
     32.388  0.3159E-02  0.1161E-02  0.1815E+00  0.1809E+00
     32.555  0.5404E-02  0.4699E-02  0.1824E+00  0.1817E+00
     32.723  0.6925E-02  0.4559E-02  0.1835E+00  0.1824E+00
     32.891  0.5614E-02  0.3863E-02  0.1845E+00  0.1831E+00
     33.058  0.9062E-02  0.5314E-02  0.1860E+00  0.1840E+00
     33.226  0.5181E-02  0.8076E-02  0.1869E+00  0.1853E+00
     33.394  0.4109E-02  0.9624E-02  0.1876E+00  0.1869E+00
     33.561  0.4905E-02  0.4381E-02  0.1884E+00  0.1877E+00
     33.729  0.5374E-02  0.3215E-02  0.1893E+00  0.1882E+00
     33.896  0.4460E-02  0.4793E-02  0.1900E+00  0.1890E+00
     34.064  0.3432E-02  0.5698E-02  0.1906E+00  0.1900E+00
     34.232  0.3313E-02  0.5126E-02  0.1912E+00  0.1908E+00
     34.399  0.2896E-02  0.2438E-02  0.1917E+00  0.1912E+00
     34.567  0.1190E-02  0.3607E-02  0.1919E+00  0.1918E+00
     34.735  0.6419E-02  0.7600E-03  0.1929E+00  0.1920E+00
     34.902  0.3458E-02  0.4792E-02  0.1935E+00  0.1928E+00
     35.070  0.2488E-02  0.3935E-02  0.1939E+00  0.1934E+00
     35.238  0.4298E-02  0.2122E-02  0.1946E+00  0.1938E+00
     35.405  0.6118E-02  0.4850E-02  0.1957E+00  0.1946E+00
     35.573  0.6954E-02  0.5126E-02  0.1968E+00  0.1955E+00
     35.741  0.4685E-02  0.5524E-02  0.1976E+00  0.1964E+00
     35.908  0.2102E-02  0.6171E-02  0.1980E+00  0.1974E+00
     36.076  0.3685E-02  0.2798E-02  0.1986E+00  0.1979E+00
     36.244  0.4957E-02  0.1927E-02  0.1994E+00  0.1982E+00
     36.411  0.5425E-02  0.7602E-02  0.2003E+00  0.1995E+00
     36.579  0.4934E-02  0.4009E-02  0.2012E+00  0.2002E+00
     36.747  0.3493E-02  0.4930E-02  0.2017E+00  0.2010E+00
     36.914  0.2824E-02  0.4350E-02  0.2022E+00  0.2017E+00
     37.082  0.5809E-02  0.2339E-02  0.2032E+00  0.2021E+00
     37.249  0.8989E-02  0.4185E-02  0.2047E+00  0.2028E+00
     37.417  0.2241E-02  0.8555E-02  0.2051E+00  0.2043E+00
     37.585  0.3848E-02  0.4977E-02  0.2057E+00  0.2051E+00
     37.752  0.2886E-02  0.3515E-02  0.2062E+00  0.2057E+00
     37.920  0.3657E-02  0.3450E-02  0.2068E+00  0.2063E+00
     38.088  0.3306E-02  0.4413E-02  0.2074E+00  0.2070E+00
     38.255  0.4866E-02  0.3439E-02  0.2082E+00  0.2076E+00
     38.423  0.6025E-02  0.1786E-02  0.2092E+00  0.2079E+00
     38.591  0.5554E-02  0.6284E-02  0.2101E+00  0.2089E+00
     38.758  0.5883E-02  0.6451E-02  0.2111E+00  0.2100E+00
     38.926  0.5901E-02  0.5831E-02  0.2121E+00  0.2110E+00
     39.094  0.5268E-02  0.6016E-02  0.2130E+00  0.2120E+00
     39.261  0.6545E-02  0.6076E-02  0.2141E+00  0.2130E+00
     39.429  0.2082E-02  0.5807E-02  0.2144E+00  0.2140E+00
     39.597  0.3970E-02  0.2741E-02  0.2151E+00  0.2144E+00
     39.764  0.5443E-02  0.4130E-02  0.2160E+00  0.2151E+00
     39.932  0.5982E-02  0.5806E-02  0.2170E+00  0.2161E+00
     40.100  0.3150E-02  0.4782E-02  0.2175E+00  0.2169E+00
     40.267  0.1897E-02  0.4071E-02  0.2179E+00  0.2176E+00
     40.435  0.1117E-02  0.2127E-02  0.2180E+00  0.2179E+00
     40.602  0.5085E-02  0.1540E-02  0.2189E+00  0.2182E+00
     40.770  0.6542E-02  0.4359E-02  0.2200E+00  0.2189E+00
     40.938  0.6192E-02  0.4778E-02  0.2210E+00  0.2197E+00
     41.105  0.9415E-02  0.5633E-02  0.2226E+00  0.2207E+00
     41.273  0.4404E-02  0.6219E-02  0.2234E+00  0.2217E+00
     41.441  0.5137E-02  0.8509E-02  0.2242E+00  0.2232E+00
     41.608  0.5560E-02  0.7380E-02  0.2251E+00  0.2244E+00
     41.776  0.5085E-02  0.2842E-02  0.2260E+00  0.2249E+00
     41.944  0.3116E-02  0.4611E-02  0.2265E+00  0.2256E+00
     42.111  0.5238E-02  0.4710E-02  0.2274E+00  0.2264E+00
     42.279  0.2448E-02  0.5499E-02  0.2278E+00  0.2273E+00
     42.447  0.6484E-02  0.3999E-02  0.2289E+00  0.2280E+00
     42.614  0.6851E-02  0.5517E-02  0.2300E+00  0.2289E+00
     42.782  0.5170E-02  0.5744E-02  0.2309E+00  0.2299E+00
     42.950  0.1797E-02  0.6300E-02  0.2312E+00  0.2310E+00
     43.117  0.4392E-02  0.6600E-03  0.2320E+00  0.2311E+00
     43.285  0.4381E-02  0.8950E-03  0.2327E+00  0.2312E+00
     43.453  0.3011E-02  0.7026E-02  0.2332E+00  0.2324E+00
     43.620  0.4995E-02  0.4725E-02  0.2340E+00  0.2332E+00
     43.788  0.1574E-02  0.2428E-02  0.2343E+00  0.2336E+00
     43.955  0.2186E-02  0.4072E-02  0.2347E+00  0.2343E+00
     44.123  0.3019E-02  0.2828E-02  0.2352E+00  0.2348E+00
     44.291  0.1469E-02  0.1099E-02  0.2354E+00  0.2349E+00
     44.458  0.4911E-02  0.1240E-02  0.2362E+00  0.2352E+00
     44.626  0.4005E-02  0.4076E-02  0.2369E+00  0.2358E+00
     44.794  0.5646E-02  0.5049E-02  0.2379E+00  0.2367E+00
     44.961  0.3346E-02  0.5735E-02  0.2384E+00  0.2376E+00
     45.129  0.1917E-02  0.1167E-02  0.2387E+00  0.2378E+00
     45.297  0.2609E-02  0.3008E-02  0.2392E+00  0.2383E+00
     45.464  0.1192E-02  0.2419E-02  0.2394E+00  0.2387E+00
     45.632  0.8494E-03  0.1473E-02  0.2395E+00  0.2390E+00
     45.800  0.1347E-02  0.1538E-02  0.2397E+00  0.2393E+00
     45.967  0.1747E-03  0.1478E-02  0.2398E+00  0.2395E+00
     46.135  0.5543E-03  0.1364E-02  0.2399E+00  0.2397E+00
     46.303  0.1274E-03  0.3755E-03  0.2399E+00  0.2398E+00
     46.470  0.7029E-03  0.5395E-03  0.2400E+00  0.2399E+00
     46.638  0.2270E-06  0.1081E-03  0.2400E+00  0.2399E+00
     46.805  0.0000E+00  0.5942E-03  0.2400E+00  0.2400E+00
     46.973  0.0000E+00  0.7917E-06  0.2400E+00  0.2400E+00
     47.141  0.0000E+00  0.0000E+00  0.2400E+00  0.2400E+00
     47.308  0.0000E+00  0.0000E+00  0.2400E+00  0.2400E+00
     47.476  0.0000E+00  0.0000E+00  0.2400E+00  0.2400E+00
     47.644  0.0000E+00  0.0000E+00  0.2400E+00  0.2400E+00
     47.811  0.0000E+00  0.0000E+00  0.2400E+00  0.2400E+00
     47.979  0.0000E+00  0.0000E+00  0.2400E+00  0.2400E+00
     48.147  0.0000E+00  0.0000E+00  0.2400E+00  0.2400E+00
     48.314  0.0000E+00  0.0000E+00  0.2400E+00  0.2400E+00
     48.482  0.0000E+00  0.0000E+00  0.2400E+00  0.2400E+00
     48.650  0.0000E+00  0.0000E+00  0.2400E+00  0.2400E+00
     48.817  0.0000E+00  0.0000E+00  0.2400E+00  0.2400E+00
     48.985  0.0000E+00  0.0000E+00  0.2400E+00  0.2400E+00
     48.98494133     -1.30993613  301      9.58838631      1.00000000
     -1.310  0.0000E+00  0.0000E+00  0.0000E+00  0.0000E+00  0.0000E+00  0.0000E+00  0.0000E+00  0.0000E+00  0.0000E+00  0.0000E+00  0.0000E+00  0.0000E+00  0.0000E+00  0.0000E+00  0.0000E+00  0.0000E+00  0.0000E+00  0.0000E+00
     -1.142  0.0000E+00  0.0000E+00  0.0000E+00  0.0000E+00  0.0000E+00  0.0000E+00  0.0000E+00  0.0000E+00  0.0000E+00  0.0000E+00  0.0000E+00  0.0000E+00  0.0000E+00  0.0000E+00  0.0000E+00  0.0000E+00  0.0000E+00  0.0000E+00
     -0.975  0.0000E+00  0.0000E+00  0.0000E+00  0.0000E+00  0.0000E+00  0.0000E+00  0.0000E+00  0.0000E+00  0.0000E+00  0.0000E+00  0.0000E+00  0.0000E+00  0.0000E+00  0.0000E+00  0.0000E+00  0.0000E+00  0.0000E+00  0.0000E+00
     -0.807  0.0000E+00  0.0000E+00  0.0000E+00  0.0000E+00  0.0000E+00  0.0000E+00  0.0000E+00  0.0000E+00  0.0000E+00  0.0000E+00  0.0000E+00  0.0000E+00  0.0000E+00  0.0000E+00  0.0000E+00  0.0000E+00  0.0000E+00  0.0000E+00
     -0.639  0.0000E+00  0.0000E+00  0.0000E+00  0.0000E+00  0.0000E+00  0.0000E+00  0.0000E+00  0.0000E+00  0.0000E+00  0.0000E+00  0.0000E+00  0.0000E+00  0.0000E+00  0.0000E+00  0.0000E+00  0.0000E+00  0.0000E+00  0.0000E+00
     -0.472  0.0000E+00  0.0000E+00  0.0000E+00  0.0000E+00  0.0000E+00  0.0000E+00  0.0000E+00  0.0000E+00  0.0000E+00  0.0000E+00  0.0000E+00  0.0000E+00  0.0000E+00  0.0000E+00  0.0000E+00  0.0000E+00  0.0000E+00  0.0000E+00
     -0.304  0.0000E+00  0.0000E+00  0.0000E+00  0.0000E+00  0.0000E+00  0.0000E+00  0.0000E+00  0.0000E+00  0.0000E+00  0.0000E+00  0.0000E+00  0.0000E+00  0.0000E+00  0.0000E+00  0.0000E+00  0.0000E+00  0.0000E+00  0.0000E+00
     -0.136  0.0000E+00  0.0000E+00  0.0000E+00  0.0000E+00  0.0000E+00  0.0000E+00  0.0000E+00  0.0000E+00  0.0000E+00  0.0000E+00  0.0000E+00  0.0000E+00  0.0000E+00  0.0000E+00  0.0000E+00  0.0000E+00  0.0000E+00  0.0000E+00
      0.031  0.0000E+00  0.0000E+00  0.0000E+00  0.0000E+00  0.0000E+00  0.0000E+00  0.0000E+00  0.0000E+00  0.0000E+00  0.0000E+00  0.0000E+00  0.0000E+00  0.0000E+00  0.0000E+00  0.0000E+00  0.0000E+00  0.0000E+00  0.0000E+00
      0.199  0.0000E+00  0.0000E+00  0.0000E+00  0.0000E+00  0.0000E+00  0.0000E+00  0.0000E+00  0.0000E+00  0.0000E+00  0.0000E+00  0.0000E+00  0.0000E+00  0.0000E+00  0.0000E+00  0.0000E+00  0.0000E+00  0.0000E+00  0.0000E+00
      0.367  0.0000E+00  0.0000E+00  0.0000E+00  0.0000E+00  0.0000E+00  0.0000E+00  0.0000E+00  0.0000E+00  0.0000E+00  0.0000E+00  0.0000E+00  0.0000E+00  0.0000E+00  0.0000E+00  0.0000E+00  0.0000E+00  0.0000E+00  0.0000E+00
      0.534  0.0000E+00  0.0000E+00  0.0000E+00  0.0000E+00  0.0000E+00  0.0000E+00  0.0000E+00  0.0000E+00  0.0000E+00  0.0000E+00  0.0000E+00  0.0000E+00  0.0000E+00  0.0000E+00  0.0000E+00  0.0000E+00  0.0000E+00  0.0000E+00
      0.702  0.3858E-17  0.7599E-17  0.6120E-34  0.4329E-31  0.4673E-32  0.2977E-30  0.6120E-34  0.4329E-31  0.1097E-31  0.3566E-30  0.2575E-32  0.7980E-35  0.2728E-22  0.8660E-22  0.2575E-32  0.7980E-35  0.1097E-31  0.3566E-30
      0.870  0.1708E-05  0.2265E-05  0.2710E-22  0.1290E-19  0.2886E-17  0.5011E-17  0.2710E-22  0.1290E-19  0.4858E-20  0.1063E-18  0.1140E-20  0.2379E-23  0.1208E-10  0.2582E-10  0.1140E-20  0.2379E-23  0.4858E-20  0.1063E-18
      1.037  0.1703E-02  0.1716E-02  0.3508E-10  0.4850E-10  0.1873E-06  0.2320E-06  0.3508E-10  0.4850E-10  0.6555E-12  0.6495E-12  0.1128E-17  0.2798E-20  0.1403E-07  0.2085E-07  0.1128E-17  0.2798E-20  0.6555E-12  0.6495E-12
      1.205  0.7714E-02  0.7940E-02  0.4722E-04  0.5028E-04  0.5033E-04  0.5073E-04  0.4722E-04  0.5028E-04  0.8823E-06  0.6732E-06  0.3244E-10  0.2834E-10  0.1468E-05  0.1141E-05  0.3244E-10  0.2834E-10  0.8823E-06  0.6732E-06
      1.372  0.1850E-01  0.1850E-01  0.2085E-03  0.2101E-03  0.1814E-03  0.1869E-03  0.2085E-03  0.2101E-03  0.3971E-05  0.2848E-05  0.5978E-05  0.4463E-05  0.1373E-05  0.1118E-05  0.5978E-05  0.4463E-05  0.3971E-05  0.2848E-05
      1.540  0.8858E-02  0.8510E-02  0.9558E-04  0.9250E-04  0.1501E-03  0.1455E-03  0.9558E-04  0.9250E-04  0.1840E-05  0.1262E-05  0.4141E-05  0.2905E-05  0.1759E-05  0.1112E-05  0.4141E-05  0.2905E-05  0.1840E-05  0.1262E-05
      1.708  0.1147E-01  0.1136E-01  0.2905E-03  0.2894E-03  0.1762E-03  0.1782E-03  0.2905E-03  0.2894E-03  0.1643E-04  0.1151E-04  0.1483E-06  0.8066E-07  0.2620E-04  0.1834E-04  0.1483E-06  0.8066E-07  0.1643E-04  0.1151E-04
      1.875  0.4231E-01  0.4161E-01  0.1051E-02  0.1036E-02  0.1422E-02  0.1429E-02  0.1051E-02  0.1036E-02  0.5802E-04  0.3897E-04  0.7357E-04  0.5165E-04  0.7444E-04  0.4927E-04  0.7357E-04  0.5165E-04  0.5802E-04  0.3897E-04
      2.043  0.1942E-01  0.1858E-01  0.8586E-03  0.8263E-03  0.2143E-03  0.2022E-03  0.8586E-03  0.8263E-03  0.7882E-04  0.5009E-04  0.3202E-04  0.1954E-04  0.4030E-04  0.2832E-04  0.3202E-04  0.1954E-04  0.7882E-04  0.5009E-04
      2.211  0.1136E-01  0.1158E-01  0.4803E-03  0.5128E-03  0.3336E-03  0.2792E-03  0.4803E-03  0.5128E-03  0.4263E-04  0.3097E-04  0.4692E-04  0.2805E-04  0.1603E-04  0.1194E-04  0.4692E-04  0.2805E-04  0.4263E-04  0.3097E-04
      2.378  0.1865E-01  0.1964E-01  0.5496E-03  0.5890E-03  0.1352E-02  0.1437E-02  0.5496E-03  0.5890E-03  0.3829E-04  0.2685E-04  0.1220E-03  0.8790E-04  0.9739E-04  0.6130E-04  0.1220E-03  0.8790E-04  0.3829E-04  0.2685E-04
      2.546  0.4509E-01  0.3900E-01  0.1929E-02  0.1625E-02  0.3248E-02  0.2998E-02  0.1929E-02  0.1625E-02  0.2544E-03  0.1309E-03  0.2904E-03  0.1874E-03  0.5188E-03  0.2645E-03  0.2904E-03  0.1874E-03  0.2544E-03  0.1309E-03
      2.714  0.4094E-01  0.4162E-01  0.3184E-02  0.3129E-02  0.7582E-03  0.1037E-02  0.3184E-02  0.3129E-02  0.5606E-03  0.3480E-03  0.2087E-03  0.1206E-03  0.3704E-03  0.2784E-03  0.2087E-03  0.1206E-03  0.5606E-03  0.3480E-03
      2.881  0.7305E-02  0.9738E-02  0.4665E-03  0.7803E-03  0.4989E-03  0.2317E-03  0.4665E-03  0.7803E-03  0.8661E-04  0.8830E-04  0.8462E-04  0.4337E-04  0.9423E-04  0.5391E-04  0.8462E-04  0.4337E-04  0.8661E-04  0.8830E-04
      3.049  0.4874E-01  0.3038E-01  0.3657E-02  0.1994E-02  0.3266E-02  0.2613E-02  0.3657E-02  0.1994E-02  0.9215E-03  0.2744E-03  0.8762E-03  0.2939E-03  0.5502E-03  0.2855E-03  0.8762E-03  0.2939E-03  0.9215E-03  0.2744E-03
      3.217  0.4097E-01  0.6175E-01  0.2763E-02  0.4876E-02  0.3805E-02  0.4654E-02  0.2763E-02  0.4876E-02  0.6510E-03  0.7051E-03  0.9715E-03  0.8985E-03  0.7038E-03  0.3753E-03  0.9715E-03  0.8985E-03  0.6510E-03  0.7051E-03
      3.384  0.1823E-01  0.3297E-02  0.8305E-03  0.4277E-04  0.3017E-02  0.7295E-03  0.8305E-03  0.4277E-04  0.3066E-03  0.4548E-05  0.4320E-03  0.1718E-04  0.1648E-02  0.2302E-03  0.4320E-03  0.1718E-04  0.3066E-03  0.4548E-05
      3.552  0.2047E-01  0.3245E-01  0.2007E-02  0.2137E-02  0.1538E-02  0.4622E-02  0.2007E-02  0.2137E-02  0.7499E-03  0.4450E-03  0.4617E-03  0.5132E-03  0.9655E-03  0.1266E-02  0.4617E-03  0.5132E-03  0.7499E-03  0.4450E-03
      3.720  0.6912E-01  0.3342E-01  0.7827E-02  0.4200E-02  0.5519E-02  0.2093E-02  0.7827E-02  0.4200E-02  0.3306E-02  0.8809E-03  0.2742E-02  0.6712E-03  0.2138E-02  0.5172E-03  0.2742E-02  0.6712E-03  0.3306E-02  0.8809E-03
      3.887  0.4290E-01  0.6947E-01  0.4635E-02  0.8008E-02  0.4455E-02  0.6552E-02  0.4635E-02  0.8008E-02  0.2495E-02  0.2095E-02  0.1870E-02  0.1443E-02  0.2702E-02  0.1942E-02  0.1870E-02  0.1443E-02  0.2495E-02  0.2095E-02
      4.055  0.5834E-01  0.3438E-01  0.6739E-02  0.3688E-02  0.6296E-02  0.4870E-02  0.6739E-02  0.3688E-02  0.4716E-02  0.9329E-03  0.5186E-02  0.1331E-02  0.3623E-02  0.1056E-02  0.5186E-02  0.1331E-02  0.4716E-02  0.9329E-03
      4.223  0.2798E-01  0.4048E-01  0.2922E-02  0.5517E-02  0.3293E-02  0.3865E-02  0.2922E-02  0.5517E-02  0.3680E-02  0.1933E-02  0.1101E-02  0.2102E-02  0.8197E-02  0.8458E-03  0.1101E-02  0.2102E-02  0.3680E-02  0.1933E-02
      4.390  0.4929E-01  0.2507E-01  0.5533E-02  0.3944E-02  0.8808E-02  0.1425E-02  0.5533E-02  0.3944E-02  0.5705E-02  0.2181E-02  0.1014E-01  0.5285E-03  0.2872E-02  0.1799E-02  0.1014E-01  0.5285E-03  0.5705E-02  0.2181E-02
      4.558  0.4545E-01  0.3519E-01  0.4950E-02  0.2660E-02  0.8652E-02  0.9717E-02  0.4950E-02  0.2660E-02  0.6820E-02  0.7606E-03  0.1026E-01  0.2291E-02  0.1026E-01  0.4490E-02  0.1026E-01  0.2291E-02  0.6820E-02  0.7606E-03
      4.725  0.1071E+00  0.4694E-01  0.1640E-01  0.6898E-02  0.7396E-02  0.6954E-02  0.1640E-01  0.6898E-02  0.4295E-01  0.3559E-02  0.2957E-01  0.5420E-02  0.4560E-01  0.8462E-03  0.2957E-01  0.5420E-02  0.4295E-01  0.3559E-02
      4.893  0.8647E-01  0.5373E-01  0.9554E-02  0.8869E-02  0.9348E-02  0.8710E-02  0.9554E-02  0.8869E-02  0.5784E-01  0.4141E-02  0.7560E-01  0.3392E-02  0.4925E-01  0.6018E-02  0.7560E-01  0.3392E-02  0.5784E-01  0.4141E-02
      5.061  0.6934E-01  0.4736E-01  0.8345E-02  0.8606E-02  0.1191E-01  0.5976E-02  0.8345E-02  0.8606E-02  0.5386E-01  0.6983E-02  0.6648E-01  0.3510E-02  0.5773E-01  0.6343E-02  0.6648E-01  0.3510E-02  0.5386E-01  0.6983E-02
      5.228  0.8273E-01  0.4747E-01  0.1261E-01  0.1032E-01  0.1446E-01  0.3160E-02  0.1261E-01  0.1032E-01  0.1370E+00  0.8621E-02  0.1082E+00  0.5289E-02  0.1127E+00  0.6363E-02  0.1082E+00  0.5289E-02  0.1370E+00  0.8621E-02
      5.396  0.5257E-01  0.5784E-01  0.1196E-01  0.8265E-02  0.1361E-01  0.1416E-01  0.1196E-01  0.8265E-02  0.1137E+00  0.8385E-02  0.8979E-01  0.1220E-01  0.8189E-01  0.1304E-01  0.8979E-01  0.1220E-01  0.1137E+00  0.8385E-02
      5.564  0.5272E-01  0.7109E-01  0.1656E-01  0.1215E-01  0.1663E-01  0.1268E-01  0.1656E-01  0.1215E-01  0.1456E+00  0.2020E-01  0.2019E+00  0.2260E-01  0.2022E+00  0.1079E-01  0.2019E+00  0.2260E-01  0.1456E+00  0.2020E-01
      5.731  0.2655E-01  0.3103E-01  0.1388E-01  0.2672E-02  0.1855E-01  0.8858E-02  0.1388E-01  0.2672E-02  0.9616E-01  0.6497E-02  0.1692E+00  0.9338E-02  0.9689E-01  0.2822E-01  0.1692E+00  0.9338E-02  0.9616E-01  0.6497E-02
      5.899  0.2352E-01  0.8172E-01  0.1964E-01  0.1284E-01  0.1451E-01  0.7609E-02  0.1964E-01  0.1284E-01  0.1247E+00  0.5427E-01  0.1344E+00  0.4953E-01  0.1973E+00  0.4230E-01  0.1344E+00  0.4953E-01  0.1247E+00  0.5427E-01
      6.067  0.1113E-01  0.9469E-01  0.1557E-01  0.2098E-01  0.1400E-01  0.1760E-01  0.1557E-01  0.2098E-01  0.1500E+00  0.4853E-01  0.1246E+00  0.5461E-01  0.2093E+00  0.3613E-01  0.1246E+00  0.5461E-01  0.1500E+00  0.4853E-01
      6.234  0.1064E-01  0.5671E-01  0.2381E-01  0.1006E-01  0.1540E-01  0.1381E-01  0.2381E-01  0.1006E-01  0.2373E+00  0.3852E-01  0.1261E+00  0.5209E-01  0.2133E+00  0.5889E-01  0.1261E+00  0.5209E-01  0.2373E+00  0.3852E-01
      6.402  0.1182E-01  0.4142E-01  0.2360E-01  0.9320E-02  0.1711E-01  0.1149E-01  0.2360E-01  0.9320E-02  0.2440E+00  0.5479E-01  0.1447E+00  0.5504E-01  0.2250E+00  0.2690E-01  0.1447E+00  0.5504E-01  0.2440E+00  0.5479E-01
      6.570  0.1079E-01  0.4695E-01  0.2057E-01  0.1346E-01  0.1643E-01  0.1854E-01  0.2057E-01  0.1346E-01  0.2073E+00  0.9241E-01  0.1032E+00  0.6990E-01  0.1598E+00  0.8482E-01  0.1032E+00  0.6990E-01  0.2073E+00  0.9241E-01
      6.737  0.4257E-02  0.4021E-01  0.7974E-02  0.1689E-01  0.1063E-01  0.1765E-01  0.7974E-02  0.1689E-01  0.1271E+00  0.9632E-01  0.7079E-01  0.1218E+00  0.1398E+00  0.8980E-01  0.7079E-01  0.1218E+00  0.1271E+00  0.9632E-01
      6.905  0.9535E-02  0.1783E-01  0.1842E-01  0.1297E-01  0.2025E-01  0.2045E-01  0.1842E-01  0.1297E-01  0.1797E+00  0.6768E-01  0.3093E+00  0.1801E+00  0.3769E+00  0.7931E-01  0.3093E+00  0.1801E+00  0.1797E+00  0.6768E-01
      7.073  0.1259E-01  0.1124E-01  0.1911E-01  0.1824E-01  0.2221E-01  0.1359E-01  0.1911E-01  0.1824E-01  0.2304E+00  0.8974E-01  0.3207E+00  0.9621E-01  0.2808E+00  0.1049E+00  0.3207E+00  0.9621E-01  0.2304E+00  0.8974E-01