   2   2   1   0
  0.1139055E+02  0.2533332E-09  0.2533332E-09  0.4098828E-09  0.5000000E-15
  1.000000000000000E-004
  CAR 
 Co-hcc                                  
     35.25088670     -0.68305844  301      9.54966442      1.00000000
     -0.683  0.0000E+00  0.0000E+00  0.0000E+00  0.0000E+00
     -0.563  0.0000E+00  0.0000E+00  0.0000E+00  0.0000E+00
     -0.443  0.0000E+00  0.0000E+00  0.0000E+00  0.0000E+00
     -0.324  0.0000E+00  0.0000E+00  0.0000E+00  0.0000E+00
     -0.204  0.0000E+00  0.0000E+00  0.0000E+00  0.0000E+00
     -0.084  0.0000E+00  0.0000E+00  0.0000E+00  0.0000E+00
      0.036  0.0000E+00  0.0000E+00  0.0000E+00  0.0000E+00
      0.155  0.0000E+00  0.0000E+00  0.0000E+00  0.0000E+00
      0.275  0.0000E+00  0.0000E+00  0.0000E+00  0.0000E+00
      0.395  0.0000E+00  0.0000E+00  0.0000E+00  0.0000E+00
      0.515  0.0000E+00  0.0000E+00  0.0000E+00  0.0000E+00
      0.635  0.0000E+00  0.0000E+00  0.0000E+00  0.0000E+00
      0.754  0.9284E-12  0.1544E-11  0.1112E-12  0.1850E-12
      0.874  0.1295E-05  0.1622E-05  0.1551E-06  0.1943E-06
      0.994  0.9004E-04  0.9158E-04  0.1094E-04  0.1116E-04
      1.114  0.1370E-03  0.1411E-03  0.2735E-04  0.2806E-04
      1.233  0.1195E-03  0.1171E-03  0.4166E-04  0.4209E-04
      1.353  0.5787E-03  0.5780E-03  0.1110E-03  0.1113E-03
      1.473  0.1063E-02  0.1066E-02  0.2383E-03  0.2391E-03
      1.593  0.3864E-03  0.3793E-03  0.2846E-03  0.2845E-03
      1.713  0.2442E-04  0.2515E-04  0.2875E-03  0.2875E-03
      1.832  0.1499E-03  0.1231E-03  0.3055E-03  0.3022E-03
      1.952  0.1492E-02  0.1478E-02  0.4841E-03  0.4793E-03
      2.072  0.7624E-03  0.6974E-03  0.5754E-03  0.5628E-03
      2.192  0.7734E-03  0.8515E-03  0.6681E-03  0.6648E-03
      2.311  0.7889E-03  0.7582E-03  0.7626E-03  0.7556E-03
      2.431  0.1217E-02  0.1110E-02  0.9083E-03  0.8885E-03
      2.551  0.1729E-02  0.1554E-02  0.1115E-02  0.1075E-02
      2.671  0.8121E-03  0.1143E-02  0.1213E-02  0.1212E-02
      2.791  0.8505E-03  0.4097E-03  0.1314E-02  0.1261E-02
      2.910  0.4007E-03  0.8477E-03  0.1362E-02  0.1362E-02
      3.030  0.1152E-04  0.2267E-05  0.1364E-02  0.1363E-02
      3.150  0.2055E-02  0.7023E-03  0.1610E-02  0.1447E-02
      3.270  0.2792E-02  0.2697E-02  0.1944E-02  0.1770E-02
      3.389  0.1389E-02  0.1851E-02  0.2111E-02  0.1991E-02
      3.509  0.1656E-02  0.2028E-02  0.2309E-02  0.2234E-02
      3.629  0.2877E-02  0.9892E-03  0.2654E-02  0.2353E-02
      3.749  0.1290E-02  0.2554E-02  0.2808E-02  0.2659E-02
      3.869  0.1513E-03  0.1207E-02  0.2826E-02  0.2803E-02
      3.988  0.2507E-02  0.1612E-03  0.3127E-02  0.2823E-02
      4.108  0.2707E-02  0.1402E-02  0.3451E-02  0.2990E-02
      4.228  0.1946E-02  0.2334E-02  0.3684E-02  0.3270E-02
      4.348  0.2039E-02  0.2591E-02  0.3928E-02  0.3580E-02
      4.467  0.4485E-02  0.6221E-03  0.4466E-02  0.3655E-02
      4.587  0.4635E-02  0.1844E-02  0.5021E-02  0.3876E-02
      4.707  0.1101E-01  0.2921E-02  0.6339E-02  0.4226E-02
      4.827  0.9814E-02  0.2781E-02  0.7515E-02  0.4559E-02
      4.947  0.9504E-02  0.2625E-02  0.8653E-02  0.4873E-02
      5.066  0.7462E-02  0.4985E-02  0.9547E-02  0.5470E-02
      5.186  0.1600E-01  0.1210E-02  0.1146E-01  0.5615E-02
      5.306  0.2450E-01  0.5325E-02  0.1440E-01  0.6253E-02
      5.426  0.1168E-01  0.4234E-02  0.1580E-01  0.6760E-02
      5.545  0.1750E-01  0.1139E-02  0.1789E-01  0.6897E-02
      5.665  0.2409E-01  0.5651E-03  0.2078E-01  0.6964E-02
      5.785  0.1467E-01  0.9376E-02  0.2253E-01  0.8087E-02
      5.905  0.1629E-01  0.1484E-01  0.2449E-01  0.9865E-02
      6.025  0.1985E-01  0.7303E-02  0.2686E-01  0.1074E-01
      6.144  0.2170E-01  0.5808E-02  0.2946E-01  0.1144E-01
      6.264  0.2424E-01  0.7279E-02  0.3237E-01  0.1231E-01
      6.384  0.2236E-01  0.1208E-01  0.3504E-01  0.1375E-01
      6.504  0.1830E-01  0.1250E-01  0.3724E-01  0.1525E-01
      6.624  0.1283E-01  0.7212E-02  0.3877E-01  0.1612E-01
      6.743  0.1791E-01  0.1438E-01  0.4092E-01  0.1784E-01
      6.863  0.3265E-01  0.1908E-01  0.4483E-01  0.2012E-01
      6.983  0.3028E-01  0.1370E-01  0.4845E-01  0.2177E-01
      7.103  0.3069E-01  0.1097E-01  0.5213E-01  0.2308E-01
      7.222  0.3173E-01  0.1227E-01  0.5593E-01  0.2455E-01
      7.342  0.3373E-01  0.1996E-01  0.5997E-01  0.2694E-01
      7.462  0.3414E-01  0.1664E-01  0.6406E-01  0.2893E-01
      7.582  0.2995E-01  0.1971E-01  0.6765E-01  0.3129E-01
      7.702  0.2373E-01  0.2340E-01  0.7049E-01  0.3410E-01
      7.821  0.2053E-01  0.1828E-01  0.7295E-01  0.3629E-01
      7.941  0.2004E-01  0.1047E-01  0.7535E-01  0.3754E-01
      8.061  0.1560E-01  0.8146E-02  0.7722E-01  0.3852E-01
      8.181  0.1943E-01  0.1076E-01  0.7955E-01  0.3981E-01
      8.300  0.2918E-01  0.1577E-01  0.8304E-01  0.4169E-01
      8.420  0.1857E-01  0.2283E-01  0.8527E-01  0.4443E-01
      8.540  0.2449E-01  0.2888E-01  0.8820E-01  0.4789E-01
      8.660  0.4012E-01  0.2919E-01  0.9301E-01  0.5138E-01
      8.780  0.5268E-01  0.2134E-01  0.9932E-01  0.5394E-01
      8.899  0.3375E-01  0.3123E-01  0.1034E+00  0.5768E-01
      9.019  0.5478E-02  0.2765E-01  0.1040E+00  0.6099E-01
      9.139  0.6117E-02  0.3189E-01  0.1047E+00  0.6481E-01
      9.259  0.8193E-02  0.2322E-01  0.1057E+00  0.6759E-01
      9.378  0.7158E-02  0.1950E-01  0.1066E+00  0.6993E-01
      9.498  0.2413E-02  0.1683E-01  0.1069E+00  0.7195E-01
      9.618  0.6326E-03  0.1909E-01  0.1069E+00  0.7423E-01
      9.738  0.7776E-06  0.1048E-01  0.1069E+00  0.7549E-01
      9.858  0.2121E-07  0.1811E-01  0.1070E+00  0.7765E-01
      9.977  0.5785E-03  0.9750E-02  0.1070E+00  0.7882E-01
     10.097  0.5494E-02  0.2490E-01  0.1077E+00  0.8180E-01
     10.217  0.3259E-02  0.1719E-01  0.1081E+00  0.8386E-01
     10.337  0.1507E-02  0.1559E-01  0.1082E+00  0.8573E-01
     10.456  0.3125E-02  0.2214E-01  0.1086E+00  0.8838E-01
     10.576  0.9477E-02  0.3201E-01  0.1098E+00  0.9222E-01
     10.696  0.2353E-02  0.4389E-01  0.1100E+00  0.9747E-01
     10.816  0.3756E-02  0.4325E-01  0.1105E+00  0.1027E+00
     10.936  0.8175E-03  0.2306E-01  0.1106E+00  0.1054E+00
     11.055  0.8656E-03  0.1009E-01  0.1107E+00  0.1066E+00
     11.175  0.4821E-02  0.3139E-02  0.1113E+00  0.1070E+00
     11.295  0.2313E-02  0.9305E-03  0.1115E+00  0.1071E+00
     11.415  0.4371E-02  0.4845E-02  0.1121E+00  0.1077E+00
     11.534  0.2029E-02  0.2793E-02  0.1123E+00  0.1080E+00
     11.654  0.5134E-04  0.2353E-02  0.1123E+00  0.1083E+00
     11.774  0.3520E-02  0.5869E-02  0.1127E+00  0.1090E+00
     11.894  0.2064E-02  0.6779E-02  0.1130E+00  0.1098E+00
     12.014  0.4304E-05  0.4213E-02  0.1130E+00  0.1103E+00
     12.133  0.7701E-03  0.2591E-02  0.1131E+00  0.1106E+00
     12.253  0.2647E-02  0.3600E-02  0.1134E+00  0.1111E+00
     12.373  0.2214E-02  0.6559E-02  0.1137E+00  0.1119E+00
     12.493  0.1442E-02  0.1746E-02  0.1138E+00  0.1121E+00
     12.613  0.3046E-02  0.2679E-02  0.1142E+00  0.1124E+00
     12.732  0.3939E-02  0.4227E-03  0.1147E+00  0.1124E+00
     12.852  0.5109E-02  0.4031E-02  0.1153E+00  0.1129E+00
     12.972  0.3613E-02  0.1399E-02  0.1157E+00  0.1131E+00
     13.092  0.1954E-02  0.2440E-02  0.1160E+00  0.1134E+00
     13.211  0.1717E-02  0.1993E-02  0.1162E+00  0.1136E+00
     13.331  0.5919E-03  0.6830E-03  0.1162E+00  0.1137E+00
     13.451  0.6042E-02  0.1060E-02  0.1170E+00  0.1138E+00
     13.571  0.2373E-02  0.5621E-02  0.1172E+00  0.1145E+00
     13.691  0.1389E-02  0.6302E-02  0.1174E+00  0.1153E+00
     13.810  0.4065E-03  0.2729E-02  0.1174E+00  0.1156E+00
     13.930  0.1802E-05  0.4627E-02  0.1175E+00  0.1161E+00
     14.050  0.1232E-02  0.3499E-03  0.1176E+00  0.1162E+00
     14.170  0.3755E-02  0.1060E-02  0.1180E+00  0.1163E+00
     14.289  0.1320E-02  0.2505E-02  0.1182E+00  0.1166E+00
     14.409  0.2723E-02  0.5237E-02  0.1185E+00  0.1172E+00
     14.529  0.9868E-03  0.8565E-03  0.1186E+00  0.1173E+00
     14.649  0.1059E-04  0.9686E-03  0.1187E+00  0.1174E+00
     14.769  0.1068E-02  0.8616E-03  0.1188E+00  0.1176E+00
     14.888  0.1307E-02  0.4876E-02  0.1189E+00  0.1181E+00
     15.008  0.1191E-03  0.5300E-03  0.1189E+00  0.1182E+00
     15.128  0.4137E-05  0.1685E-02  0.1190E+00  0.1184E+00
     15.248  0.9350E-03  0.2069E-02  0.1191E+00  0.1186E+00
     15.367  0.2513E-02  0.5669E-03  0.1194E+00  0.1187E+00
     15.487  0.3087E-02  0.7167E-03  0.1197E+00  0.1188E+00
     15.607  0.1661E-02  0.1119E-02  0.1199E+00  0.1189E+00
     15.727  0.4748E-03  0.1054E-03  0.1200E+00  0.1190E+00
     15.847  0.1834E-02  0.8114E-03  0.1202E+00  0.1190E+00
     15.966  0.1108E-02  0.1206E-02  0.1203E+00  0.1192E+00
     16.086  0.1199E-02  0.3863E-02  0.1205E+00  0.1197E+00
     16.206  0.1644E-02  0.7139E-03  0.1207E+00  0.1197E+00
     16.326  0.2141E-02  0.9142E-03  0.1209E+00  0.1198E+00
     16.445  0.1180E-02  0.4506E-03  0.1211E+00  0.1199E+00
     16.565  0.1277E-02  0.1198E-02  0.1212E+00  0.1200E+00
     16.685  0.5299E-02  0.2357E-02  0.1219E+00  0.1203E+00
     16.805  0.3884E-02  0.1216E-02  0.1223E+00  0.1205E+00
     16.925  0.3108E-02  0.2637E-02  0.1227E+00  0.1208E+00
     17.044  0.5184E-02  0.1637E-02  0.1233E+00  0.1210E+00
     17.164  0.2024E-02  0.5650E-05  0.1236E+00  0.1210E+00
     17.284  0.7648E-03  0.4855E-03  0.1237E+00  0.1210E+00
     17.404  0.5869E-02  0.2346E-02  0.1244E+00  0.1213E+00
     17.523  0.2810E-02  0.4148E-02  0.1247E+00  0.1218E+00
     17.643  0.4439E-02  0.5885E-02  0.1252E+00  0.1225E+00
     17.763  0.4955E-02  0.3093E-02  0.1258E+00  0.1229E+00
     17.883  0.4492E-02  0.5112E-02  0.1264E+00  0.1235E+00
     18.003  0.2289E-02  0.1714E-02  0.1266E+00  0.1237E+00
     18.122  0.1657E-02  0.5495E-02  0.1268E+00  0.1244E+00
     18.242  0.1607E-02  0.4854E-02  0.1270E+00  0.1250E+00
     18.362  0.3139E-02  0.4211E-02  0.1274E+00  0.1255E+00
     18.482  0.4663E-02  0.4886E-02  0.1280E+00  0.1260E+00
     18.601  0.2549E-02  0.3429E-02  0.1283E+00  0.1265E+00
     18.721  0.4792E-02  0.1930E-02  0.1288E+00  0.1267E+00
     18.841  0.4083E-02  0.2353E-02  0.1293E+00  0.1270E+00
     18.961  0.6284E-03  0.5413E-02  0.1294E+00  0.1276E+00
     19.081  0.3633E-02  0.2895E-02  0.1298E+00  0.1280E+00
     19.200  0.4217E-02  0.4100E-02  0.1303E+00  0.1285E+00
     19.320  0.3954E-02  0.1911E-02  0.1308E+00  0.1287E+00
     19.440  0.5397E-02  0.5665E-02  0.1315E+00  0.1294E+00
     19.560  0.1295E-02  0.3118E-03  0.1316E+00  0.1294E+00
     19.680  0.8623E-02  0.3360E-02  0.1327E+00  0.1298E+00
     19.799  0.5539E-02  0.6738E-02  0.1333E+00  0.1306E+00
     19.919  0.2876E-02  0.5782E-02  0.1337E+00  0.1313E+00
     20.039  0.5678E-02  0.3311E-02  0.1343E+00  0.1317E+00
     20.159  0.1455E-02  0.6371E-02  0.1345E+00  0.1325E+00
     20.278  0.1657E-02  0.4810E-02  0.1347E+00  0.1330E+00
     20.398  0.1653E-02  0.3197E-02  0.1349E+00  0.1334E+00
     20.518  0.1731E-02  0.5246E-02  0.1351E+00  0.1340E+00
     20.638  0.4958E-02  0.3978E-02  0.1357E+00  0.1345E+00
     20.758  0.5925E-02  0.1477E-02  0.1364E+00  0.1347E+00
     20.877  0.2280E-02  0.2175E-02  0.1367E+00  0.1350E+00
     20.997  0.6063E-02  0.3057E-02  0.1374E+00  0.1353E+00
     21.117  0.1634E-02  0.2789E-02  0.1376E+00  0.1357E+00
     21.237  0.1548E-02  0.5651E-02  0.1378E+00  0.1363E+00
     21.356  0.2184E-02  0.3390E-02  0.1381E+00  0.1367E+00
     21.476  0.1834E-02  0.6508E-02  0.1383E+00  0.1375E+00
     21.596  0.3956E-02  0.7238E-03  0.1388E+00  0.1376E+00
     21.716  0.1932E-02  0.1725E-02  0.1390E+00  0.1378E+00
     21.836  0.2211E-02  0.2291E-02  0.1393E+00  0.1381E+00
     21.955  0.4193E-02  0.2320E-02  0.1398E+00  0.1384E+00
     22.075  0.4923E-02  0.2623E-02  0.1403E+00  0.1387E+00
     22.195  0.3905E-03  0.3448E-02  0.1404E+00  0.1391E+00
     22.315  0.1536E-02  0.2674E-02  0.1406E+00  0.1394E+00
     22.434  0.5102E-02  0.5335E-02  0.1412E+00  0.1401E+00
     22.554  0.2509E-02  0.2534E-02  0.1415E+00  0.1404E+00
     22.674  0.1974E-02  0.8322E-03  0.1417E+00  0.1405E+00
     22.794  0.6652E-02  0.1892E-02  0.1425E+00  0.1407E+00
     22.914  0.5396E-02  0.4652E-02  0.1432E+00  0.1412E+00
     23.033  0.3799E-02  0.3320E-02  0.1436E+00  0.1416E+00
     23.153  0.3917E-02  0.4732E-02  0.1441E+00  0.1422E+00
     23.273  0.1487E-02  0.5476E-02  0.1443E+00  0.1429E+00
     23.393  0.4161E-03  0.4624E-02  0.1443E+00  0.1434E+00
     23.512  0.2318E-02  0.3248E-02  0.1446E+00  0.1438E+00
     23.632  0.6767E-02  0.3013E-02  0.1454E+00  0.1442E+00
     23.752  0.3547E-02  0.1149E-02  0.1458E+00  0.1443E+00
     23.872  0.3248E-02  0.5393E-03  0.1462E+00  0.1444E+00
     23.992  0.4056E-02  0.7013E-02  0.1467E+00  0.1452E+00
     24.111  0.1993E-02  0.3451E-02  0.1469E+00  0.1456E+00
     24.231  0.2155E-02  0.4107E-02  0.1472E+00  0.1461E+00
     24.351  0.3178E-02  0.3423E-02  0.1476E+00  0.1465E+00
     24.471  0.5396E-02  0.3037E-02  0.1482E+00  0.1469E+00
     24.590  0.5438E-02  0.2541E-02  0.1489E+00  0.1472E+00
     24.710  0.3289E-02  0.3641E-02  0.1493E+00  0.1476E+00
     24.830  0.3339E-02  0.4692E-02  0.1497E+00  0.1482E+00
     24.950  0.4265E-02  0.7033E-02  0.1502E+00  0.1490E+00
     25.070  0.5378E-02  0.2606E-02  0.1508E+00  0.1493E+00
     25.189  0.1268E-02  0.2873E-02  0.1510E+00  0.1497E+00
     25.309  0.1046E-02  0.5038E-02  0.1511E+00  0.1503E+00
     25.429  0.4123E-02  0.4959E-02  0.1516E+00  0.1509E+00
     25.549  0.7640E-04  0.1457E-02  0.1516E+00  0.1511E+00
     25.669  0.1331E-02  0.2016E-02  0.1518E+00  0.1513E+00
     25.788  0.2376E-02  0.2550E-02  0.1521E+00  0.1516E+00
     25.908  0.2676E-02  0.5034E-03  0.1524E+00  0.1517E+00
     26.028  0.5362E-02  0.1560E-02  0.1530E+00  0.1519E+00
     26.148  0.3584E-02  0.2312E-02  0.1535E+00  0.1521E+00
     26.267  0.3358E-03  0.3620E-02  0.1535E+00  0.1526E+00
     26.387  0.1931E-02  0.6532E-02  0.1537E+00  0.1534E+00
     26.507  0.2640E-02  0.1139E-02  0.1540E+00  0.1535E+00
     26.627  0.3499E-02  0.1131E-02  0.1545E+00  0.1536E+00
     26.747  0.2240E-02  0.3407E-02  0.1547E+00  0.1540E+00
     26.866  0.1143E-02  0.1492E-02  0.1549E+00  0.1542E+00
     26.986  0.9003E-03  0.3005E-02  0.1550E+00  0.1546E+00
     27.106  0.2084E-02  0.2233E-02  0.1552E+00  0.1548E+00
     27.226  0.1236E-02  0.1230E-02  0.1554E+00  0.1550E+00
     27.345  0.1886E-02  0.1117E-02  0.1556E+00  0.1551E+00
     27.465  0.1571E-03  0.2104E-02  0.1556E+00  0.1554E+00
     27.585  0.7702E-05  0.1526E-02  0.1556E+00  0.1556E+00
     27.705  0.3623E-02  0.5204E-03  0.1560E+00  0.1556E+00
     27.825  0.3245E-02  0.6278E-03  0.1564E+00  0.1557E+00
     27.944  0.2209E-04  0.2880E-02  0.1564E+00  0.1560E+00
     28.064  0.2264E-02  0.3290E-02  0.1567E+00  0.1564E+00
     28.184  0.2175E-02  0.1305E-03  0.1570E+00  0.1564E+00
     28.304  0.2385E-02  0.2414E-02  0.1573E+00  0.1567E+00
     28.423  0.7429E-03  0.2008E-02  0.1573E+00  0.1570E+00
     28.543  0.1159E-02  0.1892E-02  0.1575E+00  0.1572E+00
     28.663  0.3012E-04  0.2006E-02  0.1575E+00  0.1574E+00
     28.783  0.1197E-02  0.3826E-03  0.1576E+00  0.1575E+00
     28.903  0.1305E-02  0.7571E-03  0.1578E+00  0.1576E+00
     29.022  0.1175E-05  0.5105E-03  0.1578E+00  0.1576E+00
     29.142  0.1280E-03  0.1084E-02  0.1578E+00  0.1578E+00
     29.262  0.1283E-02  0.4239E-03  0.1580E+00  0.1578E+00
     29.382  0.1199E-02  0.1204E-02  0.1581E+00  0.1580E+00
     29.501  0.1123E-02  0.1063E-02  0.1582E+00  0.1581E+00
     29.621  0.2401E-04  0.1144E-02  0.1582E+00  0.1582E+00
     29.741  0.3000E-10  0.7381E-04  0.1582E+00  0.1582E+00
     29.861  0.8189E-06  0.2061E-06  0.1582E+00  0.1582E+00
     29.981  0.7399E-03  0.4283E-03  0.1583E+00  0.1583E+00
     30.100  0.9796E-03  0.1028E-02  0.1584E+00  0.1584E+00
     30.220  0.6088E-03  0.2428E-03  0.1585E+00  0.1584E+00
     30.340  0.2177E-02  0.9363E-03  0.1588E+00  0.1586E+00
     30.460  0.8579E-04  0.1939E-02  0.1588E+00  0.1588E+00
     30.579  0.9844E-08  0.1725E-04  0.1588E+00  0.1588E+00
     30.699  0.2804E-03  0.3343E-03  0.1588E+00  0.1588E+00
     30.819  0.1615E-02  0.1104E-02  0.1590E+00  0.1590E+00
     30.939  0.1148E-02  0.1261E-03  0.1592E+00  0.1590E+00
     31.059  0.1051E-03  0.2544E-03  0.1592E+00  0.1590E+00
     31.178  0.6663E-03  0.9144E-03  0.1592E+00  0.1591E+00
     31.298  0.1678E-02  0.2711E-02  0.1594E+00  0.1594E+00
     31.418  0.1129E-02  0.1060E-02  0.1596E+00  0.1596E+00
     31.538  0.3467E-03  0.5237E-03  0.1596E+00  0.1596E+00
     31.657  0.1933E-03  0.3036E-03  0.1596E+00  0.1597E+00
     31.777  0.1074E-02  0.1101E-02  0.1598E+00  0.1598E+00
     31.897  0.2008E-03  0.2037E-04  0.1598E+00  0.1598E+00
     32.017  0.1723E-04  0.1632E-07  0.1598E+00  0.1598E+00
     32.137  0.1866E-09  0.7244E-04  0.1598E+00  0.1598E+00
     32.256  0.3684E-09  0.1360E-03  0.1598E+00  0.1598E+00
     32.376  0.2207E-04  0.2866E-06  0.1598E+00  0.1598E+00
     32.496  0.1833E-03  0.1827E-13  0.1598E+00  0.1598E+00
     32.616  0.3389E-05  0.3189E-07  0.1598E+00  0.1598E+00
     32.736  0.2358E-06  0.1935E-03  0.1598E+00  0.1598E+00
     32.855  0.3175E-03  0.4538E-03  0.1599E+00  0.1599E+00
     32.975  0.3083E-03  0.1842E-03  0.1599E+00  0.1599E+00
     33.095  0.1035E-03  0.8588E-04  0.1599E+00  0.1599E+00
     33.215  0.3684E-03  0.1259E-03  0.1600E+00  0.1599E+00
     33.334  0.1780E-03  0.1865E-06  0.1600E+00  0.1599E+00
     33.454  0.1822E-03  0.3691E-08  0.1600E+00  0.1600E+00
     33.574  0.2988E-05  0.6853E-04  0.1600E+00  0.1600E+00
     33.694  0.2562E-11  0.3447E-03  0.1600E+00  0.1600E+00
     33.814  0.0000E+00  0.4179E-05  0.1600E+00  0.1600E+00
     33.933  0.0000E+00  0.3293E-11  0.1600E+00  0.1600E+00
     34.053  0.0000E+00  0.0000E+00  0.1600E+00  0.1600E+00
     34.173  0.0000E+00  0.0000E+00  0.1600E+00  0.1600E+00
     34.293  0.0000E+00  0.0000E+00  0.1600E+00  0.1600E+00
     34.412  0.0000E+00  0.0000E+00  0.1600E+00  0.1600E+00
     34.532  0.0000E+00  0.0000E+00  0.1600E+00  0.1600E+00
     34.652  0.0000E+00  0.0000E+00  0.1600E+00  0.1600E+00
     34.772  0.0000E+00  0.0000E+00  0.1600E+00  0.1600E+00
     34.892  0.0000E+00  0.0000E+00  0.1600E+00  0.1600E+00
     35.011  0.0000E+00  0.0000E+00  0.1600E+00  0.1600E+00
     35.131  0.0000E+00  0.0000E+00  0.1600E+00  0.1600E+00
     35.251  0.0000E+00  0.0000E+00  0.1600E+00  0.1600E+00
     35.25088670     -0.68305844  301      9.54966442      1.00000000
     -0.683  0.0000E+00  0.0000E+00  0.0000E+00  0.0000E+00  0.0000E+00  0.0000E+00  0.0000E+00  0.0000E+00  0.0000E+00  0.0000E+00  0.0000E+00  0.0000E+00  0.0000E+00  0.0000E+00  0.0000E+00  0.0000E+00  0.0000E+00  0.0000E+00
     -0.563  0.0000E+00  0.0000E+00  0.0000E+00  0.0000E+00  0.0000E+00  0.0000E+00  0.0000E+00  0.0000E+00  0.0000E+00  0.0000E+00  0.0000E+00  0.0000E+00  0.0000E+00  0.0000E+00  0.0000E+00  0.0000E+00  0.0000E+00  0.0000E+00
     -0.443  0.0000E+00  0.0000E+00  0.0000E+00  0.0000E+00  0.0000E+00  0.0000E+00  0.0000E+00  0.0000E+00  0.0000E+00  0.0000E+00  0.0000E+00  0.0000E+00  0.0000E+00  0.0000E+00  0.0000E+00  0.0000E+00  0.0000E+00  0.0000E+00
     -0.324  0.0000E+00  0.0000E+00  0.0000E+00  0.0000E+00  0.0000E+00  0.0000E+00  0.0000E+00  0.0000E+00  0.0000E+00  0.0000E+00  0.0000E+00  0.0000E+00  0.0000E+00  0.0000E+00  0.0000E+00  0.0000E+00  0.0000E+00  0.0000E+00
     -0.204  0.0000E+00  0.0000E+00  0.0000E+00  0.0000E+00  0.0000E+00  0.0000E+00  0.0000E+00  0.0000E+00  0.0000E+00  0.0000E+00  0.0000E+00  0.0000E+00  0.0000E+00  0.0000E+00  0.0000E+00  0.0000E+00  0.0000E+00  0.0000E+00
     -0.084  0.0000E+00  0.0000E+00  0.0000E+00  0.0000E+00  0.0000E+00  0.0000E+00  0.0000E+00  0.0000E+00  0.0000E+00  0.0000E+00  0.0000E+00  0.0000E+00  0.0000E+00  0.0000E+00  0.0000E+00  0.0000E+00  0.0000E+00  0.0000E+00
      0.036  0.0000E+00  0.0000E+00  0.0000E+00  0.0000E+00  0.0000E+00  0.0000E+00  0.0000E+00  0.0000E+00  0.0000E+00  0.0000E+00  0.0000E+00  0.0000E+00  0.0000E+00  0.0000E+00  0.0000E+00  0.0000E+00  0.0000E+00  0.0000E+00
      0.155  0.0000E+00  0.0000E+00  0.0000E+00  0.0000E+00  0.0000E+00  0.0000E+00  0.0000E+00  0.0000E+00  0.0000E+00  0.0000E+00  0.0000E+00  0.0000E+00  0.0000E+00  0.0000E+00  0.0000E+00  0.0000E+00  0.0000E+00  0.0000E+00
      0.275  0.0000E+00  0.0000E+00  0.0000E+00  0.0000E+00  0.0000E+00  0.0000E+00  0.0000E+00  0.0000E+00  0.0000E+00  0.0000E+00  0.0000E+00  0.0000E+00  0.0000E+00  0.0000E+00  0.0000E+00  0.0000E+00  0.0000E+00  0.0000E+00
      0.395  0.0000E+00  0.0000E+00  0.0000E+00  0.0000E+00  0.0000E+00  0.0000E+00  0.0000E+00  0.0000E+00  0.0000E+00  0.0000E+00  0.0000E+00  0.0000E+00  0.0000E+00  0.0000E+00  0.0000E+00  0.0000E+00  0.0000E+00  0.0000E+00
      0.515  0.0000E+00  0.0000E+00  0.0000E+00  0.0000E+00  0.0000E+00  0.0000E+00  0.0000E+00  0.0000E+00  0.0000E+00  0.0000E+00  0.0000E+00  0.0000E+00  0.0000E+00  0.0000E+00  0.0000E+00  0.0000E+00  0.0000E+00  0.0000E+00
      0.635  0.0000E+00  0.0000E+00  0.0000E+00  0.0000E+00  0.0000E+00  0.0000E+00  0.0000E+00  0.0000E+00  0.0000E+00  0.0000E+00  0.0000E+00  0.0000E+00  0.0000E+00  0.0000E+00  0.0000E+00  0.0000E+00  0.0000E+00  0.0000E+00
      0.754  0.3184E-10  0.5283E-10  0.3040E-25  0.1443E-24  0.3369E-27  0.1353E-25  0.3040E-25  0.1443E-24  0.1256E-24  0.2635E-23  0.6727E-21  0.1555E-21  0.1496E-15  0.3392E-15  0.6727E-21  0.1555E-21  0.1256E-24  0.2635E-23
      0.874  0.4440E-04  0.5550E-04  0.4240E-19  0.1515E-18  0.3196E-14  0.5268E-14  0.4240E-19  0.1515E-18  0.1752E-18  0.2768E-17  0.9381E-15  0.1633E-15  0.2086E-09  0.3563E-09  0.9381E-15  0.1633E-15  0.1752E-18  0.2768E-17
      0.994  0.3088E-02  0.3133E-02  0.2974E-17  0.8561E-17  0.8374E-07  0.1083E-06  0.2974E-17  0.8561E-17  0.1234E-16  0.1615E-15  0.6512E-13  0.9237E-14  0.1549E-07  0.2087E-07  0.6512E-13  0.9237E-14  0.1234E-16  0.1615E-15
      1.114  0.4637E-02  0.4762E-02  0.1066E-09  0.1379E-09  0.6093E-04  0.6415E-04  0.1066E-09  0.1379E-09  0.2925E-11  0.2668E-11  0.1273E-13  0.2448E-13  0.7322E-06  0.4803E-06  0.1273E-13  0.2448E-13  0.2925E-11  0.2668E-11
      1.233  0.4020E-02  0.3926E-02  0.1875E-04  0.2079E-04  0.4172E-04  0.3897E-04  0.1875E-04  0.2079E-04  0.5143E-06  0.4018E-06  0.1332E-12  0.9971E-13  0.9488E-06  0.6687E-06  0.1332E-12  0.9971E-13  0.5143E-06  0.4018E-06
      1.353  0.1921E-01  0.1914E-01  0.3121E-03  0.3134E-03  0.4861E-05  0.5177E-05  0.3121E-03  0.3134E-03  0.8564E-05  0.6059E-05  0.2403E-06  0.1826E-06  0.7350E-05  0.5608E-05  0.2403E-06  0.1826E-06  0.8564E-05  0.6059E-05
      1.473  0.3478E-01  0.3480E-01  0.5668E-03  0.5719E-03  0.5069E-03  0.5123E-03  0.5668E-03  0.5719E-03  0.1611E-04  0.1133E-04  0.2486E-04  0.1792E-04  0.1437E-05  0.1149E-05  0.2486E-04  0.1792E-04  0.1611E-04  0.1133E-04
      1.593  0.1257E-01  0.1230E-01  0.1096E-03  0.1067E-03  0.4419E-03  0.4415E-03  0.1096E-03  0.1067E-03  0.3119E-05  0.2115E-05  0.4914E-05  0.3409E-05  0.2452E-04  0.1627E-04  0.4914E-05  0.3409E-05  0.3119E-05  0.2115E-05
      1.713  0.7895E-03  0.8110E-03  0.5824E-08  0.4777E-08  0.4613E-04  0.4799E-04  0.5824E-08  0.4777E-08  0.1726E-09  0.9656E-10  0.4954E-09  0.2471E-09  0.3279E-05  0.2244E-05  0.4954E-09  0.2471E-09  0.1726E-09  0.9656E-10
      1.832  0.4678E-02  0.3833E-02  0.7891E-04  0.6508E-04  0.2770E-03  0.2302E-03  0.7891E-04  0.6508E-04  0.2653E-05  0.1450E-05  0.1479E-04  0.8547E-05  0.9825E-05  0.5274E-05  0.1479E-04  0.8547E-05  0.2653E-05  0.1450E-05
      1.952  0.4646E-01  0.4594E-01  0.1188E-02  0.1156E-02  0.2018E-02  0.2078E-02  0.1188E-02  0.1156E-02  0.7218E-04  0.4673E-04  0.1078E-03  0.7718E-04  0.1145E-03  0.7512E-04  0.1078E-03  0.7718E-04  0.7218E-04  0.4673E-04
      2.072  0.2336E-01  0.2137E-01  0.1143E-02  0.1052E-02  0.2736E-03  0.2379E-03  0.1143E-02  0.1052E-02  0.1011E-03  0.6303E-04  0.4763E-04  0.2624E-04  0.5678E-04  0.3766E-04  0.4763E-04  0.2624E-04  0.1011E-03  0.6303E-04
      2.192  0.2354E-01  0.2590E-01  0.1177E-02  0.1311E-02  0.3671E-03  0.3989E-03  0.1177E-02  0.1311E-02  0.1107E-03  0.8131E-04  0.6346E-04  0.4878E-04  0.5923E-04  0.3879E-04  0.6346E-04  0.4878E-04  0.1107E-03  0.8131E-04
      2.311  0.2352E-01  0.2262E-01  0.1173E-02  0.1151E-02  0.7522E-03  0.7332E-03  0.1173E-02  0.1151E-02  0.1788E-03  0.1112E-03  0.4160E-05  0.8654E-06  0.2804E-03  0.1757E-03  0.4160E-05  0.8654E-06  0.1788E-03  0.1112E-03
      2.431  0.3563E-01  0.3258E-01  0.2296E-02  0.2136E-02  0.6492E-03  0.5903E-03  0.2296E-02  0.2136E-02  0.3655E-03  0.2141E-03  0.1702E-03  0.9141E-04  0.1615E-03  0.1083E-03  0.1702E-03  0.9141E-04  0.3655E-03  0.2141E-03
      2.551  0.4981E-01  0.4497E-01  0.2091E-02  0.2178E-02  0.3948E-02  0.3018E-02  0.2091E-02  0.2178E-02  0.2145E-03  0.1568E-03  0.5435E-03  0.3195E-03  0.3370E-03  0.1179E-03  0.5435E-03  0.3195E-03  0.2145E-03  0.1568E-03
      2.671  0.2325E-01  0.3282E-01  0.4582E-03  0.7140E-03  0.3002E-02  0.4206E-02  0.4582E-03  0.7140E-03  0.2553E-04  0.2759E-04  0.1963E-03  0.1935E-03  0.4981E-03  0.4094E-03  0.1963E-03  0.1935E-03  0.2553E-04  0.2759E-04
      2.791  0.2346E-01  0.1139E-01  0.1551E-02  0.7656E-03  0.1448E-02  0.7318E-03  0.1551E-02  0.7656E-03  0.3067E-03  0.8822E-04  0.4676E-03  0.1409E-03  0.1237E-04  0.5884E-05  0.4676E-03  0.1409E-03  0.3067E-03  0.8822E-04
      2.910  0.1105E-01  0.2355E-01  0.7313E-03  0.1605E-02  0.6812E-03  0.1481E-02  0.7313E-03  0.1605E-02  0.1447E-03  0.1857E-03  0.2205E-03  0.2943E-03  0.5481E-05  0.6085E-05  0.2205E-03  0.2943E-03  0.1447E-03  0.1857E-03
      3.030  0.3022E-03  0.6286E-04  0.2906E-04  0.4399E-05  0.1323E-04  0.3844E-05  0.2906E-04  0.4399E-05  0.8248E-05  0.5264E-06  0.1985E-05  0.7603E-06  0.9495E-05  0.5556E-07  0.1985E-05  0.7603E-06  0.8248E-05  0.5264E-06
      3.150  0.5377E-01  0.1860E-01  0.4392E-02  0.1725E-02  0.4032E-02  0.1121E-02  0.4392E-02  0.1725E-02  0.1138E-02  0.2765E-03  0.7519E-03  0.1442E-03  0.1537E-02  0.2712E-03  0.7519E-03  0.1442E-03  0.1138E-02  0.2765E-03
      3.270  0.7185E-01  0.7106E-01  0.7626E-02  0.6282E-02  0.2540E-02  0.5154E-02  0.7626E-02  0.6282E-02  0.2326E-02  0.1018E-02  0.1024E-02  0.6765E-03  0.1627E-02  0.1164E-02  0.1024E-02  0.6765E-03  0.2326E-02  0.1018E-02
      3.389  0.3455E-01  0.4812E-01  0.2368E-02  0.5785E-02  0.4488E-02  0.9269E-03  0.2368E-02  0.5785E-02  0.6831E-03  0.1088E-02  0.1146E-02  0.3633E-03  0.1464E-02  0.6399E-03  0.1146E-02  0.3633E-03  0.6831E-03  0.1088E-02
      3.509  0.4057E-01  0.5112E-01  0.1885E-02  0.2446E-02  0.7305E-02  0.9626E-02  0.1885E-02  0.2446E-02  0.5112E-03  0.3175E-03  0.1356E-02  0.1165E-02  0.3095E-02  0.1758E-02  0.1356E-02  0.1165E-02  0.5112E-03  0.3175E-03
      3.629  0.6754E-01  0.2448E-01  0.8204E-02  0.1956E-02  0.3315E-02  0.3348E-02  0.8204E-02  0.1956E-02  0.3876E-02  0.3864E-03  0.3043E-02  0.5712E-03  0.1346E-02  0.7650E-03  0.3043E-02  0.5712E-03  0.3876E-02  0.3864E-03
      3.749  0.2918E-01  0.6215E-01  0.4031E-02  0.8030E-02  0.4464E-03  0.3077E-02  0.4031E-02  0.8030E-02  0.3094E-02  0.2047E-02  0.7255E-03  0.1485E-02  0.1216E-02  0.7217E-03  0.7255E-03  0.1485E-02  0.3094E-02  0.2047E-02
      3.869  0.3246E-02  0.2865E-01  0.3103E-03  0.4323E-02  0.4541E-03  0.4235E-03  0.3103E-03  0.4323E-02  0.2274E-03  0.1642E-02  0.2275E-03  0.3379E-03  0.2383E-03  0.7232E-03  0.2275E-03  0.3379E-03  0.2274E-03  0.1642E-02
      3.988  0.5221E-01  0.3747E-02  0.4492E-02  0.3860E-03  0.8554E-02  0.5296E-03  0.4492E-02  0.3860E-03  0.3538E-02  0.1176E-03  0.4474E-02  0.1069E-03  0.5391E-02  0.1478E-03  0.4474E-02  0.1069E-03  0.3538E-02  0.1176E-03
      4.108  0.5432E-01  0.3175E-01  0.5812E-02  0.2353E-02  0.8629E-02  0.7114E-02  0.5812E-02  0.2353E-02  0.3345E-02  0.5712E-03  0.7980E-02  0.1453E-02  0.1096E-02  0.1468E-02  0.7980E-02  0.1453E-02  0.3345E-02  0.5712E-03
      4.228  0.3788E-01  0.5076E-01  0.2187E-02  0.6245E-02  0.9673E-02  0.6616E-02  0.2187E-02  0.6245E-02  0.1082E-02  0.2314E-02  0.3310E-02  0.3207E-02  0.1088E-01  0.1577E-02  0.3310E-02  0.3207E-02  0.1082E-02  0.2314E-02
      4.348  0.3543E-01  0.5591E-01  0.4223E-02  0.5574E-02  0.4859E-02  0.1151E-01  0.4223E-02  0.5574E-02  0.5114E-02  0.1438E-02  0.5412E-02  0.4141E-02  0.7044E-02  0.1379E-02  0.5412E-02  0.4141E-02  0.5114E-02  0.1438E-02
      4.467  0.7756E-01  0.1290E-01  0.1520E-01  0.7066E-03  0.1200E-02  0.3810E-02  0.1520E-01  0.7066E-03  0.1908E-01  0.1745E-03  0.4137E-02  0.2712E-03  0.1400E-01  0.3243E-02  0.4137E-02  0.2712E-03  0.1908E-01  0.1745E-03
      4.587  0.6435E-01  0.3786E-01  0.1093E-01  0.5165E-02  0.2761E-02  0.6010E-02  0.1093E-01  0.5165E-02  0.2254E-01  0.1897E-02  0.1790E-01  0.8028E-03  0.1222E-01  0.6235E-02  0.1790E-01  0.8028E-03  0.2254E-01  0.1897E-02
      4.707  0.1285E+00  0.5714E-01  0.1396E-01  0.1118E-01  0.2057E-01  0.3345E-02  0.1396E-01  0.1118E-01  0.4946E-01  0.6288E-02  0.5559E-01  0.3380E-02  0.5568E-01  0.2721E-02  0.5559E-01  0.3380E-02  0.4946E-01  0.6288E-02
      4.827  0.8158E-01  0.5306E-01  0.7531E-02  0.1182E-01  0.1141E-01  0.7510E-03  0.7531E-02  0.1182E-01  0.4990E-01  0.8043E-02  0.7204E-01  0.1579E-02  0.5858E-01  0.3977E-02  0.7204E-01  0.1579E-02  0.4990E-01  0.8043E-02
      4.947  0.6788E-01  0.4751E-01  0.6969E-02  0.8327E-02  0.8638E-02  0.7981E-02  0.6969E-02  0.8327E-02  0.5487E-01  0.3820E-02  0.7232E-01  0.5957E-02  0.5801E-01  0.2808E-02  0.7232E-01  0.5957E-02  0.5487E-01  0.3820E-02
      5.066  0.3973E-01  0.8701E-01  0.5078E-02  0.1287E-01  0.5138E-02  0.1814E-01  0.5078E-02  0.1287E-01  0.7087E-01  0.8556E-02  0.5043E-01  0.1165E-01  0.2299E-01  0.1028E-01  0.5043E-01  0.1165E-01  0.7087E-01  0.8556E-02
      5.186  0.8275E-01  0.1978E-01  0.1354E-01  0.2664E-02  0.1663E-01  0.4959E-02  0.1354E-01  0.2664E-02  0.1149E+00  0.3133E-02  0.1065E+00  0.1939E-02  0.1177E+00  0.4601E-02  0.1065E+00  0.1939E-02  0.1149E+00  0.3133E-02
      5.306  0.1079E+00  0.8104E-01  0.2211E-01  0.1291E-01  0.2138E-01  0.1527E-01  0.2211E-01  0.1291E-01  0.1968E+00  0.1616E-01  0.1517E+00  0.1458E-01  0.1903E+00  0.1622E-01  0.1517E+00  0.1458E-01  0.1968E+00  0.1616E-01