   2   2   1   0
  0.1251710E+02  0.2616889E-09  0.2616889E-09  0.4221166E-09  0.5000000E-15
  1.000000000000000E-004
  CAR 
 Co-hcc                                  
     52.01595236     -2.21176181  301      8.36400610      1.00000000
     -2.212  0.0000E+00  0.0000E+00  0.0000E+00  0.0000E+00
     -2.031  0.0000E+00  0.0000E+00  0.0000E+00  0.0000E+00
     -1.850  0.0000E+00  0.0000E+00  0.0000E+00  0.0000E+00
     -1.669  0.0000E+00  0.0000E+00  0.0000E+00  0.0000E+00
     -1.489  0.0000E+00  0.0000E+00  0.0000E+00  0.0000E+00
     -1.308  0.0000E+00  0.0000E+00  0.0000E+00  0.0000E+00
     -1.127  0.0000E+00  0.0000E+00  0.0000E+00  0.0000E+00
     -0.946  0.0000E+00  0.0000E+00  0.0000E+00  0.0000E+00
     -0.766  0.0000E+00  0.0000E+00  0.0000E+00  0.0000E+00
     -0.585  0.0000E+00  0.0000E+00  0.0000E+00  0.0000E+00
     -0.404  0.0000E+00  0.0000E+00  0.0000E+00  0.0000E+00
     -0.223  0.0000E+00  0.0000E+00  0.0000E+00  0.0000E+00
     -0.043  0.0000E+00  0.2666E-20  0.0000E+00  0.4819E-21
      0.138  0.1522E-08  0.2737E-07  0.2751E-09  0.4948E-08
      0.319  0.4182E-04  0.4792E-04  0.7559E-05  0.8668E-05
      0.500  0.2521E-03  0.3226E-03  0.5313E-04  0.6697E-04
      0.680  0.6491E-03  0.6220E-03  0.1705E-03  0.1794E-03
      0.861  0.1468E-03  0.1394E-03  0.1970E-03  0.2046E-03
      1.042  0.7188E-03  0.9502E-03  0.3269E-03  0.3764E-03
      1.223  0.1093E-02  0.8931E-03  0.5244E-03  0.5378E-03
      1.403  0.5432E-03  0.5069E-03  0.6226E-03  0.6294E-03
      1.584  0.6502E-03  0.6225E-03  0.7401E-03  0.7420E-03
      1.765  0.1598E-02  0.1619E-02  0.1029E-02  0.1035E-02
      1.946  0.1265E-02  0.1234E-02  0.1258E-02  0.1258E-02
      2.126  0.7347E-03  0.6604E-03  0.1390E-02  0.1377E-02
      2.307  0.2378E-02  0.2323E-02  0.1820E-02  0.1797E-02
      2.488  0.3078E-03  0.2964E-03  0.1876E-02  0.1850E-02
      2.669  0.1216E-02  0.1209E-02  0.2096E-02  0.2069E-02
      2.849  0.2712E-02  0.1690E-02  0.2586E-02  0.2375E-02
      3.030  0.2105E-02  0.2521E-02  0.2966E-02  0.2830E-02
      3.211  0.2582E-02  0.1700E-02  0.3433E-02  0.3138E-02
      3.392  0.1329E-02  0.1606E-02  0.3673E-02  0.3428E-02
      3.573  0.3260E-02  0.1218E-02  0.4263E-02  0.3648E-02
      3.753  0.4969E-02  0.2340E-02  0.5161E-02  0.4071E-02
      3.934  0.8899E-02  0.2995E-02  0.6769E-02  0.4612E-02
      4.115  0.1082E-01  0.2225E-02  0.8725E-02  0.5014E-02
      4.296  0.1484E-01  0.3009E-02  0.1141E-01  0.5558E-02
      4.476  0.1615E-01  0.4054E-02  0.1433E-01  0.6291E-02
      4.657  0.2369E-01  0.4361E-02  0.1861E-01  0.7079E-02
      4.838  0.1877E-01  0.2572E-02  0.2200E-01  0.7544E-02
      5.019  0.2152E-01  0.9114E-02  0.2589E-01  0.9192E-02
      5.199  0.2394E-01  0.8911E-02  0.3022E-01  0.1080E-01
      5.380  0.2701E-01  0.7743E-02  0.3510E-01  0.1220E-01
      5.561  0.1743E-01  0.7414E-02  0.3825E-01  0.1354E-01
      5.742  0.2643E-01  0.1383E-01  0.4303E-01  0.1604E-01
      5.922  0.3711E-01  0.1322E-01  0.4974E-01  0.1843E-01
      6.103  0.3717E-01  0.1691E-01  0.5646E-01  0.2149E-01
      6.284  0.3893E-01  0.1534E-01  0.6349E-01  0.2426E-01
      6.465  0.3208E-01  0.1758E-01  0.6929E-01  0.2744E-01
      6.645  0.2154E-01  0.2182E-01  0.7318E-01  0.3138E-01
      6.826  0.2804E-01  0.2485E-01  0.7825E-01  0.3588E-01
      7.007  0.1866E-01  0.1117E-01  0.8162E-01  0.3790E-01
      7.188  0.3184E-01  0.1022E-01  0.8738E-01  0.3974E-01
      7.368  0.4318E-01  0.2415E-01  0.9519E-01  0.4411E-01
      7.549  0.4863E-01  0.2903E-01  0.1040E+00  0.4936E-01
      7.730  0.3220E-02  0.3051E-01  0.1046E+00  0.5487E-01
      7.911  0.4048E-02  0.3481E-01  0.1053E+00  0.6116E-01
      8.092  0.5823E-02  0.3238E-01  0.1063E+00  0.6702E-01
      8.272  0.4607E-02  0.1998E-01  0.1072E+00  0.7063E-01
      8.453  0.1361E-02  0.1925E-01  0.1074E+00  0.7411E-01
      8.634  0.8357E-03  0.1924E-01  0.1076E+00  0.7758E-01
      8.815  0.1372E-02  0.1490E-01  0.1078E+00  0.8028E-01
      8.995  0.4567E-02  0.2026E-01  0.1086E+00  0.8394E-01
      9.176  0.5804E-02  0.2700E-01  0.1097E+00  0.8882E-01
      9.357  0.4201E-02  0.3936E-01  0.1105E+00  0.9594E-01
      9.538  0.1955E-02  0.4688E-01  0.1108E+00  0.1044E+00
      9.718  0.1666E-02  0.1141E-01  0.1111E+00  0.1065E+00
      9.899  0.1758E-02  0.4925E-02  0.1114E+00  0.1074E+00
     10.080  0.2586E-02  0.3570E-02  0.1119E+00  0.1080E+00
     10.261  0.3729E-02  0.4187E-02  0.1126E+00  0.1088E+00
     10.441  0.1749E-02  0.4984E-02  0.1129E+00  0.1097E+00
     10.622  0.3298E-02  0.5274E-02  0.1135E+00  0.1106E+00
     10.803  0.2604E-02  0.3121E-02  0.1139E+00  0.1112E+00
     10.984  0.1926E-02  0.4165E-02  0.1143E+00  0.1119E+00
     11.164  0.1595E-02  0.1823E-02  0.1146E+00  0.1123E+00
     11.345  0.5055E-02  0.3305E-02  0.1155E+00  0.1129E+00
     11.526  0.3431E-02  0.2369E-02  0.1161E+00  0.1133E+00
     11.707  0.2319E-02  0.3812E-02  0.1165E+00  0.1140E+00
     11.887  0.1685E-02  0.1762E-02  0.1168E+00  0.1143E+00
     12.068  0.1232E-02  0.4120E-02  0.1171E+00  0.1150E+00
     12.249  0.7317E-03  0.4317E-02  0.1172E+00  0.1158E+00
     12.430  0.2029E-02  0.1662E-02  0.1176E+00  0.1161E+00
     12.610  0.1148E-02  0.2497E-02  0.1178E+00  0.1166E+00
     12.791  0.1287E-02  0.2712E-02  0.1180E+00  0.1171E+00
     12.972  0.5332E-02  0.1535E-02  0.1190E+00  0.1173E+00
     13.153  0.2129E-02  0.1250E-02  0.1194E+00  0.1176E+00
     13.334  0.1603E-02  0.1735E-02  0.1196E+00  0.1179E+00
     13.514  0.1525E-03  0.1320E-02  0.1197E+00  0.1181E+00
     13.695  0.3695E-03  0.5248E-02  0.1197E+00  0.1191E+00
     13.876  0.7446E-03  0.2100E-02  0.1199E+00  0.1194E+00
     14.057  0.1413E-02  0.1205E-02  0.1201E+00  0.1197E+00
     14.237  0.8769E-03  0.1444E-04  0.1203E+00  0.1197E+00
     14.418  0.5254E-03  0.1875E-06  0.1204E+00  0.1197E+00
     14.599  0.2486E-02  0.1049E-02  0.1208E+00  0.1199E+00
     14.780  0.2792E-02  0.1481E-02  0.1213E+00  0.1201E+00
     14.960  0.4844E-02  0.8572E-03  0.1222E+00  0.1203E+00
     15.141  0.7423E-02  0.6441E-03  0.1236E+00  0.1204E+00
     15.322  0.2153E-02  0.1180E-02  0.1239E+00  0.1206E+00
     15.503  0.4349E-02  0.3143E-02  0.1247E+00  0.1212E+00
     15.683  0.3492E-02  0.8412E-02  0.1254E+00  0.1227E+00
     15.864  0.2766E-02  0.4621E-02  0.1259E+00  0.1235E+00
     16.045  0.2501E-02  0.2909E-02  0.1263E+00  0.1241E+00
     16.226  0.4474E-02  0.4537E-02  0.1271E+00  0.1249E+00
     16.406  0.2462E-02  0.4689E-02  0.1276E+00  0.1257E+00
     16.587  0.4279E-02  0.2238E-02  0.1283E+00  0.1261E+00
     16.768  0.2386E-02  0.4053E-02  0.1288E+00  0.1269E+00
     16.949  0.2775E-02  0.3765E-02  0.1293E+00  0.1275E+00
     17.129  0.6143E-02  0.3576E-02  0.1304E+00  0.1282E+00
     17.310  0.3593E-02  0.2873E-02  0.1310E+00  0.1287E+00
     17.491  0.3173E-02  0.3460E-02  0.1316E+00  0.1293E+00
     17.672  0.4952E-02  0.5642E-02  0.1325E+00  0.1304E+00
     17.852  0.3399E-02  0.4594E-02  0.1331E+00  0.1312E+00
     18.033  0.4376E-02  0.5092E-02  0.1339E+00  0.1321E+00
     18.214  0.4753E-02  0.2635E-02  0.1348E+00  0.1326E+00
     18.395  0.3071E-02  0.4095E-02  0.1353E+00  0.1333E+00
     18.576  0.1694E-02  0.5749E-02  0.1356E+00  0.1344E+00
     18.756  0.5158E-02  0.3730E-02  0.1366E+00  0.1350E+00
     18.937  0.4788E-02  0.3046E-02  0.1374E+00  0.1356E+00
     19.118  0.2225E-02  0.3249E-02  0.1378E+00  0.1362E+00
     19.299  0.2844E-02  0.6105E-02  0.1383E+00  0.1373E+00
     19.479  0.2674E-02  0.1328E-02  0.1388E+00  0.1375E+00
     19.660  0.3115E-02  0.3851E-02  0.1394E+00  0.1382E+00
     19.841  0.1240E-02  0.2738E-02  0.1396E+00  0.1387E+00
     20.022  0.3500E-02  0.2148E-02  0.1402E+00  0.1391E+00
     20.202  0.4411E-02  0.2622E-02  0.1410E+00  0.1396E+00
     20.383  0.3787E-02  0.2353E-02  0.1417E+00  0.1400E+00
     20.564  0.2733E-02  0.4990E-02  0.1422E+00  0.1409E+00
     20.745  0.1775E-02  0.3937E-02  0.1425E+00  0.1416E+00
     20.925  0.5488E-02  0.2555E-02  0.1435E+00  0.1421E+00
     21.106  0.4664E-02  0.2100E-02  0.1444E+00  0.1425E+00
     21.287  0.1793E-02  0.4742E-02  0.1447E+00  0.1433E+00
     21.468  0.5374E-02  0.5580E-02  0.1457E+00  0.1443E+00
     21.648  0.2538E-02  0.1371E-02  0.1461E+00  0.1446E+00
     21.829  0.4814E-02  0.5756E-02  0.1470E+00  0.1456E+00
     22.010  0.5379E-02  0.3380E-02  0.1480E+00  0.1462E+00
     22.191  0.5057E-02  0.4944E-02  0.1489E+00  0.1471E+00
     22.371  0.5607E-02  0.4923E-02  0.1499E+00  0.1480E+00
     22.552  0.5356E-02  0.5458E-02  0.1509E+00  0.1490E+00
     22.733  0.2569E-02  0.5566E-02  0.1513E+00  0.1500E+00
     22.914  0.1666E-02  0.4855E-02  0.1516E+00  0.1509E+00
     23.095  0.6511E-02  0.2751E-02  0.1528E+00  0.1514E+00
     23.275  0.2050E-02  0.4379E-02  0.1532E+00  0.1522E+00
     23.456  0.6007E-02  0.5168E-02  0.1543E+00  0.1531E+00
     23.637  0.6936E-02  0.1998E-02  0.1555E+00  0.1535E+00
     23.818  0.2645E-02  0.6859E-02  0.1560E+00  0.1547E+00
     23.998  0.4831E-02  0.6795E-02  0.1569E+00  0.1559E+00
     24.179  0.5245E-02  0.3085E-02  0.1578E+00  0.1565E+00
     24.360  0.3965E-02  0.3263E-02  0.1585E+00  0.1571E+00
     24.541  0.2430E-02  0.7089E-02  0.1590E+00  0.1584E+00
     24.721  0.5869E-02  0.2263E-02  0.1600E+00  0.1588E+00
     24.902  0.3540E-02  0.4361E-02  0.1607E+00  0.1596E+00
     25.083  0.3506E-02  0.4284E-02  0.1613E+00  0.1603E+00
     25.264  0.3986E-02  0.4123E-02  0.1620E+00  0.1611E+00
     25.444  0.5246E-02  0.3395E-02  0.1630E+00  0.1617E+00
     25.625  0.2873E-02  0.5501E-02  0.1635E+00  0.1627E+00
     25.806  0.7868E-02  0.4325E-02  0.1649E+00  0.1635E+00
     25.987  0.4645E-02  0.6201E-02  0.1658E+00  0.1646E+00
     26.167  0.2888E-02  0.5441E-02  0.1663E+00  0.1656E+00
     26.348  0.4577E-02  0.2784E-02  0.1671E+00  0.1661E+00
     26.529  0.4523E-02  0.5125E-02  0.1679E+00  0.1670E+00
     26.710  0.2820E-02  0.5030E-02  0.1684E+00  0.1679E+00
     26.890  0.4842E-02  0.2467E-02  0.1693E+00  0.1684E+00
     27.071  0.5570E-02  0.5695E-02  0.1703E+00  0.1694E+00
     27.252  0.3144E-02  0.3840E-02  0.1709E+00  0.1701E+00
     27.433  0.3168E-02  0.4972E-02  0.1715E+00  0.1710E+00
     27.613  0.2696E-02  0.3248E-02  0.1719E+00  0.1716E+00
     27.794  0.5722E-02  0.1689E-02  0.1730E+00  0.1719E+00
     27.975  0.6473E-02  0.6978E-02  0.1742E+00  0.1731E+00
     28.156  0.6125E-02  0.5787E-02  0.1753E+00  0.1742E+00
     28.337  0.5702E-02  0.5844E-02  0.1763E+00  0.1752E+00
     28.517  0.2361E-02  0.4576E-02  0.1767E+00  0.1761E+00
     28.698  0.6111E-02  0.3482E-02  0.1778E+00  0.1767E+00
     28.879  0.2169E-02  0.5306E-02  0.1782E+00  0.1776E+00
     29.060  0.5252E-02  0.5712E-02  0.1792E+00  0.1787E+00
     29.240  0.5234E-02  0.5753E-02  0.1801E+00  0.1797E+00
     29.421  0.3714E-02  0.4355E-02  0.1808E+00  0.1805E+00
     29.602  0.2097E-02  0.1442E-02  0.1812E+00  0.1808E+00
     29.783  0.4626E-02  0.2364E-02  0.1820E+00  0.1812E+00
     29.963  0.7771E-02  0.3082E-02  0.1834E+00  0.1817E+00
     30.144  0.6480E-02  0.7620E-02  0.1846E+00  0.1831E+00
     30.325  0.6517E-02  0.7288E-02  0.1857E+00  0.1844E+00
     30.506  0.5934E-02  0.7123E-02  0.1868E+00  0.1857E+00
     30.686  0.4200E-02  0.6512E-02  0.1876E+00  0.1869E+00
     30.867  0.5448E-02  0.5487E-02  0.1886E+00  0.1879E+00
     31.048  0.5085E-02  0.5015E-02  0.1895E+00  0.1888E+00
     31.229  0.3452E-02  0.5043E-02  0.1901E+00  0.1897E+00
     31.409  0.3599E-02  0.3794E-02  0.1908E+00  0.1904E+00
     31.590  0.2597E-02  0.3596E-02  0.1912E+00  0.1911E+00
     31.771  0.2713E-02  0.2995E-02  0.1917E+00  0.1916E+00
     31.952  0.7300E-02  0.1452E-02  0.1930E+00  0.1919E+00
     32.132  0.3748E-02  0.6959E-02  0.1937E+00  0.1931E+00
     32.313  0.3320E-02  0.3365E-02  0.1943E+00  0.1937E+00
     32.494  0.5852E-02  0.2835E-02  0.1954E+00  0.1942E+00
     32.675  0.6768E-02  0.7194E-02  0.1966E+00  0.1955E+00
     32.855  0.5994E-02  0.7759E-02  0.1977E+00  0.1969E+00
     33.036  0.3121E-02  0.3768E-02  0.1982E+00  0.1976E+00
     33.217  0.4313E-02  0.2527E-02  0.1990E+00  0.1981E+00
     33.398  0.2338E-02  0.4569E-02  0.1994E+00  0.1989E+00
     33.579  0.5746E-02  0.4182E-02  0.2005E+00  0.1997E+00
     33.759  0.5569E-02  0.5939E-02  0.2015E+00  0.2007E+00
     33.940  0.5031E-02  0.4574E-02  0.2024E+00  0.2016E+00
     34.121  0.8317E-02  0.3492E-02  0.2039E+00  0.2022E+00
     34.302  0.2444E-02  0.7751E-02  0.2043E+00  0.2036E+00
     34.482  0.5130E-02  0.6067E-02  0.2053E+00  0.2047E+00
     34.663  0.2462E-02  0.2760E-02  0.2057E+00  0.2052E+00
     34.844  0.3328E-02  0.3625E-02  0.2063E+00  0.2058E+00
     35.025  0.3216E-02  0.3271E-02  0.2069E+00  0.2064E+00
     35.205  0.6120E-02  0.3443E-02  0.2080E+00  0.2071E+00
     35.386  0.7943E-02  0.5740E-02  0.2094E+00  0.2081E+00
     35.567  0.3611E-02  0.6429E-02  0.2101E+00  0.2093E+00
     35.748  0.5039E-02  0.5538E-02  0.2110E+00  0.2103E+00
     35.928  0.6454E-02  0.5743E-02  0.2122E+00  0.2113E+00
     36.109  0.5714E-02  0.6234E-02  0.2132E+00  0.2124E+00
     36.290  0.4417E-02  0.6703E-02  0.2140E+00  0.2136E+00
     36.471  0.5193E-02  0.3314E-02  0.2149E+00  0.2142E+00
     36.651  0.3046E-02  0.4013E-02  0.2155E+00  0.2150E+00
     36.832  0.6484E-02  0.4607E-02  0.2167E+00  0.2158E+00
     37.013  0.3012E-02  0.6406E-02  0.2172E+00  0.2169E+00
     37.194  0.3529E-02  0.3285E-02  0.2178E+00  0.2175E+00
     37.374  0.1656E-02  0.2461E-02  0.2181E+00  0.2180E+00
     37.555  0.6417E-02  0.2544E-02  0.2193E+00  0.2184E+00
     37.736  0.9796E-02  0.5967E-02  0.2211E+00  0.2195E+00
     37.917  0.9747E-02  0.7766E-02  0.2228E+00  0.2209E+00
     38.098  0.3422E-02  0.8215E-02  0.2235E+00  0.2224E+00
     38.278  0.3813E-02  0.6231E-02  0.2241E+00  0.2235E+00
     38.459  0.7678E-02  0.5019E-02  0.2255E+00  0.2244E+00
     38.640  0.5857E-02  0.7245E-02  0.2266E+00  0.2258E+00
     38.821  0.4404E-02  0.5097E-02  0.2274E+00  0.2267E+00
     39.001  0.4879E-02  0.4758E-02  0.2283E+00  0.2275E+00
     39.182  0.4538E-02  0.6121E-02  0.2291E+00  0.2286E+00
     39.363  0.7123E-02  0.4154E-02  0.2304E+00  0.2294E+00
     39.544  0.5428E-02  0.7581E-02  0.2314E+00  0.2308E+00
     39.724  0.7245E-02  0.6148E-02  0.2327E+00  0.2319E+00
     39.905  0.6295E-02  0.3152E-02  0.2338E+00  0.2324E+00
     40.086  0.4092E-02  0.6298E-02  0.2345E+00  0.2336E+00
     40.267  0.5578E-02  0.5534E-02  0.2356E+00  0.2346E+00
     40.447  0.2329E-02  0.6236E-02  0.2360E+00  0.2357E+00
     40.628  0.4164E-02  0.3540E-02  0.2367E+00  0.2364E+00
     40.809  0.5099E-02  0.4328E-02  0.2377E+00  0.2371E+00
     40.990  0.7349E-02  0.6933E-02  0.2390E+00  0.2384E+00
     41.170  0.7275E-02  0.3108E-02  0.2403E+00  0.2390E+00
     41.351  0.5574E-02  0.5585E-02  0.2413E+00  0.2400E+00
     41.532  0.5547E-02  0.8059E-02  0.2423E+00  0.2414E+00
     41.713  0.5891E-02  0.3924E-02  0.2434E+00  0.2421E+00
     41.893  0.8448E-02  0.6644E-02  0.2449E+00  0.2433E+00
     42.074  0.5678E-02  0.7269E-02  0.2459E+00  0.2446E+00
     42.255  0.2064E-02  0.4332E-02  0.2463E+00  0.2454E+00
     42.436  0.4264E-02  0.4271E-02  0.2471E+00  0.2462E+00
     42.616  0.7418E-02  0.5063E-02  0.2484E+00  0.2471E+00
     42.797  0.4189E-02  0.5748E-02  0.2492E+00  0.2482E+00
     42.978  0.9722E-02  0.5638E-02  0.2509E+00  0.2492E+00
     43.159  0.8441E-02  0.5216E-02  0.2524E+00  0.2501E+00
     43.340  0.5831E-02  0.5251E-02  0.2535E+00  0.2511E+00
     43.520  0.6329E-02  0.7985E-02  0.2546E+00  0.2525E+00
     43.701  0.5196E-02  0.8092E-02  0.2556E+00  0.2540E+00
     43.882  0.3843E-02  0.4840E-02  0.2563E+00  0.2548E+00
     44.063  0.7106E-02  0.6672E-02  0.2576E+00  0.2560E+00
     44.243  0.6718E-02  0.3717E-02  0.2588E+00  0.2567E+00
     44.424  0.8372E-02  0.5081E-02  0.2603E+00  0.2576E+00
     44.605  0.9705E-02  0.5379E-02  0.2620E+00  0.2586E+00
     44.786  0.1023E-01  0.3491E-02  0.2639E+00  0.2592E+00
     44.966  0.1340E-01  0.4416E-02  0.2663E+00  0.2600E+00
     45.147  0.1400E-01  0.2943E-02  0.2688E+00  0.2606E+00
     45.328  0.1264E-01  0.2677E-02  0.2711E+00  0.2611E+00
     45.509  0.1341E-01  0.5678E-02  0.2736E+00  0.2621E+00
     45.689  0.8647E-02  0.8676E-02  0.2751E+00  0.2637E+00
     45.870  0.5852E-02  0.6224E-02  0.2762E+00  0.2648E+00
     46.051  0.7265E-02  0.7185E-02  0.2775E+00  0.2661E+00
     46.232  0.1946E-02  0.4774E-02  0.2778E+00  0.2669E+00
     46.412  0.2701E-02  0.3174E-02  0.2783E+00  0.2675E+00
     46.593  0.4907E-03  0.2506E-02  0.2784E+00  0.2680E+00
     46.774  0.1270E-02  0.7323E-02  0.2786E+00  0.2693E+00
     46.955  0.2068E-02  0.5102E-02  0.2790E+00  0.2702E+00
     47.135  0.1119E-02  0.6695E-02  0.2792E+00  0.2714E+00
     47.316  0.6837E-03  0.6082E-02  0.2793E+00  0.2725E+00
     47.497  0.1906E-03  0.1093E-02  0.2794E+00  0.2727E+00
     47.678  0.1211E-02  0.2999E-02  0.2796E+00  0.2733E+00
     47.858  0.4713E-03  0.4761E-02  0.2797E+00  0.2741E+00
     48.039  0.1326E-04  0.2704E-02  0.2797E+00  0.2746E+00
     48.220  0.1167E-02  0.2572E-02  0.2799E+00  0.2751E+00
     48.401  0.2601E-03  0.2967E-02  0.2799E+00  0.2756E+00
     48.582  0.1609E-07  0.5981E-02  0.2799E+00  0.2767E+00
     48.762  0.1766E-03  0.5042E-02  0.2800E+00  0.2776E+00
     48.943  0.1116E-03  0.3817E-02  0.2800E+00  0.2783E+00
     49.124  0.9640E-11  0.1609E-02  0.2800E+00  0.2786E+00
     49.305  0.0000E+00  0.4422E-02  0.2800E+00  0.2794E+00
     49.485  0.0000E+00  0.3274E-02  0.2800E+00  0.2800E+00
     49.666  0.0000E+00  0.1395E-03  0.2800E+00  0.2800E+00
     49.847  0.0000E+00  0.8211E-07  0.2800E+00  0.2800E+00
     50.028  0.0000E+00  0.0000E+00  0.2800E+00  0.2800E+00
     50.208  0.0000E+00  0.0000E+00  0.2800E+00  0.2800E+00
     50.389  0.0000E+00  0.0000E+00  0.2800E+00  0.2800E+00
     50.570  0.0000E+00  0.0000E+00  0.2800E+00  0.2800E+00
     50.751  0.0000E+00  0.0000E+00  0.2800E+00  0.2800E+00
     50.931  0.0000E+00  0.0000E+00  0.2800E+00  0.2800E+00
     51.112  0.0000E+00  0.0000E+00  0.2800E+00  0.2800E+00
     51.293  0.0000E+00  0.0000E+00  0.2800E+00  0.2800E+00
     51.474  0.0000E+00  0.0000E+00  0.2800E+00  0.2800E+00
     51.654  0.0000E+00  0.0000E+00  0.2800E+00  0.2800E+00
     51.835  0.0000E+00  0.0000E+00  0.2800E+00  0.2800E+00
     52.016  0.0000E+00  0.0000E+00  0.2800E+00  0.2800E+00
     52.01595236     -2.21176181  301      8.36400610      1.00000000
     -2.212  0.0000E+00  0.0000E+00  0.0000E+00  0.0000E+00  0.0000E+00  0.0000E+00  0.0000E+00  0.0000E+00  0.0000E+00  0.0000E+00  0.0000E+00  0.0000E+00  0.0000E+00  0.0000E+00  0.0000E+00  0.0000E+00  0.0000E+00  0.0000E+00
     -2.031  0.0000E+00  0.0000E+00  0.0000E+00  0.0000E+00  0.0000E+00  0.0000E+00  0.0000E+00  0.0000E+00  0.0000E+00  0.0000E+00  0.0000E+00  0.0000E+00  0.0000E+00  0.0000E+00  0.0000E+00  0.0000E+00  0.0000E+00  0.0000E+00
     -1.850  0.0000E+00  0.0000E+00  0.0000E+00  0.0000E+00  0.0000E+00  0.0000E+00  0.0000E+00  0.0000E+00  0.0000E+00  0.0000E+00  0.0000E+00  0.0000E+00  0.0000E+00  0.0000E+00  0.0000E+00  0.0000E+00  0.0000E+00  0.0000E+00
     -1.669  0.0000E+00  0.0000E+00  0.0000E+00  0.0000E+00  0.0000E+00  0.0000E+00  0.0000E+00  0.0000E+00  0.0000E+00  0.0000E+00  0.0000E+00  0.0000E+00  0.0000E+00  0.0000E+00  0.0000E+00  0.0000E+00  0.0000E+00  0.0000E+00
     -1.489  0.0000E+00  0.0000E+00  0.0000E+00  0.0000E+00  0.0000E+00  0.0000E+00  0.0000E+00  0.0000E+00  0.0000E+00  0.0000E+00  0.0000E+00  0.0000E+00  0.0000E+00  0.0000E+00  0.0000E+00  0.0000E+00  0.0000E+00  0.0000E+00
     -1.308  0.0000E+00  0.0000E+00  0.0000E+00  0.0000E+00  0.0000E+00  0.0000E+00  0.0000E+00  0.0000E+00  0.0000E+00  0.0000E+00  0.0000E+00  0.0000E+00  0.0000E+00  0.0000E+00  0.0000E+00  0.0000E+00  0.0000E+00  0.0000E+00
     -1.127  0.0000E+00  0.0000E+00  0.0000E+00  0.0000E+00  0.0000E+00  0.0000E+00  0.0000E+00  0.0000E+00  0.0000E+00  0.0000E+00  0.0000E+00  0.0000E+00  0.0000E+00  0.0000E+00  0.0000E+00  0.0000E+00  0.0000E+00  0.0000E+00
     -0.946  0.0000E+00  0.0000E+00  0.0000E+00  0.0000E+00  0.0000E+00  0.0000E+00  0.0000E+00  0.0000E+00  0.0000E+00  0.0000E+00  0.0000E+00  0.0000E+00  0.0000E+00  0.0000E+00  0.0000E+00  0.0000E+00  0.0000E+00  0.0000E+00
     -0.766  0.0000E+00  0.0000E+00  0.0000E+00  0.0000E+00  0.0000E+00  0.0000E+00  0.0000E+00  0.0000E+00  0.0000E+00  0.0000E+00  0.0000E+00  0.0000E+00  0.0000E+00  0.0000E+00  0.0000E+00  0.0000E+00  0.0000E+00  0.0000E+00
     -0.585  0.0000E+00  0.0000E+00  0.0000E+00  0.0000E+00  0.0000E+00  0.0000E+00  0.0000E+00  0.0000E+00  0.0000E+00  0.0000E+00  0.0000E+00  0.0000E+00  0.0000E+00  0.0000E+00  0.0000E+00  0.0000E+00  0.0000E+00  0.0000E+00
     -0.404  0.0000E+00  0.0000E+00  0.0000E+00  0.0000E+00  0.0000E+00  0.0000E+00  0.0000E+00  0.0000E+00  0.0000E+00  0.0000E+00  0.0000E+00  0.0000E+00  0.0000E+00  0.0000E+00  0.0000E+00  0.0000E+00  0.0000E+00  0.0000E+00
     -0.223  0.0000E+00  0.0000E+00  0.0000E+00  0.0000E+00  0.0000E+00  0.0000E+00  0.0000E+00  0.0000E+00  0.0000E+00  0.0000E+00  0.0000E+00  0.0000E+00  0.0000E+00  0.0000E+00  0.0000E+00  0.0000E+00  0.0000E+00  0.0000E+00
     -0.043  0.0000E+00  0.8187E-19  0.0000E+00  0.9972E-34  0.0000E+00  0.9189E-41  0.0000E+00  0.9972E-34  0.0000E+00  0.9332E-32  0.0000E+00  0.7734E-42  0.0000E+00  0.1064E-23  0.0000E+00  0.7734E-42  0.0000E+00  0.9332E-32
      0.138  0.4709E-07  0.8407E-06  0.7149E-24  0.1024E-20  0.2233E-19  0.6596E-17  0.7149E-24  0.1024E-20  0.8944E-22  0.9582E-19  0.1027E-31  0.7974E-29  0.4475E-12  0.1093E-10  0.1027E-31  0.7974E-29  0.8944E-22  0.9582E-19
      0.319  0.1294E-02  0.1471E-02  0.2017E-10  0.7072E-09  0.7373E-07  0.6053E-06  0.2017E-10  0.7072E-09  0.4017E-12  0.9586E-11  0.2624E-22  0.3406E-20  0.1304E-07  0.2212E-07  0.2624E-22  0.3406E-20  0.4017E-12  0.9586E-11
      0.500  0.7666E-02  0.9722E-02  0.4816E-04  0.7237E-04  0.3961E-04  0.3987E-04  0.4816E-04  0.7237E-04  0.9591E-06  0.9810E-06  0.3908E-09  0.3978E-08  0.1465E-05  0.1468E-05  0.3908E-09  0.3978E-08  0.9591E-06  0.9810E-06
      0.680  0.1946E-01  0.1847E-01  0.2051E-03  0.1973E-03  0.2120E-03  0.2328E-03  0.2051E-03  0.1973E-03  0.4174E-05  0.2715E-05  0.7355E-05  0.5559E-05  0.9471E-06  0.3558E-06  0.7355E-05  0.5559E-05  0.4174E-05  0.2715E-05
      0.861  0.4333E-02  0.4048E-02  0.3086E-04  0.3958E-04  0.1405E-03  0.1470E-03  0.3086E-04  0.3958E-04  0.1038E-05  0.1459E-05  0.9428E-06  0.1584E-06  0.8698E-05  0.7491E-05  0.9428E-06  0.1584E-06  0.1038E-05  0.1459E-05
      1.042  0.2069E-01  0.2707E-01  0.4935E-03  0.6430E-03  0.4915E-03  0.7418E-03  0.4935E-03  0.6430E-03  0.2757E-04  0.2343E-04  0.2300E-04  0.2514E-04  0.3736E-04  0.3055E-04  0.2300E-04  0.2514E-04  0.2757E-04  0.2343E-04
      1.223  0.3112E-01  0.2519E-01  0.8960E-03  0.8223E-03  0.7287E-03  0.4920E-03  0.8960E-03  0.8223E-03  0.6655E-04  0.4252E-04  0.4501E-04  0.2336E-04  0.6010E-04  0.3343E-04  0.4501E-04  0.2336E-04  0.6655E-04  0.4252E-04
      1.403  0.1513E-01  0.1401E-01  0.6357E-03  0.5879E-03  0.2550E-03  0.2883E-03  0.6357E-03  0.5879E-03  0.6319E-04  0.3573E-04  0.4325E-04  0.2933E-04  0.2414E-04  0.1430E-04  0.4325E-04  0.2933E-04  0.6319E-04  0.3573E-04
      1.584  0.1769E-01  0.1683E-01  0.4962E-03  0.4793E-03  0.1179E-02  0.1154E-02  0.4962E-03  0.4793E-03  0.3679E-04  0.2246E-04  0.1167E-03  0.7143E-04  0.8151E-04  0.4784E-04  0.1167E-03  0.7143E-04  0.3679E-04  0.2246E-04
      1.765  0.4220E-01  0.4260E-01  0.1766E-02  0.1839E-02  0.2694E-02  0.2765E-02  0.1766E-02  0.1839E-02  0.2566E-03  0.1619E-03  0.2491E-03  0.1565E-03  0.4913E-03  0.2992E-03  0.2491E-03  0.1565E-03  0.2566E-03  0.1619E-03
      1.946  0.3273E-01  0.3185E-01  0.2439E-02  0.2450E-02  0.4960E-03  0.4828E-03  0.2439E-02  0.2450E-02  0.4648E-03  0.2799E-03  0.1806E-03  0.1059E-03  0.2764E-03  0.1639E-03  0.1806E-03  0.1059E-03  0.4648E-03  0.2799E-03
      2.126  0.1829E-01  0.1648E-01  0.9760E-03  0.8684E-03  0.1616E-02  0.1574E-02  0.9760E-03  0.8684E-03  0.2263E-03  0.1059E-03  0.2559E-03  0.1478E-03  0.3061E-03  0.1626E-03  0.2559E-03  0.1478E-03  0.2263E-03  0.1059E-03
      2.307  0.5772E-01  0.5682E-01  0.4178E-02  0.4359E-02  0.3760E-02  0.3590E-02  0.4178E-02  0.4359E-02  0.1113E-02  0.6369E-03  0.1292E-02  0.7169E-03  0.5714E-03  0.2911E-03  0.1292E-02  0.7169E-03  0.1113E-02  0.6369E-03
      2.488  0.7200E-02  0.7168E-02  0.2031E-03  0.2582E-03  0.1222E-02  0.1097E-02  0.2031E-03  0.2582E-03  0.5206E-04  0.2821E-04  0.1252E-03  0.8125E-04  0.6456E-03  0.2146E-03  0.1252E-03  0.8125E-04  0.5206E-04  0.2821E-04
      2.669  0.2758E-01  0.2804E-01  0.1924E-02  0.1715E-02  0.2961E-02  0.3812E-02  0.1924E-02  0.1715E-02  0.7825E-03  0.3492E-03  0.6755E-03  0.4030E-03  0.1751E-02  0.1031E-02  0.6755E-03  0.4030E-03  0.7825E-03  0.3492E-03
      2.849  0.5875E-01  0.3784E-01  0.6230E-02  0.4366E-02  0.4301E-02  0.2442E-02  0.6230E-02  0.4366E-02  0.2813E-02  0.9389E-03  0.2309E-02  0.7555E-03  0.1844E-02  0.5401E-03  0.2309E-02  0.7555E-03  0.2813E-02  0.9389E-03
      3.030  0.4367E-01  0.5537E-01  0.4353E-02  0.6121E-02  0.4459E-02  0.4745E-02  0.4353E-02  0.6121E-02  0.2487E-02  0.1664E-02  0.2103E-02  0.9900E-03  0.2753E-02  0.1621E-02  0.2103E-02  0.9900E-03  0.2487E-02  0.1664E-02
      3.211  0.4943E-01  0.3571E-01  0.5634E-02  0.3499E-02  0.4392E-02  0.5198E-02  0.5634E-02  0.3499E-02  0.4725E-02  0.8590E-03  0.4262E-02  0.1604E-02  0.3236E-02  0.8216E-03  0.4262E-02  0.1604E-02  0.4725E-02  0.8590E-03
      3.392  0.2297E-01  0.3253E-01  0.2019E-02  0.4599E-02  0.3103E-02  0.2179E-02  0.2019E-02  0.4599E-02  0.2924E-02  0.1885E-02  0.1260E-02  0.1227E-02  0.7659E-02  0.1180E-02  0.1260E-02  0.1227E-02  0.2924E-02  0.1885E-02
      3.573  0.5302E-01  0.2372E-01  0.5725E-02  0.2294E-02  0.8852E-02  0.4112E-02  0.5725E-02  0.2294E-02  0.6234E-02  0.1195E-02  0.1196E-01  0.5399E-03  0.2664E-02  0.3507E-02  0.1196E-01  0.5399E-03  0.6234E-02  0.1195E-02
      3.753  0.7079E-01  0.4348E-01  0.1023E-01  0.5114E-02  0.7466E-02  0.7999E-02  0.1023E-01  0.5114E-02  0.1827E-01  0.2139E-02  0.1061E-01  0.3995E-02  0.2240E-01  0.1372E-02  0.1061E-01  0.3995E-02  0.1827E-01  0.2139E-02
      3.934  0.8418E-01  0.5320E-01  0.1022E-01  0.7797E-02  0.6384E-02  0.8416E-02  0.1022E-01  0.7797E-02  0.4806E-01  0.3753E-02  0.4726E-01  0.4147E-02  0.4771E-01  0.4391E-02  0.4726E-01  0.4147E-02  0.4806E-01  0.3753E-02
      4.115  0.7768E-01  0.3788E-01  0.7675E-02  0.6550E-02  0.1159E-01  0.4808E-02  0.7675E-02  0.6550E-02  0.5932E-01  0.4308E-02  0.8078E-01  0.1980E-02  0.5246E-01  0.4921E-02  0.8078E-01  0.1980E-02  0.5932E-01  0.4308E-02
      4.296  0.7652E-01  0.4769E-01  0.1028E-01  0.9832E-02  0.1162E-01  0.3004E-02  0.1028E-01  0.9832E-02  0.1036E+00  0.8196E-02  0.9679E-01  0.4635E-02  0.1086E+00  0.5145E-02  0.9679E-01  0.4635E-02  0.1036E+00  0.8196E-02
      4.476  0.5893E-01  0.5842E-01  0.1183E-01  0.7905E-02  0.1280E-01  0.1428E-01  0.1183E-01  0.7905E-02  0.1430E+00  0.7309E-02  0.9924E-01  0.1125E-01  0.1033E+00  0.1268E-01  0.9924E-01  0.1125E-01  0.1430E+00  0.7309E-02
      4.657  0.4461E-01  0.5562E-01  0.1326E-01  0.9702E-02  0.1503E-01  0.8820E-02  0.1326E-01  0.9702E-02  0.1579E+00  0.1556E-01  0.2140E+00  0.1583E-01  0.1986E+00  0.7124E-02  0.2140E+00  0.1583E-01  0.1579E+00  0.1556E-01
      4.838  0.2544E-01  0.2950E-01  0.1462E-01  0.2966E-02  0.1695E-01  0.7961E-02  0.1462E-01  0.2966E-02  0.1103E+00  0.6531E-02  0.1928E+00  0.8720E-02  0.1413E+00  0.1979E-01  0.1928E+00  0.8720E-02  0.1103E+00  0.6531E-02
      5.019  0.1629E-01  0.8709E-01  0.1696E-01  0.1701E-01  0.1332E-01  0.8545E-02  0.1696E-01  0.1701E-01  0.1677E+00  0.4883E-01  0.1553E+00  0.3677E-01  0.2475E+00  0.4364E-01  0.1553E+00  0.3677E-01  0.1677E+00  0.4883E-01
      5.199  0.9690E-02  0.7680E-01  0.1904E-01  0.1354E-01  0.1344E-01  0.1477E-01  0.1904E-01  0.1354E-01  0.2458E+00  0.4138E-01  0.1413E+00  0.4976E-01  0.2388E+00  0.3693E-01  0.1413E+00  0.4976E-01  0.2458E+00  0.4138E-01
      5.380  0.1158E-01  0.5091E-01  0.2190E-01  0.8313E-02  0.1576E-01  0.1197E-01  0.2190E-01  0.8313E-02  0.2854E+00  0.3658E-01  0.1634E+00  0.4969E-01  0.2500E+00  0.5161E-01  0.1634E+00  0.4969E-01  0.2854E+00  0.3658E-01
      5.561  0.8498E-02  0.3601E-01  0.1471E-01  0.7554E-02  0.1224E-01  0.9794E-02  0.1471E-01  0.7554E-02  0.1956E+00  0.5090E-01  0.9431E-01  0.5478E-01  0.1578E+00  0.2314E-01  0.9431E-01  0.5478E-01  0.1956E+00  0.5090E-01
      5.742  0.6146E-02  0.5486E-01  0.1231E-01  0.1687E-01  0.1595E-01  0.1719E-01  0.1231E-01  0.1687E-01  0.1826E+00  0.9945E-01  0.2548E+00  0.7522E-01  0.3029E+00  0.1050E+00  0.2548E+00  0.7522E-01  0.1826E+00  0.9945E-01
      5.922  0.1312E-01  0.2464E-01  0.1822E-01  0.1075E-01  0.1910E-01  0.1430E-01  0.1822E-01  0.1075E-01  0.2653E+00  0.8924E-01  0.3745E+00  0.1190E+00  0.3788E+00  0.7323E-01  0.3745E+00  0.1190E+00  0.2653E+00  0.8924E-01
      6.103  0.1317E-01  0.1508E-01  0.1296E-01  0.1553E-01  0.2145E-01  0.2012E-01  0.1296E-01  0.1553E-01  0.3521E+00  0.7659E-01  0.3616E+00  0.1994E+00  0.2581E+00  0.9418E-01  0.3616E+00  0.1994E+00  0.3521E+00  0.7659E-01
      6.284  0.1258E-01  0.6895E-02  0.1549E-01  0.2037E-01  0.2231E-01  0.1396E-01  0.1549E-01  0.2037E-01  0.3563E+00  0.1338E+00  0.3791E+00  0.8658E-01  0.2996E+00  0.1527E+00  0.3791E+00  0.8658E-01  0.3563E+00  0.1338E+00
      6.465  0.8587E-02  0.8744E-02  0.1693E-01  0.2567E-01  0.1605E-01  0.1369E-01  0.1693E-01  0.2567E-01  0.3019E+00  0.1452E+00  0.3041E+00  0.9388E-01  0.2436E+00  0.2048E+00  0.3041E+00  0.9388E-01  0.3019E+00  0.1452E+00
      6.645  0.7508E-02  0.8447E-02  0.1185E-01  0.3367E-01  0.9704E-02  0.2174E-01  0.1185E-01  0.3367E-01  0.2070E+00  0.1892E+00  0.2154E+00  0.1124E+00  0.1339E+00  0.2402E+00  0.2154E+00  0.1124E+00  0.2070E+00  0.1892E+00
      6.826  0.7934E-02  0.9196E-02  0.9437E-02  0.3760E-01  0.1186E-01  0.2320E-01  0.9437E-02  0.3760E-01  0.2562E+00  0.2638E+00  0.2810E+00  0.1104E+00  0.2285E+00  0.2235E+00  0.2810E+00  0.1104E+00  0.2562E+00  0.2638E+00