    2    2  100    2
  0.1251710E+02  0.2616889E-09  0.2616889E-09  0.4221166E-09  0.5000000E-15
  1.000000000000000E-004
  CAR 
 Co-hcc                                  
     18     95     28
 
  0.0000000E+00  0.0000000E+00  0.0000000E+00  0.8680556E-03
      1          0.279521        0.253134   1.000000   1.000000
      2          3.834784        4.853816   1.000000   1.000000
      3          5.907658        7.655175   1.000000   1.000000
      4          5.916652        7.677594   1.000000   1.000000
      5          5.916652        7.677595   1.000000   1.000000
      6          6.161441        7.974400   1.000000   1.000000
      7          6.161441        7.974401   1.000000   1.000000
      8          6.423342        8.304272   1.000000   0.954440
      9          6.423342        8.304273   1.000000   0.954439
     10          7.309594        8.315995   1.000000   0.912761
     11          7.309594        9.306507   1.000000   0.000000
     12          8.424421        9.306508   0.043745   0.000000
     13         13.564538       14.602999   0.000000   0.000000
     14         29.099295       28.768221   0.000000   0.000000
     15         30.334433       30.679634   0.000000   0.000000
     16         30.334436       30.679639   0.000000   0.000000
     17         31.783672       31.592214   0.000000   0.000000
     18         31.833273       32.065687   0.000000   0.000000
     19         31.833278       32.110787   0.000000   0.000000
     20         32.326246       32.110788   0.000000   0.000000
     21         36.748145       36.632315   0.000000   0.000000
     22         36.748146       36.632315   0.000000   0.000000
     23         36.937028       37.138101   0.000000   0.000000
     24         37.988673       37.605772   0.000000   0.000000
     25         38.973758       39.319959   0.000000   0.000000
     26         39.155751       39.319960   0.000000   0.000000
     27         39.155752       39.487764   0.000000   0.000000
     28         40.753626       41.184057   0.000000   0.000000
 
  0.8333333E-01  0.0000000E+00  0.0000000E+00  0.5208333E-02
      1          0.497444        0.471718   1.000000   1.000000
      2          3.958098        5.000010   1.000000   1.000000
      3          5.734318        7.447006   1.000000   1.000000
      4          6.007019        7.737372   1.000000   1.000000
      5          6.062396        7.779293   1.000000   1.000000
      6          6.127491        7.840568   1.000000   1.000000
      7          6.241203        7.924113   1.000000   1.000000
      8          6.316646        8.064130   1.000000   1.000000
      9          6.368370        8.237992   1.000000   0.999818
     10          6.783857        8.257629   1.000000   0.998689
     11          7.332790        9.334978   1.000000   0.000000
     12          9.219891       10.080750   0.000000   0.000000
     13         13.616621       14.629077   0.000000   0.000000
     14         26.730690       26.876101   0.000000   0.000000
     15         28.500060       28.814202   0.000000   0.000000
     16         29.034753       29.019702   0.000000   0.000000
     17         32.343666       32.081415   0.000000   0.000000
     18         32.447069       32.334854   0.000000   0.000000
     19         33.772064       33.624627   0.000000   0.000000
     20         33.920233       34.210805   0.000000   0.000000
     21         34.636565       34.874175   0.000000   0.000000
     22         36.105680       36.086138   0.000000   0.000000
     23         36.454608       36.738851   0.000000   0.000000
     24         36.504579       36.757924   0.000000   0.000000
     25         38.223952       38.754541   0.000000   0.000000
     26         38.553458       38.955079   0.000000   0.000000
     27         40.190174       40.264604   0.000000   0.000000
     28         40.768446       40.612850   0.000000   0.000000
 
  0.1666667E+00  0.0000000E+00  0.0000000E+00  0.5208333E-02
      1          1.130933        1.111340   1.000000   1.000000
      2          4.262913        5.378586   1.000000   1.000000
      3          5.523622        7.024187   1.000000   1.000000
      4          5.800416        7.160865   1.000000   1.000000
      5          5.994791        7.741386   1.000000   1.000000
      6          6.231873        8.067523   1.000000   1.000000
      7          6.261488        8.074590   1.000000   1.000000
      8          6.305202        8.108586   1.000000   1.000000
      9          6.432427        8.128369   1.000000   1.000000
     10          6.464148        8.315578   1.000000   0.914620
     11          7.382430        9.395088   1.000000   0.000000
     12         10.582324       11.376852   0.000000   0.000000
     13         13.794898       14.726256   0.000000   0.000000
     14         22.997622       23.313560   0.000000   0.000000
     15         26.355395       26.643070   0.000000   0.000000
     16         28.174348       28.218824   0.000000   0.000000
     17         30.003256       29.989419   0.000000   0.000000
     18         32.201847       32.158031   0.000000   0.000000
     19         32.443977       32.499325   0.000000   0.000000
     20         34.367963       34.472303   0.000000   0.000000
     21         35.183234       35.258219   0.000000   0.000000
     22         35.281296       35.548142   0.000000   0.000000
     23         35.791009       36.160447   0.000000   0.000000
     24         36.873994       37.288903   0.000000   0.000000
     25         37.701235       37.951462   0.000000   0.000000
     26         40.031448       40.046665   0.000000   0.000000
     27         42.276267       42.274110   0.000000   0.000000
     28         43.229997       43.946547   0.000000   0.000000
 
  0.2500000E+00 -0.1387779E-16  0.0000000E+00  0.5208333E-02
      1          2.100565        2.115090   1.000000   1.000000
      2          4.510017        5.766669   1.000000   1.000000
      3          5.218044        6.469680   1.000000   1.000000
      4          5.403895        6.899231   1.000000   1.000000
      5          5.925684        7.611993   1.000000   1.000000
      6          6.066839        7.878536   1.000000   1.000000
      7          6.266864        7.953390   1.000000   1.000000
      8          6.628413        8.464466   1.000000   0.002246
      9          6.647030        8.488889   1.000000   0.000206
     10          6.783541        8.677601   1.000000   0.000000
     11          7.429914        9.451659   1.000000   0.000000
     12         12.172874       12.883832   0.000000   0.000000
     13         14.142640       14.932159   0.000000   0.000000
     14         19.483953       19.927590   0.000000   0.000000
     15         24.505871       24.752651   0.000000   0.000000
     16         26.785188       26.897196   0.000000   0.000000
     17         26.953391       27.129530   0.000000   0.000000
     18         29.640347       30.116072   0.000000   0.000000
     19         31.376749       31.155857   0.000000   0.000000
     20         33.765295       34.172790   0.000000   0.000000
     21         34.453768       34.596631   0.000000   0.000000
     22         35.183126       35.214435   0.000000   0.000000
     23         35.985512       36.158524   0.000000   0.000000
     24         38.794227       38.983573   0.000000   0.000000
     25         40.026490       40.347627   0.000000   0.000000
     26         43.010122       43.289185   0.000000   0.000000
     27         44.719458       44.864895   0.000000   0.000000
     28         44.910547       45.971887   0.000000   0.000000
 
  0.3333333E+00  0.2775558E-16  0.0000000E+00  0.5208333E-02
      1          3.182289        3.348920   1.000000   1.000000
      2          4.462657        5.835169   1.000000   1.000000
      3          4.790263        6.087142   1.000000   1.000000
      4          5.512333        6.779796   1.000000   1.000000
      5          5.917513        7.686034   1.000000   1.000000
      6          6.028401        7.702107   1.000000   1.000000
      7          6.127619        7.779680   1.000000   1.000000
      8          7.015725        8.942921   1.000000   0.000000
      9          7.128466        8.989819   1.000000   0.000000
     10          7.205743        9.071176   1.000000   0.000000
     11          7.462845        9.490287   1.000000   0.000000
     12         13.939377       14.551928   0.000000   0.000000
     13         14.393382       14.998175   0.000000   0.000000
     14         16.703448       17.300855   0.000000   0.000000
     15         23.053831       23.246690   0.000000   0.000000
     16         23.858649       24.097245   0.000000   0.000000
     17         24.567061       24.923596   0.000000   0.000000
     18         28.415066       28.831067   0.000000   0.000000
     19         30.297700       30.089978   0.000000   0.000000
     20         32.180181       32.543352   0.000000   0.000000
     21         33.951914       34.143580   0.000000   0.000000
     22         35.748083       35.882005   0.000000   0.000000
     23         37.667578       37.820443   0.000000   0.000000
     24         39.987162       40.121755   0.000000   0.000000
     25         43.383624       43.686116   0.000000   0.000000
     26         44.472112       45.621056   0.000000   0.000000
     27         45.370255       47.939965   0.000000   0.000000
     28         46.025953       48.187733   0.000000   0.000000
 
  0.4166667E+00 -0.8326673E-16  0.0000000E+00  0.5208333E-02
      1          3.913714        4.508404   1.000000   1.000000
      2          4.310794        5.670179   1.000000   1.000000
      3          4.534870        5.866340   1.000000   1.000000
      4          5.815138        6.760573   1.000000   1.000000
      5          5.837011        7.581560   1.000000   1.000000
      6          6.029958        7.652823   1.000000   1.000000
      7          6.192564        7.870259   1.000000   1.000000
      8          7.302478        9.282450   1.000000   0.000000
      9          7.412353        9.402756   1.000000   0.000000
     10          7.480620        9.510861   1.000000   0.000000
     11          8.180619        9.760050   1.000000   0.000000
     12         12.668401       13.419995   0.000000   0.000000
     13         15.793347       16.285150   0.000000   0.000000
     14         16.695913       17.183414   0.000000   0.000000
     15         21.317687       21.695138   0.000000   0.000000
     16         21.965874       22.250727   0.000000   0.000000
     17         22.109473       22.429146   0.000000   0.000000
     18         28.030210       28.443096   0.000000   0.000000
     19         29.592789       29.377581   0.000000   0.000000
     20         31.166848       31.491222   0.000000   0.000000
     21         33.661516       33.883138   0.000000   0.000000
     22         36.084004       36.290489   0.000000   0.000000
     23         39.870847       40.035641   0.000000   0.000000
     24         40.697100       40.762698   0.000000   0.000000
     25         44.726845       45.529577   0.000000   0.000000
     26         45.296575       46.840196   0.000000   0.000000
     27         45.425839       47.026202   0.000000   0.000000
     28         46.758271       48.374657   0.000000   0.000000
 
  0.5000000E+00 -0.2775558E-16  0.0000000E+00  0.2604167E-02
      1          4.148497        5.062777   1.000000   1.000000
      2          4.202089        5.515847   1.000000   1.000000
      3          4.450215        5.794486   1.000000   1.000000
      4          5.778886        6.795787   1.000000   1.000000
      5          5.994755        7.538948   1.000000   1.000000
      6          6.055056        7.606431   1.000000   1.000000
      7          6.252477        7.943270   1.000000   1.000000
      8          7.405925        9.403867   1.000000   0.000000
      9          7.486058        9.517100   1.000000   0.000000
     10          7.526271        9.539905   1.000000   0.000000
     11          9.298073       10.542615   0.000000   0.000000
     12         10.978159       12.009639   0.000000   0.000000
     13         17.017314       17.388270   0.000000   0.000000
     14         17.487738       17.834543   0.000000   0.000000
     15         19.866648       20.371295   0.000000   0.000000
     16         20.540817       21.097766   0.000000   0.000000
     17         21.779082       21.898007   0.000000   0.000000
     18         27.930523       28.348710   0.000000   0.000000
     19         29.351342       29.131702   0.000000   0.000000
     20         30.817097       31.126141   0.000000   0.000000
     21         33.566739       33.798487   0.000000   0.000000
     22         36.208097       36.442037   0.000000   0.000000
     23         40.904769       40.913657   0.000000   0.000000
     24         42.380459       42.402074   0.000000   0.000000
     25         42.514510       42.893344   0.000000   0.000000
     26         44.586181       46.643803   0.000000   0.000000
     27         45.415954       49.278712   0.000000   0.000000
     28         47.453526       49.551056   0.000000   0.000000
 
  0.8333333E-01  0.8333333E-01  0.0000000E+00  0.5208333E-02
      1          0.923811        0.901167   1.000000   1.000000
      2          4.176747        5.265555   1.000000   1.000000
      3          5.567195        7.209024   1.000000   1.000000
      4          5.995405        7.232216   1.000000   1.000000
      5          6.046303        7.809985   1.000000   1.000000
      6          6.187482        7.982556   1.000000   1.000000
      7          6.191254        7.986263   1.000000   1.000000
      8          6.213199        8.044350   1.000000   1.000000
      9          6.417751        8.246686   1.000000   0.999547
     10          6.527401        8.258439   1.000000   0.998586
     11          7.361816        9.369959   1.000000   0.000000
     12         10.192963       11.008984   0.000000   0.000000
     13         13.733190       14.692161   0.000000   0.000000
     14         24.770699       24.978836   0.000000   0.000000
     15         25.144468       25.470965   0.000000   0.000000
     16         30.406006       30.415366   0.000000   0.000000
     17         31.573107       31.420137   0.000000   0.000000
     18         31.648329       31.614419   0.000000   0.000000
     19         31.733939       31.661851   0.000000   0.000000
     20         34.235102       34.392664   0.000000   0.000000
     21         34.447693       34.914304   0.000000   0.000000
     22         34.888281       35.398636   0.000000   0.000000
     23         37.694507       37.780451   0.000000   0.000000
     24         38.048691       38.133589   0.000000   0.000000
     25         38.150516       38.300418   0.000000   0.000000
     26         38.214737       38.508648   0.000000   0.000000
     27         39.367816       39.415379   0.000000   0.000000
     28         43.597642       44.478371   0.000000   0.000000
 
  0.1666667E+00  0.8333333E-01  0.0000000E+00  0.1041667E-01
      1          1.732109        1.726079   1.000000   1.000000
      2          4.488742        5.676312   1.000000   1.000000
      3          5.358679        6.663862   1.000000   1.000000
      4          5.435076        6.935664   1.000000   1.000000
      5          5.955421        7.666836   1.000000   1.000000
      6          6.040737        7.824839   1.000000   1.000000
      7          6.389210        8.132575   1.000000   1.000000
      8          6.390733        8.208783   1.000000   0.999994
      9          6.526577        8.362980   1.000000   0.511571
     10          6.748447        8.614730   1.000000   0.000000
     11          7.397978        9.413190   1.000000   0.000000
     12         11.593388       12.339441   0.000000   0.000000
     13         14.011672       14.860083   0.000000   0.000000
     14         21.291651       21.659547   0.000000   0.000000
     15         23.337015       23.641845   0.000000   0.000000
     16         28.452233       28.472201   0.000000   0.000000
     17         29.163694       29.301574   0.000000   0.000000
     18         30.363992       30.343281   0.000000   0.000000
     19         31.360482       31.583529   0.000000   0.000000
     20         32.198491       32.607252   0.000000   0.000000
     21         34.711695       34.699670   0.000000   0.000000
     22         35.634598       36.020240   0.000000   0.000000
     23         37.557339       37.693757   0.000000   0.000000
     24         37.975348       38.146893   0.000000   0.000000
     25         39.711072       39.893699   0.000000   0.000000
     26         41.497026       41.516181   0.000000   0.000000
     27         41.730853       41.743746   0.000000   0.000000
     28         44.277778       45.869095   0.000000   0.000000
 
  0.2500000E+00  0.8333333E-01  0.0000000E+00  0.1041667E-01
      1          2.789170        2.858758   1.000000   1.000000
      2          4.595998        5.930118   1.000000   1.000000
      3          4.965989        6.245159   1.000000   1.000000
      4          5.315909        6.724995   1.000000   1.000000
      5          5.894155        7.632863   1.000000   1.000000
      6          5.969224        7.639339   1.000000   1.000000
      7          6.236398        7.949570   1.000000   1.000000
      8          6.707168        8.555897   1.000000   0.000000
      9          6.921200        8.817545   1.000000   0.000000
     10          7.203540        9.072919   1.000000   0.000000
     11          7.428588        9.449396   1.000000   0.000000
     12         13.240370       13.900563   0.000000   0.000000
     13         14.461660       15.142609   0.000000   0.000000
     14         18.006821       18.510110   0.000000   0.000000
     15         21.948752       22.240438   0.000000   0.000000
     16         25.397418       25.561114   0.000000   0.000000
     17         26.374954       26.694154   0.000000   0.000000
     18         29.200141       29.175935   0.000000   0.000000
     19         30.457359       30.779382   0.000000   0.000000
     20         30.880975       31.222275   0.000000   0.000000
     21         35.404015       35.354066   0.000000   0.000000
     22         37.327728       37.495672   0.000000   0.000000
     23         37.539558       37.738588   0.000000   0.000000
     24         38.595044       38.801139   0.000000   0.000000
     25         41.240200       41.511562   0.000000   0.000000
     26         44.506246       44.488714   0.000000   0.000000
     27         44.841778       45.679476   0.000000   0.000000
     28         45.140941       47.132432   0.000000   0.000000
 
  0.3333333E+00  0.8333333E-01  0.0000000E+00  0.1041667E-01
      1          3.741673        4.094678   1.000000   1.000000
      2          4.458831        5.838727   1.000000   1.000000
      3          4.648488        5.973395   1.000000   1.000000
      4          5.523260        6.669657   1.000000   1.000000
      5          5.797520        7.523652   1.000000   1.000000
      6          6.086753        7.756237   1.000000   1.000000
      7          6.125640        7.796360   1.000000   1.000000
      8          7.102195        9.003499   1.000000   0.000000
      9          7.255655        9.208630   1.000000   0.000000
     10          7.447766        9.471729   1.000000   0.000000
     11          7.888254        9.631277   1.000000   0.000000
     12         13.951186       14.564256   0.000000   0.000000
     13         15.058205       15.615341   0.000000   0.000000
     14         16.421533       16.988677   0.000000   0.000000
     15         20.897292       21.156506   0.000000   0.000000
     16         22.647849       22.946793   0.000000   0.000000
     17         23.471219       23.877336   0.000000   0.000000
     18         28.381556       28.340542   0.000000   0.000000
     19         29.889249       30.208744   0.000000   0.000000
     20         29.908455       30.251848   0.000000   0.000000
     21         35.349076       35.368616   0.000000   0.000000
     22         37.676700       37.859359   0.000000   0.000000
     23         39.058380       39.235777   0.000000   0.000000
     24         40.359513       40.476333   0.000000   0.000000
     25         43.081847       43.412656   0.000000   0.000000
     26         44.961761       47.153779   0.000000   0.000000
     27         45.365151       47.544572   0.000000   0.000000
     28         46.943574       47.830067   0.000000   0.000000
 
  0.4166667E+00  0.8333333E-01  0.0000000E+00  0.1041667E-01
      1          4.175968        5.011479   1.000000   1.000000
      2          4.323244        5.652871   1.000000   1.000000
      3          4.490198        5.841845   1.000000   1.000000
      4          5.757333        6.690615   1.000000   1.000000
      5          5.844822        7.493656   1.000000   1.000000
      6          5.988718        7.611071   1.000000   1.000000
      7          6.249810        7.944882   1.000000   1.000000
      8          7.378437        9.356729   1.000000   0.000000
      9          7.434893        9.421745   1.000000   0.000000
     10          7.456332        9.481557   1.000000   0.000000
     11          9.091698       10.433217   0.000000   0.000000
     12         11.720775       12.623869   0.000000   0.000000
     13         16.821548       17.247094   0.000000   0.000000
     14         17.358070       17.751924   0.000000   0.000000
     15         20.205791       20.480791   0.000000   0.000000
     16         20.423798       20.869969   0.000000   0.000000
     17         21.281047       21.732673   0.000000   0.000000
     18         27.960651       27.908119   0.000000   0.000000
     19         29.355937       29.673165   0.000000   0.000000
     20         29.644898       29.986974   0.000000   0.000000
     21         35.187884       35.244760   0.000000   0.000000
     22         37.835188       38.054242   0.000000   0.000000
     23         40.924699       40.946383   0.000000   0.000000
     24         41.344007       41.505677   0.000000   0.000000
     25         44.041972       44.290011   0.000000   0.000000
     26         44.636621       46.155322   0.000000   0.000000
     27         45.382371       47.209419   0.000000   0.000000
     28         46.001196       48.959447   0.000000   0.000000
 
  0.1666667E+00  0.1666667E+00  0.0000000E+00  0.5208333E-02
      1          2.649202        2.689291   1.000000   1.000000
      2          4.739134        6.015662   1.000000   1.000000
      3          5.058831        6.327845   1.000000   1.000000
      4          5.130884        6.633227   1.000000   1.000000
      5          5.841033        7.577890   1.000000   1.000000
      6          5.966298        7.638852   1.000000   1.000000
      7          6.307260        8.039305   1.000000   1.000000
      8          6.521060        8.364895   1.000000   0.489968
      9          6.913525        8.797488   1.000000   0.000000
     10          7.220571        9.082710   1.000000   0.000000
     11          7.399334        9.414474   1.000000   0.000000
     12         13.003055       13.683631   0.000000   0.000000
     13         14.456464       15.171578   0.000000   0.000000
     14         19.773835       20.159050   0.000000   0.000000
     15         19.969068       20.374942   0.000000   0.000000
     16         27.073347       27.029672   0.000000   0.000000
     17         27.389388       27.622848   0.000000   0.000000
     18         28.233174       28.546724   0.000000   0.000000
     19         28.837126       29.146861   0.000000   0.000000
     20         33.278127       33.495832   0.000000   0.000000
     21         35.385836       35.691892   0.000000   0.000000
     22         35.772827       35.754853   0.000000   0.000000
     23         39.030491       39.198431   0.000000   0.000000
     24         40.229377       40.352943   0.000000   0.000000
     25         40.714984       40.741969   0.000000   0.000000
     26         41.774929       41.896261   0.000000   0.000000
     27         43.454765       43.767187   0.000000   0.000000
     28         45.108607       47.794000   0.000000   0.000000
 
  0.2500000E+00  0.1666667E+00  0.0000000E+00  0.1041667E-01
      1          3.664665        3.866365   1.000000   1.000000
      2          4.733555        6.086154   1.000000   1.000000
      3          4.762295        6.103635   1.000000   1.000000
      4          5.118924        6.459551   1.000000   1.000000
      5          5.720370        7.416673   1.000000   1.000000
      6          6.084666        7.750995   1.000000   1.000000
      7          6.157576        7.853834   1.000000   1.000000
      8          6.763882        8.638228   1.000000   0.000000
      9          7.258598        9.200757   1.000000   0.000000
     10          7.397615        9.412318   1.000000   0.000000
     11          7.893879        9.664324   1.000000   0.000000
     12         14.685367       15.285082   0.000000   0.000000
     13         14.962186       15.517912   0.000000   0.000000
     14         16.970533       17.500325   0.000000   0.000000
     15         18.770023       19.157429   0.000000   0.000000
     16         24.333259       24.542405   0.000000   0.000000
     17         25.300498       25.675653   0.000000   0.000000
     18         26.300932       26.416181   0.000000   0.000000
     19         27.594366       27.937151   0.000000   0.000000
     20         33.385548       33.633888   0.000000   0.000000
     21         37.089083       36.968909   0.000000   0.000000
     22         37.790309       38.053487   0.000000   0.000000
     23         39.642892       39.775802   0.000000   0.000000
     24         40.131658       40.277216   0.000000   0.000000
     25         42.481106       42.718929   0.000000   0.000000
     26         43.640960       43.653850   0.000000   0.000000
     27         44.963672       45.791193   0.000000   0.000000
     28         45.131798       48.463299   0.000000   0.000000
 
  0.3333333E+00  0.1666667E+00  0.0000000E+00  0.1041667E-01
      1          4.312665        4.950764   1.000000   1.000000
      2          4.574192        5.931680   1.000000   1.000000
      3          4.579682        5.948248   1.000000   1.000000
      4          5.387088        6.465247   1.000000   1.000000
      5          5.686414        7.367793   1.000000   1.000000
      6          5.996650        7.645641   1.000000   1.000000
      7          6.246478        7.945895   1.000000   1.000000
      8          7.083745        8.999955   1.000000   0.000000
      9          7.395466        9.407104   1.000000   0.000000
     10          7.428015        9.409520   1.000000   0.000000
     11          8.962419       10.427424   0.000000   0.000000
     12         13.294459       13.987284   0.000000   0.000000
     13         16.532250       17.031809   0.000000   0.000000
     14         17.006865       17.466929   0.000000   0.000000
     15         18.077001       18.438082   0.000000   0.000000
     16         21.767727       22.117843   0.000000   0.000000
     17         22.549175       22.979297   0.000000   0.000000
     18         25.735032       25.836586   0.000000   0.000000
     19         26.898534       27.238501   0.000000   0.000000
     20         33.046514       33.314019   0.000000   0.000000
     21         37.829906       37.709214   0.000000   0.000000
     22         40.093558       40.189476   0.000000   0.000000
     23         41.027557       41.225520   0.000000   0.000000
     24         41.071032       41.234366   0.000000   0.000000
     25         42.571785       42.782005   0.000000   0.000000
     26         44.868899       46.199342   0.000000   0.000000
     27         45.271165       46.897051   0.000000   0.000000
     28         45.998367       46.924441   0.000000   0.000000
 
  0.4166667E+00  0.1666667E+00  0.0000000E+00  0.5208333E-02
      1          4.465945        5.434012   1.000000   1.000000
      2          4.500896        5.818619   1.000000   1.000000
      3          4.518649        5.904344   1.000000   1.000000
      4          5.576669        6.486602   1.000000   1.000000
      5          5.698198        7.398167   1.000000   1.000000
      6          5.913997        7.520634   1.000000   1.000000
      7          6.314777        8.032490   1.000000   1.000000
      8          7.298076        9.252827   1.000000   0.000000
      9          7.394457        9.391805   1.000000   0.000000
     10          7.410764        9.408185   1.000000   0.000000
     11         10.221687       11.262866   0.000000   0.000000
     12         11.470018       12.477024   0.000000   0.000000
     13         17.582533       17.948156   0.000000   0.000000
     14         17.851221       18.244649   0.000000   0.000000
     15         18.143389       18.486255   0.000000   0.000000
     16         20.210937       20.678311   0.000000   0.000000
     17         21.066672       21.560065   0.000000   0.000000
     18         25.545867       25.644924   0.000000   0.000000
     19         26.656084       26.991885   0.000000   0.000000
     20         32.917358       33.189733   0.000000   0.000000
     21         37.937798       37.838322   0.000000   0.000000
     22         40.725459       40.914522   0.000000   0.000000
     23         41.131746       41.118034   0.000000   0.000000
     24         42.835956       42.841853   0.000000   0.000000
     25         43.742549       44.152221   0.000000   0.000000
     26         44.688589       45.611850   0.000000   0.000000
     27         45.269975       45.668564   0.000000   0.000000
     28         45.367521       47.758187   0.000000   0.000000
 
  0.2500000E+00  0.2500000E+00  0.0000000E+00  0.5208333E-02
      1          4.415392        4.930488   1.000000   1.000000