PROCAR lm decomposed
# of k-points:   95         # of bands:   28         # of ions:    2

 k-point     1 :    0.00000000 0.00000000 0.00000000     weight = 0.00086806

band     1 # energy    0.27952141 # occ.  1.00000000
 
ion      s     py     pz     px    dxy    dyz    dz2    dxz  x2-y2    tot
    1  0.309  0.000  0.000  0.000  0.000  0.000  0.000  0.000  0.000  0.309
    2  0.309  0.000  0.000  0.000  0.000  0.000  0.000  0.000  0.000  0.309
tot    0.619  0.000  0.000  0.000  0.000  0.000  0.000  0.000  0.000  0.619
 
band     2 # energy    3.83478417 # occ.  1.00000000
 
ion      s     py     pz     px    dxy    dyz    dz2    dxz  x2-y2    tot
    1  0.067  0.000  0.000  0.000  0.000  0.000  0.358  0.000  0.000  0.425
    2  0.067  0.000  0.000  0.000  0.000  0.000  0.358  0.000  0.000  0.425
tot    0.134  0.000  0.000  0.000  0.000  0.000  0.715  0.000  0.000  0.850
 
band     3 # energy    5.90765816 # occ.  1.00000000
 
ion      s     py     pz     px    dxy    dyz    dz2    dxz  x2-y2    tot
    1  0.000  0.000  0.000  0.000  0.000  0.000  0.481  0.000  0.000  0.481
    2  0.000  0.000  0.000  0.000  0.000  0.000  0.481  0.000  0.000  0.481
tot    0.000  0.000  0.000  0.000  0.000  0.000  0.962  0.000  0.000  0.962
 
band     4 # energy    5.91665185 # occ.  1.00000000
 
ion      s     py     pz     px    dxy    dyz    dz2    dxz  x2-y2    tot
    1  0.000  0.000  0.000  0.000  0.000  0.000  0.000  0.000  0.478  0.478
    2  0.000  0.000  0.000  0.000  0.000  0.000  0.000  0.000  0.478  0.478
tot    0.000  0.001  0.000  0.000  0.000  0.000  0.000  0.000  0.956  0.956
 
band     5 # energy    5.91665249 # occ.  1.00000000
 
ion      s     py     pz     px    dxy    dyz    dz2    dxz  x2-y2    tot
    1  0.000  0.000  0.000  0.000  0.478  0.000  0.000  0.000  0.000  0.478
    2  0.000  0.000  0.000  0.000  0.478  0.000  0.000  0.000  0.000  0.478
tot    0.000  0.000  0.000  0.001  0.956  0.000  0.000  0.000  0.000  0.956
 
band     6 # energy    6.16144076 # occ.  1.00000000
 
ion      s     py     pz     px    dxy    dyz    dz2    dxz  x2-y2    tot
    1  0.000  0.001  0.000  0.000  0.000  0.000  0.000  0.000  0.483  0.483
    2  0.000  0.001  0.000  0.000  0.000  0.000  0.000  0.000  0.483  0.483
tot    0.000  0.001  0.000  0.000  0.000  0.000  0.000  0.000  0.966  0.967
 
band     7 # energy    6.16144138 # occ.  1.00000000
 
ion      s     py     pz     px    dxy    dyz    dz2    dxz  x2-y2    tot
    1  0.000  0.000  0.000  0.001  0.483  0.000  0.000  0.000  0.000  0.483
    2  0.000  0.000  0.000  0.001  0.483  0.000  0.000  0.000  0.000  0.483
tot    0.000  0.000  0.000  0.001  0.966  0.000  0.000  0.000  0.000  0.967
 
band     8 # energy    6.42334185 # occ.  1.00000000
 
ion      s     py     pz     px    dxy    dyz    dz2    dxz  x2-y2    tot
    1  0.000  0.000  0.000  0.000  0.000  0.487  0.000  0.000  0.000  0.487
    2  0.000  0.000  0.000  0.000  0.000  0.487  0.000  0.000  0.000  0.487
tot    0.000  0.000  0.000  0.000  0.000  0.973  0.000  0.000  0.000  0.973
 
band     9 # energy    6.42334191 # occ.  1.00000000
 
ion      s     py     pz     px    dxy    dyz    dz2    dxz  x2-y2    tot
    1  0.000  0.000  0.000  0.000  0.000  0.000  0.000  0.487  0.000  0.487
    2  0.000  0.000  0.000  0.000  0.000  0.000  0.000  0.487  0.000  0.487
tot    0.000  0.000  0.000  0.000  0.000  0.000  0.000  0.973  0.000  0.973
 
band    10 # energy    7.30959426 # occ.  1.00000000
 
ion      s     py     pz     px    dxy    dyz    dz2    dxz  x2-y2    tot
    1  0.000  0.000  0.000  0.000  0.000  0.492  0.000  0.000  0.000  0.492
    2  0.000  0.000  0.000  0.000  0.000  0.492  0.000  0.000  0.000  0.492
tot    0.000  0.000  0.000  0.000  0.000  0.984  0.000  0.000  0.000  0.984
 
band    11 # energy    7.30959426 # occ.  1.00000000
 
ion      s     py     pz     px    dxy    dyz    dz2    dxz  x2-y2    tot
    1  0.000  0.000  0.000  0.000  0.000  0.000  0.000  0.492  0.000  0.492
    2  0.000  0.000  0.000  0.000  0.000  0.000  0.000  0.492  0.000  0.492
tot    0.000  0.000  0.000  0.000  0.000  0.000  0.000  0.984  0.000  0.984
 
band    12 # energy    8.42442095 # occ.  0.04374495
 
ion      s     py     pz     px    dxy    dyz    dz2    dxz  x2-y2    tot
    1  0.000  0.000  0.289  0.000  0.000  0.000  0.000  0.000  0.000  0.289
    2  0.000  0.000  0.289  0.000  0.000  0.000  0.000  0.000  0.000  0.289
tot    0.000  0.000  0.578  0.000  0.000  0.000  0.000  0.000  0.000  0.578
 
band    13 # energy   13.56453759 # occ.  0.00000000
 
ion      s     py     pz     px    dxy    dyz    dz2    dxz  x2-y2    tot
    1  0.216  0.000  0.000  0.000  0.000  0.000  0.203  0.000  0.000  0.418
    2  0.216  0.000  0.000  0.000  0.000  0.000  0.203  0.000  0.000  0.418
tot    0.431  0.000  0.000  0.000  0.000  0.000  0.405  0.000  0.000  0.837
 
band    14 # energy   29.09929489 # occ.  0.00000000
 
ion      s     py     pz     px    dxy    dyz    dz2    dxz  x2-y2    tot
    1  0.007  0.000  0.000  0.000  0.000  0.000  0.032  0.000  0.000  0.039
    2  0.007  0.000  0.000  0.000  0.000  0.000  0.032  0.000  0.000  0.039
tot    0.013  0.000  0.000  0.000  0.000  0.000  0.064  0.000  0.000  0.077
 
band    15 # energy   30.33443267 # occ.  0.00000000
 
ion      s     py     pz     px    dxy    dyz    dz2    dxz  x2-y2    tot
    1  0.000  0.275  0.000  0.000  0.000  0.000  0.000  0.000  0.085  0.360
    2  0.000  0.275  0.000  0.000  0.000  0.000  0.000  0.000  0.085  0.360
tot    0.000  0.549  0.000  0.000  0.000  0.000  0.000  0.000  0.171  0.720
 
band    16 # energy   30.33443609 # occ.  0.00000000
 
ion      s     py     pz     px    dxy    dyz    dz2    dxz  x2-y2    tot
    1  0.000  0.000  0.000  0.275  0.085  0.000  0.000  0.000  0.000  0.360
    2  0.000  0.000  0.000  0.275  0.085  0.000  0.000  0.000  0.000  0.360
tot    0.000  0.000  0.000  0.549  0.171  0.000  0.000  0.000  0.000  0.720
 
band    17 # energy   31.78367179 # occ.  0.00000000
 
ion      s     py     pz     px    dxy    dyz    dz2    dxz  x2-y2    tot
    1  0.026  0.000  0.000  0.000  0.000  0.000  0.072  0.000  0.000  0.099
    2  0.026  0.000  0.000  0.000  0.000  0.000  0.072  0.000  0.000  0.099
tot    0.052  0.000  0.000  0.000  0.000  0.000  0.145  0.000  0.000  0.197
 
band    18 # energy   31.83327281 # occ.  0.00000000
 
ion      s     py     pz     px    dxy    dyz    dz2    dxz  x2-y2    tot
    1  0.000  0.099  0.000  0.000  0.000  0.000  0.000  0.000  0.293  0.392
    2  0.000  0.099  0.000  0.000  0.000  0.000  0.000  0.000  0.293  0.392
tot    0.000  0.199  0.000  0.000  0.000  0.000  0.000  0.000  0.586  0.785
 
band    19 # energy   31.83327755 # occ.  0.00000000
 
ion      s     py     pz     px    dxy    dyz    dz2    dxz  x2-y2    tot
    1  0.000  0.000  0.000  0.099  0.293  0.000  0.000  0.000  0.000  0.392
    2  0.000  0.000  0.000  0.099  0.293  0.000  0.000  0.000  0.000  0.392
tot    0.000  0.000  0.000  0.199  0.586  0.000  0.000  0.000  0.000  0.785
 
band    20 # energy   32.32624555 # occ.  0.00000000
 
ion      s     py     pz     px    dxy    dyz    dz2    dxz  x2-y2    tot
    1  0.000  0.000  0.041  0.000  0.000  0.000  0.000  0.000  0.000  0.041
    2  0.000  0.000  0.041  0.000  0.000  0.000  0.000  0.000  0.000  0.041
tot    0.000  0.000  0.082  0.000  0.000  0.000  0.000  0.000  0.000  0.082
 
band    21 # energy   36.74814481 # occ.  0.00000000
 
ion      s     py     pz     px    dxy    dyz    dz2    dxz  x2-y2    tot
    1  0.000  0.000  0.000  0.000  0.000  0.117  0.000  0.000  0.000  0.117
    2  0.000  0.000  0.000  0.000  0.000  0.117  0.000  0.000  0.000  0.117
tot    0.000  0.000  0.000  0.000  0.000  0.233  0.000  0.000  0.000  0.233
 
band    22 # energy   36.74814635 # occ.  0.00000000
 
ion      s     py     pz     px    dxy    dyz    dz2    dxz  x2-y2    tot
    1  0.000  0.000  0.000  0.000  0.000  0.000  0.000  0.117  0.000  0.117
    2  0.000  0.000  0.000  0.000  0.000  0.000  0.000  0.117  0.000  0.117
tot    0.000  0.000  0.000  0.000  0.000  0.000  0.000  0.233  0.000  0.233
 
band    23 # energy   36.93702779 # occ.  0.00000000
 
ion      s     py     pz     px    dxy    dyz    dz2    dxz  x2-y2    tot
    1  0.003  0.000  0.000  0.000  0.000  0.000  0.499  0.000  0.000  0.501
    2  0.003  0.000  0.000  0.000  0.000  0.000  0.499  0.000  0.000  0.501
tot    0.005  0.000  0.000  0.000  0.000  0.000  0.998  0.000  0.000  1.003
 
band    24 # energy   37.98867318 # occ.  0.00000000
 
ion      s     py     pz     px    dxy    dyz    dz2    dxz  x2-y2    tot
    1  0.000  0.000  0.047  0.000  0.000  0.000  0.000  0.000  0.000  0.047
    2  0.000  0.000  0.047  0.000  0.000  0.000  0.000  0.000  0.000  0.047
tot    0.000  0.000  0.093  0.000  0.000  0.000  0.000  0.000  0.000  0.093
 
band    25 # energy   38.97375824 # occ.  0.00000000
 
ion      s     py     pz     px    dxy    dyz    dz2    dxz  x2-y2    tot
    1  0.000  0.000  0.343  0.000  0.000  0.000  0.000  0.000  0.000  0.343
    2  0.000  0.000  0.343  0.000  0.000  0.000  0.000  0.000  0.000  0.343
tot    0.000  0.000  0.687  0.000  0.000  0.000  0.000  0.000  0.000  0.687
 
band    26 # energy   39.15575108 # occ.  0.00000000
 
ion      s     py     pz     px    dxy    dyz    dz2    dxz  x2-y2    tot
    1  0.000  0.000  0.000  0.000  0.000  0.439  0.000  0.000  0.000  0.439
    2  0.000  0.000  0.000  0.000  0.000  0.439  0.000  0.000  0.000  0.439
tot    0.000  0.000  0.000  0.000  0.000  0.877  0.000  0.000  0.000  0.877
 
band    27 # energy   39.15575187 # occ.  0.00000000
 
ion      s     py     pz     px    dxy    dyz    dz2    dxz  x2-y2    tot
    1  0.000  0.000  0.000  0.000  0.000  0.000  0.000  0.439  0.000  0.439
    2  0.000  0.000  0.000  0.000  0.000  0.000  0.000  0.439  0.000  0.439
tot    0.000  0.000  0.000  0.000  0.000  0.000  0.000  0.877  0.000  0.877
 
band    28 # energy   40.75362592 # occ.  0.00000000
 
ion      s     py     pz     px    dxy    dyz    dz2    dxz  x2-y2    tot
    1  0.000  0.088  0.000  0.007  0.036  0.000  0.000  0.000  0.436  0.567
    2  0.000  0.088  0.000  0.007  0.036  0.000  0.000  0.000  0.436  0.567
tot    0.000  0.176  0.000  0.014  0.071  0.000  0.000  0.000  0.872  1.134
 

 k-point     2 :    0.08333333 0.00000000 0.00000000     weight = 0.00520833

band     1 # energy    0.49744393 # occ.  1.00000000
 
ion      s     py     pz     px    dxy    dyz    dz2    dxz  x2-y2    tot
    1  0.303  0.002  0.000  0.005  0.000  0.000  0.000  0.000  0.000  0.310
    2  0.303  0.002  0.000  0.005  0.000  0.000  0.000  0.000  0.000  0.310
tot    0.606  0.003  0.000  0.010  0.000  0.000  0.000  0.000  0.000  0.619
 
band     2 # energy    3.95809821 # occ.  1.00000000
 
ion      s     py     pz     px    dxy    dyz    dz2    dxz  x2-y2    tot
    1  0.061  0.001  0.000  0.003  0.002  0.000  0.359  0.000  0.001  0.427
    2  0.061  0.001  0.000  0.003  0.002  0.000  0.359  0.000  0.001  0.427
tot    0.122  0.002  0.000  0.006  0.004  0.000  0.719  0.000  0.001  0.853
 
band     3 # energy    5.73431831 # occ.  1.00000000
 
ion      s     py     pz     px    dxy    dyz    dz2    dxz  x2-y2    tot
    1  0.000  0.000  0.000  0.001  0.233  0.000  0.163  0.000  0.078  0.476
    2  0.000  0.000  0.000  0.001  0.233  0.000  0.163  0.000  0.078  0.476
tot    0.000  0.000  0.000  0.001  0.467  0.000  0.327  0.000  0.156  0.951
 
band     4 # energy    6.00701941 # occ.  1.00000000
 
ion      s     py     pz     px    dxy    dyz    dz2    dxz  x2-y2    tot
    1  0.000  0.001  0.000  0.000  0.120  0.000  0.000  0.000  0.359  0.479
    2  0.000  0.001  0.000  0.000  0.120  0.000  0.000  0.000  0.359  0.479
tot    0.000  0.001  0.000  0.000  0.239  0.000  0.000  0.000  0.717  0.957
 
band     5 # energy    6.06239639 # occ.  1.00000000
 
ion      s     py     pz     px    dxy    dyz    dz2    dxz  x2-y2    tot
    1  0.000  0.000  0.000  0.000  0.154  0.000  0.275  0.000  0.051  0.482
    2  0.000  0.000  0.000  0.000  0.154  0.000  0.275  0.000  0.051  0.482
tot    0.000  0.000  0.000  0.001  0.309  0.000  0.551  0.000  0.103  0.963
 
band     6 # energy    6.12749141 # occ.  1.00000000
 
ion      s     py     pz     px    dxy    dyz    dz2    dxz  x2-y2    tot
    1  0.001  0.000  0.000  0.000  0.327  0.000  0.044  0.000  0.109  0.482
    2  0.001  0.000  0.000  0.000  0.327  0.000  0.044  0.000  0.109  0.482
tot    0.002  0.000  0.000  0.001  0.655  0.000  0.088  0.000  0.218  0.964
 
band     7 # energy    6.24120293 # occ.  1.00000000
 
ion      s     py     pz     px    dxy    dyz    dz2    dxz  x2-y2    tot
    1  0.000  0.001  0.000  0.000  0.121  0.000  0.000  0.000  0.362  0.484
    2  0.000  0.001  0.000  0.000  0.121  0.000  0.000  0.000  0.362  0.484
tot    0.000  0.001  0.000  0.000  0.241  0.000  0.000  0.000  0.724  0.967
 
band     8 # energy    6.31664579 # occ.  1.00000000
 
ion      s     py     pz     px    dxy    dyz    dz2    dxz  x2-y2    tot
    1  0.000  0.000  0.005  0.000  0.000  0.119  0.000  0.356  0.000  0.480
    2  0.000  0.000  0.005  0.000  0.000  0.119  0.000  0.356  0.000  0.480
tot    0.000  0.000  0.010  0.000  0.000  0.238  0.000  0.713  0.000  0.960
 
band     9 # energy    6.36836955 # occ.  1.00000000
 
ion      s     py     pz     px    dxy    dyz    dz2    dxz  x2-y2    tot
    1  0.000  0.000  0.000  0.000  0.000  0.364  0.000  0.121  0.000  0.486
    2  0.000  0.000  0.000  0.000  0.000  0.364  0.000  0.121  0.000  0.486
tot    0.000  0.000  0.000  0.000  0.000  0.728  0.000  0.243  0.000  0.971
 
band    10 # energy    6.78385667 # occ.  1.00000000
 
ion      s     py     pz     px    dxy    dyz    dz2    dxz  x2-y2    tot
    1  0.000  0.000  0.055  0.000  0.000  0.098  0.000  0.294  0.000  0.447
    2  0.000  0.000  0.055  0.000  0.000  0.098  0.000  0.294  0.000  0.447
tot    0.000  0.000  0.110  0.000  0.000  0.196  0.000  0.587  0.000  0.893
 
band    11 # energy    7.33278980 # occ.  1.00000000
 
ion      s     py     pz     px    dxy    dyz    dz2    dxz  x2-y2    tot
    1  0.000  0.000  0.000  0.000  0.000  0.369  0.000  0.123  0.000  0.492
    2  0.000  0.000  0.000  0.000  0.000  0.369  0.000  0.123  0.000  0.492
tot    0.000  0.000  0.000  0.000  0.000  0.738  0.000  0.246  0.000  0.985
 
band    12 # energy    9.21989143 # occ.  0.00000000
 
ion      s     py     pz     px    dxy    dyz    dz2    dxz  x2-y2    tot
    1  0.000  0.000  0.226  0.000  0.000  0.028  0.000  0.085  0.000  0.340
    2  0.000  0.000  0.226  0.000  0.000  0.028  0.000  0.085  0.000  0.340
tot    0.000  0.000  0.453  0.000  0.000  0.057  0.000  0.170  0.000  0.680
 
band    13 # energy   13.61662147 # occ.  0.00000000
 
ion      s     py     pz     px    dxy    dyz    dz2    dxz  x2-y2    tot
    1  0.213  0.001  0.000  0.004  0.000  0.000  0.197  0.000  0.000  0.416
    2  0.213  0.001  0.000  0.004  0.000  0.000  0.197  0.000  0.000  0.416
tot    0.425  0.003  0.000  0.009  0.000  0.000  0.393  0.000  0.000  0.831
 
band    14 # energy   26.73069026 # occ.  0.00000000
 
ion      s     py     pz     px    dxy    dyz    dz2    dxz  x2-y2    tot
    1  0.017  0.032  0.000  0.097  0.091  0.000  0.019  0.000  0.030  0.287
    2  0.017  0.032  0.000  0.097  0.091  0.000  0.019  0.000  0.030  0.287
tot    0.033  0.065  0.000  0.195  0.183  0.000  0.039  0.000  0.061  0.575
 
band    15 # energy   28.50005971 # occ.  0.00000000
 
ion      s     py     pz     px    dxy    dyz    dz2    dxz  x2-y2    tot
    1  0.000  0.177  0.000  0.059  0.031  0.000  0.000  0.000  0.092  0.359
    2  0.000  0.177  0.000  0.059  0.031  0.000  0.000  0.000  0.092  0.359
tot    0.000  0.354  0.000  0.118  0.062  0.000  0.000  0.000  0.185  0.718
 
band    16 # energy   29.03475266 # occ.  0.00000000
 
ion      s     py     pz     px    dxy    dyz    dz2    dxz  x2-y2    tot
    1  0.020  0.017  0.000  0.052  0.052  0.000  0.036  0.000  0.017  0.195
    2  0.020  0.017  0.000  0.052  0.052  0.000  0.036  0.000  0.017  0.195
tot    0.040  0.035  0.000  0.104  0.104  0.000  0.072  0.000  0.035  0.390
 
band    17 # energy   32.34366626 # occ.  0.00000000
 
ion      s     py     pz     px    dxy    dyz    dz2    dxz  x2-y2    tot
    1  0.000  0.000  0.014  0.000  0.000  0.012  0.000  0.035  0.000  0.060
    2  0.000  0.000  0.014  0.000  0.000  0.012  0.000  0.035  0.000  0.060
tot    0.000  0.000  0.028  0.000  0.000  0.023  0.000  0.070  0.000  0.121
 
band    18 # energy   32.44706924 # occ.  0.00000000
 
ion      s     py     pz     px    dxy    dyz    dz2    dxz  x2-y2    tot
    1  0.005  0.013  0.000  0.040  0.031  0.000  0.037  0.000  0.010  0.137
    2  0.005  0.013  0.000  0.040  0.031  0.000  0.037  0.000  0.010  0.137
tot    0.010  0.027  0.000  0.080  0.062  0.000  0.073  0.000  0.021  0.273
 
band    19 # energy   33.77206388 # occ.  0.00000000
 
ion      s     py     pz     px    dxy    dyz    dz2    dxz  x2-y2    tot
    1  0.000  0.000  0.040  0.000  0.000  0.025  0.000  0.076  0.000  0.142
    2  0.000  0.000  0.040  0.000  0.000  0.025  0.000  0.076  0.000  0.142
tot    0.000  0.000  0.081  0.000  0.000  0.051  0.000  0.153  0.000  0.285
 
band    20 # energy   33.92023251 # occ.  0.00000000
 
ion      s     py     pz     px    dxy    dyz    dz2    dxz  x2-y2    tot
    1  0.000  0.100  0.000  0.033  0.064  0.000  0.000  0.000  0.193  0.390
    2  0.000  0.100  0.000  0.033  0.064  0.000  0.000  0.000  0.193  0.390
tot    0.000  0.199  0.000  0.066  0.129  0.000  0.000  0.000  0.387  0.781
 
band    21 # energy   34.63656546 # occ.  0.00000000
 
ion      s     py     pz     px    dxy    dyz    dz2    dxz  x2-y2    tot
    1  0.006  0.047  0.000  0.141  0.069  0.000  0.007  0.000  0.023  0.294
    2  0.006  0.047  0.000  0.141  0.069  0.000  0.007  0.000  0.023  0.294
tot    0.011  0.094  0.000  0.283  0.139  0.000  0.014  0.000  0.046  0.587
 
band    22 # energy   36.10567985 # occ.  0.00000000
 
ion      s     py     pz     px    dxy    dyz    dz2    dxz  x2-y2    tot
    1  0.000  0.000  0.000  0.000  0.000  0.171  0.000  0.057  0.000  0.228
    2  0.000  0.000  0.000  0.000  0.000  0.171  0.000  0.057  0.000  0.228
tot    0.000  0.000  0.000  0.000  0.000  0.341  0.000  0.114  0.000  0.455
 
band    23 # energy   36.45460830 # occ.  0.00000000
 
ion      s     py     pz     px    dxy    dyz    dz2    dxz  x2-y2    tot
    1  0.000  0.000  0.220  0.000  0.000  0.026  0.000  0.079  0.000  0.326
    2  0.000  0.000  0.220  0.000  0.000  0.026  0.000  0.079  0.000  0.326
tot    0.000  0.000  0.440  0.000  0.000  0.053  0.000  0.159  0.000  0.651
 
band    24 # energy   36.50457947 # occ.  0.00000000
 
ion      s     py     pz     px    dxy    dyz    dz2    dxz  x2-y2    tot
    1  0.001  0.007  0.000  0.021  0.065  0.000  0.362  0.000  0.022  0.478
    2  0.001  0.007  0.000  0.021  0.065  0.000  0.362  0.000  0.022  0.478
tot    0.002  0.014  0.000  0.042  0.129  0.000  0.724  0.000  0.043  0.955
 
band    25 # energy   38.22395207 # occ.  0.00000000
 
ion      s     py     pz     px    dxy    dyz    dz2    dxz  x2-y2    tot
    1  0.000  0.174  0.000  0.058  0.061  0.000  0.000  0.000  0.183  0.476
    2  0.000  0.174  0.000  0.058  0.061  0.000  0.000  0.000  0.183  0.476
tot    0.000  0.348  0.000  0.116  0.122  0.000  0.000  0.000  0.366  0.952
 
band    26 # energy   38.55345768 # occ.  0.00000000
 
ion      s     py     pz     px    dxy    dyz    dz2    dxz  x2-y2    tot
    1  0.046  0.023  0.000  0.069  0.180  0.000  0.122  0.000  0.060  0.500
    2  0.046  0.023  0.000  0.069  0.180  0.000  0.122  0.000  0.060  0.500
tot    0.092  0.046  0.000  0.138  0.359  0.000  0.243  0.000  0.120  0.999
 
band    27 # energy   40.19017436 # occ.  0.00000000
 
ion      s     py     pz     px    dxy    dyz    dz2    dxz  x2-y2    tot
    1  0.000  0.000  0.000  0.000  0.000  0.244  0.000  0.081  0.000  0.326
    2  0.000  0.000  0.000  0.000  0.000  0.244  0.000  0.081  0.000  0.326
tot    0.000  0.000  0.000  0.000  0.000  0.488  0.000  0.163  0.000  0.651
 
band    28 # energy   40.76844637 # occ.  0.00000000
 
ion      s     py     pz     px    dxy    dyz    dz2    dxz  x2-y2    tot
    1  0.000  0.000  0.065  0.000  0.000  0.018  0.000  0.055  0.000  0.139
    2  0.000  0.000  0.065  0.000  0.000  0.018  0.000  0.055  0.000  0.139
tot    0.000  0.000  0.130  0.000  0.000  0.037  0.000  0.111  0.000  0.278
 

 k-point     3 :    0.16666667 0.00000000 0.00000000     weight = 0.00520833

band     1 # energy    1.13093282 # occ.  1.00000000
 
ion      s     py     pz     px    dxy    dyz    dz2    dxz  x2-y2    tot
    1  0.284  0.006  0.000  0.018  0.002  0.000  0.001  0.000  0.001  0.311
    2  0.284  0.006  0.000  0.018  0.002  0.000  0.001  0.000  0.001  0.311
tot    0.567  0.012  0.000  0.036  0.003  0.000  0.002  0.000  0.001  0.622
 
band     2 # energy    4.26291286 # occ.  1.00000000
 
ion      s     py     pz     px    dxy    dyz    dz2    dxz  x2-y2    tot
    1  0.043  0.003  0.000  0.009  0.018  0.000  0.353  0.000  0.006  0.432
    2  0.043  0.003  0.000  0.009  0.018  0.000  0.353  0.000  0.006  0.432
tot    0.087  0.006  0.000  0.018  0.036  0.000  0.706  0.000  0.012  0.865
 
band     3 # energy    5.52362204 # occ.  1.00000000
 
ion      s     py     pz     px    dxy    dyz    dz2    dxz  x2-y2    tot
    1  0.000  0.001  0.000  0.003  0.261  0.000  0.116  0.000  0.087  0.468
    2  0.000  0.001  0.000  0.003  0.261  0.000  0.116  0.000  0.087  0.468
tot    0.000  0.002  0.000  0.006  0.522  0.000  0.232  0.000  0.174  0.936
 
band     4 # energy    5.80041638 # occ.  1.00000000
 
ion      s     py     pz     px    dxy    dyz    dz2    dxz  x2-y2    tot
    1  0.000  0.000  0.039  0.000  0.000  0.101  0.000  0.304  0.000  0.445
    2  0.000  0.000  0.039  0.000  0.000  0.101  0.000  0.304  0.000  0.445
tot    0.000  0.000  0.078  0.000  0.000  0.203  0.000  0.608  0.000  0.889
 
band     5 # energy    5.99479083 # occ.  1.00000000
 
ion      s     py     pz     px    dxy    dyz    dz2    dxz  x2-y2    tot
    1  0.003  0.000  0.000  0.001  0.314  0.000  0.055  0.000  0.105  0.478
    2  0.003  0.000  0.000  0.001  0.314  0.000  0.055  0.000  0.105  0.478
tot    0.007  0.001  0.000  0.002  0.627  0.000  0.110  0.000  0.209  0.956
 
band     6 # energy    6.23187328 # occ.  1.00000000
 
ion      s     py     pz     px    dxy    dyz    dz2    dxz  x2-y2    tot
    1  0.000  0.000  0.000  0.000  0.000  0.363  0.000  0.121  0.000  0.483
    2  0.000  0.000  0.000  0.000  0.000  0.363  0.000  0.121  0.000  0.483
tot    0.000  0.000  0.000  0.000  0.000  0.725  0.000  0.242  0.000  0.967
 
band     7 # energy    6.26148773 # occ.  1.00000000
 
ion      s     py     pz     px    dxy    dyz    dz2    dxz  x2-y2    tot
    1  0.000  0.001  0.000  0.000  0.120  0.000  0.000  0.000  0.359  0.481
    2  0.000  0.001  0.000  0.000  0.120  0.000  0.000  0.000  0.359  0.481
tot    0.000  0.002  0.000  0.001  0.240  0.000  0.000  0.000  0.719  0.961
 
band     8 # energy    6.30520242 # occ.  1.00000000
 
ion      s     py     pz     px    dxy    dyz    dz2    dxz  x2-y2    tot
    1  0.001  0.000  0.000  0.001  0.113  0.000  0.329  0.000  0.038  0.483
    2  0.001  0.000  0.000  0.001  0.113  0.000  0.329  0.000  0.038  0.483
tot    0.002  0.001  0.000  0.002  0.227  0.000  0.658  0.000  0.076  0.965
 
band     9 # energy    6.43242665 # occ.  1.00000000
 
ion      s     py     pz     px    dxy    dyz    dz2    dxz  x2-y2    tot
    1  0.000  0.000  0.027  0.000  0.000  0.110  0.000  0.329  0.000  0.466
    2  0.000  0.000  0.027  0.000  0.000  0.110  0.000  0.329  0.000  0.466
tot    0.000  0.000  0.055  0.000  0.000  0.219  0.000  0.658  0.000  0.932
 
band    10 # energy    6.46414787 # occ.  1.00000000
 
ion      s     py     pz     px    dxy    dyz    dz2    dxz  x2-y2    tot
    1  0.000  0.001  0.000  0.000  0.121  0.000  0.000  0.000  0.363  0.485
    2  0.000  0.001  0.000  0.000  0.121  0.000  0.000  0.000  0.363  0.485
tot    0.000  0.002  0.000  0.001  0.242  0.000  0.000  0.000  0.726  0.970
 
band    11 # energy    7.38242993 # occ.  1.00000000
 
ion      s     py     pz     px    dxy    dyz    dz2    dxz  x2-y2    tot
    1  0.000  0.000  0.000  0.000  0.000  0.370  0.000  0.123  0.000  0.493
    2  0.000  0.000  0.000  0.000  0.000  0.370  0.000  0.123  0.000  0.493
tot    0.000  0.000  0.000  0.000  0.000  0.740  0.000  0.247  0.000  0.987
 
band    12 # energy   10.58232375 # occ.  0.00000000
 
ion      s     py     pz     px    dxy    dyz    dz2    dxz  x2-y2    tot
    1  0.000  0.000  0.214  0.000  0.000  0.035  0.000  0.106  0.000  0.356
    2  0.000  0.000  0.214  0.000  0.000  0.035  0.000  0.106  0.000  0.356
tot    0.000  0.000  0.428  0.000  0.000  0.071  0.000  0.212  0.000  0.711
 
band    13 # energy   13.79489839 # occ.  0.00000000
 
ion      s     py     pz     px    dxy    dyz    dz2    dxz  x2-y2    tot
    1  0.201  0.007  0.000  0.020  0.001  0.000  0.178  0.000  0.000  0.407
    2  0.201  0.007  0.000  0.020  0.001  0.000  0.178  0.000  0.000  0.407
tot    0.403  0.013  0.000  0.039  0.001  0.000  0.357  0.000  0.000  0.813
 
band    14 # energy   22.99762185 # occ.  0.00000000
 
ion      s     py     pz     px    dxy    dyz    dz2    dxz  x2-y2    tot
    1  0.044  0.038  0.000  0.114  0.089  0.000  0.020  0.000  0.030  0.333
    2  0.044  0.038  0.000  0.114  0.089  0.000  0.020  0.000  0.030  0.333
tot    0.088  0.076  0.000  0.227  0.177  0.000  0.039  0.000  0.059  0.667
 
band    15 # energy   26.35539495 # occ.  0.00000000
 
ion      s     py     pz     px    dxy    dyz    dz2    dxz  x2-y2    tot
    1  0.000  0.186  0.000  0.062  0.024  0.000  0.000  0.000  0.073  0.345
    2  0.000  0.186  0.000  0.062  0.024  0.000  0.000  0.000  0.073  0.345
tot    0.000  0.372  0.000  0.124  0.049  0.000  0.000  0.000  0.146  0.690
 
band    16 # energy   28.17434839 # occ.  0.00000000
 
ion      s     py     pz     px    dxy    dyz    dz2    dxz  x2-y2    tot
    1  0.023  0.005  0.000  0.014  0.121  0.000  0.043  0.000  0.040  0.246
    2  0.023  0.005  0.000  0.014  0.121  0.000  0.043  0.000  0.040  0.246
tot    0.047  0.009  0.000  0.027  0.242  0.000  0.087  0.000  0.081  0.493
 
band    17 # energy   30.00325588 # occ.  0.00000000
 
ion      s     py     pz     px    dxy    dyz    dz2    dxz  x2-y2    tot
    1  0.000  0.000  0.047  0.000  0.000  0.046  0.000  0.139  0.000  0.233
    2  0.000  0.000  0.047  0.000  0.000  0.046  0.000  0.139  0.000  0.233
tot    0.000  0.000  0.094  0.000  0.000  0.093  0.000  0.279  0.000  0.466
 
band    18 # energy   32.20184709 # occ.  0.00000000
 
ion      s     py     pz     px    dxy    dyz    dz2    dxz  x2-y2    tot
    1  0.043  0.050  0.000  0.150  0.046  0.000  0.033  0.000  0.015  0.336
    2  0.043  0.050  0.000  0.150  0.046  0.000  0.033  0.000  0.015  0.336
tot    0.085  0.100  0.000  0.299  0.092  0.000  0.065  0.000  0.031  0.672
 
band    19 # energy   32.44397712 # occ.  0.00000000
 
ion      s     py     pz     px    dxy    dyz    dz2    dxz  x2-y2    tot
    1  0.000  0.000  0.009  0.000  0.000  0.012  0.000  0.035  0.000  0.056
    2  0.000  0.000  0.009  0.000  0.000  0.012  0.000  0.035  0.000  0.056
tot    0.000  0.000  0.019  0.000  0.000  0.023  0.000  0.069  0.000  0.111
 
band    20 # energy   34.36796308 # occ.  0.00000000
 
ion      s     py     pz     px    dxy    dyz    dz2    dxz  x2-y2    tot
    1  0.019  0.031  0.000  0.094  0.005  0.000  0.059  0.000  0.002  0.209
    2  0.019  0.031  0.000  0.094  0.005  0.000  0.059  0.000  0.002  0.209
tot    0.038  0.063  0.000  0.188  0.009  0.000  0.117  0.000  0.003  0.418
 
band    21 # energy   35.18323381 # occ.  0.00000000
 
ion      s     py     pz     px    dxy    dyz    dz2    dxz  x2-y2    tot
    1  0.000  0.000  0.000  0.000  0.000  0.242  0.000  0.081  0.000  0.323
    2  0.000  0.000  0.000  0.000  0.000  0.242  0.000  0.081  0.000  0.323
tot    0.000  0.000  0.000  0.000  0.000  0.484  0.000  0.161  0.000  0.646
 
band    22 # energy   35.28129561 # occ.  0.00000000
 
ion      s     py     pz     px    dxy    dyz    dz2    dxz  x2-y2    tot
    1  0.000  0.000  0.249  0.000  0.000  0.003  0.000  0.009  0.000  0.261
    2  0.000  0.000  0.249  0.000  0.000  0.003  0.000  0.009  0.000  0.261
tot    0.000  0.000  0.497  0.000  0.000  0.006  0.000  0.018  0.000  0.521
 
band    23 # energy   35.79100925 # occ.  0.00000000
 
ion      s     py     pz     px    dxy    dyz    dz2    dxz  x2-y2    tot
    1  0.000  0.144  0.000  0.048  0.059  0.000  0.000  0.000  0.177  0.428
    2  0.000  0.144  0.000  0.048  0.059  0.000  0.000  0.000  0.177  0.428
tot    0.000  0.289  0.000  0.096  0.118  0.000  0.000  0.000  0.354  0.857
 
band    24 # energy   36.87399383 # occ.  0.00000000
 
ion      s     py     pz     px    dxy    dyz    dz2    dxz  x2-y2    tot
    1  0.000  0.141  0.000  0.047  0.050  0.000  0.000  0.000  0.150  0.388
    2  0.000  0.141  0.000  0.047  0.050  0.000  0.000  0.000  0.150  0.388
tot    0.000  0.282  0.000  0.094  0.100  0.000  0.000  0.000  0.299  0.775
 
band    25 # energy   37.70123461 # occ.  0.00000000
 
ion      s     py     pz     px    dxy    dyz    dz2    dxz  x2-y2    tot
    1  0.036  0.005  0.000  0.015  0.041  0.000  0.343  0.000  0.014  0.453
    2  0.036  0.005  0.000  0.015  0.041  0.000  0.343  0.000  0.014  0.453
tot    0.071  0.010  0.000  0.029  0.082  0.000  0.686  0.000  0.027  0.906
 
band    26 # energy   40.03144841 # occ.  0.00000000
 
ion      s     py     pz     px    dxy    dyz    dz2    dxz  x2-y2    tot
    1  0.020  0.002  0.000  0.006  0.164  0.000  0.032  0.000  0.055  0.280
    2  0.020  0.002  0.000  0.006  0.164  0.000  0.032  0.000  0.055  0.280
tot    0.039  0.004  0.000  0.013  0.329  0.000  0.064  0.000  0.110  0.559
 
band    27 # energy   42.27626709 # occ.  0.00000000
 
ion      s     py     pz     px    dxy    dyz    dz2    dxz  x2-y2    tot
    1  0.000  0.000  0.000  0.000  0.000  0.168  0.000  0.056  0.000  0.224