PROCAR lm decomposed
# of k-points:   95         # of bands:   24         # of ions:    2

 k-point     1 :    0.00000000 0.00000000 0.00000000     weight = 0.00086806

band     1 # energy    0.97920893 # occ.  1.00000000
 
ion      s     py     pz     px    dxy    dyz    dz2    dxz  x2-y2    tot
    1  0.344  0.000  0.000  0.000  0.000  0.000  0.000  0.000  0.000  0.344
    2  0.344  0.000  0.000  0.000  0.000  0.000  0.000  0.000  0.000  0.344
tot    0.688  0.000  0.000  0.000  0.000  0.000  0.000  0.000  0.000  0.688
 
band     2 # energy    4.68615497 # occ.  1.00000000
 
ion      s     py     pz     px    dxy    dyz    dz2    dxz  x2-y2    tot
    1  0.075  0.000  0.000  0.000  0.000  0.000  0.363  0.000  0.000  0.439
    2  0.075  0.000  0.000  0.000  0.000  0.000  0.363  0.000  0.000  0.439
tot    0.150  0.000  0.000  0.000  0.000  0.000  0.727  0.000  0.000  0.877
 
band     3 # energy    7.05624346 # occ.  1.00000000
 
ion      s     py     pz     px    dxy    dyz    dz2    dxz  x2-y2    tot
    1  0.000  0.000  0.000  0.000  0.000  0.000  0.484  0.000  0.000  0.484
    2  0.000  0.000  0.000  0.000  0.000  0.000  0.484  0.000  0.000  0.484
tot    0.000  0.000  0.000  0.000  0.000  0.000  0.969  0.000  0.000  0.969
 
band     4 # energy    7.06624765 # occ.  1.00000000
 
ion      s     py     pz     px    dxy    dyz    dz2    dxz  x2-y2    tot
    1  0.000  0.000  0.000  0.000  0.000  0.000  0.000  0.000  0.481  0.481
    2  0.000  0.000  0.000  0.000  0.000  0.000  0.000  0.000  0.481  0.481
tot    0.000  0.001  0.000  0.000  0.000  0.000  0.000  0.000  0.961  0.962
 
band     5 # energy    7.06624785 # occ.  1.00000000
 
ion      s     py     pz     px    dxy    dyz    dz2    dxz  x2-y2    tot
    1  0.000  0.000  0.000  0.000  0.481  0.000  0.000  0.000  0.000  0.481
    2  0.000  0.000  0.000  0.000  0.481  0.000  0.000  0.000  0.000  0.481
tot    0.000  0.000  0.000  0.001  0.961  0.000  0.000  0.000  0.000  0.962
 
band     6 # energy    7.35612904 # occ.  1.00000000
 
ion      s     py     pz     px    dxy    dyz    dz2    dxz  x2-y2    tot
    1  0.000  0.001  0.000  0.000  0.000  0.000  0.000  0.000  0.485  0.486
    2  0.000  0.001  0.000  0.000  0.000  0.000  0.000  0.000  0.485  0.486
tot    0.000  0.001  0.000  0.000  0.000  0.000  0.000  0.000  0.971  0.972
 
band     7 # energy    7.35612926 # occ.  1.00000000
 
ion      s     py     pz     px    dxy    dyz    dz2    dxz  x2-y2    tot
    1  0.000  0.000  0.000  0.001  0.485  0.000  0.000  0.000  0.000  0.486
    2  0.000  0.000  0.000  0.001  0.485  0.000  0.000  0.000  0.000  0.486
tot    0.000  0.000  0.000  0.001  0.971  0.000  0.000  0.000  0.000  0.972
 
band     8 # energy    7.66952453 # occ.  1.00000000
 
ion      s     py     pz     px    dxy    dyz    dz2    dxz  x2-y2    tot
    1  0.000  0.000  0.000  0.000  0.000  0.489  0.000  0.000  0.000  0.489
    2  0.000  0.000  0.000  0.000  0.000  0.489  0.000  0.000  0.000  0.489
tot    0.000  0.000  0.000  0.000  0.000  0.977  0.000  0.000  0.000  0.977
 
band     9 # energy    7.66952453 # occ.  1.00000000
 
ion      s     py     pz     px    dxy    dyz    dz2    dxz  x2-y2    tot
    1  0.000  0.000  0.000  0.000  0.000  0.000  0.000  0.489  0.000  0.489
    2  0.000  0.000  0.000  0.000  0.000  0.000  0.000  0.489  0.000  0.489
tot    0.000  0.000  0.000  0.000  0.000  0.000  0.000  0.977  0.000  0.977
 
band    10 # energy    8.70129592 # occ.  1.00000000
 
ion      s     py     pz     px    dxy    dyz    dz2    dxz  x2-y2    tot
    1  0.000  0.000  0.000  0.000  0.000  0.000  0.000  0.492  0.000  0.492
    2  0.000  0.000  0.000  0.000  0.000  0.000  0.000  0.492  0.000  0.492
tot    0.000  0.000  0.000  0.000  0.000  0.000  0.000  0.984  0.000  0.984
 
band    11 # energy    8.70129596 # occ.  1.00000000
 
ion      s     py     pz     px    dxy    dyz    dz2    dxz  x2-y2    tot
    1  0.000  0.000  0.000  0.000  0.000  0.492  0.000  0.000  0.000  0.492
    2  0.000  0.000  0.000  0.000  0.000  0.492  0.000  0.000  0.000  0.492
tot    0.000  0.000  0.000  0.000  0.000  0.984  0.000  0.000  0.000  0.984
 
band    12 # energy    9.60559451 # occ.  0.31322792
 
ion      s     py     pz     px    dxy    dyz    dz2    dxz  x2-y2    tot
    1  0.000  0.000  0.326  0.000  0.000  0.000  0.000  0.000  0.000  0.326
    2  0.000  0.000  0.326  0.000  0.000  0.000  0.000  0.000  0.000  0.326
tot    0.000  0.000  0.652  0.000  0.000  0.000  0.000  0.000  0.000  0.652
 
band    13 # energy   15.60180127 # occ.  0.00000000
 
ion      s     py     pz     px    dxy    dyz    dz2    dxz  x2-y2    tot
    1  0.222  0.000  0.000  0.000  0.000  0.000  0.219  0.000  0.000  0.441
    2  0.222  0.000  0.000  0.000  0.000  0.000  0.219  0.000  0.000  0.441
tot    0.443  0.000  0.000  0.000  0.000  0.000  0.439  0.000  0.000  0.882
 
band    14 # energy   31.18101300 # occ.  0.00000000
 
ion      s     py     pz     px    dxy    dyz    dz2    dxz  x2-y2    tot
    1  0.007  0.000  0.000  0.000  0.000  0.000  0.033  0.000  0.000  0.039
    2  0.007  0.000  0.000  0.000  0.000  0.000  0.033  0.000  0.000  0.039
tot    0.013  0.000  0.000  0.000  0.000  0.000  0.065  0.000  0.000  0.078
 
band    15 # energy   33.27557865 # occ.  0.00000000
 
ion      s     py     pz     px    dxy    dyz    dz2    dxz  x2-y2    tot
    1  0.000  0.273  0.000  0.000  0.000  0.000  0.000  0.000  0.108  0.380
    2  0.000  0.273  0.000  0.000  0.000  0.000  0.000  0.000  0.108  0.380
tot    0.000  0.545  0.000  0.000  0.000  0.000  0.000  0.000  0.215  0.760
 
band    16 # energy   33.27558111 # occ.  0.00000000
 
ion      s     py     pz     px    dxy    dyz    dz2    dxz  x2-y2    tot
    1  0.000  0.000  0.000  0.273  0.108  0.000  0.000  0.000  0.000  0.380
    2  0.000  0.000  0.000  0.273  0.108  0.000  0.000  0.000  0.000  0.380
tot    0.000  0.000  0.000  0.545  0.215  0.000  0.000  0.000  0.000  0.760
 
band    17 # energy   34.15860383 # occ.  0.00000000
 
ion      s     py     pz     px    dxy    dyz    dz2    dxz  x2-y2    tot
    1  0.024  0.000  0.000  0.000  0.000  0.000  0.074  0.000  0.000  0.098
    2  0.024  0.000  0.000  0.000  0.000  0.000  0.074  0.000  0.000  0.098
tot    0.048  0.000  0.000  0.000  0.000  0.000  0.148  0.000  0.000  0.196
 
band    18 # energy   34.64608563 # occ.  0.00000000
 
ion      s     py     pz     px    dxy    dyz    dz2    dxz  x2-y2    tot
    1  0.000  0.000  0.032  0.000  0.000  0.000  0.000  0.000  0.000  0.032
    2  0.000  0.000  0.032  0.000  0.000  0.000  0.000  0.000  0.000  0.032
tot    0.000  0.000  0.063  0.000  0.000  0.000  0.000  0.000  0.000  0.063
 
band    19 # energy   34.67940507 # occ.  0.00000000
 
ion      s     py     pz     px    dxy    dyz    dz2    dxz  x2-y2    tot
    1  0.000  0.092  0.000  0.000  0.000  0.000  0.000  0.000  0.349  0.441
    2  0.000  0.092  0.000  0.000  0.000  0.000  0.000  0.000  0.349  0.441
tot    0.000  0.183  0.000  0.000  0.000  0.000  0.000  0.000  0.698  0.881
 
band    20 # energy   34.67940770 # occ.  0.00000000
 
ion      s     py     pz     px    dxy    dyz    dz2    dxz  x2-y2    tot
    1  0.000  0.000  0.000  0.092  0.349  0.000  0.000  0.000  0.000  0.441
    2  0.000  0.000  0.000  0.092  0.349  0.000  0.000  0.000  0.000  0.441
tot    0.000  0.000  0.000  0.183  0.698  0.000  0.000  0.000  0.000  0.881
 
band    21 # energy   39.40593785 # occ.  0.00000000
 
ion      s     py     pz     px    dxy    dyz    dz2    dxz  x2-y2    tot
    1  0.000  0.000  0.000  0.000  0.000  0.129  0.000  0.000  0.000  0.129
    2  0.000  0.000  0.000  0.000  0.000  0.129  0.000  0.000  0.000  0.129
tot    0.000  0.000  0.000  0.000  0.000  0.258  0.000  0.000  0.000  0.258
 
band    22 # energy   39.40593851 # occ.  0.00000000
 
ion      s     py     pz     px    dxy    dyz    dz2    dxz  x2-y2    tot
    1  0.000  0.000  0.000  0.000  0.000  0.000  0.000  0.129  0.000  0.129
    2  0.000  0.000  0.000  0.000  0.000  0.000  0.000  0.129  0.000  0.129
tot    0.000  0.000  0.000  0.000  0.000  0.000  0.000  0.258  0.000  0.258
 
band    23 # energy   40.04965249 # occ.  0.00000000
 
ion      s     py     pz     px    dxy    dyz    dz2    dxz  x2-y2    tot
    1  0.003  0.000  0.000  0.000  0.000  0.000  0.576  0.000  0.000  0.579
    2  0.003  0.000  0.000  0.000  0.000  0.000  0.576  0.000  0.000  0.579
tot    0.007  0.000  0.000  0.000  0.000  0.000  1.152  0.000  0.000  1.159
 
band    24 # energy   40.75777268 # occ.  0.00000000
 
ion      s     py     pz     px    dxy    dyz    dz2    dxz  x2-y2    tot
    1  0.000  0.000  0.048  0.000  0.000  0.000  0.000  0.000  0.000  0.048
    2  0.000  0.000  0.048  0.000  0.000  0.000  0.000  0.000  0.000  0.048
tot    0.000  0.000  0.095  0.000  0.000  0.000  0.000  0.000  0.000  0.095
 

 k-point     2 :    0.08333333 0.00000000 0.00000000     weight = 0.00520833

band     1 # energy    1.21367189 # occ.  1.00000000
 
ion      s     py     pz     px    dxy    dyz    dz2    dxz  x2-y2    tot
    1  0.337  0.002  0.000  0.006  0.000  0.000  0.000  0.000  0.000  0.344
    2  0.337  0.002  0.000  0.006  0.000  0.000  0.000  0.000  0.000  0.344
tot    0.673  0.004  0.000  0.011  0.000  0.000  0.000  0.000  0.000  0.689
 
band     2 # energy    4.82313496 # occ.  1.00000000
 
ion      s     py     pz     px    dxy    dyz    dz2    dxz  x2-y2    tot
    1  0.068  0.001  0.000  0.003  0.002  0.000  0.365  0.000  0.001  0.440
    2  0.068  0.001  0.000  0.003  0.002  0.000  0.365  0.000  0.001  0.440
tot    0.136  0.002  0.000  0.007  0.004  0.000  0.729  0.000  0.001  0.880
 
band     3 # energy    6.85120028 # occ.  1.00000000
 
ion      s     py     pz     px    dxy    dyz    dz2    dxz  x2-y2    tot
    1  0.000  0.000  0.000  0.001  0.236  0.000  0.164  0.000  0.079  0.479
    2  0.000  0.000  0.000  0.001  0.236  0.000  0.164  0.000  0.079  0.479
tot    0.000  0.001  0.000  0.002  0.471  0.000  0.327  0.000  0.157  0.958
 
band     4 # energy    7.17131770 # occ.  1.00000000
 
ion      s     py     pz     px    dxy    dyz    dz2    dxz  x2-y2    tot
    1  0.000  0.001  0.000  0.000  0.120  0.000  0.000  0.000  0.360  0.481
    2  0.000  0.001  0.000  0.000  0.120  0.000  0.000  0.000  0.360  0.481
tot    0.000  0.001  0.000  0.000  0.240  0.000  0.000  0.000  0.721  0.963
 
band     5 # energy    7.23715234 # occ.  1.00000000
 
ion      s     py     pz     px    dxy    dyz    dz2    dxz  x2-y2    tot
    1  0.000  0.000  0.000  0.000  0.153  0.000  0.280  0.000  0.051  0.484
    2  0.000  0.000  0.000  0.000  0.153  0.000  0.280  0.000  0.051  0.484
tot    0.000  0.000  0.000  0.001  0.305  0.000  0.561  0.000  0.102  0.969
 
band     6 # energy    7.31520863 # occ.  1.00000000
 
ion      s     py     pz     px    dxy    dyz    dz2    dxz  x2-y2    tot
    1  0.001  0.000  0.000  0.000  0.331  0.000  0.042  0.000  0.110  0.485
    2  0.001  0.000  0.000  0.000  0.331  0.000  0.042  0.000  0.110  0.485
tot    0.002  0.000  0.000  0.001  0.661  0.000  0.084  0.000  0.220  0.969
 
band     7 # energy    7.44902976 # occ.  1.00000000
 
ion      s     py     pz     px    dxy    dyz    dz2    dxz  x2-y2    tot
    1  0.000  0.001  0.000  0.000  0.121  0.000  0.000  0.000  0.364  0.486
    2  0.000  0.001  0.000  0.000  0.121  0.000  0.000  0.000  0.364  0.486
tot    0.000  0.001  0.000  0.000  0.243  0.000  0.000  0.000  0.728  0.972
 
band     8 # energy    7.53692700 # occ.  1.00000000
 
ion      s     py     pz     px    dxy    dyz    dz2    dxz  x2-y2    tot
    1  0.000  0.000  0.009  0.000  0.000  0.118  0.000  0.354  0.000  0.481
    2  0.000  0.000  0.009  0.000  0.000  0.118  0.000  0.354  0.000  0.481
tot    0.000  0.000  0.017  0.000  0.000  0.236  0.000  0.709  0.000  0.962
 
band     9 # energy    7.60430731 # occ.  1.00000000
 
ion      s     py     pz     px    dxy    dyz    dz2    dxz  x2-y2    tot
    1  0.000  0.000  0.000  0.000  0.000  0.366  0.000  0.122  0.000  0.488
    2  0.000  0.000  0.000  0.000  0.000  0.366  0.000  0.122  0.000  0.488
tot    0.000  0.000  0.000  0.000  0.000  0.731  0.000  0.244  0.000  0.975
 
band    10 # energy    8.03042625 # occ.  1.00000000
 
ion      s     py     pz     px    dxy    dyz    dz2    dxz  x2-y2    tot
    1  0.000  0.000  0.075  0.000  0.000  0.093  0.000  0.280  0.000  0.448
    2  0.000  0.000  0.075  0.000  0.000  0.093  0.000  0.280  0.000  0.448
tot    0.000  0.000  0.151  0.000  0.000  0.186  0.000  0.559  0.000  0.896
 
band    11 # energy    8.72901902 # occ.  1.00000000
 
ion      s     py     pz     px    dxy    dyz    dz2    dxz  x2-y2    tot
    1  0.000  0.000  0.000  0.000  0.000  0.370  0.000  0.123  0.000  0.493
    2  0.000  0.000  0.000  0.000  0.000  0.370  0.000  0.123  0.000  0.493
tot    0.000  0.000  0.000  0.000  0.000  0.739  0.000  0.246  0.000  0.986
 
band    12 # energy   10.57462031 # occ.  0.00000000
 
ion      s     py     pz     px    dxy    dyz    dz2    dxz  x2-y2    tot
    1  0.000  0.000  0.239  0.000  0.000  0.035  0.000  0.104  0.000  0.377
    2  0.000  0.000  0.239  0.000  0.000  0.035  0.000  0.104  0.000  0.377
tot    0.000  0.000  0.478  0.000  0.000  0.069  0.000  0.207  0.000  0.755
 
band    13 # energy   15.64793916 # occ.  0.00000000
 
ion      s     py     pz     px    dxy    dyz    dz2    dxz  x2-y2    tot
    1  0.218  0.002  0.000  0.005  0.000  0.000  0.213  0.000  0.000  0.438
    2  0.218  0.002  0.000  0.005  0.000  0.000  0.213  0.000  0.000  0.438
tot    0.436  0.003  0.000  0.010  0.000  0.000  0.427  0.000  0.000  0.877
 
band    14 # energy   29.15184744 # occ.  0.00000000
 
ion      s     py     pz     px    dxy    dyz    dz2    dxz  x2-y2    tot
    1  0.015  0.027  0.000  0.081  0.105  0.000  0.022  0.000  0.035  0.285
    2  0.015  0.027  0.000  0.081  0.105  0.000  0.022  0.000  0.035  0.285
tot    0.030  0.054  0.000  0.162  0.210  0.000  0.045  0.000  0.070  0.570
 
band    15 # energy   31.25210194 # occ.  0.00000000
 
ion      s     py     pz     px    dxy    dyz    dz2    dxz  x2-y2    tot
    1  0.000  0.176  0.000  0.059  0.038  0.000  0.000  0.000  0.113  0.386
    2  0.000  0.176  0.000  0.059  0.038  0.000  0.000  0.000  0.113  0.386
tot    0.000  0.352  0.000  0.117  0.076  0.000  0.000  0.000  0.227  0.772
 
band    16 # energy   31.46089698 # occ.  0.00000000
 
ion      s     py     pz     px    dxy    dyz    dz2    dxz  x2-y2    tot
    1  0.021  0.020  0.000  0.061  0.058  0.000  0.038  0.000  0.019  0.219
    2  0.021  0.020  0.000  0.061  0.058  0.000  0.038  0.000  0.019  0.219
tot    0.042  0.041  0.000  0.122  0.117  0.000  0.077  0.000  0.039  0.438
 
band    17 # energy   34.65504573 # occ.  0.00000000
 
ion      s     py     pz     px    dxy    dyz    dz2    dxz  x2-y2    tot
    1  0.000  0.000  0.011  0.000  0.000  0.012  0.000  0.036  0.000  0.060
    2  0.000  0.000  0.011  0.000  0.000  0.012  0.000  0.036  0.000  0.060
tot    0.000  0.000  0.022  0.000  0.000  0.024  0.000  0.073  0.000  0.120
 
band    18 # energy   34.95064435 # occ.  0.00000000
 
ion      s     py     pz     px    dxy    dyz    dz2    dxz  x2-y2    tot
    1  0.004  0.015  0.000  0.045  0.035  0.000  0.036  0.000  0.012  0.147
    2  0.004  0.015  0.000  0.045  0.035  0.000  0.036  0.000  0.012  0.147
tot    0.008  0.030  0.000  0.089  0.071  0.000  0.071  0.000  0.024  0.293
 
band    19 # energy   36.32626124 # occ.  0.00000000
 
ion      s     py     pz     px    dxy    dyz    dz2    dxz  x2-y2    tot
    1  0.000  0.000  0.033  0.000  0.000  0.027  0.000  0.082  0.000  0.142
    2  0.000  0.000  0.033  0.000  0.000  0.027  0.000  0.082  0.000  0.142
tot    0.000  0.000  0.066  0.000  0.000  0.055  0.000  0.164  0.000  0.284
 
band    20 # energy   36.94352424 # occ.  0.00000000
 
ion      s     py     pz     px    dxy    dyz    dz2    dxz  x2-y2    tot
    1  0.000  0.088  0.000  0.029  0.079  0.000  0.000  0.000  0.237  0.434
    2  0.000  0.088  0.000  0.029  0.079  0.000  0.000  0.000  0.237  0.434
tot    0.000  0.176  0.000  0.059  0.158  0.000  0.000  0.000  0.475  0.867
 
band    21 # energy   37.69986993 # occ.  0.00000000
 
ion      s     py     pz     px    dxy    dyz    dz2    dxz  x2-y2    tot
    1  0.006  0.041  0.000  0.123  0.107  0.000  0.006  0.000  0.036  0.319
    2  0.006  0.041  0.000  0.123  0.107  0.000  0.006  0.000  0.036  0.319
tot    0.012  0.082  0.000  0.246  0.214  0.000  0.013  0.000  0.071  0.638
 
band    22 # energy   38.84294648 # occ.  0.00000000
 
ion      s     py     pz     px    dxy    dyz    dz2    dxz  x2-y2    tot
    1  0.000  0.000  0.000  0.000  0.000  0.182  0.000  0.061  0.000  0.243
    2  0.000  0.000  0.000  0.000  0.000  0.182  0.000  0.061  0.000  0.243
tot    0.000  0.000  0.000  0.000  0.000  0.364  0.000  0.121  0.000  0.485
 
band    23 # energy   39.62008736 # occ.  0.00000000
 
ion      s     py     pz     px    dxy    dyz    dz2    dxz  x2-y2    tot
    1  0.001  0.008  0.000  0.023  0.056  0.000  0.443  0.000  0.019  0.549
    2  0.001  0.008  0.000  0.023  0.056  0.000  0.443  0.000  0.019  0.549
tot    0.002  0.015  0.000  0.045  0.112  0.000  0.886  0.000  0.037  1.099
 
band    24 # energy   39.75378217 # occ.  0.00000000
 
ion      s     py     pz     px    dxy    dyz    dz2    dxz  x2-y2    tot
    1  0.000  0.000  0.206  0.000  0.000  0.037  0.000  0.110  0.000  0.353
    2  0.000  0.000  0.206  0.000  0.000  0.037  0.000  0.110  0.000  0.353
tot    0.000  0.000  0.412  0.000  0.000  0.073  0.000  0.220  0.000  0.705
 

 k-point     3 :    0.16666667 0.00000000 0.00000000     weight = 0.00520833

band     1 # energy    1.89300738 # occ.  1.00000000
 
ion      s     py     pz     px    dxy    dyz    dz2    dxz  x2-y2    tot
    1  0.314  0.007  0.000  0.021  0.002  0.000  0.001  0.000  0.001  0.346
    2  0.314  0.007  0.000  0.021  0.002  0.000  0.001  0.000  0.001  0.346
tot    0.627  0.014  0.000  0.043  0.004  0.000  0.002  0.000  0.001  0.691
 
band     2 # energy    5.16142253 # occ.  1.00000000
 
ion      s     py     pz     px    dxy    dyz    dz2    dxz  x2-y2    tot
    1  0.049  0.004  0.000  0.011  0.019  0.000  0.356  0.000  0.006  0.444
    2  0.049  0.004  0.000  0.011  0.019  0.000  0.356  0.000  0.006  0.444
tot    0.097  0.007  0.000  0.022  0.038  0.000  0.713  0.000  0.013  0.889
 
band     3 # energy    6.60027162 # occ.  1.00000000
 
ion      s     py     pz     px    dxy    dyz    dz2    dxz  x2-y2    tot
    1  0.000  0.001  0.000  0.004  0.263  0.000  0.116  0.000  0.088  0.472
    2  0.000  0.001  0.000  0.004  0.263  0.000  0.116  0.000  0.088  0.472
tot    0.001  0.003  0.000  0.008  0.526  0.000  0.232  0.000  0.175  0.944
 
band     4 # energy    6.90426292 # occ.  1.00000000
 
ion      s     py     pz     px    dxy    dyz    dz2    dxz  x2-y2    tot
    1  0.000  0.000  0.052  0.000  0.000  0.099  0.000  0.297  0.000  0.448
    2  0.000  0.000  0.052  0.000  0.000  0.099  0.000  0.297  0.000  0.448
tot    0.000  0.000  0.104  0.000  0.000  0.198  0.000  0.594  0.000  0.896
 
band     5 # energy    7.15852735 # occ.  1.00000000
 
ion      s     py     pz     px    dxy    dyz    dz2    dxz  x2-y2    tot
    1  0.004  0.000  0.000  0.001  0.314  0.000  0.056  0.000  0.105  0.481
    2  0.004  0.000  0.000  0.001  0.314  0.000  0.056  0.000  0.105  0.481
tot    0.008  0.001  0.000  0.003  0.629  0.000  0.112  0.000  0.210  0.962
 
band     6 # energy    7.44312303 # occ.  1.00000000
 
ion      s     py     pz     px    dxy    dyz    dz2    dxz  x2-y2    tot
    1  0.000  0.000  0.000  0.000  0.000  0.364  0.000  0.121  0.000  0.486
    2  0.000  0.000  0.000  0.000  0.000  0.364  0.000  0.121  0.000  0.486
tot    0.000  0.000  0.000  0.000  0.000  0.728  0.000  0.243  0.000  0.971
 
band     7 # energy    7.46752081 # occ.  1.00000000
 
ion      s     py     pz     px    dxy    dyz    dz2    dxz  x2-y2    tot
    1  0.000  0.001  0.000  0.000  0.120  0.000  0.000  0.000  0.361  0.483
    2  0.000  0.001  0.000  0.000  0.120  0.000  0.000  0.000  0.361  0.483
tot    0.000  0.003  0.000  0.001  0.240  0.000  0.000  0.000  0.721  0.965
 
band     8 # energy    7.51967563 # occ.  1.00000000
 
ion      s     py     pz     px    dxy    dyz    dz2    dxz  x2-y2    tot
    1  0.001  0.000  0.000  0.001  0.113  0.000  0.331  0.000  0.038  0.485
    2  0.001  0.000  0.000  0.001  0.113  0.000  0.331  0.000  0.038  0.485
tot    0.003  0.001  0.000  0.002  0.227  0.000  0.662  0.000  0.076  0.970
 
band     9 # energy    7.65568841 # occ.  1.00000000
 
ion      s     py     pz     px    dxy    dyz    dz2    dxz  x2-y2    tot
    1  0.000  0.000  0.033  0.000  0.000  0.109  0.000  0.328  0.000  0.471
    2  0.000  0.000  0.033  0.000  0.000  0.109  0.000  0.328  0.000  0.471
tot    0.000  0.000  0.065  0.000  0.000  0.219  0.000  0.657  0.000  0.941
 
band    10 # energy    7.70855874 # occ.  1.00000000
 
ion      s     py     pz     px    dxy    dyz    dz2    dxz  x2-y2    tot
    1  0.000  0.001  0.000  0.000  0.121  0.000  0.000  0.000  0.364  0.487
    2  0.000  0.001  0.000  0.000  0.121  0.000  0.000  0.000  0.364  0.487
tot    0.000  0.003  0.000  0.001  0.243  0.000  0.000  0.000  0.728  0.974
 
band    11 # energy    8.78829905 # occ.  1.00000000
 
ion      s     py     pz     px    dxy    dyz    dz2    dxz  x2-y2    tot
    1  0.000  0.000  0.000  0.000  0.000  0.371  0.000  0.124  0.000  0.494
    2  0.000  0.000  0.000  0.000  0.000  0.371  0.000  0.124  0.000  0.494
tot    0.000  0.000  0.000  0.000  0.000  0.741  0.000  0.247  0.000  0.988
 
band    12 # energy   12.08699211 # occ.  0.00000000
 
ion      s     py     pz     px    dxy    dyz    dz2    dxz  x2-y2    tot
    1  0.000  0.000  0.230  0.000  0.000  0.040  0.000  0.119  0.000  0.388
    2  0.000  0.000  0.230  0.000  0.000  0.040  0.000  0.119  0.000  0.388
tot    0.000  0.000  0.460  0.000  0.000  0.079  0.000  0.238  0.000  0.777
 
band    13 # energy   15.80788562 # occ.  0.00000000
 
ion      s     py     pz     px    dxy    dyz    dz2    dxz  x2-y2    tot
    1  0.205  0.007  0.000  0.022  0.001  0.000  0.195  0.000  0.000  0.430
    2  0.205  0.007  0.000  0.022  0.001  0.000  0.195  0.000  0.000  0.430
tot    0.410  0.015  0.000  0.044  0.001  0.000  0.390  0.000  0.000  0.861
 
band    14 # energy   25.34347396 # occ.  0.00000000
 
ion      s     py     pz     px    dxy    dyz    dz2    dxz  x2-y2    tot
    1  0.043  0.037  0.000  0.112  0.107  0.000  0.022  0.000  0.036  0.358
    2  0.043  0.037  0.000  0.112  0.107  0.000  0.022  0.000  0.036  0.358
tot    0.087  0.075  0.000  0.225  0.214  0.000  0.043  0.000  0.071  0.716
 
band    15 # energy   28.94202678 # occ.  0.00000000
 
ion      s     py     pz     px    dxy    dyz    dz2    dxz  x2-y2    tot
    1  0.000  0.189  0.000  0.063  0.029  0.000  0.000  0.000  0.088  0.370
    2  0.000  0.189  0.000  0.063  0.029  0.000  0.000  0.000  0.088  0.370
tot    0.000  0.379  0.000  0.126  0.059  0.000  0.000  0.000  0.176  0.740
 
band    16 # energy   30.55456645 # occ.  0.00000000
 
ion      s     py     pz     px    dxy    dyz    dz2    dxz  x2-y2    tot
    1  0.023  0.005  0.000  0.016  0.136  0.000  0.046  0.000  0.045  0.271
    2  0.023  0.005  0.000  0.016  0.136  0.000  0.046  0.000  0.045  0.271
tot    0.045  0.010  0.000  0.031  0.271  0.000  0.093  0.000  0.090  0.542
 
band    17 # energy   32.44337760 # occ.  0.00000000
 
ion      s     py     pz     px    dxy    dyz    dz2    dxz  x2-y2    tot
    1  0.000  0.000  0.042  0.000  0.000  0.052  0.000  0.155  0.000  0.248
    2  0.000  0.000  0.042  0.000  0.000  0.052  0.000  0.155  0.000  0.248
tot    0.000  0.000  0.084  0.000  0.000  0.103  0.000  0.309  0.000  0.497
 
band    18 # energy   34.75662010 # occ.  0.00000000
 
ion      s     py     pz     px    dxy    dyz    dz2    dxz  x2-y2    tot
    1  0.000  0.000  0.009  0.000  0.000  0.013  0.000  0.038  0.000  0.060
    2  0.000  0.000  0.009  0.000  0.000  0.013  0.000  0.038  0.000  0.060
tot    0.000  0.000  0.018  0.000  0.000  0.025  0.000  0.076  0.000  0.120
 
band    19 # energy   35.20930269 # occ.  0.00000000
 
ion      s     py     pz     px    dxy    dyz    dz2    dxz  x2-y2    tot
    1  0.035  0.042  0.000  0.126  0.050  0.000  0.033  0.000  0.017  0.302
    2  0.035  0.042  0.000  0.126  0.050  0.000  0.033  0.000  0.017  0.302
tot    0.070  0.084  0.000  0.251  0.101  0.000  0.065  0.000  0.034  0.605
 
band    20 # energy   37.31597459 # occ.  0.00000000
 
ion      s     py     pz     px    dxy    dyz    dz2    dxz  x2-y2    tot
    1  0.032  0.038  0.000  0.114  0.001  0.000  0.093  0.000  0.000  0.277
    2  0.032  0.038  0.000  0.114  0.001  0.000  0.093  0.000  0.000  0.277
tot    0.063  0.076  0.000  0.227  0.002  0.000  0.186  0.000  0.001  0.555
 
band    21 # energy   37.97918635 # occ.  0.00000000
 
ion      s     py     pz     px    dxy    dyz    dz2    dxz  x2-y2    tot
    1  0.000  0.000  0.000  0.000  0.000  0.268  0.000  0.089  0.000  0.357
    2  0.000  0.000  0.000  0.000  0.000  0.268  0.000  0.089  0.000  0.357
tot    0.000  0.000  0.000  0.000  0.000  0.536  0.000  0.179  0.000  0.714
 
band    22 # energy   38.46773355 # occ.  0.00000000
 
ion      s     py     pz     px    dxy    dyz    dz2    dxz  x2-y2    tot
    1  0.000  0.000  0.242  0.000  0.000  0.006  0.000  0.018  0.000  0.266
    2  0.000  0.000  0.242  0.000  0.000  0.006  0.000  0.018  0.000  0.266
tot    0.000  0.000  0.483  0.000  0.000  0.012  0.000  0.036  0.000  0.531
 
band    23 # energy   39.01358239 # occ.  0.00000000
 
ion      s     py     pz     px    dxy    dyz    dz2    dxz  x2-y2    tot
    1  0.000  0.074  0.000  0.025  0.094  0.000  0.000  0.000  0.283  0.476
    2  0.000  0.074  0.000  0.025  0.094  0.000  0.000  0.000  0.283  0.476
tot    0.000  0.147  0.000  0.049  0.189  0.000  0.000  0.000  0.566  0.951
 
band    24 # energy   40.31880542 # occ.  0.00000000
 
ion      s     py     pz     px    dxy    dyz    dz2    dxz  x2-y2    tot
    1  0.000  0.211  0.000  0.070  0.031  0.000  0.000  0.000  0.092  0.403
    2  0.000  0.211  0.000  0.070  0.031  0.000  0.000  0.000  0.092  0.403
tot    0.000  0.422  0.000  0.141  0.061  0.000  0.000  0.000  0.183  0.807
 

 k-point     4 :    0.25000000 0.00000000 0.00000000     weight = 0.00520833

band     1 # energy    2.92446789 # occ.  1.00000000
 
ion      s     py     pz     px    dxy    dyz    dz2    dxz  x2-y2    tot
    1  0.272  0.014  0.000  0.042  0.013  0.000  0.005  0.000  0.004  0.351
    2  0.272  0.014  0.000  0.042  0.013  0.000  0.005  0.000  0.004  0.351
tot    0.545  0.028  0.000  0.083  0.027  0.000  0.010  0.000  0.009  0.701
 
band     2 # energy    5.43203913 # occ.  1.00000000
 
ion      s     py     pz     px    dxy    dyz    dz2    dxz  x2-y2    tot
    1  0.024  0.004  0.000  0.011  0.103  0.000  0.278  0.000  0.034  0.453
    2  0.024  0.004  0.000  0.011  0.103  0.000  0.278  0.000  0.034  0.453
tot    0.048  0.007  0.000  0.021  0.206  0.000  0.555  0.000  0.069  0.906
 
band     3 # energy    6.22993633 # occ.  1.00000000
 
ion      s     py     pz     px    dxy    dyz    dz2    dxz  x2-y2    tot
    1  0.000  0.000  0.045  0.000  0.000  0.099  0.000  0.298  0.000  0.443
    2  0.000  0.000  0.045  0.000  0.000  0.099  0.000  0.298  0.000  0.443
tot    0.000  0.000  0.091  0.000  0.000  0.199  0.000  0.596  0.000  0.885
 
band     4 # energy    6.45236783 # occ.  1.00000000
 
ion      s     py     pz     px    dxy    dyz    dz2    dxz  x2-y2    tot
    1  0.001  0.006  0.000  0.018  0.229  0.000  0.130  0.000  0.076  0.460
    2  0.001  0.006  0.000  0.018  0.229  0.000  0.130  0.000  0.076  0.460
tot    0.002  0.012  0.000  0.036  0.458  0.000  0.259  0.000  0.153  0.919
 
band     5 # energy    7.07650758 # occ.  1.00000000
 
ion      s     py     pz     px    dxy    dyz    dz2    dxz  x2-y2    tot
    1  0.009  0.001  0.000  0.004  0.251  0.000  0.128  0.000  0.084  0.477
    2  0.009  0.001  0.000  0.004  0.251  0.000  0.128  0.000  0.084  0.477
tot    0.019  0.002  0.000  0.007  0.502  0.000  0.256  0.000  0.167  0.953
 
band     6 # energy    7.24900295 # occ.  1.00000000
 
ion      s     py     pz     px    dxy    dyz    dz2    dxz  x2-y2    tot
    1  0.000  0.000  0.000  0.000  0.000  0.363  0.000  0.121  0.000  0.484
    2  0.000  0.000  0.000  0.000  0.000  0.363  0.000  0.121  0.000  0.484
tot    0.000  0.000  0.000  0.000  0.000  0.725  0.000  0.242  0.000  0.967
 
band     7 # energy    7.46856215 # occ.  1.00000000
 
ion      s     py     pz     px    dxy    dyz    dz2    dxz  x2-y2    tot
    1  0.000  0.000  0.025  0.000  0.000  0.112  0.000  0.336  0.000  0.473
    2  0.000  0.000  0.025  0.000  0.000  0.112  0.000  0.336  0.000  0.473
tot    0.000  0.000  0.050  0.000  0.000  0.224  0.000  0.672  0.000  0.947
 
band     8 # energy    7.89590079 # occ.  1.00000000
 
ion      s     py     pz     px    dxy    dyz    dz2    dxz  x2-y2    tot
    1  0.000  0.002  0.000  0.001  0.121  0.000  0.000  0.000  0.362  0.485
    2  0.000  0.002  0.000  0.001  0.121  0.000  0.000  0.000  0.362  0.485
tot    0.000  0.003  0.000  0.001  0.242  0.000  0.000  0.000  0.725  0.970
 
band     9 # energy    7.91620730 # occ.  1.00000000
 
ion      s     py     pz     px    dxy    dyz    dz2    dxz  x2-y2    tot
    1  0.005  0.001  0.000  0.004  0.102  0.000  0.337  0.000  0.034  0.484
    2  0.005  0.001  0.000  0.004  0.102  0.000  0.337  0.000  0.034  0.484
tot    0.011  0.003  0.000  0.009  0.204  0.000  0.674  0.000  0.068  0.968
 
band    10 # energy    8.08113761 # occ.  1.00000000
 
ion      s     py     pz     px    dxy    dyz    dz2    dxz  x2-y2    tot
    1  0.000  0.002  0.000  0.001  0.122  0.000  0.000  0.000  0.365  0.489
    2  0.000  0.002  0.000  0.001  0.122  0.000  0.000  0.000  0.365  0.489
tot    0.000  0.004  0.000  0.001  0.243  0.000  0.000  0.000  0.730  0.978
 
band    11 # energy    8.84474370 # occ.  1.00000000
 
ion      s     py     pz     px    dxy    dyz    dz2    dxz  x2-y2    tot