PROCAR lm decomposed
# of k-points:   70         # of bands:   16         # of ions:    2

 k-point     1 :    0.00000000 0.00000000 0.00000000     weight = 0.00125000

band     1 # energy    0.95342774 # occ.  1.00000000
 
ion      s     py     pz     px    dxy    dyz    dz2    dxz  x2-y2    tot
    1  0.343  0.000  0.000  0.000  0.000  0.000  0.000  0.000  0.000  0.343
    2  0.343  0.000  0.000  0.000  0.000  0.000  0.000  0.000  0.000  0.343
tot    0.686  0.000  0.000  0.000  0.000  0.000  0.000  0.000  0.000  0.686
 
band     2 # energy    4.65001684 # occ.  1.00000000
 
ion      s     py     pz     px    dxy    dyz    dz2    dxz  x2-y2    tot
    1  0.076  0.000  0.000  0.000  0.000  0.000  0.363  0.000  0.000  0.438
    2  0.076  0.000  0.000  0.000  0.000  0.000  0.363  0.000  0.000  0.438
tot    0.151  0.000  0.000  0.000  0.000  0.000  0.725  0.000  0.000  0.876
 
band     3 # energy    6.99728672 # occ.  1.00000000
 
ion      s     py     pz     px    dxy    dyz    dz2    dxz  x2-y2    tot
    1  0.000  0.000  0.000  0.000  0.000  0.000  0.484  0.000  0.000  0.484
    2  0.000  0.000  0.000  0.000  0.000  0.000  0.484  0.000  0.000  0.484
tot    0.000  0.000  0.000  0.000  0.000  0.000  0.968  0.000  0.000  0.968
 
band     4 # energy    7.01802925 # occ.  1.00000000
 
ion      s     py     pz     px    dxy    dyz    dz2    dxz  x2-y2    tot
    1  0.000  0.000  0.000  0.000  0.360  0.000  0.000  0.000  0.120  0.481
    2  0.000  0.000  0.000  0.000  0.360  0.000  0.000  0.000  0.120  0.481
tot    0.000  0.000  0.000  0.001  0.721  0.000  0.000  0.000  0.240  0.962
 
band     5 # energy    7.01802934 # occ.  1.00000000
 
ion      s     py     pz     px    dxy    dyz    dz2    dxz  x2-y2    tot
    1  0.000  0.000  0.000  0.000  0.120  0.000  0.000  0.000  0.360  0.481
    2  0.000  0.000  0.000  0.000  0.120  0.000  0.000  0.000  0.360  0.481
tot    0.000  0.001  0.000  0.000  0.240  0.000  0.000  0.000  0.721  0.962
 
band     6 # energy    7.30335821 # occ.  1.00000000
 
ion      s     py     pz     px    dxy    dyz    dz2    dxz  x2-y2    tot
    1  0.000  0.000  0.000  0.000  0.364  0.000  0.000  0.000  0.121  0.486
    2  0.000  0.000  0.000  0.000  0.364  0.000  0.000  0.000  0.121  0.486
tot    0.000  0.000  0.000  0.001  0.727  0.000  0.000  0.000  0.243  0.971
 
band     7 # energy    7.30335830 # occ.  1.00000000
 
ion      s     py     pz     px    dxy    dyz    dz2    dxz  x2-y2    tot
    1  0.000  0.000  0.000  0.000  0.121  0.000  0.000  0.000  0.364  0.486
    2  0.000  0.000  0.000  0.000  0.121  0.000  0.000  0.000  0.364  0.486
tot    0.000  0.001  0.000  0.000  0.243  0.000  0.000  0.000  0.727  0.971
 
band     8 # energy    7.62609662 # occ.  1.00000000
 
ion      s     py     pz     px    dxy    dyz    dz2    dxz  x2-y2    tot
    1  0.000  0.000  0.000  0.000  0.000  0.366  0.000  0.122  0.000  0.488
    2  0.000  0.000  0.000  0.000  0.000  0.366  0.000  0.122  0.000  0.488
tot    0.000  0.000  0.000  0.000  0.000  0.733  0.000  0.244  0.000  0.977
 
band     9 # energy    7.62609662 # occ.  1.00000000
 
ion      s     py     pz     px    dxy    dyz    dz2    dxz  x2-y2    tot
    1  0.000  0.000  0.000  0.000  0.000  0.122  0.000  0.366  0.000  0.488
    2  0.000  0.000  0.000  0.000  0.000  0.122  0.000  0.366  0.000  0.488
tot    0.000  0.000  0.000  0.000  0.000  0.244  0.000  0.733  0.000  0.977
 
band    10 # energy    8.64107194 # occ.  1.00000000
 
ion      s     py     pz     px    dxy    dyz    dz2    dxz  x2-y2    tot
    1  0.000  0.000  0.000  0.000  0.000  0.369  0.000  0.123  0.000  0.492
    2  0.000  0.000  0.000  0.000  0.000  0.369  0.000  0.123  0.000  0.492
tot    0.000  0.000  0.000  0.000  0.000  0.738  0.000  0.246  0.000  0.985
 
band    11 # energy    8.64107199 # occ.  1.00000000
 
ion      s     py     pz     px    dxy    dyz    dz2    dxz  x2-y2    tot
    1  0.000  0.000  0.000  0.000  0.000  0.123  0.000  0.369  0.000  0.492
    2  0.000  0.000  0.000  0.000  0.000  0.123  0.000  0.369  0.000  0.492
tot    0.000  0.000  0.000  0.000  0.000  0.246  0.000  0.738  0.000  0.985
 
band    12 # energy    9.53126000 # occ.  0.69866176
 
ion      s     py     pz     px    dxy    dyz    dz2    dxz  x2-y2    tot
    1  0.000  0.000  0.324  0.000  0.000  0.000  0.000  0.000  0.000  0.324
    2  0.000  0.000  0.324  0.000  0.000  0.000  0.000  0.000  0.000  0.324
tot    0.000  0.000  0.648  0.000  0.000  0.000  0.000  0.000  0.000  0.648
 
band    13 # energy   15.48255883 # occ.  0.00000000
 
ion      s     py     pz     px    dxy    dyz    dz2    dxz  x2-y2    tot
    1  0.222  0.000  0.000  0.000  0.000  0.000  0.219  0.000  0.000  0.441
    2  0.222  0.000  0.000  0.000  0.000  0.000  0.219  0.000  0.000  0.441
tot    0.444  0.000  0.000  0.000  0.000  0.000  0.437  0.000  0.000  0.881
 
band    14 # energy   31.15316369 # occ.  0.00000000
 
ion      s     py     pz     px    dxy    dyz    dz2    dxz  x2-y2    tot
    1  0.007  0.000  0.000  0.000  0.000  0.000  0.032  0.000  0.000  0.039
    2  0.007  0.000  0.000  0.000  0.000  0.000  0.032  0.000  0.000  0.039
tot    0.013  0.000  0.000  0.000  0.000  0.000  0.064  0.000  0.000  0.078
 
band    15 # energy   33.23570358 # occ.  0.00000000
 
ion      s     py     pz     px    dxy    dyz    dz2    dxz  x2-y2    tot
    1  0.000  0.060  0.000  0.212  0.083  0.000  0.000  0.000  0.023  0.378
    2  0.000  0.060  0.000  0.212  0.083  0.000  0.000  0.000  0.023  0.378
tot    0.000  0.119  0.000  0.425  0.166  0.000  0.000  0.000  0.047  0.757
 
band    16 # energy   33.23570620 # occ.  0.00000000
 
ion      s     py     pz     px    dxy    dyz    dz2    dxz  x2-y2    tot
    1  0.000  0.212  0.000  0.060  0.023  0.000  0.000  0.000  0.083  0.378
    2  0.000  0.212  0.000  0.060  0.023  0.000  0.000  0.000  0.083  0.378
tot    0.000  0.425  0.000  0.119  0.047  0.000  0.000  0.000  0.166  0.757
 

 k-point     2 :    0.10000000 0.00000000 0.00000000     weight = 0.00750000

band     1 # energy    1.28975607 # occ.  1.00000000
 
ion      s     py     pz     px    dxy    dyz    dz2    dxz  x2-y2    tot
    1  0.332  0.003  0.000  0.008  0.000  0.000  0.000  0.000  0.000  0.343
    2  0.332  0.003  0.000  0.008  0.000  0.000  0.000  0.000  0.000  0.343
tot    0.664  0.005  0.000  0.016  0.000  0.000  0.000  0.000  0.000  0.687
 
band     2 # energy    4.84429058 # occ.  1.00000000
 
ion      s     py     pz     px    dxy    dyz    dz2    dxz  x2-y2    tot
    1  0.066  0.002  0.000  0.005  0.003  0.000  0.364  0.000  0.001  0.440
    2  0.066  0.002  0.000  0.005  0.003  0.000  0.364  0.000  0.001  0.440
tot    0.131  0.003  0.000  0.010  0.006  0.000  0.728  0.000  0.002  0.880
 
band     3 # energy    6.75414004 # occ.  1.00000000
 
ion      s     py     pz     px    dxy    dyz    dz2    dxz  x2-y2    tot
    1  0.000  0.000  0.000  0.001  0.242  0.000  0.153  0.000  0.081  0.478
    2  0.000  0.000  0.000  0.001  0.242  0.000  0.153  0.000  0.081  0.478
tot    0.000  0.001  0.000  0.002  0.484  0.000  0.307  0.000  0.161  0.955
 
band     4 # energy    7.16787907 # occ.  1.00000000
 
ion      s     py     pz     px    dxy    dyz    dz2    dxz  x2-y2    tot
    1  0.000  0.001  0.000  0.000  0.120  0.000  0.000  0.000  0.360  0.481
    2  0.000  0.001  0.000  0.000  0.120  0.000  0.000  0.000  0.360  0.481
tot    0.000  0.002  0.000  0.001  0.240  0.000  0.000  0.000  0.721  0.963
 
band     5 # energy    7.19290589 # occ.  1.00000000
 
ion      s     py     pz     px    dxy    dyz    dz2    dxz  x2-y2    tot
    1  0.001  0.000  0.000  0.001  0.233  0.000  0.172  0.000  0.078  0.484
    2  0.001  0.000  0.000  0.001  0.233  0.000  0.172  0.000  0.078  0.484
tot    0.001  0.000  0.000  0.001  0.465  0.000  0.345  0.000  0.155  0.968
 
band     6 # energy    7.26843222 # occ.  1.00000000
 
ion      s     py     pz     px    dxy    dyz    dz2    dxz  x2-y2    tot
    1  0.001  0.000  0.000  0.000  0.241  0.000  0.161  0.000  0.080  0.484
    2  0.001  0.000  0.000  0.000  0.241  0.000  0.161  0.000  0.080  0.484
tot    0.002  0.000  0.000  0.001  0.483  0.000  0.322  0.000  0.161  0.968
 
band     7 # energy    7.40554820 # occ.  1.00000000
 
ion      s     py     pz     px    dxy    dyz    dz2    dxz  x2-y2    tot
    1  0.000  0.000  0.020  0.000  0.000  0.113  0.000  0.339  0.000  0.473
    2  0.000  0.000  0.020  0.000  0.000  0.113  0.000  0.339  0.000  0.473
tot    0.000  0.000  0.041  0.000  0.000  0.226  0.000  0.678  0.000  0.945
 
band     8 # energy    7.43522520 # occ.  1.00000000
 
ion      s     py     pz     px    dxy    dyz    dz2    dxz  x2-y2    tot
    1  0.000  0.001  0.000  0.000  0.121  0.000  0.000  0.000  0.364  0.486
    2  0.000  0.001  0.000  0.000  0.121  0.000  0.000  0.000  0.364  0.486
tot    0.000  0.002  0.000  0.001  0.243  0.000  0.000  0.000  0.728  0.972
 
band     9 # energy    7.53503916 # occ.  1.00000000
 
ion      s     py     pz     px    dxy    dyz    dz2    dxz  x2-y2    tot
    1  0.000  0.000  0.000  0.000  0.000  0.365  0.000  0.122  0.000  0.487
    2  0.000  0.000  0.000  0.000  0.000  0.365  0.000  0.122  0.000  0.487
tot    0.000  0.000  0.000  0.000  0.000  0.731  0.000  0.244  0.000  0.974
 
band    10 # energy    7.84994203 # occ.  1.00000000
 
ion      s     py     pz     px    dxy    dyz    dz2    dxz  x2-y2    tot
    1  0.000  0.000  0.067  0.000  0.000  0.096  0.000  0.289  0.000  0.452
    2  0.000  0.000  0.067  0.000  0.000  0.096  0.000  0.289  0.000  0.452
tot    0.000  0.000  0.133  0.000  0.000  0.193  0.000  0.578  0.000  0.904
 
band    11 # energy    8.67870971 # occ.  1.00000000
 
ion      s     py     pz     px    dxy    dyz    dz2    dxz  x2-y2    tot
    1  0.000  0.000  0.000  0.000  0.000  0.370  0.000  0.123  0.000  0.493
    2  0.000  0.000  0.000  0.000  0.000  0.370  0.000  0.123  0.000  0.493
tot    0.000  0.000  0.000  0.000  0.000  0.740  0.000  0.247  0.000  0.986
 
band    12 # energy   10.78082407 # occ.  0.00000000
 
ion      s     py     pz     px    dxy    dyz    dz2    dxz  x2-y2    tot
    1  0.000  0.000  0.233  0.000  0.000  0.037  0.000  0.110  0.000  0.380
    2  0.000  0.000  0.233  0.000  0.000  0.037  0.000  0.110  0.000  0.380
tot    0.000  0.000  0.466  0.000  0.000  0.074  0.000  0.221  0.000  0.760
 
band    13 # energy   15.55068892 # occ.  0.00000000
 
ion      s     py     pz     px    dxy    dyz    dz2    dxz  x2-y2    tot
    1  0.217  0.002  0.000  0.007  0.000  0.000  0.210  0.000  0.000  0.437
    2  0.217  0.002  0.000  0.007  0.000  0.000  0.210  0.000  0.000  0.437
tot    0.434  0.005  0.000  0.015  0.000  0.000  0.420  0.000  0.000  0.874
 
band    14 # energy   28.36805521 # occ.  0.00000000
 
ion      s     py     pz     px    dxy    dyz    dz2    dxz  x2-y2    tot
    1  0.019  0.031  0.000  0.093  0.109  0.000  0.022  0.000  0.036  0.311
    2  0.019  0.031  0.000  0.093  0.109  0.000  0.022  0.000  0.036  0.311
tot    0.039  0.062  0.000  0.186  0.218  0.000  0.044  0.000  0.073  0.622
 
band    15 # energy   30.73251609 # occ.  0.00000000
 
ion      s     py     pz     px    dxy    dyz    dz2    dxz  x2-y2    tot
    1  0.000  0.178  0.000  0.059  0.036  0.000  0.000  0.000  0.109  0.382
    2  0.000  0.178  0.000  0.059  0.036  0.000  0.000  0.000  0.109  0.382
tot    0.000  0.355  0.000  0.118  0.073  0.000  0.000  0.000  0.218  0.764
 
band    16 # energy   31.22588433 # occ.  0.00000000
 
ion      s     py     pz     px    dxy    dyz    dz2    dxz  x2-y2    tot
    1  0.023  0.015  0.000  0.045  0.070  0.000  0.041  0.000  0.023  0.218
    2  0.023  0.015  0.000  0.045  0.070  0.000  0.041  0.000  0.023  0.218
tot    0.045  0.030  0.000  0.091  0.141  0.000  0.082  0.000  0.047  0.436
 

 k-point     3 :    0.20000000 0.00000000 0.00000000     weight = 0.00750000

band     1 # energy    2.24595333 # occ.  1.00000000
 
ion      s     py     pz     px    dxy    dyz    dz2    dxz  x2-y2    tot
    1  0.298  0.010  0.000  0.029  0.004  0.000  0.002  0.000  0.001  0.346
    2  0.298  0.010  0.000  0.029  0.004  0.000  0.002  0.000  0.001  0.346
tot    0.597  0.020  0.000  0.059  0.009  0.000  0.004  0.000  0.003  0.691
 
band     2 # energy    5.26626577 # occ.  1.00000000
 
ion      s     py     pz     px    dxy    dyz    dz2    dxz  x2-y2    tot
    1  0.039  0.004  0.000  0.012  0.041  0.000  0.338  0.000  0.014  0.447
    2  0.039  0.004  0.000  0.012  0.041  0.000  0.338  0.000  0.014  0.447
tot    0.077  0.008  0.000  0.025  0.081  0.000  0.675  0.000  0.027  0.894
 
band     3 # energy    6.47161421 # occ.  1.00000000
 
ion      s     py     pz     px    dxy    dyz    dz2    dxz  x2-y2    tot
    1  0.001  0.002  0.000  0.007  0.257  0.000  0.114  0.000  0.086  0.468
    2  0.001  0.002  0.000  0.007  0.257  0.000  0.114  0.000  0.086  0.468
tot    0.001  0.005  0.000  0.015  0.514  0.000  0.229  0.000  0.171  0.936
 
band     4 # energy    6.56775638 # occ.  1.00000000
 
ion      s     py     pz     px    dxy    dyz    dz2    dxz  x2-y2    tot
    1  0.000  0.000  0.052  0.000  0.000  0.098  0.000  0.293  0.000  0.443
    2  0.000  0.000  0.052  0.000  0.000  0.098  0.000  0.293  0.000  0.443
tot    0.000  0.000  0.105  0.000  0.000  0.196  0.000  0.587  0.000  0.887
 
band     5 # energy    7.05394972 # occ.  1.00000000
 
ion      s     py     pz     px    dxy    dyz    dz2    dxz  x2-y2    tot
    1  0.006  0.001  0.000  0.002  0.298  0.000  0.073  0.000  0.099  0.479
    2  0.006  0.001  0.000  0.002  0.298  0.000  0.073  0.000  0.099  0.479
tot    0.012  0.001  0.000  0.004  0.596  0.000  0.146  0.000  0.199  0.958
 
band     6 # energy    7.32506445 # occ.  1.00000000
 
ion      s     py     pz     px    dxy    dyz    dz2    dxz  x2-y2    tot
    1  0.000  0.000  0.000  0.000  0.000  0.363  0.000  0.121  0.000  0.485
    2  0.000  0.000  0.000  0.000  0.000  0.363  0.000  0.121  0.000  0.485
tot    0.000  0.000  0.000  0.000  0.000  0.727  0.000  0.242  0.000  0.969
 
band     7 # energy    7.52522932 # occ.  1.00000000
 
ion      s     py     pz     px    dxy    dyz    dz2    dxz  x2-y2    tot
    1  0.000  0.000  0.027  0.000  0.000  0.111  0.000  0.334  0.000  0.473
    2  0.000  0.000  0.027  0.000  0.000  0.111  0.000  0.334  0.000  0.473
tot    0.000  0.000  0.054  0.000  0.000  0.223  0.000  0.669  0.000  0.945
 
band     8 # energy    7.57811613 # occ.  1.00000000
 
ion      s     py     pz     px    dxy    dyz    dz2    dxz  x2-y2    tot
    1  0.000  0.002  0.000  0.001  0.120  0.000  0.000  0.000  0.361  0.483
    2  0.000  0.002  0.000  0.001  0.120  0.000  0.000  0.000  0.361  0.483
tot    0.000  0.003  0.000  0.001  0.241  0.000  0.000  0.000  0.722  0.967
 
band     9 # energy    7.59734970 # occ.  1.00000000
 
ion      s     py     pz     px    dxy    dyz    dz2    dxz  x2-y2    tot
    1  0.002  0.001  0.000  0.002  0.106  0.000  0.339  0.000  0.035  0.485
    2  0.002  0.001  0.000  0.002  0.106  0.000  0.339  0.000  0.035  0.485
tot    0.005  0.001  0.000  0.004  0.212  0.000  0.677  0.000  0.071  0.970
 
band    10 # energy    7.79446176 # occ.  1.00000000
 
ion      s     py     pz     px    dxy    dyz    dz2    dxz  x2-y2    tot
    1  0.000  0.002  0.000  0.001  0.121  0.000  0.000  0.000  0.364  0.488
    2  0.000  0.002  0.000  0.001  0.121  0.000  0.000  0.000  0.364  0.488
tot    0.000  0.003  0.000  0.001  0.243  0.000  0.000  0.000  0.728  0.975
 
band    11 # energy    8.74988028 # occ.  1.00000000
 
ion      s     py     pz     px    dxy    dyz    dz2    dxz  x2-y2    tot
    1  0.000  0.000  0.000  0.000  0.000  0.371  0.000  0.124  0.000  0.495
    2  0.000  0.000  0.000  0.000  0.000  0.371  0.000  0.124  0.000  0.495
tot    0.000  0.000  0.000  0.000  0.000  0.742  0.000  0.247  0.000  0.989
 
band    12 # energy   12.67444349 # occ.  0.00000000
 
ion      s     py     pz     px    dxy    dyz    dz2    dxz  x2-y2    tot
    1  0.000  0.000  0.229  0.000  0.000  0.040  0.000  0.119  0.000  0.389
    2  0.000  0.000  0.229  0.000  0.000  0.040  0.000  0.119  0.000  0.389
tot    0.000  0.000  0.459  0.000  0.000  0.080  0.000  0.239  0.000  0.777
 
band    13 # energy   15.79710940 # occ.  0.00000000
 
ion      s     py     pz     px    dxy    dyz    dz2    dxz  x2-y2    tot
    1  0.195  0.011  0.000  0.034  0.001  0.000  0.184  0.000  0.000  0.425
    2  0.195  0.011  0.000  0.034  0.001  0.000  0.184  0.000  0.000  0.425
tot    0.390  0.023  0.000  0.068  0.001  0.000  0.368  0.000  0.000  0.851
 
band    14 # energy   23.79887979 # occ.  0.00000000
 
ion      s     py     pz     px    dxy    dyz    dz2    dxz  x2-y2    tot
    1  0.059  0.038  0.000  0.113  0.103  0.000  0.021  0.000  0.034  0.367
    2  0.059  0.038  0.000  0.113  0.103  0.000  0.021  0.000  0.034  0.367
tot    0.119  0.075  0.000  0.226  0.205  0.000  0.041  0.000  0.068  0.734
 
band    15 # energy   28.06246294 # occ.  0.00000000
 
ion      s     py     pz     px    dxy    dyz    dz2    dxz  x2-y2    tot
    1  0.000  0.195  0.000  0.065  0.025  0.000  0.000  0.000  0.076  0.361
    2  0.000  0.195  0.000  0.065  0.025  0.000  0.000  0.000  0.076  0.361
tot    0.000  0.391  0.000  0.130  0.050  0.000  0.000  0.000  0.151  0.723
 
band    16 # energy   30.10765527 # occ.  0.00000000
 
ion      s     py     pz     px    dxy    dyz    dz2    dxz  x2-y2    tot
    1  0.016  0.004  0.000  0.012  0.168  0.000  0.045  0.000  0.056  0.302
    2  0.016  0.004  0.000  0.012  0.168  0.000  0.045  0.000  0.056  0.302
tot    0.033  0.008  0.000  0.024  0.337  0.000  0.089  0.000  0.112  0.603
 

 k-point     4 :    0.30000000 0.00000000 0.00000000     weight = 0.00750000

band     1 # energy    3.59200478 # occ.  1.00000000
 
ion      s     py     pz     px    dxy    dyz    dz2    dxz  x2-y2    tot
    1  0.234  0.017  0.000  0.050  0.036  0.000  0.011  0.000  0.012  0.359
    2  0.234  0.017  0.000  0.050  0.036  0.000  0.011  0.000  0.012  0.359
tot    0.467  0.033  0.000  0.100  0.072  0.000  0.022  0.000  0.024  0.717
 
band     2 # energy    5.39026042 # occ.  1.00000000
 
ion      s     py     pz     px    dxy    dyz    dz2    dxz  x2-y2    tot
    1  0.015  0.002  0.000  0.005  0.177  0.000  0.199  0.000  0.059  0.457
    2  0.015  0.002  0.000  0.005  0.177  0.000  0.199  0.000  0.059  0.457
tot    0.030  0.003  0.000  0.010  0.354  0.000  0.397  0.000  0.118  0.913
 
band     3 # energy    5.86637489 # occ.  1.00000000
 
ion      s     py     pz     px    dxy    dyz    dz2    dxz  x2-y2    tot
    1  0.000  0.000  0.036  0.000  0.000  0.101  0.000  0.304  0.000  0.442
    2  0.000  0.000  0.036  0.000  0.000  0.101  0.000  0.304  0.000  0.442
tot    0.000  0.000  0.073  0.000  0.000  0.203  0.000  0.608  0.000  0.884
 
band     4 # energy    6.45276701 # occ.  1.00000000
 
ion      s     py     pz     px    dxy    dyz    dz2    dxz  x2-y2    tot
    1  0.004  0.011  0.000  0.033  0.197  0.000  0.139  0.000  0.066  0.449
    2  0.004  0.011  0.000  0.033  0.197  0.000  0.139  0.000  0.066  0.449
tot    0.007  0.022  0.000  0.067  0.393  0.000  0.278  0.000  0.131  0.898
 
band     5 # energy    7.06610062 # occ.  1.00000000
 
ion      s     py     pz     px    dxy    dyz    dz2    dxz  x2-y2    tot
    1  0.010  0.002  0.000  0.007  0.176  0.000  0.222  0.000  0.059  0.475
    2  0.010  0.002  0.000  0.007  0.176  0.000  0.222  0.000  0.059  0.475
tot    0.020  0.005  0.000  0.014  0.351  0.000  0.444  0.000  0.117  0.951
 
band     6 # energy    7.09940407 # occ.  1.00000000
 
ion      s     py     pz     px    dxy    dyz    dz2    dxz  x2-y2    tot
    1  0.000  0.000  0.000  0.000  0.000  0.362  0.000  0.121  0.000  0.482
    2  0.000  0.000  0.000  0.000  0.000  0.362  0.000  0.121  0.000  0.482
tot    0.000  0.000  0.000  0.000  0.000  0.723  0.000  0.241  0.000  0.965
 
band     7 # energy    7.31326856 # occ.  1.00000000
 
ion      s     py     pz     px    dxy    dyz    dz2    dxz  x2-y2    tot
    1  0.000  0.000  0.024  0.000  0.000  0.112  0.000  0.336  0.000  0.473
    2  0.000  0.000  0.024  0.000  0.000  0.112  0.000  0.336  0.000  0.473
tot    0.000  0.000  0.048  0.000  0.000  0.224  0.000  0.673  0.000  0.945
 
band     8 # energy    8.12327910 # occ.  1.00000000
 
ion      s     py     pz     px    dxy    dyz    dz2    dxz  x2-y2    tot
    1  0.000  0.001  0.000  0.000  0.121  0.000  0.000  0.000  0.364  0.488
    2  0.000  0.001  0.000  0.000  0.121  0.000  0.000  0.000  0.364  0.488
tot    0.000  0.002  0.000  0.001  0.243  0.000  0.000  0.000  0.729  0.975
 
band     9 # energy    8.20308078 # occ.  1.00000000
 
ion      s     py     pz     px    dxy    dyz    dz2    dxz  x2-y2    tot
    1  0.011  0.003  0.000  0.010  0.104  0.000  0.319  0.000  0.035  0.481
    2  0.011  0.003  0.000  0.010  0.104  0.000  0.319  0.000  0.035  0.481
tot    0.022  0.007  0.000  0.020  0.208  0.000  0.637  0.000  0.069  0.963
 
band    10 # energy    8.27116206 # occ.  1.00000000
 
ion      s     py     pz     px    dxy    dyz    dz2    dxz  x2-y2    tot
    1  0.000  0.002  0.000  0.001  0.122  0.000  0.000  0.000  0.366  0.491
    2  0.000  0.002  0.000  0.001  0.122  0.000  0.000  0.000  0.366  0.491
tot    0.000  0.004  0.000  0.001  0.244  0.000  0.000  0.000  0.732  0.981
 
band    11 # energy    8.80604192 # occ.  1.00000000
 
ion      s     py     pz     px    dxy    dyz    dz2    dxz  x2-y2    tot
    1  0.000  0.000  0.000  0.000  0.000  0.372  0.000  0.124  0.000  0.495
    2  0.000  0.000  0.000  0.000  0.000  0.372  0.000  0.124  0.000  0.495
tot    0.000  0.000  0.000  0.000  0.000  0.743  0.000  0.248  0.000  0.991
 
band    12 # energy   14.84821812 # occ.  0.00000000
 
ion      s     py     pz     px    dxy    dyz    dz2    dxz  x2-y2    tot
    1  0.000  0.000  0.233  0.000  0.000  0.039  0.000  0.117  0.000  0.389
    2  0.000  0.000  0.233  0.000  0.000  0.039  0.000  0.117  0.000  0.389
tot    0.000  0.000  0.466  0.000  0.000  0.078  0.000  0.235  0.000  0.779
 
band    13 # energy   16.19985305 # occ.  0.00000000
 
ion      s     py     pz     px    dxy    dyz    dz2    dxz  x2-y2    tot
    1  0.113  0.036  0.000  0.108  0.000  0.000  0.149  0.000  0.000  0.406
    2  0.113  0.036  0.000  0.108  0.000  0.000  0.149  0.000  0.000  0.406
tot    0.226  0.072  0.000  0.215  0.000  0.000  0.299  0.000  0.000  0.812
 
band    14 # energy   19.74182517 # occ.  0.00000000
 
ion      s     py     pz     px    dxy    dyz    dz2    dxz  x2-y2    tot
    1  0.154  0.024  0.000  0.071  0.095  0.000  0.011  0.000  0.032  0.387
    2  0.154  0.024  0.000  0.071  0.095  0.000  0.011  0.000  0.032  0.387
tot    0.307  0.048  0.000  0.143  0.190  0.000  0.022  0.000  0.063  0.773
 
band    15 # energy   25.90305013 # occ.  0.00000000
 
ion      s     py     pz     px    dxy    dyz    dz2    dxz  x2-y2    tot
    1  0.000  0.214  0.000  0.071  0.013  0.000  0.000  0.000  0.040  0.339
    2  0.000  0.214  0.000  0.071  0.013  0.000  0.000  0.000  0.040  0.339
tot    0.000  0.428  0.000  0.143  0.027  0.000  0.000  0.000  0.080  0.677
 
band    16 # energy   27.18889478 # occ.  0.00000000
 
ion      s     py     pz     px    dxy    dyz    dz2    dxz  x2-y2    tot
    1  0.000  0.000  0.091  0.000  0.000  0.057  0.000  0.172  0.000  0.321
    2  0.000  0.000  0.091  0.000  0.000  0.057  0.000  0.172  0.000  0.321
tot    0.000  0.000  0.183  0.000  0.000  0.115  0.000  0.344  0.000  0.641
 

 k-point     5 :    0.40000000 0.00000000 0.00000000     weight = 0.00750000

band     1 # energy    4.66950263 # occ.  1.00000000
 
ion      s     py     pz     px    dxy    dyz    dz2    dxz  x2-y2    tot
    1  0.123  0.011  0.000  0.034  0.154  0.000  0.030  0.000  0.051  0.405
    2  0.123  0.011  0.000  0.034  0.154  0.000  0.030  0.000  0.051  0.405
tot    0.247  0.023  0.000  0.068  0.309  0.000  0.060  0.000  0.103  0.809
 
band     2 # energy    5.19175040 # occ.  1.00000000
 
ion      s     py     pz     px    dxy    dyz    dz2    dxz  x2-y2    tot
    1  0.016  0.000  0.000  0.001  0.243  0.000  0.114  0.000  0.081  0.455
    2  0.016  0.000  0.000  0.001  0.243  0.000  0.114  0.000  0.081  0.455
tot    0.032  0.001  0.000  0.002  0.485  0.000  0.229  0.000  0.162  0.910
 
band     3 # energy    5.44425581 # occ.  1.00000000
 
ion      s     py     pz     px    dxy    dyz    dz2    dxz  x2-y2    tot
    1  0.000  0.000  0.021  0.000  0.000  0.106  0.000  0.317  0.000  0.444
    2  0.000  0.000  0.021  0.000  0.000  0.106  0.000  0.317  0.000  0.444
tot    0.000  0.000  0.041  0.000  0.000  0.211  0.000  0.634  0.000  0.887
 
band     4 # energy    6.80478814 # occ.  1.00000000
 
ion      s     py     pz     px    dxy    dyz    dz2    dxz  x2-y2    tot
    1  0.024  0.025  0.000  0.074  0.095  0.000  0.168  0.000  0.032  0.418
    2  0.024  0.025  0.000  0.074  0.095  0.000  0.168  0.000  0.032  0.418
tot    0.048  0.049  0.000  0.148  0.191  0.000  0.337  0.000  0.064  0.836
 
band     5 # energy    6.93378595 # occ.  1.00000000
 
ion      s     py     pz     px    dxy    dyz    dz2    dxz  x2-y2    tot
    1  0.000  0.000  0.000  0.000  0.000  0.361  0.000  0.120  0.000  0.481
    2  0.000  0.000  0.000  0.000  0.000  0.361  0.000  0.120  0.000  0.481
tot    0.000  0.000  0.000  0.000  0.000  0.721  0.000  0.240  0.000  0.962
 
band     6 # energy    7.15420230 # occ.  1.00000000
 
ion      s     py     pz     px    dxy    dyz    dz2    dxz  x2-y2    tot
    1  0.000  0.000  0.025  0.000  0.000  0.111  0.000  0.334  0.000  0.471
    2  0.000  0.000  0.025  0.000  0.000  0.111  0.000  0.334  0.000  0.471
tot    0.000  0.000  0.051  0.000  0.000  0.223  0.000  0.668  0.000  0.942
 
band     7 # energy    7.29599124 # occ.  1.00000000
 
ion      s     py     pz     px    dxy    dyz    dz2    dxz  x2-y2    tot
    1  0.003  0.004  0.000  0.013  0.075  0.000  0.357  0.000  0.025  0.477
    2  0.003  0.004  0.000  0.013  0.075  0.000  0.357  0.000  0.025  0.477
tot    0.006  0.009  0.000  0.026  0.150  0.000  0.714  0.000  0.050  0.955
 
band     8 # energy    8.58443380 # occ.  1.00000000
 
ion      s     py     pz     px    dxy    dyz    dz2    dxz  x2-y2    tot
    1  0.000  0.000  0.000  0.000  0.123  0.000  0.000  0.000  0.369  0.493
    2  0.000  0.000  0.000  0.000  0.123  0.000  0.000  0.000  0.369  0.493
tot    0.000  0.000  0.000  0.000  0.246  0.000  0.000  0.000  0.739  0.986
 
band     9 # energy    8.70746947 # occ.  1.00000000
 
ion      s     py     pz     px    dxy    dyz    dz2    dxz  x2-y2    tot
    1  0.000  0.001  0.000  0.000  0.123  0.000  0.000  0.000  0.369  0.494
    2  0.000  0.001  0.000  0.000  0.123  0.000  0.000  0.000  0.369  0.494
tot    0.000  0.002  0.000  0.001  0.246  0.000  0.000  0.000  0.739  0.988
 
band    10 # energy    8.83616729 # occ.  1.00000000
 
ion      s     py     pz     px    dxy    dyz    dz2    dxz  x2-y2    tot
    1  0.000  0.000  0.000  0.000  0.000  0.372  0.000  0.124  0.000  0.496
    2  0.000  0.000  0.000  0.000  0.000  0.372  0.000  0.124  0.000  0.496
tot    0.000  0.000  0.000  0.000  0.000  0.744  0.000  0.248  0.000  0.992
 
band    11 # energy    9.31314681 # occ.  1.00000000
 
ion      s     py     pz     px    dxy    dyz    dz2    dxz  x2-y2    tot
    1  0.036  0.014  0.000  0.041  0.099  0.000  0.236  0.000  0.033  0.459
    2  0.036  0.014  0.000  0.041  0.099  0.000  0.236  0.000  0.033  0.459
tot    0.071  0.027  0.000  0.082  0.199  0.000  0.473  0.000  0.066  0.919
 
band    12 # energy   14.83391201 # occ.  0.00000000
 
ion      s     py     pz     px    dxy    dyz    dz2    dxz  x2-y2    tot
    1  0.032  0.053  0.000  0.160  0.045  0.000  0.096  0.000  0.015  0.401
    2  0.032  0.053  0.000  0.160  0.045  0.000  0.096  0.000  0.015  0.401
tot    0.064  0.106  0.000  0.319  0.091  0.000  0.192  0.000  0.030  0.803
 
band    13 # energy   17.20170511 # occ.  0.00000000
 
ion      s     py     pz     px    dxy    dyz    dz2    dxz  x2-y2    tot
    1  0.000  0.000  0.240  0.000  0.000  0.037  0.000  0.111  0.000  0.387
    2  0.000  0.000  0.240  0.000  0.000  0.037  0.000  0.111  0.000  0.387
tot    0.000  0.000  0.479  0.000  0.000  0.074  0.000  0.221  0.000  0.774
 
band    14 # energy   18.54769818 # occ.  0.00000000
 
ion      s     py     pz     px    dxy    dyz    dz2    dxz  x2-y2    tot
    1  0.222  0.017  0.000  0.050  0.057  0.000  0.021  0.000  0.019  0.386
    2  0.222  0.017  0.000  0.050  0.057  0.000  0.021  0.000  0.019  0.386
tot    0.444  0.033  0.000  0.100  0.114  0.000  0.042  0.000  0.038  0.772
 
band    15 # energy   23.86080235 # occ.  0.00000000
 
ion      s     py     pz     px    dxy    dyz    dz2    dxz  x2-y2    tot
    1  0.000  0.000  0.111  0.000  0.000  0.060  0.000  0.181  0.000  0.352
    2  0.000  0.000  0.111  0.000  0.000  0.060  0.000  0.181  0.000  0.352
tot    0.000  0.000  0.223  0.000  0.000  0.120  0.000  0.361  0.000  0.705
 
band    16 # energy   24.45338567 # occ.  0.00000000
 
ion      s     py     pz     px    dxy    dyz    dz2    dxz  x2-y2    tot
    1  0.000  0.229  0.000  0.076  0.004  0.000  0.000  0.000  0.011  0.320
    2  0.000  0.229  0.000  0.076  0.004  0.000  0.000  0.000  0.011  0.320
tot    0.000  0.457  0.000  0.152  0.008  0.000  0.000  0.000  0.023  0.640
 

 k-point     6 :    0.50000000 0.00000000 0.00000000     weight = 0.00375000

band     1 # energy    5.01916588 # occ.  1.00000000
 
ion      s     py     pz     px    dxy    dyz    dz2    dxz  x2-y2    tot
    1  0.081  0.005  0.000  0.016  0.222  0.000  0.035  0.000  0.074  0.434
    2  0.081  0.005  0.000  0.016  0.222  0.000  0.035  0.000  0.074  0.434
tot    0.162  0.011  0.000  0.033  0.445  0.000  0.070  0.000  0.148  0.869
 
band     2 # energy    5.02466715 # occ.  1.00000000
 
ion      s     py     pz     px    dxy    dyz    dz2    dxz  x2-y2    tot
    1  0.009  0.000  0.000  0.001  0.260  0.000  0.094  0.000  0.087  0.450
    2  0.009  0.000  0.000  0.001  0.260  0.000  0.094  0.000  0.087  0.450
tot    0.017  0.001  0.000  0.002  0.520  0.000  0.188  0.000  0.173  0.901