<?xml version="1.0" encoding="ISO-8859-1"?>
<modeling>
 <generator>
  <i name="program" type="string">vasp </i>
  <i name="version" type="string">6.3.2  </i>
  <i name="subversion" type="string">27Jun22 (build Aug 12 2022 00:53:59) complex                          parallel </i>
  <i name="platform" type="string">tv2STD </i>
  <i name="date" type="string">2024 12 03 </i>
  <i name="time" type="string">02:40:29 </i>
 </generator>
 <incar>
  <i type="string" name="SYSTEM">Co-hcc</i>
  <i type="int" name="ISTART">     0</i>
  <i type="string" name="PREC">Accurate      normal | accurate</i>
  <i type="string" name="ALGO">Normal     Normal, Fast, Very_Fast</i>
  <i type="logical" name="ADDGRID"> F  </i>
  <i type="int" name="ISPIN">     2</i>
  <i type="int" name="ICHARG">     2</i>
  <i type="int" name="INIWAV">     1</i>
  <i type="int" name="NELM">   100</i>
  <i type="int" name="IBRION">     2</i>
  <i name="EDIFF">      0.00000100</i>
  <i name="EDIFFG">     -0.02000000</i>
  <i type="int" name="NSW">   100</i>
  <i type="int" name="ISIF">     2</i>
  <i type="int" name="ISYM">     1</i>
  <i name="ENCUT">    425.00000000</i>
  <v name="MAGMOM">      3.00000000      3.00000000</v>
  <i type="logical" name="LREAL"> F  </i>
  <i type="int" name="ISMEAR">     0</i>
  <i name="SIGMA">      0.05000000</i>
  <i type="int" name="NWRITE">     2</i>
  <i type="logical" name="LWAVE"> F  </i>
  <i type="logical" name="LCHARG"> F  </i>
  <i type="int" name="LORBIT">    11</i>
 </incar>
 <primitive_cell>
  <structure name="primitive_cell" >
   <crystal>
    <varray name="basis" >
     <v>       1.30844470      -2.26629269       0.00000000 </v>
     <v>       1.30844470       2.26629269       0.00000000 </v>
     <v>       0.00000000       0.00000000       4.22116635 </v>
    </varray>
    <i name="volume">     25.03420659 </i>
    <varray name="rec_basis" >
     <v>       0.38213308      -0.22062464       0.00000000 </v>
     <v>       0.38213308       0.22062464       0.00000000 </v>
     <v>       0.00000000       0.00000000       0.23690135 </v>
    </varray>
   </crystal>
   <varray name="positions" >
    <v>       0.33333333       0.66666667       0.25000000 </v>
    <v>       0.66666667       0.33333333       0.75000000 </v>
   </varray>
  </structure>
  <varray name="primitive_index" >
   <v type="int" >        1 </v>
   <v type="int" >        2 </v>
  </varray>
 </primitive_cell>
 <kpoints>
  <generation param="Gamma">
   <v type="int" name="divisions">      12       12        8 </v>
   <v name="usershift">      0.00000000       0.00000000       0.00000000 </v>
   <v name="genvec1">      0.08333333       0.00000000       0.00000000 </v>
   <v name="genvec2">      0.00000000       0.08333333       0.00000000 </v>
   <v name="genvec3">      0.00000000       0.00000000       0.12500000 </v>
   <v name="shift">      0.00000000       0.00000000       0.00000000 </v>
  </generation>
  <varray name="kpointlist" >
   <v>       0.00000000       0.00000000       0.00000000 </v>
   <v>       0.08333333       0.00000000       0.00000000 </v>
   <v>       0.16666667       0.00000000       0.00000000 </v>
   <v>       0.25000000      -0.00000000       0.00000000 </v>
   <v>       0.33333333       0.00000000       0.00000000 </v>
   <v>       0.41666667      -0.00000000       0.00000000 </v>
   <v>       0.50000000      -0.00000000       0.00000000 </v>
   <v>       0.08333333       0.08333333       0.00000000 </v>
   <v>       0.16666667       0.08333333       0.00000000 </v>
   <v>       0.25000000       0.08333333       0.00000000 </v>
   <v>       0.33333333       0.08333333       0.00000000 </v>
   <v>       0.41666667       0.08333333       0.00000000 </v>
   <v>       0.16666667       0.16666667       0.00000000 </v>
   <v>       0.25000000       0.16666667       0.00000000 </v>
   <v>       0.33333333       0.16666667       0.00000000 </v>
   <v>       0.41666667       0.16666667       0.00000000 </v>
   <v>       0.25000000       0.25000000       0.00000000 </v>
   <v>       0.33333333       0.25000000       0.00000000 </v>
   <v>       0.33333333       0.33333333       0.00000000 </v>
   <v>       0.00000000       0.00000000       0.12500000 </v>
   <v>       0.08333333       0.00000000       0.12500000 </v>
   <v>       0.16666667       0.00000000       0.12500000 </v>
   <v>       0.25000000      -0.00000000       0.12500000 </v>
   <v>       0.33333333       0.00000000       0.12500000 </v>
   <v>       0.41666667      -0.00000000       0.12500000 </v>
   <v>       0.50000000      -0.00000000       0.12500000 </v>
   <v>       0.08333333       0.08333333       0.12500000 </v>
   <v>       0.16666667       0.08333333       0.12500000 </v>
   <v>       0.25000000       0.08333333       0.12500000 </v>
   <v>       0.33333333       0.08333333       0.12500000 </v>
   <v>       0.41666667       0.08333333       0.12500000 </v>
   <v>       0.16666667       0.16666667       0.12500000 </v>
   <v>       0.25000000       0.16666667       0.12500000 </v>
   <v>       0.33333333       0.16666667       0.12500000 </v>
   <v>       0.41666667       0.16666667       0.12500000 </v>
   <v>       0.25000000       0.25000000       0.12500000 </v>
   <v>       0.33333333       0.25000000       0.12500000 </v>
   <v>       0.33333333       0.33333333       0.12500000 </v>
   <v>       0.00000000       0.00000000       0.25000000 </v>
   <v>       0.08333333       0.00000000       0.25000000 </v>
   <v>       0.16666667       0.00000000       0.25000000 </v>
   <v>       0.25000000      -0.00000000       0.25000000 </v>
   <v>       0.33333333       0.00000000       0.25000000 </v>
   <v>       0.41666667      -0.00000000       0.25000000 </v>
   <v>       0.50000000      -0.00000000       0.25000000 </v>
   <v>       0.08333333       0.08333333       0.25000000 </v>
   <v>       0.16666667       0.08333333       0.25000000 </v>
   <v>       0.25000000       0.08333333       0.25000000 </v>
   <v>       0.33333333       0.08333333       0.25000000 </v>
   <v>       0.41666667       0.08333333       0.25000000 </v>
   <v>       0.16666667       0.16666667       0.25000000 </v>
   <v>       0.25000000       0.16666667       0.25000000 </v>
   <v>       0.33333333       0.16666667       0.25000000 </v>
   <v>       0.41666667       0.16666667       0.25000000 </v>
   <v>       0.25000000       0.25000000       0.25000000 </v>
   <v>       0.33333333       0.25000000       0.25000000 </v>
   <v>       0.33333333       0.33333333       0.25000000 </v>
   <v>       0.00000000       0.00000000       0.37500000 </v>
   <v>       0.08333333       0.00000000       0.37500000 </v>
   <v>       0.16666667       0.00000000       0.37500000 </v>
   <v>       0.25000000      -0.00000000       0.37500000 </v>
   <v>       0.33333333       0.00000000       0.37500000 </v>
   <v>       0.41666667      -0.00000000       0.37500000 </v>
   <v>       0.50000000      -0.00000000       0.37500000 </v>
   <v>       0.08333333       0.08333333       0.37500000 </v>
   <v>       0.16666667       0.08333333       0.37500000 </v>
   <v>       0.25000000       0.08333333       0.37500000 </v>
   <v>       0.33333333       0.08333333       0.37500000 </v>
   <v>       0.41666667       0.08333333       0.37500000 </v>
   <v>       0.16666667       0.16666667       0.37500000 </v>
   <v>       0.25000000       0.16666667       0.37500000 </v>
   <v>       0.33333333       0.16666667       0.37500000 </v>
   <v>       0.41666667       0.16666667       0.37500000 </v>
   <v>       0.25000000       0.25000000       0.37500000 </v>
   <v>       0.33333333       0.25000000       0.37500000 </v>
   <v>       0.33333333       0.33333333       0.37500000 </v>
   <v>       0.00000000       0.00000000       0.50000000 </v>
   <v>       0.08333333       0.00000000       0.50000000 </v>
   <v>       0.16666667       0.00000000       0.50000000 </v>
   <v>       0.25000000      -0.00000000       0.50000000 </v>
   <v>       0.33333333       0.00000000       0.50000000 </v>
   <v>       0.41666667      -0.00000000       0.50000000 </v>
   <v>       0.50000000      -0.00000000       0.50000000 </v>
   <v>       0.08333333       0.08333333       0.50000000 </v>
   <v>       0.16666667       0.08333333       0.50000000 </v>
   <v>       0.25000000       0.08333333       0.50000000 </v>
   <v>       0.33333333       0.08333333       0.50000000 </v>
   <v>       0.41666667       0.08333333       0.50000000 </v>
   <v>       0.16666667       0.16666667       0.50000000 </v>
   <v>       0.25000000       0.16666667       0.50000000 </v>
   <v>       0.33333333       0.16666667       0.50000000 </v>
   <v>       0.41666667       0.16666667       0.50000000 </v>
   <v>       0.25000000       0.25000000       0.50000000 </v>
   <v>       0.33333333       0.25000000       0.50000000 </v>
   <v>       0.33333333       0.33333333       0.50000000 </v>
  </varray>
  <varray name="weights" >
   <v>       0.00086806 </v>
   <v>       0.00520833 </v>
   <v>       0.00520833 </v>
   <v>       0.00520833 </v>
   <v>       0.00520833 </v>
   <v>       0.00520833 </v>
   <v>       0.00260417 </v>
   <v>       0.00520833 </v>
   <v>       0.01041667 </v>
   <v>       0.01041667 </v>
   <v>       0.01041667 </v>
   <v>       0.01041667 </v>
   <v>       0.00520833 </v>
   <v>       0.01041667 </v>
   <v>       0.01041667 </v>
   <v>       0.00520833 </v>
   <v>       0.00520833 </v>
   <v>       0.01041667 </v>
   <v>       0.00173611 </v>
   <v>       0.00173611 </v>
   <v>       0.01041667 </v>
   <v>       0.01041667 </v>
   <v>       0.01041667 </v>
   <v>       0.01041667 </v>
   <v>       0.01041667 </v>
   <v>       0.00520833 </v>
   <v>       0.01041667 </v>
   <v>       0.02083333 </v>
   <v>       0.02083333 </v>
   <v>       0.02083333 </v>
   <v>       0.02083333 </v>
   <v>       0.01041667 </v>
   <v>       0.02083333 </v>
   <v>       0.02083333 </v>
   <v>       0.01041667 </v>
   <v>       0.01041667 </v>
   <v>       0.02083333 </v>
   <v>       0.00347222 </v>
   <v>       0.00173611 </v>
   <v>       0.01041667 </v>
   <v>       0.01041667 </v>
   <v>       0.01041667 </v>
   <v>       0.01041667 </v>
   <v>       0.01041667 </v>
   <v>       0.00520833 </v>
   <v>       0.01041667 </v>
   <v>       0.02083333 </v>
   <v>       0.02083333 </v>
   <v>       0.02083333 </v>
   <v>       0.02083333 </v>
   <v>       0.01041667 </v>
   <v>       0.02083333 </v>
   <v>       0.02083333 </v>
   <v>       0.01041667 </v>
   <v>       0.01041667 </v>
   <v>       0.02083333 </v>
   <v>       0.00347222 </v>
   <v>       0.00173611 </v>
   <v>       0.01041667 </v>
   <v>       0.01041667 </v>
   <v>       0.01041667 </v>
   <v>       0.01041667 </v>
   <v>       0.01041667 </v>
   <v>       0.00520833 </v>
   <v>       0.01041667 </v>
   <v>       0.02083333 </v>
   <v>       0.02083333 </v>
   <v>       0.02083333 </v>
   <v>       0.02083333 </v>
   <v>       0.01041667 </v>
   <v>       0.02083333 </v>
   <v>       0.02083333 </v>
   <v>       0.01041667 </v>
   <v>       0.01041667 </v>
   <v>       0.02083333 </v>
   <v>       0.00347222 </v>
   <v>       0.00086806 </v>
   <v>       0.00520833 </v>
   <v>       0.00520833 </v>
   <v>       0.00520833 </v>
   <v>       0.00520833 </v>
   <v>       0.00520833 </v>
   <v>       0.00260417 </v>
   <v>       0.00520833 </v>
   <v>       0.01041667 </v>
   <v>       0.01041667 </v>
   <v>       0.01041667 </v>
   <v>       0.01041667 </v>
   <v>       0.00520833 </v>
   <v>       0.01041667 </v>
   <v>       0.01041667 </v>
   <v>       0.00520833 </v>
   <v>       0.00520833 </v>
   <v>       0.01041667 </v>
   <v>       0.00173611 </v>
  </varray>
 </kpoints>
 <parameters>
  <separator name="general" >
   <i type="string" name="SYSTEM">Co-hcc</i>
   <i type="logical" name="LCOMPAT"> F  </i>
  </separator>
  <separator name="electronic" >
   <i type="string" name="PREC">accura</i>
   <i name="ENMAX">    425.00000000</i>
   <i name="ENAUG">    477.81800000</i>
   <i name="EDIFF">      0.00000100</i>
   <i type="int" name="IALGO">    38</i>
   <i type="int" name="IWAVPR">    11</i>
   <i type="int" name="NBANDS">    28</i>
   <i type="int" name="NBANDSLOW">    -1</i>
   <i type="int" name="NBANDSHIGH">    -1</i>
   <i name="NELECT">     18.00000000</i>
   <i type="int" name="TURBO">     0</i>
   <i type="int" name="IRESTART">     0</i>
   <i type="int" name="NREBOOT">     0</i>
   <i type="int" name="NMIN">     0</i>
   <i name="EREF">      0.00000000</i>
   <separator name="electronic smearing" >
    <i type="int" name="ISMEAR">     0</i>
    <i name="SIGMA">      0.05000000</i>
    <i name="KSPACING">      0.50000000</i>
    <i type="logical" name="KGAMMA"> T  </i>
    <i type="logical" name="KBLOWUP"> T  </i>
   </separator>
   <separator name="electronic projectors" >
    <i type="logical" name="LREAL"> F  </i>
    <v name="ROPT">      0.00000000</v>
    <i type="int" name="LMAXPAW">  -100</i>
    <i type="int" name="LMAXMIX">     2</i>
    <i type="logical" name="NLSPLINE"> F  </i>
   </separator>
   <separator name="electronic startup" >
    <i type="int" name="ISTART">     0</i>
    <i type="int" name="ICHARG">     2</i>
    <i type="int" name="INIWAV">     1</i>
   </separator>
   <separator name="electronic spin" >
    <i type="int" name="ISPIN">     2</i>
    <i type="logical" name="LNONCOLLINEAR"> F  </i>
    <v name="MAGMOM">      3.00000000      3.00000000</v>
    <i name="NUPDOWN">     -1.00000000</i>
    <i type="logical" name="LSORBIT"> F  </i>
    <v name="SAXIS">      0.00000000      0.00000000      1.00000000</v>
    <i type="logical" name="LSPIRAL"> F  </i>
    <v name="QSPIRAL">      0.00000000      0.00000000      0.00000000</v>
    <i type="logical" name="LZEROZ"> F  </i>
   </separator>
   <separator name="electronic exchange-correlation" >
    <i type="logical" name="LASPH"> F  </i>
    <i type="logical" name="LMETAGGA"> F  </i>
   </separator>
   <separator name="electronic convergence" >
    <i type="int" name="NELM">   100</i>
    <i type="int" name="NELMDL">    -5</i>
    <i type="int" name="NELMIN">     2</i>
    <i name="ENINI">    425.00000000</i>
    <separator name="electronic convergence detail" >
     <i type="logical" name="LDIAG"> T  </i>
     <i type="logical" name="LSUBROT"> F  </i>
     <i name="WEIMIN">      0.00100000</i>
     <i name="EBREAK">      0.00000001</i>
     <i name="DEPER">      0.30000000</i>
     <i type="int" name="NRMM">     4</i>
     <i name="TIME">      0.40000000</i>
    </separator>
   </separator>
   <separator name="electronic mixer" >
    <i name="AMIX">      0.40000000</i>
    <i name="BMIX">      1.00000000</i>
    <i name="AMIN">      0.10000000</i>
    <i name="AMIX_MAG">      1.60000000</i>
    <i name="BMIX_MAG">      1.00000000</i>
    <separator name="electronic mixer details" >
     <i type="int" name="IMIX">     4</i>
     <i type="logical" name="MIXFIRST"> F  </i>
     <i type="int" name="MAXMIX">   -45</i>
     <i name="WC">    100.00000000</i>
     <i type="int" name="INIMIX">     1</i>
     <i type="int" name="MIXPRE">     1</i>
     <i type="int" name="MREMOVE">     5</i>
    </separator>
   </separator>
   <separator name="electronic dipolcorrection" >
    <i type="logical" name="LDIPOL"> F  </i>
    <i type="logical" name="LMONO"> F  </i>
    <i type="int" name="IDIPOL">     0</i>
    <i name="EPSILON">      1.00000000</i>
    <v name="DIPOL">   -100.00000000   -100.00000000   -100.00000000</v>
    <i name="EFIELD">      0.00000000</i>
   </separator>
  </separator>
  <separator name="grids" >
   <i type="int" name="NGX">    18</i>
   <i type="int" name="NGY">    18</i>
   <i type="int" name="NGZ">    28</i>
   <i type="int" name="NGXF">    36</i>
   <i type="int" name="NGYF">    36</i>
   <i type="int" name="NGZF">    56</i>
   <i type="logical" name="ADDGRID"> F  </i>
  </separator>
  <separator name="ionic" >
   <i type="int" name="NSW">   100</i>
   <i type="int" name="IBRION">     2</i>
   <i type="int" name="MDALGO">     0</i>
   <i type="int" name="ISIF">     2</i>
   <i name="PSTRESS">      0.00000000</i>
   <i name="EDIFFG">     -0.02000000</i>
   <i type="int" name="NFREE">     1</i>
   <i name="POTIM">      0.50000000</i>
   <i name="SMASS">     -3.00000000</i>
   <i name="SCALEE">      1.00000000</i>
  </separator>
  <separator name="ionic md" >
   <i name="TEBEG">      0.00010000</i>
   <i name="TEEND">      0.00010000</i>
   <i type="int" name="NBLOCK">     1</i>
   <i type="int" name="KBLOCK">   100</i>
   <i type="int" name="NPACO">   256</i>
   <i name="APACO">     10.00000000</i>
  </separator>
  <separator name="symmetry" >
   <i type="int" name="ISYM">     1</i>
   <i name="SYMPREC">      0.00001000</i>
  </separator>
  <separator name="dos" >
   <i type="int" name="LORBIT">    11</i>
   <v name="RWIGS">     -1.00000000</v>
   <i type="int" name="NEDOS">   301</i>
   <i name="EMIN">     10.00000000</i>
   <i name="EMAX">    -10.00000000</i>
   <i name="EFERMI">      0.00000000</i>
  </separator>
  <separator name="writing" >
   <i type="int" name="NWRITE">     2</i>
   <i type="logical" name="LWAVE"> F  </i>
   <i type="logical" name="LDOWNSAMPLE"> F  </i>
   <i type="logical" name="LCHARG"> F  </i>
   <i type="logical" name="LPARD"> F  </i>
   <i type="logical" name="LVTOT"> F  </i>
   <i type="logical" name="LVHAR"> F  </i>
   <i type="logical" name="LELF"> F  </i>
   <i type="logical" name="LOPTICS"> F  </i>
   <v name="STM">      0.00000000      0.00000000      0.00000000      0.00000000      0.00000000      0.00000000      0.00000000</v>
  </separator>
  <separator name="performance" >
   <i type="int" name="NPAR">    28</i>
   <i type="int" name="NSIM">     4</i>
   <i type="int" name="NBLK">    -1</i>
   <i type="logical" name="LPLANE"> T  </i>
   <i type="logical" name="LSCALAPACK"> T  </i>
   <i type="logical" name="LSCAAWARE"> T  </i>
   <i type="logical" name="LSCALU"> F  </i>
   <i type="logical" name="LASYNC"> F  </i>
   <i type="logical" name="LORBITALREAL"> F  </i>
  </separator>
  <separator name="miscellaneous" >
   <i type="int" name="IDIOT">     3</i>
   <i type="int" name="PHON_NSTRUCT">    -1</i>
   <i type="logical" name="LMUSIC"> F  </i>
   <v name="POMASS">     58.93300000</v>
   <v name="DARWINR">      0.00000000</v>
   <v name="DARWINV">      1.00000000</v>
   <i type="logical" name="LCORR"> T  </i>
  </separator>
  <i type="logical" name="GGA_COMPAT"> T  </i>
  <i type="logical" name="LBERRY"> F  </i>
  <i type="int" name="ICORELEVEL">     0</i>
  <i type="logical" name="LDAU"> F  </i>
  <i type="int" name="I_CONSTRAINED_M">     0</i>
  <separator name="electronic exchange-correlation" >
   <i type="string" name="GGA">--</i>
   <i type="int" name="VOSKOWN">     0</i>
   <i type="logical" name="LHFCALC"> F  </i>
   <i type="string" name="PRECFOCK"></i>
   <i type="logical" name="LSYMGRAD"> F  </i>
   <i type="logical" name="LHFONE"> F  </i>
   <i type="logical" name="LRHFCALC"> F  </i>
   <i type="logical" name="LTHOMAS"> F  </i>
   <i type="logical" name="LMODELHF"> F  </i>
   <i type="logical" name="LFOCKACE"> F  </i>
   <i name="ENCUT4O">     -1.00000000</i>
   <i type="int" name="EXXOEP">     0</i>
   <i type="int" name="FOURORBIT">     0</i>
   <i name="AEXX">      0.00000000</i>
   <i name="HFALPHA">      0.00000000</i>
   <i name="MCALPHA">      0.00000000</i>
   <i name="ALDAX">      1.00000000</i>
   <i name="AGGAX">      1.00000000</i>
   <i name="ALDAC">      1.00000000</i>
   <i name="AGGAC">      1.00000000</i>
   <i type="int" name="NKREDX">     1</i>
   <i type="int" name="NKREDY">     1</i>
   <i type="int" name="NKREDZ">     1</i>
   <i type="logical" name="SHIFTRED"> F  </i>
   <i type="logical" name="ODDONLY"> F  </i>
   <i type="logical" name="EVENONLY"> F  </i>
   <i type="int" name="LMAXFOCK">     0</i>
   <i type="int" name="NMAXFOCKAE">     0</i>
   <i type="logical" name="LFOCKAEDFT"> F  </i>
   <i name="HFSCREEN">      0.00000000</i>
   <i name="HFSCREENC">      0.00000000</i>
   <i type="int" name="NBANDSGWLOW">     0</i>
  </separator>
  <separator name="vdW DFT" >
   <i type="logical" name="LUSE_VDW"> F  </i>
   <i name="Zab_VDW">     -0.84910000</i>
   <i name="PARAM1">      0.12340000</i>
   <i name="PARAM2">      1.00000000</i>
   <i name="PARAM3">      0.00000000</i>
  </separator>
  <separator name="model GW" >
   <i type="int" name="MODEL_GW">     0</i>
   <i name="MODEL_EPS0">      7.51026198</i>
   <i name="MODEL_ALPHA">      1.00000000</i>
  </separator>
  <separator name="linear response parameters" >
   <i type="logical" name="LEPSILON"> F  </i>
   <i type="logical" name="LRPA"> F  </i>
   <i type="logical" name="LNABLA"> F  </i>
   <i type="logical" name="LVEL"> F  </i>
   <i name="CSHIFT">      0.10000000</i>
   <i name="OMEGAMAX">     -1.00000000</i>
   <i name="DEG_THRESHOLD">      0.00200000</i>
   <i name="RTIME">     -0.10000000</i>
   <i name="WPLASMAI">      0.00000000</i>
   <v name="DFIELD">      0.00000000      0.00000000      0.00000000</v>
   <v name="WPLASMA">      0.00000000      0.00000000      0.00000000      0.00000000      0.00000000      0.00000000      0.00000000      0.00000000      0.00000000</v>
  </separator>
  <separator name="orbital magnetization" >
   <i type="logical" name="NUCIND"> F  </i>
   <v name="MAGPOS">      0.00000000      0.00000000      0.00000000</v>
   <i type="logical" name="LNICSALL"> T  </i>
   <i type="logical" name="ORBITALMAG"> F  </i>
   <i type="logical" name="LMAGBLOCH"> F  </i>
   <i type="logical" name="LCHIMAG"> F  </i>
   <i type="logical" name="LGAUGE"> T  </i>
   <i type="int" name="MAGATOM">     0</i>
   <v name="MAGDIPOL">      0.00000000      0.00000000      0.00000000</v>
   <v name="AVECCONST">      0.00000000      0.00000000      0.00000000</v>
  </separator>
  <separator name="response functions" >
   <i type="logical" name="LFINITE_TEMPERATURE"> F  </i>
   <i type="logical" name="LADDER"> F  </i>
   <i type="logical" name="LRPAFORCE"> F  </i>
   <i type="logical" name="LFXC"> F  </i>
   <i type="logical" name="LHARTREE"> T  </i>
   <i type="int" name="IBSE">     0</i>
   <v type="int" name="KPOINT">    -1     0     0     0</v>
   <i type="logical" name="LTCTC"> F  </i>
   <i type="logical" name="LTCTE"> F  </i>
   <i type="logical" name="LTETE"> F  </i>
   <i type="logical" name="LTRIPLET"> F  </i>
   <i type="logical" name="LFXCEPS"> F  </i>
   <i type="logical" name="LFXHEG"> F  </i>
   <i type="int" name="NATURALO">     2</i>
   <i type="logical" name="LHOLEGF"> F  </i>
   <i type="logical" name="L2ORDER"> F  </i>
   <i type="logical" name="LDMP1"> F  </i>
   <i type="logical" name="LMP2LT"> F  </i>
   <i type="logical" name="LSMP2LT"> F  </i>
   <i type="logical" name="LGWLF"> F  </i>
   <i name="ENCUTGW">     -2.00000000</i>
   <i name="ENCUTGWSOFT">     -2.00000000</i>
   <i name="ENCUTLF">     -1.00000000</i>
   <i type="logical" name="LESF_SPLINES"> F  </i>
   <i type="int" name="LMAXMP2">    -1</i>
   <i name="SCISSOR">      0.00000000</i>
   <i type="int" name="NOMEGA">     0</i>
   <i type="int" name="NOMEGAR">     0</i>
   <i type="int" name="NBANDSGW">    -1</i>
   <i type="int" name="NBANDSO">    -1</i>
   <i type="int" name="NBANDSV">    -1</i>
   <i type="int" name="NELMGW">     1</i>
   <i type="int" name="NELMHF">     1</i>
   <i type="int" name="DIM">     3</i>
   <i type="int" name="IESPILON">     4</i>
   <i type="int" name="ANTIRES">     0</i>
   <i name="OMEGAMAX">    -30.00000000</i>
   <i name="OMEGAMIN">    -30.00000000</i>
   <i name="OMEGATL">   -200.00000000</i>
   <i type="int" name="OMEGAGRID">     0</i>
   <i name="CSHIFT">     -0.10000000</i>
   <i type="logical" name="LSELFENERGY"> F  </i>
   <i type="logical" name="LSPECTRAL"> F  </i>
   <i type="logical" name="LSPECTRALGW"> F  </i>
   <i type="logical" name="LSINGLES"> F  </i>
   <i type="logical" name="LFERMIGW"> F  </i>
   <i type="logical" name="ODDONLYGW"> F  </i>
   <i type="logical" name="EVENONLYGW"> F  </i>
   <i type="int" name="NKREDLFX">     1</i>
   <i type="int" name="NKREDLFY">     1</i>
   <i type="int" name="NKREDLFZ">     1</i>
   <i type="int" name="MAXMEM">  2800</i>
   <i type="int" name="TELESCOPE">     0</i>
   <i type="int" name="NTAUPAR">    -1</i>
   <i type="int" name="NOMEGAPAR">    -1</i>
   <i name="DAMP_NEWTON">      0.80000001</i>
   <i name="LAMBDA">      1.00000000</i>
  </separator>
  <separator name="External order field" >
   <i name="OFIELD_KAPPA">      0.00000000</i>
   <v name="OFIELD_K">      0.00000000      0.00000000      0.00000000</v>
   <i name="OFIELD_Q6_NEAR">      0.00000000</i>
   <i name="OFIELD_Q6_FAR">      0.00000000</i>
   <i name="OFIELD_A">      0.00000000</i>
  </separator>
  <separator name="optional k-points parameters" >
   <i type="int" name="KPOINTS_OPT_MODE">     1</i>
   <i type="logical" name="LKPOINTS_OPT"> F  </i>
  </separator>
 </parameters>
 <atominfo>
  <atoms>       2 </atoms>
  <types>       1 </types>
  <array name="atoms" >
   <dimension dim="1">ion</dimension>
   <field type="string">element</field>
   <field type="int">atomtype</field>
   <set>
    <rc><c>Co</c><c>   1</c></rc>
    <rc><c>Co</c><c>   1</c></rc>
   </set>
  </array>
  <array name="atomtypes" >
   <dimension dim="1">type</dimension>
   <field type="int">atomspertype</field>
   <field type="string">element</field>
   <field>mass</field>
   <field>valence</field>
   <field type="string">pseudopotential</field>
   <set>
    <rc><c>   2</c><c>Co</c><c>     58.93300000</c><c>      9.00000000</c><c>  PAW_PBE Co 02Aug2007                  </c></rc>
   </set>
  </array>
 </atominfo>
 <structure name="initialpos" >
  <crystal>
   <varray name="basis" >
    <v>       1.30844470      -2.26629269       0.00000000 </v>
    <v>       1.30844470       2.26629269       0.00000000 </v>
    <v>       0.00000000       0.00000000       4.22116635 </v>
   </varray>
   <i name="volume">     25.03420659 </i>
   <varray name="rec_basis" >
    <v>       0.38213308      -0.22062464       0.00000000 </v>
    <v>       0.38213308       0.22062464       0.00000000 </v>
    <v>       0.00000000       0.00000000       0.23690135 </v>
   </varray>
  </crystal>
  <varray name="positions" >
   <v>       0.33333333       0.66666667       0.25000000 </v>
   <v>       0.66666667       0.33333333       0.75000000 </v>
  </varray>
 </structure>
 <calculation>
  <scstep>
   <time name="dav">    0.90    0.91</time>
   <time name="total">    0.91    0.92</time>
   <energy>
    <i name="alphaZ">     67.67970176 </i>
    <i name="ewald">  -1450.83290003 </i>
    <i name="hartreedc">   -330.82365088 </i>
    <i name="XCdc">     34.76148499 </i>
    <i name="pawpsdc">   1439.98163886 </i>
    <i name="pawaedc">  -1545.88690193 </i>
    <i name="eentropy">     -0.00261623 </i>
    <i name="bandstr">    159.18092055 </i>
    <i name="atom">   1626.72322989 </i>
    <i name="e_fr_energy">      0.78090698 </i>
    <i name="e_wo_entrp">      0.78352322 </i>
    <i name="e_0_energy">      0.78221510 </i>
   </energy>
  </scstep>
  <scstep>
   <time name="dav">    1.35    1.36</time>
   <time name="total">    1.35    1.36</time>
   <energy>
    <i name="e_fr_energy">    -15.51287681 </i>
    <i name="e_wo_entrp">    -15.51014525 </i>
    <i name="e_0_energy">    -15.51151103 </i>
   </energy>
  </scstep>
  <scstep>
   <time name="dav">    1.49    1.50</time>
   <time name="total">    1.50    1.50</time>
   <energy>
    <i name="e_fr_energy">    -15.58442021 </i>
    <i name="e_wo_entrp">    -15.58160470 </i>
    <i name="e_0_energy">    -15.58301246 </i>
   </energy>
  </scstep>
  <scstep>
   <time name="dav">    2.20    2.21</time>
   <time name="total">    2.20    2.21</time>
   <energy>
    <i name="e_fr_energy">    -15.58455254 </i>
    <i name="e_wo_entrp">    -15.58173682 </i>
    <i name="e_0_energy">    -15.58314468 </i>
   </energy>
  </scstep>
  <scstep>
   <time name="dav">    1.57    1.58</time>
   <time name="total">    1.61    1.62</time>
   <energy>
    <i name="e_fr_energy">    -15.58455256 </i>
    <i name="e_wo_entrp">    -15.58173683 </i>
    <i name="e_0_energy">    -15.58314470 </i>
   </energy>
  </scstep>
  <scstep>
   <time name="dav">    2.81    2.82</time>
   <time name="total">    2.85    2.86</time>
   <energy>
    <i name="e_fr_energy">    -14.48577720 </i>
    <i name="e_wo_entrp">    -14.48311770 </i>
    <i name="e_0_energy">    -14.48444745 </i>
   </energy>
  </scstep>
  <scstep>
   <time name="dav">    2.64    2.65</time>
   <time name="total">    2.69    2.70</time>
   <energy>
    <i name="e_fr_energy">    -13.83506329 </i>
    <i name="e_wo_entrp">    -13.83194348 </i>
    <i name="e_0_energy">    -13.83350338 </i>
   </energy>
  </scstep>
  <scstep>
   <time name="dav">    1.84    1.85</time>
   <time name="total">    1.89    1.89</time>
   <energy>
    <i name="e_fr_energy">    -13.82417390 </i>
    <i name="e_wo_entrp">    -13.82112739 </i>
    <i name="e_0_energy">    -13.82265065 </i>
   </energy>
  </scstep>
  <scstep>
   <time name="dav">    2.79    2.81</time>
   <time name="total">    2.84    2.85</time>
   <energy>
    <i name="e_fr_energy">    -13.81277062 </i>
    <i name="e_wo_entrp">    -13.80970142 </i>
    <i name="e_0_energy">    -13.81123602 </i>
   </energy>
  </scstep>
  <scstep>
   <time name="dav">    2.86    2.87</time>
   <time name="total">    2.90    2.91</time>
   <energy>
    <i name="e_fr_energy">    -13.81140724 </i>
    <i name="e_wo_entrp">    -13.80831427 </i>
    <i name="e_0_energy">    -13.80986075 </i>
   </energy>
  </scstep>
  <scstep>
   <time name="dav">    2.29    2.30</time>
   <time name="total">    2.33    2.34</time>
   <energy>
    <i name="e_fr_energy">    -13.81145885 </i>
    <i name="e_wo_entrp">    -13.80838983 </i>
    <i name="e_0_energy">    -13.80992434 </i>
   </energy>
  </scstep>
  <scstep>
   <time name="dav">    2.64    2.65</time>
   <time name="total">    2.68    2.69</time>
   <energy>
    <i name="e_fr_energy">    -13.81144965 </i>
    <i name="e_wo_entrp">    -13.80837802 </i>
    <i name="e_0_energy">    -13.80991384 </i>
   </energy>
  </scstep>
  <scstep>
   <time name="dav">    2.75    2.76</time>
   <time name="total">    2.79    2.80</time>
   <energy>
    <i name="e_fr_energy">    -13.81145069 </i>
    <i name="e_wo_entrp">    -13.80838072 </i>
    <i name="e_0_energy">    -13.80991571 </i>
   </energy>
  </scstep>
  <scstep>
   <time name="dav">    0.75    0.75</time>
   <time name="total">    0.76    0.76</time>
   <energy>
    <i name="alphaZ">     67.67970176 </i>
    <i name="ewald">  -1450.83290003 </i>
    <i name="hartreedc">   -295.52790932 </i>
    <i name="XCdc">     32.18668354 </i>
    <i name="pawpsdc">   1673.53760413 </i>
    <i name="pawaedc">  -1778.63189928 </i>
    <i name="eentropy">     -0.00306872 </i>
    <i name="bandstr">    111.05710789 </i>
    <i name="atom">   1626.72322989 </i>
    <i name="e_fr_energy">    -13.81145013 </i>
    <i name="e_wo_entrp">    -13.80838141 </i>
    <i name="e_0_energy">    -13.80991577 </i>
   </energy>
  </scstep>
  <structure>
   <crystal>
    <varray name="basis" >
     <v>       1.30844470      -2.26629269       0.00000000 </v>
     <v>       1.30844470       2.26629269       0.00000000 </v>
     <v>       0.00000000       0.00000000       4.22116635 </v>
    </varray>
    <i name="volume">     25.03420659 </i>
    <varray name="rec_basis" >
     <v>       0.38213308      -0.22062464       0.00000000 </v>
     <v>       0.38213308       0.22062464       0.00000000 </v>
     <v>       0.00000000       0.00000000       0.23690135 </v>
    </varray>
   </crystal>
   <varray name="positions" >
    <v>       0.33333333       0.66666667       0.25000000 </v>
    <v>       0.66666667       0.33333333       0.75000000 </v>
   </varray>
  </structure>
  <varray name="forces" >
   <v>      -0.00000000      -0.00000000       0.00000000 </v>
   <v>       0.00000000       0.00000000      -0.00000000 </v>
  </varray>
  <varray name="stress" >
   <v>    -217.51812896       0.00000000       0.00000000 </v>
   <v>       0.00000000    -217.51812896       0.00000000 </v>
   <v>       0.00000000       0.00000000    -215.86472896 </v>
  </varray>
  <energy>
   <i name="e_fr_energy">    -13.81145013 </i>
   <i name="e_wo_entrp">    -13.80838141 </i>
   <i name="e_0_energy">    -13.80991577 </i>
  </energy>
  <time name="totalsc">   29.55   29.69</time>
  <eigenvalues>
   <array>
    <dimension dim="1">band</dimension>
    <dimension dim="2">kpoint</dimension>
    <dimension dim="3">spin</dimension>
    <field>eigene</field>
    <field>occ</field>
    <set>
     <set comment="spin 1">
      <set comment="kpoint 1">
       <r>    0.2795    1.0000 </r>
       <r>    3.8348    1.0000 </r>
       <r>    5.9077    1.0000 </r>
       <r>    5.9167    1.0000 </r>
       <r>    5.9167    1.0000 </r>
       <r>    6.1614    1.0000 </r>
       <r>    6.1614    1.0000 </r>
       <r>    6.4233    1.0000 </r>
       <r>    6.4233    1.0000 </r>
       <r>    7.3096    1.0000 </r>
       <r>    7.3096    1.0000 </r>
       <r>    8.4244    0.0437 </r>
       <r>   13.5645    0.0000 </r>
       <r>   29.0993    0.0000 </r>
       <r>   30.3344    0.0000 </r>
       <r>   30.3344    0.0000 </r>
       <r>   31.7837    0.0000 </r>
       <r>   31.8333    0.0000 </r>
       <r>   31.8333    0.0000 </r>
       <r>   32.3262    0.0000 </r>
       <r>   36.7481    0.0000 </r>
       <r>   36.7481    0.0000 </r>
       <r>   36.9370    0.0000 </r>
       <r>   37.9887    0.0000 </r>
       <r>   38.9738    0.0000 </r>
       <r>   39.1558    0.0000 </r>
       <r>   39.1558    0.0000 </r>
       <r>   40.7536    0.0000 </r>
      </set>
      <set comment="kpoint 2">
       <r>    0.4974    1.0000 </r>
       <r>    3.9581    1.0000 </r>
       <r>    5.7343    1.0000 </r>
       <r>    6.0070    1.0000 </r>
       <r>    6.0624    1.0000 </r>
       <r>    6.1275    1.0000 </r>
       <r>    6.2412    1.0000 </r>
       <r>    6.3166    1.0000 </r>
       <r>    6.3684    1.0000 </r>
       <r>    6.7839    1.0000 </r>
       <r>    7.3328    1.0000 </r>
       <r>    9.2199    0.0000 </r>
       <r>   13.6166    0.0000 </r>
       <r>   26.7307    0.0000 </r>
       <r>   28.5001    0.0000 </r>
       <r>   29.0348    0.0000 </r>
       <r>   32.3437    0.0000 </r>
       <r>   32.4471    0.0000 </r>
       <r>   33.7721    0.0000 </r>
       <r>   33.9202    0.0000 </r>
       <r>   34.6366    0.0000 </r>
       <r>   36.1057    0.0000 </r>
       <r>   36.4546    0.0000 </r>
       <r>   36.5046    0.0000 </r>
       <r>   38.2240    0.0000 </r>
       <r>   38.5535    0.0000 </r>
       <r>   40.1902    0.0000 </r>
       <r>   40.7684    0.0000 </r>
      </set>
      <set comment="kpoint 3">
       <r>    1.1309    1.0000 </r>
       <r>    4.2629    1.0000 </r>
       <r>    5.5236    1.0000 </r>
       <r>    5.8004    1.0000 </r>
       <r>    5.9948    1.0000 </r>
       <r>    6.2319    1.0000 </r>
       <r>    6.2615    1.0000 </r>
       <r>    6.3052    1.0000 </r>
       <r>    6.4324    1.0000 </r>
       <r>    6.4641    1.0000 </r>
       <r>    7.3824    1.0000 </r>
       <r>   10.5823    0.0000 </r>
       <r>   13.7949    0.0000 </r>
       <r>   22.9976    0.0000 </r>
       <r>   26.3554    0.0000 </r>
       <r>   28.1743    0.0000 </r>
       <r>   30.0033    0.0000 </r>
       <r>   32.2018    0.0000 </r>
       <r>   32.4440    0.0000 </r>
       <r>   34.3680    0.0000 </r>
       <r>   35.1832    0.0000 </r>
       <r>   35.2813    0.0000 </r>
       <r>   35.7910    0.0000 </r>
       <r>   36.8740    0.0000 </r>
       <r>   37.7012    0.0000 </r>
       <r>   40.0314    0.0000 </r>
       <r>   42.2763    0.0000 </r>
       <r>   43.2300    0.0000 </r>
      </set>
      <set comment="kpoint 4">
       <r>    2.1006    1.0000 </r>
       <r>    4.5100    1.0000 </r>
       <r>    5.2180    1.0000 </r>
       <r>    5.4039    1.0000 </r>
       <r>    5.9257    1.0000 </r>
       <r>    6.0668    1.0000 </r>
       <r>    6.2669    1.0000 </r>
       <r>    6.6284    1.0000 </r>
       <r>    6.6470    1.0000 </r>
       <r>    6.7835    1.0000 </r>
       <r>    7.4299    1.0000 </r>
       <r>   12.1729    0.0000 </r>
       <r>   14.1426    0.0000 </r>
       <r>   19.4840    0.0000 </r>
       <r>   24.5059    0.0000 </r>
       <r>   26.7852    0.0000 </r>
       <r>   26.9534    0.0000 </r>
       <r>   29.6403    0.0000 </r>
       <r>   31.3767    0.0000 </r>
       <r>   33.7653    0.0000 </r>
       <r>   34.4538    0.0000 </r>
       <r>   35.1831    0.0000 </r>
       <r>   35.9855    0.0000 </r>
       <r>   38.7942    0.0000 </r>
       <r>   40.0265    0.0000 </r>
       <r>   43.0101    0.0000 </r>
       <r>   44.7195    0.0000 </r>
       <r>   44.9105    0.0000 </r>
      </set>
      <set comment="kpoint 5">
       <r>    3.1823    1.0000 </r>
       <r>    4.4627    1.0000 </r>
       <r>    4.7903    1.0000 </r>
       <r>    5.5123    1.0000 </r>
       <r>    5.9175    1.0000 </r>
       <r>    6.0284    1.0000 </r>
       <r>    6.1276    1.0000 </r>
       <r>    7.0157    1.0000 </r>
       <r>    7.1285    1.0000 </r>
       <r>    7.2057    1.0000 </r>
       <r>    7.4628    1.0000 </r>
       <r>   13.9394    0.0000 </r>
       <r>   14.3934    0.0000 </r>
       <r>   16.7034    0.0000 </r>
       <r>   23.0538    0.0000 </r>
       <r>   23.8586    0.0000 </r>
       <r>   24.5671    0.0000 </r>
       <r>   28.4151    0.0000 </r>
       <r>   30.2977    0.0000 </r>
       <r>   32.1802    0.0000 </r>
       <r>   33.9519    0.0000 </r>
       <r>   35.7481    0.0000 </r>
       <r>   37.6676    0.0000 </r>
       <r>   39.9872    0.0000 </r>
       <r>   43.3836    0.0000 </r>
       <r>   44.4721    0.0000 </r>
       <r>   45.3703    0.0000 </r>
       <r>   46.0260    0.0000 </r>
      </set>
      <set comment="kpoint 6">
       <r>    3.9137    1.0000 </r>
       <r>    4.3108    1.0000 </r>
       <r>    4.5349    1.0000 </r>
       <r>    5.8151    1.0000 </r>
       <r>    5.8370    1.0000 </r>
       <r>    6.0300    1.0000 </r>
       <r>    6.1926    1.0000 </r>
       <r>    7.3025    1.0000 </r>
       <r>    7.4124    1.0000 </r>
       <r>    7.4806    1.0000 </r>
       <r>    8.1806    1.0000 </r>
       <r>   12.6684    0.0000 </r>
       <r>   15.7933    0.0000 </r>
       <r>   16.6959    0.0000 </r>
       <r>   21.3177    0.0000 </r>
       <r>   21.9659    0.0000 </r>
       <r>   22.1095    0.0000 </r>
       <r>   28.0302    0.0000 </r>
       <r>   29.5928    0.0000 </r>
       <r>   31.1668    0.0000 </r>
       <r>   33.6615    0.0000 </r>
       <r>   36.0840    0.0000 </r>
       <r>   39.8708    0.0000 </r>
       <r>   40.6971    0.0000 </r>
       <r>   44.7268    0.0000 </r>
       <r>   45.2966    0.0000 </r>
       <r>   45.4258    0.0000 </r>
       <r>   46.7583    0.0000 </r>
      </set>
      <set comment="kpoint 7">
       <r>    4.1485    1.0000 </r>
       <r>    4.2021    1.0000 </r>
       <r>    4.4502    1.0000 </r>
       <r>    5.7789    1.0000 </r>
       <r>    5.9948    1.0000 </r>
       <r>    6.0551    1.0000 </r>
       <r>    6.2525    1.0000 </r>
       <r>    7.4059    1.0000 </r>
       <r>    7.4861    1.0000 </r>
       <r>    7.5263    1.0000 </r>
       <r>    9.2981    0.0000 </r>
       <r>   10.9782    0.0000 </r>
       <r>   17.0173    0.0000 </r>
       <r>   17.4877    0.0000 </r>
       <r>   19.8666    0.0000 </r>
       <r>   20.5408    0.0000 </r>
       <r>   21.7791    0.0000 </r>
       <r>   27.9305    0.0000 </r>
       <r>   29.3513    0.0000 </r>
       <r>   30.8171    0.0000 </r>
       <r>   33.5667    0.0000 </r>
       <r>   36.2081    0.0000 </r>
       <r>   40.9048    0.0000 </r>
       <r>   42.3805    0.0000 </r>
       <r>   42.5145    0.0000 </r>
       <r>   44.5862    0.0000 </r>
       <r>   45.4160    0.0000 </r>
       <r>   47.4535    0.0000 </r>
      </set>
      <set comment="kpoint 8">
       <r>    0.9238    1.0000 </r>
       <r>    4.1767    1.0000 </r>
       <r>    5.5672    1.0000 </r>
       <r>    5.9954    1.0000 </r>
       <r>    6.0463    1.0000 </r>
       <r>    6.1875    1.0000 </r>
       <r>    6.1913    1.0000 </r>
       <r>    6.2132    1.0000 </r>
       <r>    6.4178    1.0000 </r>
       <r>    6.5274    1.0000 </r>
       <r>    7.3618    1.0000 </r>
       <r>   10.1930    0.0000 </r>
       <r>   13.7332    0.0000 </r>
       <r>   24.7707    0.0000 </r>
       <r>   25.1445    0.0000 </r>
       <r>   30.4060    0.0000 </r>
       <r>   31.5731    0.0000 </r>
       <r>   31.6483    0.0000 </r>
       <r>   31.7339    0.0000 </r>
       <r>   34.2351    0.0000 </r>
       <r>   34.4477    0.0000 </r>
       <r>   34.8883    0.0000 </r>
       <r>   37.6945    0.0000 </r>
       <r>   38.0487    0.0000 </r>
       <r>   38.1505    0.0000 </r>
       <r>   38.2147    0.0000 </r>
       <r>   39.3678    0.0000 </r>
       <r>   43.5976    0.0000 </r>
      </set>
      <set comment="kpoint 9">
       <r>    1.7321    1.0000 </r>
       <r>    4.4887    1.0000 </r>
       <r>    5.3587    1.0000 </r>
       <r>    5.4351    1.0000 </r>
       <r>    5.9554    1.0000 </r>
       <r>    6.0407    1.0000 </r>
       <r>    6.3892    1.0000 </r>
       <r>    6.3907    1.0000 </r>
       <r>    6.5266    1.0000 </r>
       <r>    6.7484    1.0000 </r>
       <r>    7.3980    1.0000 </r>
       <r>   11.5934    0.0000 </r>
       <r>   14.0117    0.0000 </r>
       <r>   21.2917    0.0000 </r>
       <r>   23.3370    0.0000 </r>
       <r>   28.4522    0.0000 </r>
       <r>   29.1637    0.0000 </r>
       <r>   30.3640    0.0000 </r>
       <r>   31.3605    0.0000 </r>
       <r>   32.1985    0.0000 </r>
       <r>   34.7117    0.0000 </r>
       <r>   35.6346    0.0000 </r>
       <r>   37.5573    0.0000 </r>
       <r>   37.9753    0.0000 </r>
       <r>   39.7111    0.0000 </r>
       <r>   41.4970    0.0000 </r>
       <r>   41.7309    0.0000 </r>
       <r>   44.2778    0.0000 </r>
      </set>
      <set comment="kpoint 10">
       <r>    2.7892    1.0000 </r>
       <r>    4.5960    1.0000 </r>
       <r>    4.9660    1.0000 </r>
       <r>    5.3159    1.0000 </r>
       <r>    5.8942    1.0000 </r>
       <r>    5.9692    1.0000 </r>
       <r>    6.2364    1.0000 </r>
       <r>    6.7072    1.0000 </r>
       <r>    6.9212    1.0000 </r>
       <r>    7.2035    1.0000 </r>
       <r>    7.4286    1.0000 </r>
       <r>   13.2404    0.0000 </r>
       <r>   14.4617    0.0000 </r>
       <r>   18.0068    0.0000 </r>
       <r>   21.9488    0.0000 </r>
       <r>   25.3974    0.0000 </r>
       <r>   26.3750    0.0000 </r>
       <r>   29.2001    0.0000 </r>
       <r>   30.4574    0.0000 </r>
       <r>   30.8810    0.0000 </r>
       <r>   35.4040    0.0000 </r>
       <r>   37.3277    0.0000 </r>
       <r>   37.5396    0.0000 </r>
       <r>   38.5950    0.0000 </r>
       <r>   41.2402    0.0000 </r>
       <r>   44.5062    0.0000 </r>
       <r>   44.8418    0.0000 </r>
       <r>   45.1409    0.0000 </r>
      </set>
      <set comment="kpoint 11">
       <r>    3.7417    1.0000 </r>
       <r>    4.4588    1.0000 </r>
       <r>    4.6485    1.0000 </r>
       <r>    5.5233    1.0000 </r>
       <r>    5.7975    1.0000 </r>
       <r>    6.0868    1.0000 </r>
       <r>    6.1256    1.0000 </r>
       <r>    7.1022    1.0000 </r>
       <r>    7.2557    1.0000 </r>
       <r>    7.4478    1.0000 </r>
       <r>    7.8883    1.0000 </r>
       <r>   13.9512    0.0000 </r>
       <r>   15.0582    0.0000 </r>
       <r>   16.4215    0.0000 </r>
       <r>   20.8973    0.0000 </r>
       <r>   22.6478    0.0000 </r>
       <r>   23.4712    0.0000 </r>
       <r>   28.3816    0.0000 </r>
       <r>   29.8892    0.0000 </r>
       <r>   29.9085    0.0000 </r>
       <r>   35.3491    0.0000 </r>
       <r>   37.6767    0.0000 </r>
       <r>   39.0584    0.0000 </r>
       <r>   40.3595    0.0000 </r>
       <r>   43.0818    0.0000 </r>
       <r>   44.9618    0.0000 </r>
       <r>   45.3652    0.0000 </r>
       <r>   46.9436    0.0000 </r>
      </set>
      <set comment="kpoint 12">
       <r>    4.1760    1.0000 </r>
       <r>    4.3232    1.0000 </r>
       <r>    4.4902    1.0000 </r>
       <r>    5.7573    1.0000 </r>
       <r>    5.8448    1.0000 </r>
       <r>    5.9887    1.0000 </r>
       <r>    6.2498    1.0000 </r>
       <r>    7.3784    1.0000 </r>
       <r>    7.4349    1.0000 </r>
       <r>    7.4563    1.0000 </r>
       <r>    9.0917    0.0000 </r>
       <r>   11.7208    0.0000 </r>
       <r>   16.8215    0.0000 </r>
       <r>   17.3581    0.0000 </r>
       <r>   20.2058    0.0000 </r>
       <r>   20.4238    0.0000 </r>
       <r>   21.2810    0.0000 </r>
       <r>   27.9607    0.0000 </r>
       <r>   29.3559    0.0000 </r>
       <r>   29.6449    0.0000 </r>
       <r>   35.1879    0.0000 </r>
       <r>   37.8352    0.0000 </r>
       <r>   40.9247    0.0000 </r>
       <r>   41.3440    0.0000 </r>
       <r>   44.0420    0.0000 </r>
       <r>   44.6366    0.0000 </r>
       <r>   45.3824    0.0000 </r>
       <r>   46.0012    0.0000 </r>
      </set>
      <set comment="kpoint 13">
       <r>    2.6492    1.0000 </r>
       <r>    4.7391    1.0000 </r>
       <r>    5.0588    1.0000 </r>
       <r>    5.1309    1.0000 </r>
       <r>    5.8410    1.0000 </r>
       <r>    5.9663    1.0000 </r>
       <r>    6.3073    1.0000 </r>
       <r>    6.5211    1.0000 </r>
       <r>    6.9135    1.0000 </r>
       <r>    7.2206    1.0000 </r>
       <r>    7.3993    1.0000 </r>
       <r>   13.0031    0.0000 </r>
       <r>   14.4565    0.0000 </r>
       <r>   19.7738    0.0000 </r>
       <r>   19.9691    0.0000 </r>
       <r>   27.0733    0.0000 </r>
       <r>   27.3894    0.0000 </r>
       <r>   28.2332    0.0000 </r>
       <r>   28.8371    0.0000 </r>
       <r>   33.2781    0.0000 </r>
       <r>   35.3858    0.0000 </r>
       <r>   35.7728    0.0000 </r>
       <r>   39.0305    0.0000 </r>
       <r>   40.2294    0.0000 </r>
       <r>   40.7150    0.0000 </r>
       <r>   41.7749    0.0000 </r>
       <r>   43.4548    0.0000 </r>
       <r>   45.1086    0.0000 </r>
      </set>
      <set comment="kpoint 14">
       <r>    3.6647    1.0000 </r>
       <r>    4.7336    1.0000 </r>
       <r>    4.7623    1.0000 </r>
       <r>    5.1189    1.0000 </r>
       <r>    5.7204    1.0000 </r>
       <r>    6.0847    1.0000 </r>
       <r>    6.1576    1.0000 </r>
       <r>    6.7639    1.0000 </r>
       <r>    7.2586    1.0000 </r>
       <r>    7.3976    1.0000 </r>
       <r>    7.8939    1.0000 </r>
       <r>   14.6854    0.0000 </r>
       <r>   14.9622    0.0000 </r>
       <r>   16.9705    0.0000 </r>
       <r>   18.7700    0.0000 </r>
       <r>   24.3333    0.0000 </r>
       <r>   25.3005    0.0000 </r>
       <r>   26.3009    0.0000 </r>
       <r>   27.5944    0.0000 </r>
       <r>   33.3855    0.0000 </r>
       <r>   37.0891    0.0000 </r>
       <r>   37.7903    0.0000 </r>
       <r>   39.6429    0.0000 </r>
       <r>   40.1317    0.0000 </r>
       <r>   42.4811    0.0000 </r>
       <r>   43.6410    0.0000 </r>
       <r>   44.9637    0.0000 </r>
       <r>   45.1318    0.0000 </r>
      </set>
      <set comment="kpoint 15">
       <r>    4.3127    1.0000 </r>
       <r>    4.5742    1.0000 </r>
       <r>    4.5797    1.0000 </r>
       <r>    5.3871    1.0000 </r>
       <r>    5.6864    1.0000 </r>
       <r>    5.9966    1.0000 </r>
       <r>    6.2465    1.0000 </r>
       <r>    7.0837    1.0000 </r>
       <r>    7.3955    1.0000 </r>
       <r>    7.4280    1.0000 </r>
       <r>    8.9624    0.0000 </r>
       <r>   13.2945    0.0000 </r>
       <r>   16.5322    0.0000 </r>
       <r>   17.0069    0.0000 </r>
       <r>   18.0770    0.0000 </r>
       <r>   21.7677    0.0000 </r>
       <r>   22.5492    0.0000 </r>
       <r>   25.7350    0.0000 </r>
       <r>   26.8985    0.0000 </r>
       <r>   33.0465    0.0000 </r>
       <r>   37.8299    0.0000 </r>
       <r>   40.0936    0.0000 </r>
       <r>   41.0276    0.0000 </r>
       <r>   41.0710    0.0000 </r>
       <r>   42.5718    0.0000 </r>
       <r>   44.8689    0.0000 </r>
       <r>   45.2712    0.0000 </r>
       <r>   45.9984    0.0000 </r>
      </set>
      <set comment="kpoint 16">
       <r>    4.4659    1.0000 </r>
       <r>    4.5009    1.0000 </r>
       <r>    4.5186    1.0000 </r>
       <r>    5.5767    1.0000 </r>
       <r>    5.6982    1.0000 </r>
       <r>    5.9140    1.0000 </r>
       <r>    6.3148    1.0000 </r>
       <r>    7.2981    1.0000 </r>
       <r>    7.3945    1.0000 </r>
       <r>    7.4108    1.0000 </r>
       <r>   10.2217    0.0000 </r>
       <r>   11.4700    0.0000 </r>
       <r>   17.5825    0.0000 </r>
       <r>   17.8512    0.0000 </r>
       <r>   18.1434    0.0000 </r>
       <r>   20.2109    0.0000 </r>
       <r>   21.0667    0.0000 </r>
       <r>   25.5459    0.0000 </r>
       <r>   26.6561    0.0000 </r>
       <r>   32.9174    0.0000 </r>
       <r>   37.9378    0.0000 </r>
       <r>   40.7255    0.0000 </r>
       <r>   41.1317    0.0000 </r>
       <r>   42.8360    0.0000 </r>
       <r>   43.7425    0.0000 </r>
       <r>   44.6886    0.0000 </r>
       <r>   45.2700    0.0000 </r>
       <r>   45.3675    0.0000 </r>
      </set>
      <set comment="kpoint 17">
       <r>    4.4154    1.0000 </r>
       <r>    4.6310    1.0000 </r>
       <r>    4.8905    1.0000 </r>
       <r>    4.9563    1.0000 </r>
       <r>    5.6383    1.0000 </r>
       <r>    6.0076    1.0000 </r>
       <r>    6.2518    1.0000 </r>
       <r>    6.9045    1.0000 </r>
       <r>    7.3642    1.0000 </r>
       <r>    7.4332    1.0000 </r>
       <r>    8.9481    0.0000 </r>
       <r>   14.9855    0.0000 </r>
       <r>   15.6327    0.0000 </r>
       <r>   16.4173    0.0000 </r>
       <r>   17.3881    0.0000 </r>
       <r>   23.3258    0.0000 </r>
       <r>   23.8725    0.0000 </r>
       <r>   24.1498    0.0000 </r>
       <r>   24.8939    0.0000 </r>
       <r>   36.3544    0.0000 </r>
       <r>   37.7903    0.0000 </r>
       <r>   38.9355    0.0000 </r>
       <r>   40.8947    0.0000 </r>
       <r>   42.8028    0.0000 </r>
       <r>   43.4515    0.0000 </r>
       <r>   44.1924    0.0000 </r>
       <r>   44.7894    0.0000 </r>
       <r>   45.0800    0.0000 </r>
      </set>
      <set comment="kpoint 18">
       <r>    4.5692    1.0000 </r>
       <r>    4.6815    1.0000 </r>
       <r>    4.7867    1.0000 </r>
       <r>    5.2122    1.0000 </r>
       <r>    5.6542    1.0000 </r>
       <r>    5.8526    1.0000 </r>
       <r>    6.3849    1.0000 </r>
       <r>    7.1200    1.0000 </r>
       <r>    7.3444    1.0000 </r>
       <r>    7.3902    1.0000 </r>
       <r>   10.5073    0.0000 </r>
       <r>   12.8264    0.0000 </r>
       <r>   15.0311    0.0000 </r>
       <r>   18.2785    0.0000 </r>
       <r>   18.5348    0.0000 </r>
       <r>   21.1310    0.0000 </r>
       <r>   22.0248    0.0000 </r>
       <r>   23.3593    0.0000 </r>
       <r>   24.1796    0.0000 </r>
       <r>   36.6733    0.0000 </r>
       <r>   40.4633    0.0000 </r>
       <r>   40.4769    0.0000 </r>
       <r>   42.2886    0.0000 </r>
       <r>   43.1346    0.0000 </r>
       <r>   43.1490    0.0000 </r>
       <r>   44.8418    0.0000 </r>
       <r>   45.0537    0.0000 </r>
       <r>   45.5524    0.0000 </r>
      </set>
      <set comment="kpoint 19">
       <r>    4.5741    1.0000 </r>
       <r>    4.8514    1.0000 </r>
       <r>    4.8514    1.0000 </r>
       <r>    5.1256    1.0000 </r>
       <r>    5.7176    1.0000 </r>
       <r>    5.7176    1.0000 </r>
       <r>    6.4630    1.0000 </r>
       <r>    7.2337    1.0000 </r>
       <r>    7.2337    1.0000 </r>
       <r>    7.3241    1.0000 </r>
       <r>   12.2398    0.0000 </r>
       <r>   12.7746    0.0000 </r>
       <r>   12.7746    0.0000 </r>
       <r>   19.4430    0.0000 </r>
       <r>   20.0827    0.0000 </r>
       <r>   20.0827    0.0000 </r>
       <r>   22.1821    0.0000 </r>
       <r>   22.3121    0.0000 </r>
       <r>   22.3121    0.0000 </r>
       <r>   39.4569    0.0000 </r>
       <r>   41.0469    0.0000 </r>
       <r>   41.0469    0.0000 </r>
       <r>   42.9231    0.0000 </r>
       <r>   42.9231    0.0000 </r>
       <r>   43.1928    0.0000 </r>
       <r>   44.5246    0.0000 </r>
       <r>   44.6177    0.0000 </r>
       <r>   44.6177    0.0000 </r>
      </set>
      <set comment="kpoint 20">
       <r>    0.4216    1.0000 </r>
       <r>    3.8003    1.0000 </r>
       <r>    5.8762    1.0000 </r>
       <r>    5.8812    1.0000 </r>
       <r>    5.8812    1.0000 </r>
       <r>    6.1273    1.0000 </r>
       <r>    6.1273    1.0000 </r>
       <r>    6.5032    1.0000 </r>
       <r>    6.5032    1.0000 </r>
       <r>    7.3025    1.0000 </r>
       <r>    7.3025    1.0000 </r>
       <r>    7.7907    1.0000 </r>
       <r>   14.4969    0.0000 </r>
       <r>   29.0817    0.0000 </r>
       <r>   30.4718    0.0000 </r>
       <r>   30.4718    0.0000 </r>
       <r>   30.7965    0.0000 </r>
       <r>   31.5248    0.0000 </r>
       <r>   31.8875    0.0000 </r>
       <r>   31.8875    0.0000 </r>
       <r>   36.2656    0.0000 </r>
       <r>   36.2656    0.0000 </r>
       <r>   37.4152    0.0000 </r>
       <r>   37.9077    0.0000 </r>
       <r>   37.9077    0.0000 </r>
       <r>   38.2080    0.0000 </r>
       <r>   40.2117    0.0000 </r>
       <r>   41.5092    0.0000 </r>
      </set>
      <set comment="kpoint 21">
       <r>    0.6377    1.0000 </r>
       <r>    3.9315    1.0000 </r>
       <r>    5.7315    1.0000 </r>
       <r>    5.9613    1.0000 </r>
       <r>    5.9748    1.0000 </r>
       <r>    6.0497    1.0000 </r>
       <r>    6.2031    1.0000 </r>
       <r>    6.4295    1.0000 </r>
       <r>    6.4642    1.0000 </r>
       <r>    6.7104    1.0000 </r>
       <r>    7.3223    1.0000 </r>
       <r>    8.6292    0.0000 </r>
       <r>   14.5981    0.0000 </r>
       <r>   26.8338    0.0000 </r>
       <r>   28.6435    0.0000 </r>
       <r>   29.0524    0.0000 </r>
       <r>   30.8467    0.0000 </r>
       <r>   31.8228    0.0000 </r>
       <r>   33.2883    0.0000 </r>
       <r>   33.8624    0.0000 </r>
       <r>   35.2693    0.0000 </r>
       <r>   35.4682    0.0000 </r>
       <r>   35.8494    0.0000 </r>
       <r>   37.4341    0.0000 </r>
       <r>   38.8706    0.0000 </r>
       <r>   39.7817    0.0000 </r>
       <r>   40.0346    0.0000 </r>
       <r>   40.8699    0.0000 </r>
      </set>
      <set comment="kpoint 22">
       <r>    1.2642    1.0000 </r>
       <r>    4.2598    1.0000 </r>
       <r>    5.5361    1.0000 </r>
       <r>    5.6679    1.0000 </r>
       <r>    5.9503    1.0000 </r>
       <r>    6.1275    1.0000 </r>
       <r>    6.2536    1.0000 </r>
       <r>    6.3763    1.0000 </r>
       <r>    6.4694    1.0000 </r>
       <r>    6.5427    1.0000 </r>
       <r>    7.3646    1.0000 </r>
       <r>    9.7910    0.0000 </r>
       <r>   14.9320    0.0000 </r>
       <r>   23.1230    0.0000 </r>
       <r>   26.5197    0.0000 </r>
       <r>   27.9595    0.0000 </r>
       <r>   29.3799    0.0000 </r>
       <r>   31.1685    0.0000 </r>
       <r>   32.7205    0.0000 </r>
       <r>   33.5503    0.0000 </r>
       <r>   34.2251    0.0000 </r>
       <r>   35.3309    0.0000 </r>
       <r>   36.6637    0.0000 </r>
       <r>   37.9141    0.0000 </r>
       <r>   39.0085    0.0000 </r>
       <r>   40.6034    0.0000 </r>
       <r>   41.6889    0.0000 </r>
       <r>   43.5509    0.0000 </r>
      </set>
      <set comment="kpoint 23">
       <r>    2.2148    1.0000 </r>
       <r>    4.5338    1.0000 </r>
       <r>    5.1481    1.0000 </r>
       <r>    5.4265    1.0000 </r>
       <r>    5.8490    1.0000 </r>
       <r>    6.0838    1.0000 </r>
       <r>    6.2793    1.0000 </r>
       <r>    6.6554    1.0000 </r>
       <r>    6.6966    1.0000 </r>
       <r>    6.7564    1.0000 </r>
       <r>    7.4050    1.0000 </r>
       <r>   11.0382    0.0000 </r>
       <r>   15.5558    0.0000 </r>
       <r>   19.6174    0.0000 </r>
       <r>   24.6889    0.0000 </r>
       <r>   25.4379    0.0000 </r>
       <r>   27.8075    0.0000 </r>
       <r>   30.2002    0.0000 </r>
       <r>   30.8661    0.0000 </r>
       <r>   32.1186    0.0000 </r>
       <r>   33.8501    0.0000 </r>
       <r>   36.1655    0.0000 </r>
       <r>   36.1887    0.0000 </r>
       <r>   40.2447    0.0000 </r>
       <r>   40.5824    0.0000 </r>
       <r>   43.3829    0.0000 </r>
       <r>   44.2861    0.0000 </r>
       <r>   44.5705    0.0000 </r>
      </set>
      <set comment="kpoint 24">
       <r>    3.2428    1.0000 </r>
       <r>    4.4849    1.0000 </r>
       <r>    4.8043    1.0000 </r>
       <r>    5.4194    1.0000 </r>
       <r>    5.9592    1.0000 </r>
       <r>    5.9813    1.0000 </r>
       <r>    6.3247    1.0000 </r>
       <r>    7.0295    1.0000 </r>
       <r>    7.0838    1.0000 </r>
       <r>    7.1703    1.0000 </r>
       <r>    7.4368    1.0000 </r>
       <r>   12.2825    0.0000 </r>
       <r>   15.9388    0.0000 </r>
       <r>   17.1323    0.0000 </r>
       <r>   22.5433    0.0000 </r>
       <r>   23.2527    0.0000 </r>
       <r>   25.9533    0.0000 </r>
       <r>   28.5704    0.0000 </r>
       <r>   30.0011    0.0000 </r>
       <r>   30.8812    0.0000 </r>
       <r>   34.7799    0.0000 </r>
       <r>   35.3598    0.0000 </r>
       <r>   37.0419    0.0000 </r>
       <r>   42.0485    0.0000 </r>
       <r>   43.5329    0.0000 </r>
       <r>   44.3290    0.0000 </r>
       <r>   44.5839    0.0000 </r>
       <r>   45.3446    0.0000 </r>
      </set>
      <set comment="kpoint 25">
       <r>    3.8635    1.0000 </r>
       <r>    4.3126    1.0000 </r>
       <r>    4.6911    1.0000 </r>
       <r>    5.4299    1.0000 </r>
       <r>    5.8663    1.0000 </r>
       <r>    6.1915    1.0000 </r>
       <r>    6.5327    1.0000 </r>
       <r>    7.2948    1.0000 </r>
       <r>    7.3522    1.0000 </r>
       <r>    7.4763    1.0000 </r>
       <r>    8.1195    1.0000 </r>
       <r>   12.3366    0.0000 </r>
       <r>   15.0140    0.0000 </r>
       <r>   17.6632    0.0000 </r>
       <r>   20.4558    0.0000 </r>
       <r>   22.3198    0.0000 </r>
       <r>   23.4498    0.0000 </r>
       <r>   28.0937    0.0000 </r>
       <r>   29.3853    0.0000 </r>
       <r>   30.0411    0.0000 </r>
       <r>   34.9067    0.0000 </r>
       <r>   35.9063    0.0000 </r>
       <r>   37.7046    0.0000 </r>
       <r>   41.6270    0.0000 </r>
       <r>   44.3448    0.0000 </r>
       <r>   45.2026    0.0000 </r>
       <r>   45.6195    0.0000 </r>
       <r>   46.7503    0.0000 </r>
      </set>
      <set comment="kpoint 26">
       <r>    4.0011    1.0000 </r>
       <r>    4.2274    1.0000 </r>
       <r>    4.6853    1.0000 </r>
       <r>    5.4471    1.0000 </r>
       <r>    5.8328    1.0000 </r>
       <r>    6.2562    1.0000 </r>
       <r>    6.6804    1.0000 </r>
       <r>    7.3642    1.0000 </r>
       <r>    7.4539    1.0000 </r>
       <r>    7.5228    1.0000 </r>
       <r>    9.2374    0.0000 </r>
       <r>   10.9231    0.0000 </r>
       <r>   16.3668    0.0000 </r>
       <r>   16.6514    0.0000 </r>
       <r>   20.9596    0.0000 </r>
       <r>   21.4934    0.0000 </r>
       <r>   21.9937    0.0000 </r>
       <r>   27.9806    0.0000 </r>
       <r>   29.1689    0.0000 </r>
       <r>   29.7433    0.0000 </r>
       <r>   34.7621    0.0000 </r>
       <r>   36.4410    0.0000 </r>
       <r>   38.1190    0.0000 </r>
       <r>   40.7656    0.0000 </r>
       <r>   44.9862    0.0000 </r>
       <r>   45.1703    0.0000 </r>
       <r>   45.8060    0.0000 </r>
       <r>   48.2641    0.0000 </r>
      </set>
      <set comment="kpoint 27">
       <r>    1.0597    1.0000 </r>
       <r>    4.1662    1.0000 </r>
       <r>    5.5772    1.0000 </r>
       <r>    5.8091    1.0000 </r>
       <r>    6.0068    1.0000 </r>
       <r>    6.0883    1.0000 </r>
       <r>    6.2102    1.0000 </r>
       <r>    6.3189    1.0000 </r>
       <r>    6.4726    1.0000 </r>
       <r>    6.5613    1.0000 </r>
       <r>    7.3477    1.0000 </r>
       <r>    9.4708    0.0000 </r>
       <r>   14.8171    0.0000 </r>
       <r>   24.8841    0.0000 </r>
       <r>   25.2809    0.0000 </r>
       <r>   30.0777    0.0000 </r>
       <r>   30.2269    0.0000 </r>
       <r>   31.0520    0.0000 </r>
       <r>   32.5336    0.0000 </r>
       <r>   32.5745    0.0000 </r>
       <r>   35.3172    0.0000 </r>
       <r>   35.4630    0.0000 </r>
       <r>   37.4031    0.0000 </r>
       <r>   37.5508    0.0000 </r>
       <r>   38.3617    0.0000 </r>
       <r>   39.9706    0.0000 </r>
       <r>   40.0931    0.0000 </r>
       <r>   43.9511    0.0000 </r>
      </set>
      <set comment="kpoint 28">
       <r>    1.8559    1.0000 </r>
       <r>    4.5079    1.0000 </r>
       <r>    5.3264    1.0000 </r>
       <r>    5.3849    1.0000 </r>
       <r>    5.9010    1.0000 </r>
       <r>    6.0592    1.0000 </r>
       <r>    6.2763    1.0000 </r>
       <r>    6.4535    1.0000 </r>
       <r>    6.6341    1.0000 </r>
       <r>    6.7341    1.0000 </r>
       <r>    7.3813    1.0000 </r>
       <r>   10.6000    0.0000 </r>
       <r>   15.3112    0.0000 </r>
       <r>   21.4238    0.0000 </r>
       <r>   23.4786    0.0000 </r>
       <r>   27.2322    0.0000 </r>
       <r>   29.2761    0.0000 </r>
       <r>   30.0793    0.0000 </r>
       <r>   31.8220    0.0000 </r>
       <r>   32.7144    0.0000 </r>
       <r>   33.4800    0.0000 </r>
       <r>   35.1394    0.0000 </r>
       <r>   37.7225    0.0000 </r>
       <r>   39.0866    0.0000 </r>
       <r>   40.7657    0.0000 </r>
       <r>   41.0187    0.0000 </r>
       <r>   42.4790    0.0000 </r>
       <r>   44.4526    0.0000 </r>
      </set>
      <set comment="kpoint 29">
       <r>    2.8805    1.0000 </r>
       <r>    4.6312    1.0000 </r>
       <r>    4.9195    1.0000 </r>
       <r>    5.3343    1.0000 </r>
       <r>    5.8285    1.0000 </r>
       <r>    6.0401    1.0000 </r>
       <r>    6.2317    1.0000 </r>
       <r>    6.7139    1.0000 </r>
       <r>    6.9640    1.0000 </r>
       <r>    7.1360    1.0000 </r>
       <r>    7.4358    1.0000 </r>
       <r>   11.8454    0.0000 </r>
       <r>   16.0801    0.0000 </r>
       <r>   18.1570    0.0000 </r>
       <r>   22.0999    0.0000 </r>
       <r>   24.1427    0.0000 </r>
       <r>   27.7102    0.0000 </r>
       <r>   28.2006    0.0000 </r>
       <r>   30.5934    0.0000 </r>
       <r>   31.8434    0.0000 </r>
       <r>   33.7379    0.0000 </r>
       <r>   36.0741    0.0000 </r>
       <r>   38.5649    0.0000 </r>
       <r>   39.8522    0.0000 </r>
       <r>   42.4310    0.0000 </r>
       <r>   43.6182    0.0000 </r>
       <r>   44.8220    0.0000 </r>
       <r>   45.2624    0.0000 </r>
      </set>
      <set comment="kpoint 30">
       <r>    3.7485    1.0000 </r>
       <r>    4.4777    1.0000 </r>
       <r>    4.7198    1.0000 </r>
       <r>    5.3629    1.0000 </r>
       <r>    5.8530    1.0000 </r>
       <r>    6.1215    1.0000 </r>
       <r>    6.2852    1.0000 </r>
       <r>    7.0791    1.0000 </r>
       <r>    7.2837    1.0000 </r>
       <r>    7.3648    1.0000 </r>
       <r>    7.8900    1.0000 </r>
       <r>   12.8770    0.0000 </r>
       <r>   15.2496    0.0000 </r>
       <r>   17.5181    0.0000 </r>
       <r>   20.9677    0.0000 </r>
       <r>   21.5557    0.0000 </r>
       <r>   24.9513    0.0000 </r>
       <r>   27.3916    0.0000 </r>
       <r>   29.9774    0.0000 </r>
       <r>   30.8096    0.0000 </r>
       <r>   34.4218    0.0000 </r>
       <r>   36.7033    0.0000 </r>
       <r>   38.9876    0.0000 </r>
       <r>   42.1864    0.0000 </r>
       <r>   42.6718    0.0000 </r>
       <r>   44.4433    0.0000 </r>
       <r>   45.3001    0.0000 </r>
       <r>   45.9691    0.0000 </r>
      </set>
      <set comment="kpoint 31">
       <r>    4.0585    1.0000 </r>
       <r>    4.3340    1.0000 </r>
       <r>    4.7145    1.0000 </r>
       <r>    5.4064    1.0000 </r>
       <r>    5.7883    1.0000 </r>
       <r>    6.2704    1.0000 </r>
       <r>    6.4545    1.0000 </r>
       <r>    7.3318    1.0000 </r>
       <r>    7.4164    1.0000 </r>
       <r>    7.4486    1.0000 </r>
       <r>    9.0821    0.0000 </r>
       <r>   11.6372    0.0000 </r>
       <r>   15.7736    0.0000 </r>
       <r>   17.5069    0.0000 </r>
       <r>   20.3012    0.0000 </r>
       <r>   20.7886    0.0000 </r>
       <r>   22.4969    0.0000 </r>
       <r>   26.9631    0.0000 </r>
       <r>   29.7128    0.0000 </r>
       <r>   30.2508    0.0000 </r>
       <r>   34.6584    0.0000 </r>
       <r>   37.7850    0.0000 </r>
       <r>   38.8163    0.0000 </r>
       <r>   41.3179    0.0000 </r>
       <r>   44.6875    0.0000 </r>
       <r>   45.1020    0.0000 </r>
       <r>   45.4683    0.0000 </r>
       <r>   46.8139    0.0000 </r>
      </set>
      <set comment="kpoint 32">
       <r>    2.7504    1.0000 </r>
       <r>    4.7834    1.0000 </r>
       <r>    4.9945    1.0000 </r>
       <r>    5.1533    1.0000 </r>
       <r>    5.8348    1.0000 </r>
       <r>    5.9724    1.0000 </r>
       <r>    6.2420    1.0000 </r>
       <r>    6.5552    1.0000 </r>
       <r>    6.9718    1.0000 </r>
       <r>    7.1337    1.0000 </r>
       <r>    7.4354    1.0000 </r>
       <r>   11.6938    0.0000 </r>
       <r>   16.0205    0.0000 </r>
       <r>   19.9085    0.0000 </r>
       <r>   20.1205    0.0000 </r>
       <r>   25.8539    0.0000 </r>
       <r>   26.2314    0.0000 </r>
       <r>   29.6589    0.0000 </r>
       <r>   29.9938    0.0000 </r>
       <r>   33.1474    0.0000 </r>
       <r>   34.0930    0.0000 </r>
       <r>   35.3830    0.0000 </r>
       <r>   39.5720    0.0000 </r>
       <r>   39.5763    0.0000 </r>
       <r>   41.3501    0.0000 </r>
       <r>   43.0667    0.0000 </r>
       <r>   43.9869    0.0000 </r>
       <r>   45.0601    0.0000 </r>
      </set>
      <set comment="kpoint 33">
       <r>    3.7133    1.0000 </r>
       <r>    4.7204    1.0000 </r>
       <r>    4.7915    1.0000 </r>
       <r>    5.1515    1.0000 </r>
       <r>    5.7581    1.0000 </r>
       <r>    6.0947    1.0000 </r>
       <r>    6.1128    1.0000 </r>
       <r>    6.7757    1.0000 </r>
       <r>    7.2948    1.0000 </r>
       <r>    7.3006    1.0000 </r>
       <r>    7.9397    1.0000 </r>
       <r>   12.9514    0.0000 </r>
       <r>   16.5188    0.0000 </r>
       <r>   17.4683    0.0000 </r>
       <r>   18.9273    0.0000 </r>
       <r>   23.0564    0.0000 </r>
       <r>   25.0789    0.0000 </r>
       <r>   26.8081    0.0000 </r>
       <r>   28.9494    0.0000 </r>
       <r>   33.4115    0.0000 </r>
       <r>   35.1374    0.0000 </r>
       <r>   37.5624    0.0000 </r>
       <r>   39.3266    0.0000 </r>
       <r>   41.4609    0.0000 </r>
       <r>   42.8366    0.0000 </r>
       <r>   43.4884    0.0000 </r>
       <r>   44.7121    0.0000 </r>
       <r>   45.1084    0.0000 </r>
      </set>
      <set comment="kpoint 34">
       <r>    4.2349    1.0000 </r>
       <r>    4.6093    1.0000 </r>
       <r>    4.7167    1.0000 </r>
       <r>    5.2580    1.0000 </r>
       <r>    5.7358    1.0000 </r>
       <r>    6.0748    1.0000 </r>
       <r>    6.2751    1.0000 </r>
       <r>    7.0778    1.0000 </r>
       <r>    7.3032    1.0000 </r>
       <r>    7.4579    1.0000 </r>
       <r>    9.0116    0.0000 </r>
       <r>   13.0920    0.0000 </r>
       <r>   15.4296    0.0000 </r>
       <r>   18.0714    0.0000 </r>
       <r>   18.3773    0.0000 </r>
       <r>   20.8862    0.0000 </r>
       <r>   23.9647    0.0000 </r>
       <r>   24.5977    0.0000 </r>
       <r>   28.3217    0.0000 </r>
       <r>   33.1076    0.0000 </r>
       <r>   36.2838    0.0000 </r>
       <r>   38.4359    0.0000 </r>
       <r>   41.5902    0.0000 </r>
       <r>   41.8568    0.0000 </r>
       <r>   42.4785    0.0000 </r>
       <r>   44.5144    0.0000 </r>
       <r>   44.9332    0.0000 </r>
       <r>   45.5810    0.0000 </r>
      </set>
      <set comment="kpoint 35">
       <r>    4.2869    1.0000 </r>
       <r>    4.5379    1.0000 </r>
       <r>    4.7910    1.0000 </r>
       <r>    5.3208    1.0000 </r>
       <r>    5.6820    1.0000 </r>
       <r>    6.1419    1.0000 </r>
       <r>    6.3465    1.0000 </r>
       <r>    7.2904    1.0000 </r>
       <r>    7.2963    1.0000 </r>
       <r>    7.4394    1.0000 </r>
       <r>   10.2914    0.0000 </r>
       <r>   11.4704    0.0000 </r>
       <r>   16.9107    0.0000 </r>
       <r>   17.2079    0.0000 </r>
       <r>   17.9612    0.0000 </r>
       <r>   21.3454    0.0000 </r>
       <r>   22.0816    0.0000 </r>
       <r>   24.3299    0.0000 </r>
       <r>   28.1028    0.0000 </r>
       <r>   32.9824    0.0000 </r>
       <r>   36.8342    0.0000 </r>
       <r>   38.5367    0.0000 </r>
       <r>   41.1063    0.0000 </r>
       <r>   42.6105    0.0000 </r>
       <r>   43.9361    0.0000 </r>
       <r>   44.9702    0.0000 </r>
       <r>   45.0185    0.0000 </r>
       <r>   46.4129    0.0000 </r>
      </set>
      <set comment="kpoint 36">
       <r>    4.4233    1.0000 </r>
       <r>    4.6023    1.0000 </r>
       <r>    4.9525    1.0000 </r>
       <r>    4.9812    1.0000 </r>
       <r>    5.7237    1.0000 </r>
       <r>    5.9403    1.0000 </r>
       <r>    6.2467    1.0000 </r>
       <r>    6.9196    1.0000 </r>
       <r>    7.2669    1.0000 </r>
       <r>    7.4641    1.0000 </r>
       <r>    9.0150    0.0000 </r>
       <r>   14.1071    0.0000 </r>
       <r>   15.7806    0.0000 </r>
       <r>   16.2822    0.0000 </r>
       <r>   18.6061    0.0000 </r>
       <r>   22.1505    0.0000 </r>
       <r>   22.4673    0.0000 </r>
       <r>   25.9334    0.0000 </r>
       <r>   26.2402    0.0000 </r>
       <r>   35.9787    0.0000 </r>
       <r>   37.1848    0.0000 </r>
       <r>   37.8012    0.0000 </r>
       <r>   40.9501    0.0000 </r>
       <r>   41.5153    0.0000 </r>
       <r>   43.9557    0.0000 </r>
       <r>   44.3791    0.0000 </r>
       <r>   44.6547    0.0000 </r>
       <r>   45.1091    0.0000 </r>
      </set>
      <set comment="kpoint 37">
       <r>    4.5229    1.0000 </r>
       <r>    4.7613    1.0000 </r>
       <r>    4.8495    1.0000 </r>
       <r>    5.1474    1.0000 </r>
       <r>    5.6827    1.0000 </r>
       <r>    5.8556    1.0000 </r>
       <r>    6.3864    1.0000 </r>
       <r>    7.1299    1.0000 </r>
       <r>    7.2423    1.0000 </r>
       <r>    7.4120    1.0000 </r>
       <r>   10.6078    0.0000 </r>
       <r>   12.8691    0.0000 </r>
       <r>   15.0875    0.0000 </r>
       <r>   17.0394    0.0000 </r>
       <r>   18.8304    0.0000 </r>
       <r>   20.8749    0.0000 </r>
       <r>   22.2426    0.0000 </r>
       <r>   23.6342    0.0000 </r>
       <r>   25.7122    0.0000 </r>
       <r>   36.6122    0.0000 </r>
       <r>   38.3320    0.0000 </r>
       <r>   39.7737    0.0000 </r>
       <r>   40.9944    0.0000 </r>
       <r>   42.5415    0.0000 </r>
       <r>   43.8130    0.0000 </r>
       <r>   44.6597    0.0000 </r>
       <r>   45.0045    0.0000 </r>
       <r>   45.7400    0.0000 </r>
      </set>
      <set comment="kpoint 38">
       <r>    4.6187    1.0000 </r>
       <r>    4.8613    1.0000 </r>
       <r>    4.8613    1.0000 </r>
       <r>    5.1355    1.0000 </r>
       <r>    5.7083    1.0000 </r>
       <r>    5.7083    1.0000 </r>
       <r>    6.4493    1.0000 </r>
       <r>    7.2163    1.0000 </r>
       <r>    7.2524    1.0000 </r>
       <r>    7.2524    1.0000 </r>
       <r>   12.4401    0.0000 </r>
       <r>   12.8320    0.0000 </r>
       <r>   12.8320    0.0000 </r>
       <r>   18.6076    0.0000 </r>
       <r>   19.1046    0.0000 </r>
       <r>   19.1046    0.0000 </r>
       <r>   23.2282    0.0000 </r>
       <r>   23.5550    0.0000 </r>
       <r>   23.5550    0.0000 </r>
       <r>   38.6624    0.0000 </r>
       <r>   40.0971    0.0000 </r>
       <r>   40.0971    0.0000 </r>
       <r>   41.2860    0.0000 </r>
       <r>   41.9356    0.0000 </r>
       <r>   41.9356    0.0000 </r>
       <r>   45.0854    0.0000 </r>
       <r>   45.0854    0.0000 </r>
       <r>   46.0774    0.0000 </r>
      </set>
      <set comment="kpoint 39">
       <r>    0.8393    1.0000 </r>
       <r>    3.6266    1.0000 </r>
       <r>    5.7935    1.0000 </r>
       <r>    5.8299    1.0000 </r>
       <r>    5.8299    1.0000 </r>
       <r>    6.0413    1.0000 </r>
       <r>    6.0413    1.0000 </r>
       <r>    6.6802    1.0000 </r>
       <r>    6.6802    1.0000 </r>
       <r>    6.6881    1.0000 </r>
       <r>    7.2698    1.0000 </r>
       <r>    7.2698    1.0000 </r>
       <r>   16.5578    0.0000 </r>
       <r>   27.8232    0.0000 </r>
       <r>   29.2677    0.0000 </r>
       <r>   30.8706    0.0000 </r>
       <r>   30.8706    0.0000 </r>
       <r>   30.9274    0.0000 </r>
       <r>   32.0348    0.0000 </r>
       <r>   32.0348    0.0000 </r>
       <r>   35.3832    0.0000 </r>
       <r>   35.3833    0.0000 </r>
       <r>   36.2739    0.0000 </r>
       <r>   36.2739    0.0000 </r>
       <r>   37.9376    0.0000 </r>
       <r>   38.6113    0.0000 </r>
       <r>   42.8661    0.0000 </r>
       <r>   43.2052    0.0000 </r>
      </set>
      <set comment="kpoint 40">
       <r>    1.0498    1.0000 </r>
       <r>    3.7790    1.0000 </r>
       <r>    5.7378    1.0000 </r>
       <r>    5.8136    1.0000 </r>
       <r>    5.8628    1.0000 </r>
       <r>    5.9023    1.0000 </r>
       <r>    6.1159    1.0000 </r>
       <r>    6.3660    1.0000 </r>
       <r>    6.6553    1.0000 </r>
       <r>    6.6931    1.0000 </r>
       <r>    7.2814    1.0000 </r>
       <r>    7.8143    1.0000 </r>
       <r>   16.6994    0.0000 </r>
       <r>   27.1364    0.0000 </r>
       <r>   27.9788    0.0000 </r>
       <r>   29.0700    0.0000 </r>
       <r>   29.1950    0.0000 </r>
       <r>   30.8190    0.0000 </r>
       <r>   32.3438    0.0000 </r>
       <r>   33.1219    0.0000 </r>
       <r>   34.8228    0.0000 </r>
       <r>   35.8937    0.0000 </r>
       <r>   36.2288    0.0000 </r>
       <r>   37.9758    0.0000 </r>
       <r>   38.5334    0.0000 </r>
       <r>   40.6403    0.0000 </r>
       <r>   41.4790    0.0000 </r>
       <r>   41.7754    0.0000 </r>
      </set>
      <set comment="kpoint 41">
       <r>    1.6546    1.0000 </r>
       <r>    4.1715    1.0000 </r>
       <r>    5.4030    1.0000 </r>
       <r>    5.5811    1.0000 </r>
       <r>    5.7856    1.0000 </r>
       <r>    6.0668    1.0000 </r>
       <r>    6.1785    1.0000 </r>
       <r>    6.3223    1.0000 </r>
       <r>    6.6378    1.0000 </r>
       <r>    6.7436    1.0000 </r>
       <r>    7.3057    1.0000 </r>
       <r>    8.6531    0.0000 </r>
       <r>   17.1346    0.0000 </r>
       <r>   23.4944    0.0000 </r>
       <r>   27.0070    0.0000 </r>
       <r>   27.0263    0.0000 </r>
       <r>   28.5969    0.0000 </r>
       <r>   29.1128    0.0000 </r>
       <r>   31.6127    0.0000 </r>
       <r>   31.7868    0.0000 </r>
       <r>   35.6565    0.0000 </r>
       <r>   36.7809    0.0000 </r>
       <r>   37.0469    0.0000 </r>
       <r>   39.3515    0.0000 </r>
       <r>   39.9272    0.0000 </r>
       <r>   40.7913    0.0000 </r>
       <r>   42.2025    0.0000 </r>
       <r>   43.6853    0.0000 </r>
      </set>
      <set comment="kpoint 42">
       <r>    2.5445    1.0000 </r>
       <r>    4.5214    1.0000 </r>
       <r>    5.0021    1.0000 </r>
       <r>    5.4770    1.0000 </r>
       <r>    5.7277    1.0000 </r>
       <r>    6.1373    1.0000 </r>
       <r>    6.2309    1.0000 </r>
       <r>    6.6258    1.0000 </r>
       <r>    6.7863    1.0000 </r>
       <r>    6.8642    1.0000 </r>
       <r>    7.3320    1.0000 </r>
       <r>    9.5850    0.0000 </r>
       <r>   17.8433    0.0000 </r>
       <r>   20.0166    0.0000 </r>
       <r>   24.0046    0.0000 </r>
       <r>   25.2284    0.0000 </r>
       <r>   28.2298    0.0000 </r>
       <r>   29.0033    0.0000 </r>
       <r>   30.3118    0.0000 </r>
       <r>   30.7061    0.0000 </r>
       <r>   33.1582    0.0000 </r>
       <r>   37.6744    0.0000 </r>
       <r>   38.0529    0.0000 </r>
       <r>   41.0182    0.0000 </r>
       <r>   41.9085    0.0000 </r>
       <r>   43.0780    0.0000 </r>
       <r>   43.5100    0.0000 </r>
       <r>   44.2189    0.0000 </r>
      </set>
      <set comment="kpoint 43">
       <r>    3.4128    1.0000 </r>
       <r>    4.4677    1.0000 </r>
       <r>    4.8318    1.0000 </r>
       <r>    5.3381    1.0000 </r>
       <r>    5.9851    1.0000 </r>
       <r>    6.0805    1.0000 </r>
       <r>    6.6351    1.0000 </r>
       <r>    6.9460    1.0000 </r>
       <r>    7.0737    1.0000 </r>
       <r>    7.1130    1.0000 </r>
       <r>    7.3736    1.0000 </r>
       <r>   10.6199    0.0000 </r>
       <r>   16.7678    0.0000 </r>
       <r>   18.7539    0.0000 </r>
       <r>   21.3260    0.0000 </r>
       <r>   23.8348    0.0000 </r>
       <r>   27.2373    0.0000 </r>
       <r>   28.8085    0.0000 </r>
       <r>   29.1077    0.0000 </r>
       <r>   29.4841    0.0000 </r>
       <r>   32.5475    0.0000 </r>
       <r>   37.4517    0.0000 </r>
       <r>   38.2432    0.0000 </r>
       <r>   41.0764    0.0000 </r>
       <r>   43.9530    0.0000 </r>
       <r>   44.1388    0.0000 </r>
       <r>   45.0628    0.0000 </r>
       <r>   45.5081    0.0000 </r>
      </set>
      <set comment="kpoint 44">
       <r>    3.8171    1.0000 </r>
       <r>    4.3189    1.0000 </r>
       <r>    4.8798    1.0000 </r>
       <r>    5.1612    1.0000 </r>
       <r>    6.0153    1.0000 </r>
       <r>    6.2561    1.0000 </r>
       <r>    7.1259    1.0000 </r>
       <r>    7.1556    1.0000 </r>
       <r>    7.3397    1.0000 </r>
       <r>    7.4590    1.0000 </r>
       <r>    7.9688    1.0000 </r>
       <r>   11.3512    0.0000 </r>
       <r>   14.7329    0.0000 </r>
       <r>   17.4982    0.0000 </r>
       <r>   21.3535    0.0000 </r>
       <r>   22.9317    0.0000 </r>
       <r>   25.3137    0.0000 </r>
       <r>   28.2796    0.0000 </r>
       <r>   28.3130    0.0000 </r>
       <r>   28.8984    0.0000 </r>
       <r>   33.6631    0.0000 </r>
       <r>   36.9953    0.0000 </r>
       <r>   37.4370    0.0000 </r>
       <r>   39.7589    0.0000 </r>
       <r>   45.1848    0.0000 </r>
       <r>   45.2762    0.0000 </r>
       <r>   46.0256    0.0000 </r>
       <r>   47.1839    0.0000 </r>
      </set>
      <set comment="kpoint 45">
       <r>    3.8788    1.0000 </r>
       <r>    4.2610    1.0000 </r>
       <r>    4.9918    1.0000 </r>
       <r>    5.0319    1.0000 </r>
       <r>    5.9897    1.0000 </r>
       <r>    6.3425    1.0000 </r>
       <r>    7.1659    1.0000 </r>
       <r>    7.2875    1.0000 </r>
       <r>    7.4497    1.0000 </r>
       <r>    7.5128    1.0000 </r>
       <r>    9.1186    0.0000 </r>
       <r>   10.7320    0.0000 </r>
       <r>   15.3549    0.0000 </r>
       <r>   15.4887    0.0000 </r>
       <r>   22.6167    0.0000 </r>
       <r>   22.9106    0.0000 </r>
       <r>   23.3770    0.0000 </r>
       <r>   28.0341    0.0000 </r>
       <r>   28.1333    0.0000 </r>
       <r>   28.7290    0.0000 </r>
       <r>   35.0095    0.0000 </r>
       <r>   35.9361    0.0000 </r>
       <r>   36.8399    0.0000 </r>
       <r>   39.6201    0.0000 </r>
       <r>   45.1891    0.0000 </r>
[...]
       </set>
       <set comment="band 28">
        <r>  0.7456  0.0263  0.0063  0.0661  0.0564  0.0030  0.0089  0.0010  0.1543 </r>
        <r>  0.1608  0.0057  0.0290  0.0143  0.0122  0.0138  0.0019  0.0046  0.0333 </r>
       </set>
      </set>
      <set comment="kpoint 93">
       <set comment="band 1">
        <r>  0.0836  0.0048  0.0055  0.0458  0.0223  0.0001  0.0339  0.1040  0.0552 </r>
        <r>  0.0265  0.0015  0.0173  0.0145  0.0071  0.0004  0.0107  0.3287  0.0175 </r>
       </set>
       <set comment="band 2">
        <r>  0.0265  0.0015  0.0173  0.0145  0.0071  0.0004  0.0107  0.3287  0.0175 </r>
        <r>  0.0836  0.0048  0.0055  0.0458  0.0223  0.0001  0.0339  0.1040  0.0552 </r>
       </set>
       <set comment="band 3">
        <r>  0.0115  0.0305  0.0096  0.0078  0.4173  0.0211  0.0009  0.0007  0.0271 </r>
        <r>  0.0067  0.0177  0.0166  0.0045  0.2418  0.0363  0.0005  0.0011  0.0157 </r>
       </set>
       <set comment="band 4">
        <r>  0.0067  0.0177  0.0166  0.0045  0.2418  0.0363  0.0005  0.0011  0.0157 </r>
        <r>  0.0115  0.0305  0.0096  0.0078  0.4173  0.0211  0.0009  0.0007  0.0271 </r>
       </set>
       <set comment="band 5">
        <r>  0.0002  0.0001  0.0037  0.0279  0.0000  0.1600  0.1380  0.0197  0.0596 </r>
        <r>  0.0004  0.0001  0.0023  0.0440  0.0000  0.1016  0.2174  0.0125  0.0939 </r>
       </set>
       <set comment="band 6">
        <r>  0.0004  0.0001  0.0023  0.0440  0.0000  0.1016  0.2174  0.0125  0.0939 </r>
        <r>  0.0002  0.0001  0.0037  0.0279  0.0000  0.1600  0.1380  0.0197  0.0596 </r>
       </set>
       <set comment="band 7">
        <r>  0.0049  0.0000  0.0000  0.0005  0.0814  0.1747  0.0262  0.0329  0.1251 </r>
        <r>  0.0027  0.0000  0.0000  0.0003  0.0444  0.3204  0.0143  0.0603  0.0682 </r>
       </set>
       <set comment="band 8">
        <r>  0.0027  0.0000  0.0000  0.0003  0.0444  0.3204  0.0143  0.0603  0.0682 </r>
        <r>  0.0049  0.0000  0.0000  0.0005  0.0814  0.1747  0.0262  0.0329  0.1251 </r>
       </set>
       <set comment="band 9">
        <r>  0.0000  0.0000  0.0018  0.0006  0.0024  0.0677  0.1305  0.1568  0.0426 </r>
        <r>  0.0000  0.0000  0.0006  0.0017  0.0070  0.0236  0.3743  0.0547  0.1222 </r>
       </set>
       <set comment="band 10">
        <r>  0.0000  0.0000  0.0006  0.0017  0.0070  0.0236  0.3743  0.0547  0.1222 </r>
        <r>  0.0000  0.0000  0.0018  0.0006  0.0024  0.0677  0.1305  0.1568  0.0426 </r>
       </set>
       <set comment="band 11">
        <r>  0.0433  0.0015  0.0261  0.0835  0.0115  0.0025  0.0006  0.0668  0.2122 </r>
        <r>  0.0333  0.0012  0.0340  0.0642  0.0088  0.0032  0.0005  0.0870  0.1631 </r>
       </set>
       <set comment="band 12">
        <r>  0.0333  0.0012  0.0340  0.0642  0.0088  0.0032  0.0005  0.0870  0.1631 </r>
        <r>  0.0433  0.0015  0.0261  0.0835  0.0115  0.0025  0.0006  0.0668  0.2122 </r>
       </set>
       <set comment="band 13">
        <r>  0.0006  0.0604  0.0480  0.0009  0.0589  0.0228  0.0002  0.0507  0.0002 </r>
        <r>  0.0023  0.2231  0.0130  0.0035  0.2175  0.0062  0.0007  0.0137  0.0009 </r>
       </set>
       <set comment="band 14">
        <r>  0.0023  0.2231  0.0130  0.0035  0.2175  0.0062  0.0007  0.0137  0.0009 </r>
        <r>  0.0006  0.0604  0.0480  0.0009  0.0589  0.0228  0.0002  0.0507  0.0002 </r>
       </set>
       <set comment="band 15">
        <r>  0.0930  0.0000  0.0029  0.0412  0.0000  0.0799  0.0132  0.0461  0.0000 </r>
        <r>  0.2678  0.0000  0.0010  0.1187  0.0000  0.0278  0.0380  0.0160  0.0000 </r>
       </set>
       <set comment="band 16">
        <r>  0.2678  0.0000  0.0010  0.1187  0.0000  0.0278  0.0380  0.0160  0.0000 </r>
        <r>  0.0930  0.0000  0.0029  0.0412  0.0000  0.0799  0.0132  0.0461  0.0000 </r>
       </set>
       <set comment="band 17">
        <r>  0.0165  0.0003  0.1664  0.0249  0.0011  0.0121  0.0283  0.0498  0.0068 </r>
        <r>  0.0285  0.0006  0.0966  0.0429  0.0019  0.0070  0.0487  0.0289  0.0118 </r>
       </set>
       <set comment="band 18">
        <r>  0.0285  0.0006  0.0966  0.0429  0.0019  0.0070  0.0487  0.0289  0.0118 </r>
        <r>  0.0165  0.0003  0.1664  0.0249  0.0011  0.0121  0.0283  0.0498  0.0068 </r>
       </set>
       <set comment="band 19">
        <r>  0.0022  0.0346  0.0539  0.0046  0.0396  0.0565  0.0122  0.0573  0.0027 </r>
        <r>  0.0027  0.0412  0.0452  0.0055  0.0472  0.0474  0.0146  0.0481  0.0032 </r>
       </set>
       <set comment="band 20">
        <r>  0.0027  0.0412  0.0452  0.0055  0.0472  0.0474  0.0146  0.0481  0.0032 </r>
        <r>  0.0022  0.0346  0.0539  0.0046  0.0396  0.0565  0.0122  0.0573  0.0027 </r>
       </set>
       <set comment="band 21">
        <r>  0.0044  0.0009  0.0579  0.0069  0.0022  0.0138  0.0292  0.1280  0.0039 </r>
        <r>  0.0316  0.0061  0.0081  0.0494  0.0156  0.0019  0.2099  0.0178  0.0278 </r>
       </set>
       <set comment="band 22">
        <r>  0.0316  0.0061  0.0081  0.0494  0.0156  0.0019  0.2099  0.0178  0.0278 </r>
        <r>  0.0044  0.0009  0.0579  0.0069  0.0022  0.0138  0.0292  0.1280  0.0039 </r>
       </set>
       <set comment="band 23">
        <r>  0.0000  0.0093  0.0422  0.0000  0.0073  0.0228  0.0000  0.0141  0.0000 </r>
        <r>  0.0009  0.2448  0.0016  0.0009  0.1926  0.0009  0.0000  0.0005  0.0000 </r>
       </set>
       <set comment="band 24">
        <r>  0.0009  0.2448  0.0016  0.0009  0.1926  0.0009  0.0000  0.0005  0.0000 </r>
        <r>  0.0000  0.0093  0.0422  0.0000  0.0073  0.0228  0.0000  0.0141  0.0000 </r>
       </set>
       <set comment="band 25">
        <r>  0.1851  0.0001  0.0039  0.0015  0.0009  0.1502  0.0014  0.0295  0.1082 </r>
        <r>  0.1840  0.0001  0.0039  0.0015  0.0009  0.1510  0.0014  0.0297  0.1076 </r>
       </set>
       <set comment="band 26">
        <r>  0.1840  0.0001  0.0039  0.0015  0.0009  0.1510  0.0014  0.0297  0.1076 </r>
        <r>  0.1851  0.0001  0.0039  0.0015  0.0009  0.1502  0.0014  0.0295  0.1082 </r>
       </set>
       <set comment="band 27">
        <r>  3.2312  0.0000  0.0017  0.0025  0.0001  0.0099  0.0012  0.0001  0.0082 </r>
        <r>  2.3759  0.0000  0.0023  0.0019  0.0000  0.0135  0.0009  0.0001  0.0060 </r>
       </set>
       <set comment="band 28">
        <r>  2.3759  0.0000  0.0023  0.0019  0.0000  0.0135  0.0009  0.0001  0.0060 </r>
        <r>  3.2312  0.0000  0.0017  0.0025  0.0001  0.0099  0.0012  0.0001  0.0082 </r>
       </set>
      </set>
      <set comment="kpoint 94">
       <set comment="band 1">
        <r>  0.0146  0.0044  0.0027  0.0076  0.0251  0.0298  0.0176  0.3257  0.0162 </r>
        <r>  0.0450  0.0136  0.0009  0.0234  0.0777  0.0096  0.0543  0.1054  0.0502 </r>
       </set>
       <set comment="band 2">
        <r>  0.0450  0.0136  0.0009  0.0234  0.0777  0.0096  0.0543  0.1054  0.0502 </r>
        <r>  0.0146  0.0044  0.0027  0.0076  0.0251  0.0298  0.0176  0.3257  0.0162 </r>
       </set>
       <set comment="band 3">
        <r>  0.0081  0.0254  0.0030  0.0005  0.2100  0.0893  0.0948  0.0285  0.0091 </r>
        <r>  0.0053  0.0168  0.0045  0.0003  0.1386  0.1353  0.0625  0.0432  0.0060 </r>
       </set>
       <set comment="band 4">
        <r>  0.0053  0.0168  0.0045  0.0003  0.1386  0.1353  0.0625  0.0432  0.0060 </r>
        <r>  0.0081  0.0254  0.0030  0.0005  0.2100  0.0893  0.0948  0.0285  0.0091 </r>
       </set>
       <set comment="band 5">
        <r>  0.0034  0.0097  0.0129  0.0549  0.0947  0.0768  0.0403  0.0014  0.1632 </r>
        <r>  0.0024  0.0068  0.0183  0.0386  0.0667  0.1092  0.0284  0.0020  0.1149 </r>
       </set>
       <set comment="band 6">
        <r>  0.0024  0.0068  0.0183  0.0386  0.0667  0.1092  0.0284  0.0020  0.1149 </r>
        <r>  0.0034  0.0097  0.0129  0.0549  0.0947  0.0768  0.0403  0.0014  0.1632 </r>
       </set>
       <set comment="band 7">
        <r>  0.0002  0.0001  0.0009  0.0004  0.0092  0.3062  0.0012  0.1263  0.0165 </r>
        <r>  0.0025  0.0018  0.0001  0.0076  0.1565  0.0181  0.0207  0.0075  0.2792 </r>
       </set>
       <set comment="band 8">
        <r>  0.0025  0.0018  0.0001  0.0076  0.1565  0.0181  0.0207  0.0075  0.2792 </r>
        <r>  0.0002  0.0001  0.0009  0.0004  0.0092  0.3062  0.0012  0.1263  0.0165 </r>
       </set>
       <set comment="band 9">
        <r>  0.0001  0.0000  0.0008  0.0001  0.0006  0.0989  0.0387  0.1719  0.0031 </r>
        <r>  0.0011  0.0001  0.0001  0.0012  0.0097  0.0064  0.5938  0.0112  0.0472 </r>
       </set>
       <set comment="band 10">
        <r>  0.0011  0.0001  0.0001  0.0012  0.0097  0.0064  0.5938  0.0112  0.0472 </r>
        <r>  0.0001  0.0000  0.0008  0.0001  0.0006  0.0989  0.0387  0.1719  0.0031 </r>
       </set>
       <set comment="band 11">
        <r>  0.0025  0.0016  0.0842  0.0147  0.0026  0.0078  0.0001  0.0624  0.0200 </r>
        <r>  0.0347  0.0218  0.0060  0.2056  0.0369  0.0006  0.0016  0.0044  0.2807 </r>
       </set>
       <set comment="band 12">
        <r>  0.0347  0.0218  0.0060  0.2056  0.0369  0.0006  0.0016  0.0044  0.2807 </r>
        <r>  0.0025  0.0016  0.0842  0.0147  0.0026  0.0078  0.0001  0.0624  0.0200 </r>
       </set>
       <set comment="band 13">
        <r>  0.0502  0.0574  0.0218  0.0049  0.0656  0.0352  0.0027  0.0697  0.0038 </r>
        <r>  0.1076  0.1230  0.0102  0.0106  0.1406  0.0164  0.0058  0.0325  0.0082 </r>
       </set>
       <set comment="band 14">
        <r>  0.1076  0.1230  0.0102  0.0106  0.1406  0.0164  0.0058  0.0325  0.0082 </r>
        <r>  0.0502  0.0574  0.0218  0.0049  0.0656  0.0352  0.0027  0.0697  0.0038 </r>
       </set>
       <set comment="band 15">
        <r>  0.2999  0.0929  0.0005  0.0649  0.0476  0.0038  0.0325  0.0019  0.0070 </r>
        <r>  0.0107  0.0033  0.0146  0.0023  0.0017  0.1053  0.0012  0.0531  0.0003 </r>
       </set>
       <set comment="band 16">
        <r>  0.0107  0.0033  0.0146  0.0023  0.0017  0.1053  0.0012  0.0531  0.0003 </r>
        <r>  0.2999  0.0929  0.0005  0.0649  0.0476  0.0038  0.0325  0.0019  0.0070 </r>
       </set>
       <set comment="band 17">
        <r>  0.0066  0.0046  0.1308  0.0503  0.0026  0.0131  0.0121  0.0321  0.0142 </r>
        <r>  0.0058  0.0040  0.1494  0.0440  0.0022  0.0150  0.0106  0.0367  0.0124 </r>
       </set>
       <set comment="band 18">
        <r>  0.0058  0.0040  0.1494  0.0440  0.0022  0.0150  0.0106  0.0367  0.0124 </r>
        <r>  0.0066  0.0046  0.1308  0.0503  0.0026  0.0131  0.0121  0.0321  0.0142 </r>
       </set>
       <set comment="band 19">
        <r>  0.0025  0.0090  0.1068  0.0003  0.0086  0.0823  0.0062  0.1335  0.0007 </r>
        <r>  0.0177  0.0629  0.0153  0.0019  0.0601  0.0118  0.0437  0.0191  0.0049 </r>
       </set>
       <set comment="band 20">
        <r>  0.0177  0.0629  0.0153  0.0019  0.0601  0.0118  0.0437  0.0191  0.0049 </r>
        <r>  0.0025  0.0090  0.1068  0.0003  0.0086  0.0823  0.0062  0.1335  0.0007 </r>
       </set>
       <set comment="band 21">
        <r>  0.0037  0.0024  0.0369  0.0020  0.0001  0.0624  0.0184  0.0683  0.0004 </r>
        <r>  0.0508  0.0334  0.0027  0.0277  0.0010  0.0045  0.2531  0.0050  0.0049 </r>
       </set>
       <set comment="band 22">
        <r>  0.0508  0.0334  0.0027  0.0277  0.0010  0.0045  0.2531  0.0050  0.0049 </r>
        <r>  0.0037  0.0024  0.0369  0.0020  0.0001  0.0624  0.0184  0.0683  0.0004 </r>
       </set>
       <set comment="band 23">
        <r>  0.0159  0.0267  0.0212  0.0017  0.0418  0.0820  0.0004  0.0344  0.0072 </r>
        <r>  0.0677  0.1142  0.0050  0.0074  0.1783  0.0192  0.0016  0.0081  0.0309 </r>
       </set>
       <set comment="band 24">
        <r>  0.0677  0.1142  0.0050  0.0074  0.1783  0.0192  0.0016  0.0081  0.0309 </r>
        <r>  0.0159  0.0267  0.0212  0.0017  0.0418  0.0820  0.0004  0.0344  0.0072 </r>
       </set>
       <set comment="band 25">
        <r>  0.0493  0.0105  0.0136  0.0070  0.0100  0.1309  0.0014  0.0201  0.0362 </r>
        <r>  0.2150  0.0457  0.0031  0.0303  0.0437  0.0300  0.0061  0.0046  0.1579 </r>
       </set>
       <set comment="band 26">
        <r>  0.2150  0.0457  0.0031  0.0303  0.0437  0.0300  0.0061  0.0046  0.1579 </r>
        <r>  0.0493  0.0105  0.0136  0.0070  0.0100  0.1309  0.0014  0.0201  0.0362 </r>
       </set>
       <set comment="band 27">
        <r>  0.2295  0.0003  0.0099  0.0143  0.0005  0.0079  0.0033  0.0685  0.0179 </r>
        <r>  1.2065  0.0014  0.0019  0.0752  0.0027  0.0015  0.0171  0.0130  0.0942 </r>
       </set>
       <set comment="band 28">
        <r>  1.2065  0.0014  0.0019  0.0752  0.0027  0.0015  0.0171  0.0130  0.0942 </r>
        <r>  0.2295  0.0003  0.0099  0.0143  0.0005  0.0079  0.0033  0.0685  0.0179 </r>
       </set>
      </set>
      <set comment="kpoint 95">
       <set comment="band 1">
        <r>  0.0000  0.0498  0.0000  0.0498  0.1467  0.0031  0.0000  0.0031  0.1467 </r>
        <r>  0.0000  0.0008  0.0000  0.0008  0.0023  0.2015  0.0000  0.2015  0.0023 </r>
       </set>
       <set comment="band 2">
        <r>  0.0000  0.0008  0.0000  0.0008  0.0023  0.2015  0.0000  0.2015  0.0023 </r>
        <r>  0.0000  0.0498  0.0000  0.0498  0.1467  0.0031  0.0000  0.0031  0.1467 </r>
       </set>
       <set comment="band 3">
        <r>  0.0562  0.0000  0.0000  0.0000  0.0000  0.0243  0.2365  0.0243  0.0000 </r>
        <r>  0.0052  0.0000  0.0000  0.0000  0.0000  0.2618  0.0219  0.2618  0.0000 </r>
       </set>
       <set comment="band 4">
        <r>  0.0052  0.0000  0.0000  0.0000  0.0000  0.2618  0.0219  0.2618  0.0000 </r>
        <r>  0.0562  0.0000  0.0000  0.0000  0.0000  0.0243  0.2365  0.0243  0.0000 </r>
       </set>
       <set comment="band 5">
        <r>  0.0000  0.0000  0.0384  0.0000  0.0002  0.0000  0.0000  0.0000  0.0002 </r>
        <r>  0.0000  0.0550  0.0000  0.0550  0.3521  0.0000  0.0000  0.0000  0.3521 </r>
       </set>
       <set comment="band 6">
        <r>  0.0000  0.0550  0.0000  0.0550  0.3521  0.0000  0.0000  0.0000  0.3521 </r>
        <r>  0.0000  0.0000  0.0384  0.0000  0.0002  0.0000  0.0000  0.0000  0.0002 </r>
       </set>
       <set comment="band 7">
        <r>  0.0000  0.0003  0.0000  0.0003  0.0283  0.1960  0.0000  0.1960  0.0283 </r>
        <r>  0.0000  0.0025  0.0000  0.0025  0.2275  0.0244  0.0000  0.0244  0.2275 </r>
       </set>
       <set comment="band 8">
        <r>  0.0000  0.0025  0.0000  0.0025  0.2275  0.0244  0.0000  0.0244  0.2275 </r>
        <r>  0.0000  0.0003  0.0000  0.0003  0.0283  0.1960  0.0000  0.1960  0.0283 </r>
       </set>
       <set comment="band 9">
        <r>  0.0003  0.0000  0.0000  0.0000  0.0000  0.1286  0.0664  0.1286  0.0000 </r>
        <r>  0.0029  0.0000  0.0000  0.0000  0.0000  0.0136  0.6298  0.0136  0.0000 </r>
       </set>
       <set comment="band 10">
        <r>  0.0029  0.0000  0.0000  0.0000  0.0000  0.0136  0.6298  0.0136  0.0000 </r>
        <r>  0.0003  0.0000  0.0000  0.0000  0.0000  0.1286  0.0664  0.1286  0.0000 </r>
       </set>
       <set comment="band 11">
        <r>  0.0000  0.0595  0.0834  0.0595  0.0719  0.0000  0.0000  0.0000  0.0719 </r>
        <r>  0.0000  0.0823  0.0603  0.0823  0.0995  0.0000  0.0000  0.0000  0.0995 </r>
       </set>
       <set comment="band 12">
        <r>  0.0000  0.0823  0.0603  0.0823  0.0995  0.0000  0.0000  0.0000  0.0995 </r>
        <r>  0.0000  0.0595  0.0834  0.0595  0.0719  0.0000  0.0000  0.0000  0.0719 </r>
       </set>
       <set comment="band 13">
        <r>  0.0000  0.0319  0.0000  0.0319  0.0248  0.0660  0.0000  0.0660  0.0248 </r>
        <r>  0.0000  0.1279  0.0000  0.1279  0.0992  0.0165  0.0000  0.0165  0.0992 </r>
       </set>
       <set comment="band 14">
        <r>  0.0000  0.1279  0.0000  0.1279  0.0992  0.0165  0.0000  0.0165  0.0992 </r>
        <r>  0.0000  0.0319  0.0000  0.0319  0.0248  0.0660  0.0000  0.0660  0.0248 </r>
       </set>
       <set comment="band 15">
        <r>  0.2398  0.0000  0.0000  0.0000  0.0000  0.0609  0.0180  0.0609  0.0000 </r>
        <r>  0.2904  0.0000  0.0000  0.0000  0.0000  0.0503  0.0218  0.0503  0.0000 </r>
       </set>
       <set comment="band 16">
        <r>  0.2904  0.0000  0.0000  0.0000  0.0000  0.0503  0.0218  0.0503  0.0000 </r>
        <r>  0.2398  0.0000  0.0000  0.0000  0.0000  0.0609  0.0180  0.0609  0.0000 </r>
       </set>
       <set comment="band 17">
        <r>  0.0000  0.0141  0.3312  0.0141  0.0074  0.0000  0.0000  0.0000  0.0074 </r>
        <r>  0.0000  0.0434  0.1075  0.0434  0.0229  0.0000  0.0000  0.0000  0.0229 </r>
       </set>
       <set comment="band 18">
        <r>  0.0000  0.0434  0.1075  0.0434  0.0229  0.0000  0.0000  0.0000  0.0229 </r>
        <r>  0.0000  0.0141  0.3312  0.0141  0.0074  0.0000  0.0000  0.0000  0.0074 </r>
       </set>
       <set comment="band 19">
        <r>  0.0000  0.0025  0.0000  0.0025  0.0008  0.1562  0.0000  0.1562  0.0008 </r>
        <r>  0.0000  0.0506  0.0000  0.0506  0.0168  0.0078  0.0000  0.0078  0.0168 </r>
       </set>
       <set comment="band 20">
        <r>  0.0000  0.0506  0.0000  0.0506  0.0168  0.0078  0.0000  0.0078  0.0168 </r>
        <r>  0.0000  0.0025  0.0000  0.0025  0.0008  0.1562  0.0000  0.1562  0.0008 </r>
       </set>
       <set comment="band 21">
        <r>  0.0003  0.0000  0.0000  0.0000  0.0000  0.0958  0.0009  0.0958  0.0000 </r>
        <r>  0.1057  0.0000  0.0000  0.0000  0.0000  0.0002  0.3517  0.0002  0.0000 </r>
       </set>
       <set comment="band 22">
        <r>  0.1057  0.0000  0.0000  0.0000  0.0000  0.0002  0.3517  0.0002  0.0000 </r>
        <r>  0.0003  0.0000  0.0000  0.0000  0.0000  0.0958  0.0009  0.0958  0.0000 </r>
       </set>
       <set comment="band 23">
        <r>  0.0000  0.0132  0.0000  0.0132  0.0295  0.0472  0.0000  0.0472  0.0295 </r>
        <r>  0.0000  0.0669  0.0000  0.0669  0.1498  0.0093  0.0000  0.0093  0.1498 </r>
       </set>
       <set comment="band 24">
        <r>  0.0000  0.0669  0.0000  0.0669  0.1498  0.0093  0.0000  0.0093  0.1498 </r>
        <r>  0.0000  0.0132  0.0000  0.0132  0.0295  0.0472  0.0000  0.0472  0.0295 </r>
       </set>
       <set comment="band 25">
        <r>  0.0000  0.0257  0.0445  0.0257  0.0376  0.0000  0.0000  0.0000  0.0376 </r>
        <r>  0.0000  0.0792  0.0144  0.0792  0.1160  0.0000  0.0000  0.0000  0.1160 </r>
       </set>
       <set comment="band 26">
        <r>  0.0000  0.0792  0.0144  0.0792  0.1160  0.0000  0.0000  0.0000  0.1160 </r>
        <r>  0.0000  0.0257  0.0445  0.0257  0.0376  0.0000  0.0000  0.0000  0.0376 </r>
       </set>
       <set comment="band 27">
        <r>  0.1402  0.0000  0.0000  0.0000  0.0000  0.1366  0.0045  0.1366  0.0000 </r>
        <r>  0.7889  0.0000  0.0000  0.0000  0.0000  0.0243  0.0253  0.0243  0.0000 </r>
       </set>
       <set comment="band 28">
        <r>  0.7889  0.0000  0.0000  0.0000  0.0000  0.0243  0.0253  0.0243  0.0000 </r>
        <r>  0.1402  0.0000  0.0000  0.0000  0.0000  0.1366  0.0045  0.1366  0.0000 </r>
       </set>
      </set>
     </set>
    </set>
   </array>
  </projected>
 </calculation>
 <structure name="finalpos" >
  <crystal>
   <varray name="basis" >
    <v>       1.30844470      -2.26629269       0.00000000 </v>
    <v>       1.30844470       2.26629269       0.00000000 </v>
    <v>       0.00000000       0.00000000       4.22116635 </v>
   </varray>
   <i name="volume">     25.03420659 </i>
   <varray name="rec_basis" >
    <v>       0.38213308      -0.22062464       0.00000000 </v>
    <v>       0.38213308       0.22062464       0.00000000 </v>
    <v>       0.00000000       0.00000000       0.23690135 </v>
   </varray>
  </crystal>
  <varray name="positions" >
   <v>       0.33333333       0.66666667       0.25000000 </v>
   <v>       0.66666667       0.33333333       0.75000000 </v>
  </varray>
 </structure>
</modeling>
