Co-hcc                                  
           1
     1.308445   -2.266293    0.000000
     1.308445    2.266293    0.000000
     0.000000    0.000000    4.221166
   Co
     2
Direct configuration=     1
   0.33333333  0.66666667  0.25000000
   0.66666667  0.33333333  0.75000000
