Co-hcc                                  
           1
     2.533332    0.000000    0.000000
    -1.266666    2.193930    0.000000
     0.000000    0.000000    4.098828
   Co
     2
Direct configuration=     1
   0.00000000  0.00000000  0.00000000
   0.33333333  0.66666667  0.50000000
