   1   1   0   0
  0.1081089E+02  0.2481945E-09  0.2481945E-09  0.2481945E-09  0.5000000E-15
  1.000000000000000E-004
  CAR 
 Co fcc                                  
     54.32108930     -0.86458372  301     10.40731422      1.00000000
     -0.865  0.0000E+00  0.0000E+00  0.0000E+00  0.0000E+00
     -0.681  0.0000E+00  0.0000E+00  0.0000E+00  0.0000E+00
     -0.497  0.0000E+00  0.0000E+00  0.0000E+00  0.0000E+00
     -0.313  0.0000E+00  0.0000E+00  0.0000E+00  0.0000E+00
     -0.129 -0.9630E-35  0.0000E+00 -0.1772E-35  0.0000E+00
      0.055 -0.4461E-28 -0.1326E-28 -0.8205E-29 -0.2440E-29
      0.239 -0.3754E-22 -0.1287E-22 -0.6905E-23 -0.2367E-23
      0.423 -0.5718E-17 -0.2260E-17 -0.1052E-17 -0.4157E-18
      0.607 -0.1510E-12 -0.6895E-13 -0.2779E-13 -0.1268E-13
      0.791 -0.7255E-09 -0.3828E-09 -0.1335E-09 -0.7043E-10
      0.975 -0.6011E-06 -0.3678E-06 -0.1107E-06 -0.6772E-07
      1.159 -0.8041E-04 -0.5755E-04 -0.1490E-04 -0.1065E-04
      1.343 -0.1299E-02 -0.1146E-02 -0.2539E-03 -0.2214E-03
      1.527  0.5744E-02  0.3929E-02  0.8027E-03  0.5013E-03
      1.711  0.3420E-01  0.3303E-01  0.7094E-02  0.6577E-02
      1.895  0.1313E-01  0.1608E-01  0.9510E-02  0.9536E-02
      2.079 -0.6070E-02 -0.5472E-02  0.8393E-02  0.8530E-02
      2.263  0.2814E-01  0.1829E-01  0.1357E-01  0.1189E-01
      2.447  0.1048E+00  0.1032E+00  0.3286E-01  0.3087E-01
      2.631  0.2611E-01  0.3803E-01  0.3766E-01  0.3787E-01
      2.814 -0.6945E-02 -0.9247E-02  0.3638E-01  0.3617E-01
      2.998  0.6744E-01  0.4519E-01  0.4879E-01  0.4448E-01
      3.182  0.8575E-01  0.1004E+00  0.6456E-01  0.6295E-01
      3.366 -0.3019E-02  0.9560E-02  0.6401E-01  0.6471E-01
      3.550  0.5195E-01  0.8489E-02  0.7356E-01  0.6627E-01
      3.734  0.1346E+00  0.1275E+00  0.9832E-01  0.8973E-01
      3.918  0.1457E-01  0.6939E-01  0.1010E+00  0.1025E+00
      4.102  0.5694E-01 -0.9267E-02  0.1115E+00  0.1008E+00
      4.286  0.2044E+00  0.1395E+00  0.1491E+00  0.1264E+00
      4.470  0.8748E-01  0.1651E+00  0.1652E+00  0.1568E+00
      4.654  0.8782E-01  0.1846E-01  0.1813E+00  0.1602E+00
      4.838  0.4391E-01  0.9567E-01  0.1894E+00  0.1778E+00
      5.022  0.1911E+00  0.3708E-01  0.2245E+00  0.1846E+00
      5.206  0.3728E+00  0.4502E-01  0.2931E+00  0.1929E+00
      5.390  0.5512E+00  0.1898E+00  0.3945E+00  0.2278E+00
      5.574  0.6226E+00  0.1522E+00  0.5090E+00  0.2558E+00
      5.758  0.6395E+00  0.2172E+00  0.6267E+00  0.2958E+00
      5.942  0.7315E+00  0.2074E+00  0.7612E+00  0.3339E+00
      6.126  0.9813E+00  0.1376E+00  0.9417E+00  0.3592E+00
      6.310  0.9603E+00  0.3106E+00  0.1118E+01  0.4164E+00
      6.494  0.8011E+00  0.4885E+00  0.1266E+01  0.5062E+00
      6.677  0.9464E+00  0.4912E+00  0.1440E+01  0.5966E+00
      6.861  0.6890E+00  0.4808E+00  0.1567E+01  0.6850E+00
      7.045  0.8047E+00  0.3050E+00  0.1715E+01  0.7411E+00
      7.229  0.1048E+01  0.6556E+00  0.1907E+01  0.8617E+00
      7.413  0.1171E+01  0.8587E+00  0.2123E+01  0.1020E+01
      7.597  0.1235E+01  0.7031E+00  0.2350E+01  0.1149E+01
      7.781  0.1421E+01  0.7103E+00  0.2611E+01  0.1280E+01
      7.965  0.1742E+01  0.7863E+00  0.2932E+01  0.1424E+01
      8.149  0.1278E+01  0.6858E+00  0.3167E+01  0.1550E+01
      8.333  0.8830E+00  0.5435E+00  0.3329E+01  0.1650E+01
      8.517  0.1063E+01  0.8705E+00  0.3525E+01  0.1811E+01
      8.701  0.1517E+01  0.1203E+01  0.3804E+01  0.2032E+01
      8.885  0.1076E+01  0.9267E+00  0.4002E+01  0.2202E+01
      9.069  0.9668E+00  0.8225E+00  0.4180E+01  0.2354E+01
      9.253  0.1205E+01  0.1109E+01  0.4402E+01  0.2558E+01
      9.437  0.1267E+01  0.1043E+01  0.4635E+01  0.2749E+01
      9.621  0.1827E+01  0.1283E+01  0.4971E+01  0.2986E+01
      9.805  0.1099E+01  0.1080E+01  0.5173E+01  0.3184E+01
      9.989  0.3858E+00  0.7427E+00  0.5244E+01  0.3321E+01
     10.173  0.1138E+00  0.7054E+00  0.5265E+01  0.3451E+01
     10.357  0.2975E+00  0.8401E+00  0.5320E+01  0.3605E+01
     10.540  0.1811E+00  0.1248E+01  0.5353E+01  0.3835E+01
     10.724  0.6386E-01  0.7529E+00  0.5365E+01  0.3973E+01
     10.908  0.9401E-01  0.1059E+01  0.5382E+01  0.4168E+01
     11.092  0.8761E-01  0.1281E+01  0.5398E+01  0.4404E+01
     11.276  0.1403E+00  0.8614E+00  0.5424E+01  0.4562E+01
     11.460  0.3409E+00  0.1581E+01  0.5487E+01  0.4853E+01
     11.644  0.2281E+00  0.1472E+01  0.5529E+01  0.5124E+01
     11.828 -0.8747E-02  0.7367E+00  0.5527E+01  0.5259E+01
     12.012  0.5569E-01  0.4922E+00  0.5537E+01  0.5350E+01
     12.196  0.2090E+00  0.2856E+00  0.5576E+01  0.5402E+01
     12.380  0.4522E-01  0.6697E-01  0.5584E+01  0.5415E+01
     12.564  0.6602E-02  0.4389E-01  0.5585E+01  0.5423E+01
     12.748  0.1532E+00  0.2039E+00  0.5613E+01  0.5460E+01
     12.932  0.1637E+00  0.2173E+00  0.5644E+01  0.5500E+01
     13.116  0.1804E+00  0.1806E+00  0.5677E+01  0.5534E+01
     13.300  0.9385E-01  0.2028E+00  0.5694E+01  0.5571E+01
     13.484 -0.1882E-02  0.1543E+00  0.5694E+01  0.5599E+01
     13.668  0.3099E+00  0.1560E+00  0.5751E+01  0.5628E+01
     13.852  0.3065E+00  0.1595E+00  0.5807E+01  0.5657E+01
     14.036 -0.9713E-03  0.5383E-01  0.5807E+01  0.5667E+01
     14.220 -0.1612E-01  0.5891E-01  0.5804E+01  0.5678E+01
     14.403  0.4564E-01  0.8093E-01  0.5812E+01  0.5693E+01
     14.587  0.2089E+00  0.2668E+00  0.5851E+01  0.5742E+01
     14.771  0.6679E-01  0.3294E+00  0.5863E+01  0.5803E+01
     14.955 -0.1003E-01  0.2033E-01  0.5861E+01  0.5806E+01
     15.139 -0.1060E-01  0.1346E+00  0.5859E+01  0.5831E+01
     15.323  0.4654E-01  0.1650E+00  0.5868E+01  0.5861E+01
     15.507  0.2565E+00  0.2719E-02  0.5915E+01  0.5862E+01
     15.691  0.1611E+00 -0.4698E-02  0.5945E+01  0.5861E+01
     15.875  0.3850E-02 -0.8416E-02  0.5945E+01  0.5860E+01
     16.059 -0.7119E-02  0.1898E-01  0.5944E+01  0.5863E+01
     16.243 -0.6288E-02  0.2696E+00  0.5943E+01  0.5913E+01
     16.427  0.1267E+00  0.1850E+00  0.5966E+01  0.5947E+01
     16.611  0.1767E+00 -0.8278E-02  0.5999E+01  0.5945E+01
     16.795  0.8009E-01 -0.1124E-01  0.6013E+01  0.5943E+01
     16.979  0.1306E+00  0.2815E-01  0.6037E+01  0.5948E+01
     17.163  0.1611E+00  0.2017E+00  0.6067E+01  0.5985E+01
     17.347  0.2054E+00  0.8973E-01  0.6105E+01  0.6002E+01
     17.531  0.4114E-01 -0.1575E-01  0.6112E+01  0.5999E+01
     17.715  0.1554E+00  0.3300E-01  0.6141E+01  0.6005E+01
     17.899  0.1415E+00  0.1872E+00  0.6167E+01  0.6039E+01
     18.082  0.3675E-01  0.2746E+00  0.6174E+01  0.6090E+01
     18.266  0.1324E+00  0.1555E+00  0.6198E+01  0.6119E+01
     18.450  0.2129E+00  0.1939E+00  0.6237E+01  0.6154E+01
     18.634  0.1502E+00  0.8161E-01  0.6265E+01  0.6169E+01
     18.818  0.1916E+00  0.9158E-01  0.6300E+01  0.6186E+01
     19.002  0.8485E-01  0.8298E-01  0.6316E+01  0.6201E+01
     19.186  0.1406E+00  0.1840E+00  0.6342E+01  0.6235E+01
     19.370  0.1518E+00  0.3439E+00  0.6370E+01  0.6298E+01
     19.554  0.2829E-01  0.9324E-01  0.6375E+01  0.6316E+01
     19.738  0.1969E+00  0.5847E-01  0.6411E+01  0.6326E+01
     19.922  0.8914E-01  0.1966E+00  0.6427E+01  0.6363E+01
     20.106 -0.4377E-02  0.5590E-01  0.6427E+01  0.6373E+01
     20.290  0.8360E-01  0.1733E+00  0.6442E+01  0.6405E+01
     20.474  0.5063E-01  0.1240E+00  0.6451E+01  0.6427E+01
     20.658  0.2514E+00 -0.1121E-01  0.6498E+01  0.6425E+01
     20.842  0.3534E+00  0.3306E-01  0.6563E+01  0.6432E+01
     21.026  0.2435E-01  0.8958E-01  0.6567E+01  0.6448E+01
     21.210  0.1539E+00  0.1107E+00  0.6595E+01  0.6468E+01
     21.394  0.1517E+00  0.3312E+00  0.6623E+01  0.6529E+01
     21.578  0.3358E+00  0.1788E+00  0.6685E+01  0.6562E+01
     21.762  0.3650E+00  0.1665E+00  0.6752E+01  0.6593E+01
     21.945  0.7608E-01  0.1612E+00  0.6766E+01  0.6622E+01
     22.129  0.1933E+00  0.2739E+00  0.6802E+01  0.6673E+01
     22.313  0.2299E+00  0.3731E+00  0.6844E+01  0.6741E+01
     22.497  0.1484E+00  0.2397E+00  0.6871E+01  0.6786E+01
     22.681  0.8175E-01  0.1576E+00  0.6886E+01  0.6815E+01
     22.865  0.6339E-01  0.1578E+00  0.6898E+01  0.6844E+01
     23.049 -0.2392E-02  0.1548E+00  0.6898E+01  0.6872E+01
     23.233  0.1567E+00  0.9161E-01  0.6926E+01  0.6889E+01
     23.417  0.3428E+00  0.4468E-01  0.6989E+01  0.6897E+01
     23.601  0.3096E+00  0.2604E-01  0.7046E+01  0.6902E+01
     23.785  0.3797E+00  0.3036E+00  0.7116E+01  0.6958E+01
     23.969  0.1751E+00  0.3207E+00  0.7148E+01  0.7017E+01
     24.153  0.1288E+00  0.4688E+00  0.7172E+01  0.7103E+01
     24.337  0.1737E-01  0.2609E+00  0.7175E+01  0.7151E+01
     24.521  0.3619E-01  0.4433E-01  0.7182E+01  0.7159E+01
     24.705  0.1884E+00  0.8435E-01  0.7217E+01  0.7175E+01
     24.889  0.2435E+00 -0.3067E-02  0.7261E+01  0.7174E+01
     25.073  0.5095E+00  0.1377E+00  0.7355E+01  0.7199E+01
     25.257  0.2461E+00  0.3890E+00  0.7400E+01  0.7271E+01
     25.441  0.3733E-01  0.4261E+00  0.7407E+01  0.7349E+01
     25.625  0.1440E+00  0.2235E+00  0.7434E+01  0.7390E+01
     25.808  0.3078E+00  0.8796E-01  0.7490E+01  0.7407E+01
     25.992  0.4654E+00  0.1865E+00  0.7576E+01  0.7441E+01
     26.176  0.3459E+00  0.2869E+00  0.7640E+01  0.7494E+01
     26.360  0.1545E+00  0.4003E+00  0.7668E+01  0.7567E+01
     26.544  0.8065E-01  0.4007E+00  0.7683E+01  0.7641E+01
     26.728  0.3643E-01  0.1576E+00  0.7690E+01  0.7670E+01
     26.912  0.1942E+00  0.7350E-01  0.7725E+01  0.7684E+01
     27.096  0.2210E+00  0.1027E+00  0.7766E+01  0.7702E+01
     27.280  0.3250E+00  0.1926E+00  0.7826E+01  0.7738E+01
     27.464  0.2823E+00  0.2192E+00  0.7878E+01  0.7778E+01
     27.648  0.1295E-01  0.3229E+00  0.7880E+01  0.7838E+01
     27.832  0.4360E-01  0.2254E+00  0.7888E+01  0.7879E+01
     28.016  0.2314E+00  0.1525E-01  0.7931E+01  0.7882E+01
     28.200  0.2900E+00  0.9129E-01  0.7984E+01  0.7899E+01
     28.384  0.5299E-01  0.2125E+00  0.7994E+01  0.7938E+01
     28.568  0.1050E+00  0.2538E+00  0.8013E+01  0.7984E+01
     28.752  0.2955E+00  0.6155E-01  0.8067E+01  0.7996E+01
     28.936  0.4209E+00  0.2219E+00  0.8145E+01  0.8037E+01
     29.120  0.2008E+00  0.4414E+00  0.8182E+01  0.8118E+01
     29.304  0.1553E+00  0.2541E+00  0.8210E+01  0.8165E+01
     29.488  0.1461E+00  0.2026E+00  0.8237E+01  0.8202E+01
     29.671  0.2805E+00  0.1485E+00  0.8289E+01  0.8229E+01
     29.855  0.5254E-01  0.1736E+00  0.8298E+01  0.8261E+01
     30.039 -0.1091E-01  0.1847E+00  0.8296E+01  0.8295E+01
     30.223 -0.8007E-02  0.1269E-01  0.8295E+01  0.8297E+01
     30.407 -0.5651E-02 -0.1107E-01  0.8294E+01  0.8295E+01
     30.591  0.3002E+00  0.4934E-02  0.8349E+01  0.8296E+01
     30.775  0.4114E+00  0.1640E+00  0.8425E+01  0.8326E+01
     30.959  0.1064E+00  0.5283E+00  0.8444E+01  0.8424E+01
     31.143  0.2214E+00  0.2336E+00  0.8485E+01  0.8467E+01
     31.327  0.3179E+00 -0.1412E-01  0.8544E+01  0.8464E+01
     31.511  0.3906E+00  0.2239E+00  0.8615E+01  0.8505E+01
     31.695  0.2411E+00  0.3419E+00  0.8660E+01  0.8568E+01
     31.879 -0.1184E-01  0.3646E+00  0.8658E+01  0.8635E+01
     32.063  0.1621E+00  0.2878E+00  0.8687E+01  0.8688E+01
     32.247  0.4376E+00  0.1548E+00  0.8768E+01  0.8717E+01
     32.431  0.3135E+00  0.2272E+00  0.8826E+01  0.8758E+01
     32.615  0.5906E-01  0.3452E+00  0.8836E+01  0.8822E+01
     32.799  0.1209E-01  0.1208E+00  0.8839E+01  0.8844E+01
     32.983  0.7433E-01 -0.1394E-01  0.8852E+01  0.8841E+01
     33.167  0.3388E+00  0.1196E+00  0.8915E+01  0.8863E+01
     33.351  0.1953E+00  0.2237E+00  0.8951E+01  0.8905E+01
     33.534  0.1448E+00  0.2282E+00  0.8977E+01  0.8947E+01
     33.718  0.3493E+00  0.1943E+00  0.9041E+01  0.8982E+01
     33.902  0.2640E+00  0.3229E+00  0.9090E+01  0.9042E+01
     34.086  0.3900E+00  0.2101E+00  0.9162E+01  0.9080E+01
     34.270  0.3920E+00  0.4730E+00  0.9234E+01  0.9167E+01
     34.454  0.2143E+00  0.4969E+00  0.9273E+01  0.9259E+01
     34.638  0.1016E+00  0.6262E-01  0.9292E+01  0.9270E+01
     34.822  0.1018E+00  0.3027E-01  0.9311E+01  0.9276E+01
     35.006  0.5542E+00  0.2241E+00  0.9413E+01  0.9317E+01
     35.190  0.4454E+00  0.7015E+00  0.9495E+01  0.9446E+01
     35.374  0.3256E+00  0.3791E+00  0.9555E+01  0.9516E+01
     35.558  0.2379E+00  0.1914E+00  0.9598E+01  0.9551E+01
     35.742  0.6237E-01  0.7769E-01  0.9610E+01  0.9565E+01
     35.926  0.1003E+00  0.1512E+00  0.9628E+01  0.9593E+01
     36.110  0.1587E+00  0.5643E-01  0.9657E+01  0.9604E+01
     36.294  0.1570E+00  0.1036E+00  0.9686E+01  0.9623E+01
     36.478  0.2399E+00  0.2128E+00  0.9730E+01  0.9662E+01
     36.662  0.3651E+00  0.3501E+00  0.9798E+01  0.9726E+01
     36.846  0.3115E+00  0.4325E+00  0.9855E+01  0.9806E+01
     37.030  0.2372E+00  0.2509E+00  0.9899E+01  0.9852E+01
     37.214  0.9024E-01  0.1757E+00  0.9915E+01  0.9884E+01
     37.397  0.9390E-01  0.1811E+00  0.9932E+01  0.9918E+01
     37.581  0.1322E+00  0.6463E-01  0.9957E+01  0.9929E+01
     37.765  0.3985E+00  0.2291E+00  0.1003E+02  0.9972E+01
     37.949  0.1579E+00  0.4095E+00  0.1006E+02  0.1005E+02
     38.133 -0.1923E-01  0.6282E-01  0.1006E+02  0.1006E+02
     38.317  0.8988E-02 -0.1602E-01  0.1006E+02  0.1006E+02
     38.501  0.5999E-01 -0.2933E-02  0.1007E+02  0.1006E+02
     38.685  0.5505E-01  0.4251E-01  0.1008E+02  0.1006E+02
     38.869  0.2276E+00  0.4851E-01  0.1012E+02  0.1007E+02
     39.053  0.4139E+00  0.2795E-01  0.1020E+02  0.1008E+02
     39.237  0.3731E+00  0.3394E+00  0.1027E+02  0.1014E+02
     39.421  0.4358E-01  0.3603E+00  0.1027E+02  0.1021E+02
     39.605  0.6907E-01  0.3112E+00  0.1029E+02  0.1026E+02
     39.789  0.1015E+00  0.1417E+00  0.1030E+02  0.1029E+02
     39.973  0.6647E+00  0.9403E-01  0.1043E+02  0.1031E+02
     40.157  0.7603E+00  0.4583E+00  0.1057E+02  0.1039E+02
     40.341  0.3045E+00  0.1009E+01  0.1062E+02  0.1058E+02
     40.525  0.1615E+00  0.3622E+00  0.1065E+02  0.1064E+02
     40.709  0.2318E-01  0.6382E-01  0.1066E+02  0.1065E+02
     40.893  0.8751E-01  0.1138E-01  0.1067E+02  0.1066E+02
     41.077  0.2563E+00  0.3629E-01  0.1072E+02  0.1066E+02
     41.260  0.1560E+00  0.2140E+00  0.1075E+02  0.1070E+02
     41.444  0.2933E+00  0.1915E+00  0.1080E+02  0.1074E+02
     41.628  0.2199E+00  0.3342E+00  0.1084E+02  0.1080E+02
     41.812  0.2712E+00  0.2351E+00  0.1089E+02  0.1084E+02
     41.996  0.3070E+00  0.1008E+00  0.1095E+02  0.1086E+02
     42.180  0.2306E+00  0.4053E+00  0.1099E+02  0.1094E+02
     42.364  0.1732E+00  0.3303E+00  0.1102E+02  0.1100E+02
     42.548  0.2316E+00  0.1291E+00  0.1107E+02  0.1102E+02
     42.732  0.2566E+00  0.2251E+00  0.1111E+02  0.1106E+02
     42.916  0.1063E+00  0.2087E+00  0.1113E+02  0.1110E+02
     43.100  0.1771E-01  0.8922E-01  0.1114E+02  0.1112E+02
     43.284  0.1290E+00  0.1063E+00  0.1116E+02  0.1114E+02
     43.468  0.4688E+00  0.3293E+00  0.1125E+02  0.1120E+02
     43.652  0.2453E+00  0.3878E+00  0.1129E+02  0.1127E+02
     43.836  0.1160E+00  0.6217E-01  0.1131E+02  0.1128E+02
     44.020  0.2810E+00 -0.2774E-01  0.1136E+02  0.1127E+02
     44.204  0.4061E+00  0.2665E+00  0.1144E+02  0.1132E+02
     44.388  0.1836E+00  0.5907E+00  0.1147E+02  0.1143E+02
     44.572  0.1669E-01  0.2333E+00  0.1148E+02  0.1147E+02
     44.756  0.1901E+00  0.2360E-01  0.1151E+02  0.1148E+02
     44.940  0.2150E+00  0.9226E-01  0.1155E+02  0.1150E+02
     45.123  0.9768E-01  0.4820E-01  0.1157E+02  0.1150E+02
     45.307  0.2959E+00  0.1555E+00  0.1162E+02  0.1153E+02
     45.491  0.1024E+00  0.2660E+00  0.1164E+02  0.1158E+02
     45.675 -0.1307E-01  0.2508E+00  0.1164E+02  0.1163E+02
     45.859 -0.6921E-02  0.6688E-01  0.1164E+02  0.1164E+02
     46.043  0.7390E-02 -0.1101E-01  0.1164E+02  0.1164E+02
     46.227  0.1759E+00 -0.1239E-01  0.1167E+02  0.1164E+02
     46.411  0.1867E+00  0.6138E-01  0.1171E+02  0.1165E+02
     46.595  0.1026E+00  0.2898E+00  0.1172E+02  0.1170E+02
     46.779  0.1884E+00  0.1240E+00  0.1176E+02  0.1172E+02
     46.963  0.1408E+00 -0.1896E-01  0.1179E+02  0.1172E+02
     47.147  0.1986E+00  0.1032E+00  0.1182E+02  0.1174E+02
     47.331  0.6943E-01  0.2797E+00  0.1183E+02  0.1179E+02
     47.515 -0.2619E-01  0.2161E+00  0.1183E+02  0.1183E+02
     47.699  0.1560E+00  0.2177E-01  0.1186E+02  0.1183E+02
     47.883  0.4589E+00 -0.8910E-02  0.1194E+02  0.1183E+02
     48.067  0.2196E+00 -0.1238E-01  0.1198E+02  0.1183E+02
     48.251  0.8512E-01  0.8618E-01  0.1200E+02  0.1185E+02
     48.435  0.8867E-02  0.2929E+00  0.1200E+02  0.1190E+02
     48.619 -0.3566E-02  0.9917E-01  0.1200E+02  0.1192E+02
     48.803 -0.1801E-03  0.7189E-01  0.1200E+02  0.1193E+02
     48.986 -0.1172E-05  0.7058E-01  0.1200E+02  0.1195E+02
     49.170 -0.1241E-08 -0.1616E-02  0.1200E+02  0.1194E+02
     49.354 -0.2275E-12 -0.1656E-02  0.1200E+02  0.1194E+02
     49.538  0.0000E+00 -0.3917E-04  0.1200E+02  0.1194E+02
     49.722  0.0000E+00 -0.1347E-06  0.1200E+02  0.1194E+02
     49.906  0.0000E+00 -0.7759E-10  0.1200E+02  0.1194E+02
     50.090  0.0000E+00 -0.7812E-14  0.1200E+02  0.1194E+02
     50.274  0.0000E+00 -0.1086E-14  0.1200E+02  0.1194E+02
     50.458  0.0000E+00 -0.1506E-10  0.1200E+02  0.1194E+02
     50.642  0.0000E+00 -0.3668E-07  0.1200E+02  0.1194E+02
     50.826  0.0000E+00 -0.1514E-04  0.1200E+02  0.1194E+02
     51.010  0.0000E+00 -0.9510E-03  0.1200E+02  0.1194E+02
     51.194  0.0000E+00 -0.4242E-02  0.1200E+02  0.1194E+02
     51.378  0.0000E+00  0.5179E-01  0.1200E+02  0.1195E+02
     51.562  0.0000E+00  0.9262E-01  0.1200E+02  0.1197E+02
     51.746  0.0000E+00  0.5051E-01  0.1200E+02  0.1198E+02
     51.930  0.0000E+00  0.9937E-01  0.1200E+02  0.1200E+02
     52.114  0.0000E+00  0.1708E-01  0.1200E+02  0.1200E+02
     52.298  0.0000E+00 -0.3899E-02  0.1200E+02  0.1200E+02
     52.482  0.0000E+00 -0.2412E-03  0.1200E+02  0.1200E+02
     52.666  0.0000E+00 -0.1803E-05  0.1200E+02  0.1200E+02
     52.849  0.0000E+00 -0.2176E-08  0.1200E+02  0.1200E+02
     53.033  0.0000E+00 -0.4531E-12  0.1200E+02  0.1200E+02
     53.217  0.0000E+00 -0.3353E-16  0.1200E+02  0.1200E+02
     53.401  0.0000E+00  0.0000E+00  0.1200E+02  0.1200E+02
     53.585  0.0000E+00  0.0000E+00  0.1200E+02  0.1200E+02
     53.769  0.0000E+00  0.0000E+00  0.1200E+02  0.1200E+02
     53.953  0.0000E+00  0.0000E+00  0.1200E+02  0.1200E+02
     54.137  0.0000E+00  0.0000E+00  0.1200E+02  0.1200E+02
     54.321  0.0000E+00  0.0000E+00  0.1200E+02  0.1200E+02
