<?xml version="1.0" encoding="ISO-8859-1"?>
<modeling>
 <generator>
  <i name="program" type="string">vasp </i>
  <i name="version" type="string">6.3.2  </i>
  <i name="subversion" type="string">27Jun22 (build Aug 12 2022 00:53:59) complex                          parallel </i>
  <i name="platform" type="string">tv2STD </i>
  <i name="date" type="string">2024 11 30 </i>
  <i name="time" type="string">15:06:29 </i>
 </generator>
 <incar>
  <i type="string" name="SYSTEM">Co fcc</i>
  <i type="int" name="ISTART">     0</i>
  <i type="string" name="PREC">Accurate      normal | accurate</i>
  <i type="string" name="ALGO">Normal     Normal, Fast, Very_Fast</i>
  <i type="logical" name="ADDGRID"> F  </i>
  <i type="int" name="ISPIN">     2</i>
  <i type="int" name="ICHARG">     2</i>
  <i type="int" name="INIWAV">     1</i>
  <i type="int" name="NELM">   100</i>
  <i type="int" name="IBRION">    -1</i>
  <i name="EDIFF">      0.00000100</i>
  <i name="EDIFFG">     -0.02000000</i>
  <i type="int" name="NSW">     0</i>
  <i type="int" name="ISIF">     2</i>
  <i type="int" name="ISYM">     1</i>
  <i name="ENCUT">    350.00000000</i>
  <v name="MAGMOM">      3.00000000</v>
  <i type="logical" name="LREAL"> F  </i>
  <i type="int" name="ISMEAR">     1</i>
  <i name="SIGMA">      0.20000000</i>
  <i type="int" name="NWRITE">     2</i>
  <i type="logical" name="LWAVE"> F  </i>
  <i type="logical" name="LCHARG"> F  </i>
 </incar>
 <primitive_cell>
  <structure name="primitive_cell" >
   <crystal>
    <varray name="basis" >
     <v>       0.00000000       1.75500000       1.75500000 </v>
     <v>       1.75500000       0.00000000       1.75500000 </v>
     <v>       1.75500000       1.75500000       0.00000000 </v>
    </varray>
    <i name="volume">     10.81088775 </i>
    <varray name="rec_basis" >
     <v>      -0.28490028       0.28490028       0.28490028 </v>
     <v>       0.28490028      -0.28490028       0.28490028 </v>
     <v>       0.28490028       0.28490028      -0.28490028 </v>
    </varray>
   </crystal>
   <varray name="positions" >
    <v>       0.00000000       0.00000000       0.00000000 </v>
   </varray>
  </structure>
  <varray name="primitive_index" >
   <v type="int" >        1 </v>
  </varray>
 </primitive_cell>
 <kpoints>
  <generation param="Monkhorst-Pack">
   <v type="int" name="divisions">       6        6        6 </v>
   <v name="usershift">      0.00000000       0.00000000       0.00000000 </v>
   <v name="genvec1">      0.16666667       0.00000000       0.00000000 </v>
   <v name="genvec2">      0.00000000       0.16666667       0.00000000 </v>
   <v name="genvec3">      0.00000000       0.00000000       0.16666667 </v>
   <v name="shift">      0.50000000       0.50000000       0.50000000 </v>
  </generation>
  <varray name="kpointlist" >
   <v>       0.08333333       0.08333333       0.08333333 </v>
   <v>       0.25000000       0.08333333       0.08333333 </v>
   <v>       0.41666667       0.08333333       0.08333333 </v>
   <v>      -0.41666667       0.08333333       0.08333333 </v>
   <v>      -0.25000000       0.08333333       0.08333333 </v>
   <v>      -0.08333333       0.08333333       0.08333333 </v>
   <v>       0.25000000       0.25000000       0.08333333 </v>
   <v>       0.41666667       0.25000000       0.08333333 </v>
   <v>      -0.41666667       0.25000000       0.08333333 </v>
   <v>      -0.25000000       0.25000000       0.08333333 </v>
   <v>      -0.08333333       0.25000000       0.08333333 </v>
   <v>       0.41666667       0.41666667       0.08333333 </v>
   <v>      -0.41666667       0.41666667       0.08333333 </v>
   <v>      -0.25000000       0.41666667       0.08333333 </v>
   <v>      -0.08333333       0.41666667       0.08333333 </v>
   <v>      -0.41666667      -0.41666667       0.08333333 </v>
   <v>      -0.25000000      -0.41666667       0.08333333 </v>
   <v>      -0.25000000      -0.25000000       0.08333333 </v>
   <v>       0.25000000       0.25000000       0.25000000 </v>
   <v>       0.41666667       0.25000000       0.25000000 </v>
   <v>      -0.41666667       0.25000000       0.25000000 </v>
   <v>      -0.25000000       0.25000000       0.25000000 </v>
   <v>       0.41666667       0.41666667       0.25000000 </v>
   <v>      -0.41666667       0.41666667       0.25000000 </v>
   <v>      -0.25000000       0.41666667       0.25000000 </v>
   <v>      -0.41666667      -0.41666667       0.25000000 </v>
   <v>       0.41666667       0.41666667       0.41666667 </v>
   <v>      -0.41666667       0.41666667       0.41666667 </v>
  </varray>
  <varray name="weights" >
   <v>       0.00925926 </v>
   <v>       0.02777778 </v>
   <v>       0.02777778 </v>
   <v>       0.02777778 </v>
   <v>       0.02777778 </v>
   <v>       0.02777778 </v>
   <v>       0.02777778 </v>
   <v>       0.05555556 </v>
   <v>       0.05555556 </v>
   <v>       0.05555556 </v>
   <v>       0.05555556 </v>
   <v>       0.02777778 </v>
   <v>       0.05555556 </v>
   <v>       0.05555556 </v>
   <v>       0.05555556 </v>
   <v>       0.02777778 </v>
   <v>       0.05555556 </v>
   <v>       0.02777778 </v>
   <v>       0.00925926 </v>
   <v>       0.02777778 </v>
   <v>       0.02777778 </v>
   <v>       0.02777778 </v>
   <v>       0.02777778 </v>
   <v>       0.05555556 </v>
   <v>       0.05555556 </v>
   <v>       0.02777778 </v>
   <v>       0.00925926 </v>
   <v>       0.02777778 </v>
  </varray>
 </kpoints>
 <parameters>
  <separator name="general" >
   <i type="string" name="SYSTEM">Co fcc</i>
   <i type="logical" name="LCOMPAT"> F  </i>
  </separator>
  <separator name="electronic" >
   <i type="string" name="PREC">accura</i>
   <i name="ENMAX">    350.00000000</i>
   <i name="ENAUG">    477.81800000</i>
   <i name="EDIFF">      0.00000100</i>
   <i type="int" name="IALGO">    38</i>
   <i type="int" name="IWAVPR">    10</i>
   <i type="int" name="NBANDS">    12</i>
   <i type="int" name="NBANDSLOW">    -1</i>
   <i type="int" name="NBANDSHIGH">    -1</i>
   <i name="NELECT">      9.00000000</i>
   <i type="int" name="TURBO">     0</i>
   <i type="int" name="IRESTART">     0</i>
   <i type="int" name="NREBOOT">     0</i>
   <i type="int" name="NMIN">     0</i>
   <i name="EREF">      0.00000000</i>
   <separator name="electronic smearing" >
    <i type="int" name="ISMEAR">     1</i>
    <i name="SIGMA">      0.20000000</i>
    <i name="KSPACING">      0.50000000</i>
    <i type="logical" name="KGAMMA"> T  </i>
    <i type="logical" name="KBLOWUP"> T  </i>
   </separator>
   <separator name="electronic projectors" >
    <i type="logical" name="LREAL"> F  </i>
    <v name="ROPT">      0.00000000</v>
    <i type="int" name="LMAXPAW">  -100</i>
    <i type="int" name="LMAXMIX">     2</i>
    <i type="logical" name="NLSPLINE"> F  </i>
   </separator>
   <separator name="electronic startup" >
    <i type="int" name="ISTART">     0</i>
    <i type="int" name="ICHARG">     2</i>
    <i type="int" name="INIWAV">     1</i>
   </separator>
   <separator name="electronic spin" >
    <i type="int" name="ISPIN">     2</i>
    <i type="logical" name="LNONCOLLINEAR"> F  </i>
    <v name="MAGMOM">      3.00000000</v>
    <i name="NUPDOWN">     -1.00000000</i>
    <i type="logical" name="LSORBIT"> F  </i>
    <v name="SAXIS">      0.00000000      0.00000000      1.00000000</v>
    <i type="logical" name="LSPIRAL"> F  </i>
    <v name="QSPIRAL">      0.00000000      0.00000000      0.00000000</v>
    <i type="logical" name="LZEROZ"> F  </i>
   </separator>
   <separator name="electronic exchange-correlation" >
    <i type="logical" name="LASPH"> F  </i>
    <i type="logical" name="LMETAGGA"> F  </i>
   </separator>
   <separator name="electronic convergence" >
    <i type="int" name="NELM">   100</i>
    <i type="int" name="NELMDL">    -5</i>
    <i type="int" name="NELMIN">     2</i>
    <i name="ENINI">    350.00000000</i>
    <separator name="electronic convergence detail" >
     <i type="logical" name="LDIAG"> T  </i>
     <i type="logical" name="LSUBROT"> F  </i>
     <i name="WEIMIN">      0.00000000</i>
     <i name="EBREAK">      0.00000002</i>
     <i name="DEPER">      0.30000000</i>
     <i type="int" name="NRMM">     4</i>
     <i name="TIME">      0.40000000</i>
    </separator>
   </separator>
   <separator name="electronic mixer" >
    <i name="AMIX">      0.40000000</i>
    <i name="BMIX">      1.00000000</i>
    <i name="AMIN">      0.10000000</i>
    <i name="AMIX_MAG">      1.60000000</i>
    <i name="BMIX_MAG">      1.00000000</i>
    <separator name="electronic mixer details" >
     <i type="int" name="IMIX">     4</i>
     <i type="logical" name="MIXFIRST"> F  </i>
     <i type="int" name="MAXMIX">   -45</i>
     <i name="WC">    100.00000000</i>
     <i type="int" name="INIMIX">     1</i>
     <i type="int" name="MIXPRE">     1</i>
     <i type="int" name="MREMOVE">     5</i>
    </separator>
   </separator>
   <separator name="electronic dipolcorrection" >
    <i type="logical" name="LDIPOL"> F  </i>
    <i type="logical" name="LMONO"> F  </i>
    <i type="int" name="IDIPOL">     0</i>
    <i name="EPSILON">      1.00000000</i>
    <v name="DIPOL">   -100.00000000   -100.00000000   -100.00000000</v>
    <i name="EFIELD">      0.00000000</i>
   </separator>
  </separator>
  <separator name="grids" >
   <i type="int" name="NGX">    16</i>
   <i type="int" name="NGY">    16</i>
   <i type="int" name="NGZ">    16</i>
   <i type="int" name="NGXF">    32</i>
   <i type="int" name="NGYF">    32</i>
   <i type="int" name="NGZF">    32</i>
   <i type="logical" name="ADDGRID"> F  </i>
  </separator>
  <separator name="ionic" >
   <i type="int" name="NSW">     0</i>
   <i type="int" name="IBRION">    -1</i>
   <i type="int" name="MDALGO">     0</i>
   <i type="int" name="ISIF">     2</i>
   <i name="PSTRESS">      0.00000000</i>
   <i name="EDIFFG">     -0.02000000</i>
   <i type="int" name="NFREE">     0</i>
   <i name="POTIM">      0.50000000</i>
   <i name="SMASS">     -3.00000000</i>
   <i name="SCALEE">      1.00000000</i>
  </separator>
  <separator name="ionic md" >
   <i name="TEBEG">      0.00010000</i>
   <i name="TEEND">      0.00010000</i>
   <i type="int" name="NBLOCK">     1</i>
   <i type="int" name="KBLOCK">     1</i>
   <i type="int" name="NPACO">   256</i>
   <i name="APACO">     10.00000000</i>
  </separator>
  <separator name="symmetry" >
   <i type="int" name="ISYM">     1</i>
   <i name="SYMPREC">      0.00001000</i>
  </separator>
  <separator name="dos" >
   <i type="int" name="LORBIT">     0</i>
   <v name="RWIGS">     -1.00000000</v>
   <i type="int" name="NEDOS">   301</i>
   <i name="EMIN">     10.00000000</i>
   <i name="EMAX">    -10.00000000</i>
   <i name="EFERMI">      0.00000000</i>
  </separator>
  <separator name="writing" >
   <i type="int" name="NWRITE">     2</i>
   <i type="logical" name="LWAVE"> F  </i>
   <i type="logical" name="LDOWNSAMPLE"> F  </i>
   <i type="logical" name="LCHARG"> F  </i>
   <i type="logical" name="LPARD"> F  </i>
   <i type="logical" name="LVTOT"> F  </i>
   <i type="logical" name="LVHAR"> F  </i>
   <i type="logical" name="LELF"> F  </i>
   <i type="logical" name="LOPTICS"> F  </i>
   <v name="STM">      0.00000000      0.00000000      0.00000000      0.00000000      0.00000000      0.00000000      0.00000000</v>
  </separator>
  <separator name="performance" >
   <i type="int" name="NPAR">     4</i>
   <i type="int" name="NSIM">     4</i>
   <i type="int" name="NBLK">    -1</i>
   <i type="logical" name="LPLANE"> T  </i>
   <i type="logical" name="LSCALAPACK"> T  </i>
   <i type="logical" name="LSCAAWARE"> T  </i>
   <i type="logical" name="LSCALU"> F  </i>
   <i type="logical" name="LASYNC"> F  </i>
   <i type="logical" name="LORBITALREAL"> F  </i>
  </separator>
  <separator name="miscellaneous" >
   <i type="int" name="IDIOT">     3</i>
   <i type="int" name="PHON_NSTRUCT">    -1</i>
   <i type="logical" name="LMUSIC"> F  </i>
   <v name="POMASS">     58.93300000</v>
   <v name="DARWINR">      0.00000000</v>
   <v name="DARWINV">      1.00000000</v>
   <i type="logical" name="LCORR"> T  </i>
  </separator>
  <i type="logical" name="GGA_COMPAT"> T  </i>
  <i type="logical" name="LBERRY"> F  </i>
  <i type="int" name="ICORELEVEL">     0</i>
  <i type="logical" name="LDAU"> F  </i>
  <i type="int" name="I_CONSTRAINED_M">     0</i>
  <separator name="electronic exchange-correlation" >
   <i type="string" name="GGA">--</i>
   <i type="int" name="VOSKOWN">     0</i>
   <i type="logical" name="LHFCALC"> F  </i>
   <i type="string" name="PRECFOCK"></i>
   <i type="logical" name="LSYMGRAD"> F  </i>
   <i type="logical" name="LHFONE"> F  </i>
   <i type="logical" name="LRHFCALC"> F  </i>
   <i type="logical" name="LTHOMAS"> F  </i>
   <i type="logical" name="LMODELHF"> F  </i>
   <i type="logical" name="LFOCKACE"> F  </i>
   <i name="ENCUT4O">     -1.00000000</i>
   <i type="int" name="EXXOEP">     0</i>
   <i type="int" name="FOURORBIT">     0</i>
   <i name="AEXX">      0.00000000</i>
   <i name="HFALPHA">      0.00000000</i>
   <i name="MCALPHA">      0.00000000</i>
   <i name="ALDAX">      1.00000000</i>
   <i name="AGGAX">      1.00000000</i>
   <i name="ALDAC">      1.00000000</i>
   <i name="AGGAC">      1.00000000</i>
   <i type="int" name="NKREDX">     1</i>
   <i type="int" name="NKREDY">     1</i>
   <i type="int" name="NKREDZ">     1</i>
   <i type="logical" name="SHIFTRED"> F  </i>
   <i type="logical" name="ODDONLY"> F  </i>
   <i type="logical" name="EVENONLY"> F  </i>
   <i type="int" name="LMAXFOCK">     0</i>
   <i type="int" name="NMAXFOCKAE">     0</i>
   <i type="logical" name="LFOCKAEDFT"> F  </i>
   <i name="HFSCREEN">      0.00000000</i>
   <i name="HFSCREENC">      0.00000000</i>
   <i type="int" name="NBANDSGWLOW">     0</i>
  </separator>
  <separator name="vdW DFT" >
   <i type="logical" name="LUSE_VDW"> F  </i>
   <i name="Zab_VDW">     -0.84910000</i>
   <i name="PARAM1">      0.12340000</i>
   <i name="PARAM2">      1.00000000</i>
   <i name="PARAM3">      0.00000000</i>
  </separator>
  <separator name="model GW" >
   <i type="int" name="MODEL_GW">     0</i>
   <i name="MODEL_EPS0">      6.48653265</i>
   <i name="MODEL_ALPHA">      1.00000000</i>
  </separator>
  <separator name="linear response parameters" >
   <i type="logical" name="LEPSILON"> F  </i>
   <i type="logical" name="LRPA"> F  </i>
   <i type="logical" name="LNABLA"> F  </i>
   <i type="logical" name="LVEL"> F  </i>
   <i name="CSHIFT">      0.10000000</i>
   <i name="OMEGAMAX">     -1.00000000</i>
   <i name="DEG_THRESHOLD">      0.00200000</i>
   <i name="RTIME">     -0.10000000</i>
   <i name="WPLASMAI">      0.00000000</i>
   <v name="DFIELD">      0.00000000      0.00000000      0.00000000</v>
   <v name="WPLASMA">      0.00000000      0.00000000      0.00000000      0.00000000      0.00000000      0.00000000      0.00000000      0.00000000      0.00000000</v>
  </separator>
  <separator name="orbital magnetization" >
   <i type="logical" name="NUCIND"> F  </i>
   <v name="MAGPOS">      0.00000000      0.00000000      0.00000000</v>
   <i type="logical" name="LNICSALL"> T  </i>
   <i type="logical" name="ORBITALMAG"> F  </i>
   <i type="logical" name="LMAGBLOCH"> F  </i>
   <i type="logical" name="LCHIMAG"> F  </i>
   <i type="logical" name="LGAUGE"> T  </i>
   <i type="int" name="MAGATOM">     0</i>
   <v name="MAGDIPOL">      0.00000000      0.00000000      0.00000000</v>
   <v name="AVECCONST">      0.00000000      0.00000000      0.00000000</v>
  </separator>
  <separator name="response functions" >
   <i type="logical" name="LFINITE_TEMPERATURE"> F  </i>
   <i type="logical" name="LADDER"> F  </i>
   <i type="logical" name="LRPAFORCE"> F  </i>
   <i type="logical" name="LFXC"> F  </i>
   <i type="logical" name="LHARTREE"> T  </i>
   <i type="int" name="IBSE">     0</i>
   <v type="int" name="KPOINT">    -1     0     0     0</v>
   <i type="logical" name="LTCTC"> F  </i>
   <i type="logical" name="LTCTE"> F  </i>
   <i type="logical" name="LTETE"> F  </i>
   <i type="logical" name="LTRIPLET"> F  </i>
   <i type="logical" name="LFXCEPS"> F  </i>
   <i type="logical" name="LFXHEG"> F  </i>
   <i type="int" name="NATURALO">     2</i>
   <i type="logical" name="LHOLEGF"> F  </i>
   <i type="logical" name="L2ORDER"> F  </i>
   <i type="logical" name="LDMP1"> F  </i>
   <i type="logical" name="LMP2LT"> F  </i>
   <i type="logical" name="LSMP2LT"> F  </i>
   <i type="logical" name="LGWLF"> F  </i>
   <i name="ENCUTGW">     -2.00000000</i>
   <i name="ENCUTGWSOFT">     -2.00000000</i>
   <i name="ENCUTLF">     -1.00000000</i>
   <i type="logical" name="LESF_SPLINES"> F  </i>
   <i type="int" name="LMAXMP2">    -1</i>
   <i name="SCISSOR">      0.00000000</i>
   <i type="int" name="NOMEGA">     0</i>
   <i type="int" name="NOMEGAR">     0</i>
   <i type="int" name="NBANDSGW">    -1</i>
   <i type="int" name="NBANDSO">    -1</i>
   <i type="int" name="NBANDSV">    -1</i>
   <i type="int" name="NELMGW">     1</i>
   <i type="int" name="NELMHF">     1</i>
   <i type="int" name="DIM">     3</i>
   <i type="int" name="IESPILON">     4</i>
   <i type="int" name="ANTIRES">     0</i>
   <i name="OMEGAMAX">    -30.00000000</i>
   <i name="OMEGAMIN">    -30.00000000</i>
   <i name="OMEGATL">   -200.00000000</i>
   <i type="int" name="OMEGAGRID">     0</i>
   <i name="CSHIFT">     -0.10000000</i>
   <i type="logical" name="LSELFENERGY"> F  </i>
   <i type="logical" name="LSPECTRAL"> F  </i>
   <i type="logical" name="LSPECTRALGW"> F  </i>
   <i type="logical" name="LSINGLES"> F  </i>
   <i type="logical" name="LFERMIGW"> F  </i>
   <i type="logical" name="ODDONLYGW"> F  </i>
   <i type="logical" name="EVENONLYGW"> F  </i>
   <i type="int" name="NKREDLFX">     1</i>
   <i type="int" name="NKREDLFY">     1</i>
   <i type="int" name="NKREDLFZ">     1</i>
   <i type="int" name="MAXMEM">  2800</i>
   <i type="int" name="TELESCOPE">     0</i>
   <i type="int" name="NTAUPAR">    -1</i>
   <i type="int" name="NOMEGAPAR">    -1</i>
   <i name="DAMP_NEWTON">      0.80000001</i>
   <i name="LAMBDA">      1.00000000</i>
  </separator>
  <separator name="External order field" >
   <i name="OFIELD_KAPPA">      0.00000000</i>
   <v name="OFIELD_K">      0.00000000      0.00000000      0.00000000</v>
   <i name="OFIELD_Q6_NEAR">      0.00000000</i>
   <i name="OFIELD_Q6_FAR">      0.00000000</i>
   <i name="OFIELD_A">      0.00000000</i>
  </separator>
  <separator name="optional k-points parameters" >
   <i type="int" name="KPOINTS_OPT_MODE">     1</i>
   <i type="logical" name="LKPOINTS_OPT"> F  </i>
  </separator>
 </parameters>
 <atominfo>
  <atoms>       1 </atoms>
  <types>       1 </types>
  <array name="atoms" >
   <dimension dim="1">ion</dimension>
   <field type="string">element</field>
   <field type="int">atomtype</field>
   <set>
    <rc><c>Co</c><c>   1</c></rc>
   </set>
  </array>
  <array name="atomtypes" >
   <dimension dim="1">type</dimension>
   <field type="int">atomspertype</field>
   <field type="string">element</field>
   <field>mass</field>
   <field>valence</field>
   <field type="string">pseudopotential</field>
   <set>
    <rc><c>   1</c><c>Co</c><c>     58.93300000</c><c>      9.00000000</c><c>  PAW_PBE Co 02Aug2007                  </c></rc>
   </set>
  </array>
 </atominfo>
 <structure name="initialpos" >
  <crystal>
   <varray name="basis" >
    <v>       0.00000000       1.75500000       1.75500000 </v>
    <v>       1.75500000       0.00000000       1.75500000 </v>
    <v>       1.75500000       1.75500000       0.00000000 </v>
   </varray>
   <i name="volume">     10.81088775 </i>
   <varray name="rec_basis" >
    <v>      -0.28490028       0.28490028       0.28490028 </v>
    <v>       0.28490028      -0.28490028       0.28490028 </v>
    <v>       0.28490028       0.28490028      -0.28490028 </v>
   </varray>
  </crystal>
  <varray name="positions" >
   <v>       0.00000000       0.00000000       0.00000000 </v>
  </varray>
 </structure>
 <calculation>
  <scstep>
   <time name="dav">    0.13    0.13</time>
   <time name="total">    0.14    0.14</time>
   <energy>
    <i name="alphaZ">     39.18058524 </i>
    <i name="ewald">   -761.78120824 </i>
    <i name="hartreedc">   -149.59159932 </i>
    <i name="XCdc">     17.82600435 </i>
    <i name="pawpsdc">    719.99081943 </i>
    <i name="pawaedc">   -772.94345096 </i>
    <i name="eentropy">     -0.00067090 </i>
    <i name="bandstr">    113.70643933 </i>
    <i name="atom">    813.34521584 </i>
    <i name="e_fr_energy">     19.73213477 </i>
    <i name="e_wo_entrp">     19.73280567 </i>
    <i name="e_0_energy">     19.73235840 </i>
   </energy>
  </scstep>
  <scstep>
   <time name="dav">    0.13    0.13</time>
   <time name="total">    0.13    0.13</time>
   <energy>
    <i name="e_fr_energy">     -7.22414353 </i>
    <i name="e_wo_entrp">     -7.22619913 </i>
    <i name="e_0_energy">     -7.22482873 </i>
   </energy>
  </scstep>
  <scstep>
   <time name="dav">    0.14    0.14</time>
   <time name="total">    0.14    0.14</time>
   <energy>
    <i name="e_fr_energy">     -7.79840413 </i>
    <i name="e_wo_entrp">     -7.79981586 </i>
    <i name="e_0_energy">     -7.79887471 </i>
   </energy>
  </scstep>
  <scstep>
   <time name="dav">    0.13    0.13</time>
   <time name="total">    0.13    0.13</time>
   <energy>
    <i name="e_fr_energy">     -7.80487325 </i>
    <i name="e_wo_entrp">     -7.80626569 </i>
    <i name="e_0_energy">     -7.80533740 </i>
   </energy>
  </scstep>
  <scstep>
   <time name="dav">    0.13    0.13</time>
   <time name="total">    0.14    0.14</time>
   <energy>
    <i name="e_fr_energy">     -7.80501206 </i>
    <i name="e_wo_entrp">     -7.80640399 </i>
    <i name="e_0_energy">     -7.80547604 </i>
   </energy>
  </scstep>
  <scstep>
   <time name="dav">    0.14    0.14</time>
   <time name="total">    0.16    0.16</time>
   <energy>
    <i name="e_fr_energy">     -7.19760955 </i>
    <i name="e_wo_entrp">     -7.19194573 </i>
    <i name="e_0_energy">     -7.19572161 </i>
   </energy>
  </scstep>
  <scstep>
   <time name="dav">    0.13    0.13</time>
   <time name="total">    0.15    0.15</time>
   <energy>
    <i name="e_fr_energy">     -7.03842280 </i>
    <i name="e_wo_entrp">     -7.03280606 </i>
    <i name="e_0_energy">     -7.03655055 </i>
   </energy>
  </scstep>
  <scstep>
   <time name="dav">    0.14    0.14</time>
   <time name="total">    0.15    0.16</time>
   <energy>
    <i name="e_fr_energy">     -7.02776367 </i>
    <i name="e_wo_entrp">     -7.02326766 </i>
    <i name="e_0_energy">     -7.02626500 </i>
   </energy>
  </scstep>
  <scstep>
   <time name="dav">    0.15    0.15</time>
   <time name="total">    0.17    0.17</time>
   <energy>
    <i name="e_fr_energy">     -7.02156893 </i>
    <i name="e_wo_entrp">     -7.01760918 </i>
    <i name="e_0_energy">     -7.02024901 </i>
   </energy>
  </scstep>
  <scstep>
   <time name="dav">    0.15    0.16</time>
   <time name="total">    0.17    0.17</time>
   <energy>
    <i name="e_fr_energy">     -7.02126513 </i>
    <i name="e_wo_entrp">     -7.01709360 </i>
    <i name="e_0_energy">     -7.01987462 </i>
   </energy>
  </scstep>
  <scstep>
   <time name="dav">    0.15    0.15</time>
   <time name="total">    0.17    0.17</time>
   <energy>
    <i name="e_fr_energy">     -7.02126998 </i>
    <i name="e_wo_entrp">     -7.01689972 </i>
    <i name="e_0_energy">     -7.01981323 </i>
   </energy>
  </scstep>
  <scstep>
   <time name="dav">    0.12    0.12</time>
   <time name="total">    0.13    0.13</time>
   <energy>
    <i name="alphaZ">     39.18058524 </i>
    <i name="ewald">   -761.78120824 </i>
    <i name="hartreedc">   -131.83855149 </i>
    <i name="XCdc">     16.45619898 </i>
    <i name="pawpsdc">    905.60221328 </i>
    <i name="pawaedc">   -958.75731138 </i>
    <i name="eentropy">     -0.00435893 </i>
    <i name="bandstr">     70.77594691 </i>
    <i name="atom">    813.34521584 </i>
    <i name="e_fr_energy">     -7.02126978 </i>
    <i name="e_wo_entrp">     -7.01691085 </i>
    <i name="e_0_energy">     -7.01981680 </i>
   </energy>
  </scstep>
  <structure>
   <crystal>
    <varray name="basis" >
     <v>       0.00000000       1.75500000       1.75500000 </v>
     <v>       1.75500000       0.00000000       1.75500000 </v>
     <v>       1.75500000       1.75500000       0.00000000 </v>
    </varray>
    <i name="volume">     10.81088775 </i>
    <varray name="rec_basis" >
     <v>      -0.28490028       0.28490028       0.28490028 </v>
     <v>       0.28490028      -0.28490028       0.28490028 </v>
     <v>       0.28490028       0.28490028      -0.28490028 </v>
    </varray>
   </crystal>
   <varray name="positions" >
    <v>       0.00000000       0.00000000       0.00000000 </v>
   </varray>
  </structure>
  <varray name="forces" >
   <v>       0.00000000       0.00000000       0.00000000 </v>
  </varray>
  <varray name="stress" >
   <v>       9.94763643      -0.00000000      -0.00000000 </v>
   <v>      -0.00000000       9.94763643       0.00000000 </v>
   <v>       0.00000000       0.00000000       9.94763643 </v>
  </varray>
  <energy>
   <i name="e_fr_energy">     -7.02126978 </i>
   <i name="e_wo_entrp">     -7.01691085 </i>
   <i name="e_0_energy">     -7.01981680 </i>
  </energy>
  <time name="totalsc">    1.82    1.84</time>
  <eigenvalues>
   <array>
    <dimension dim="1">band</dimension>
    <dimension dim="2">kpoint</dimension>
    <dimension dim="3">spin</dimension>
    <field>eigene</field>
    <field>occ</field>
    <set>
     <set comment="spin 1">
      <set comment="kpoint 1">
       <r>    1.6439    1.0000 </r>
       <r>    7.5895    1.0000 </r>
       <r>    7.7297    1.0000 </r>
       <r>    7.7297    1.0000 </r>
       <r>    8.7086    1.0000 </r>
       <r>    8.7086    1.0000 </r>
       <r>   32.7116    0.0000 </r>
       <r>   35.4425    0.0000 </r>
       <r>   37.4042    0.0000 </r>
       <r>   37.4042    0.0000 </r>
       <r>   41.7615    0.0000 </r>
       <r>   41.7616    0.0000 </r>
      </set>
      <set comment="kpoint 2">
       <r>    3.0167    1.0000 </r>
       <r>    7.2711    1.0000 </r>
       <r>    7.8812    1.0000 </r>
       <r>    7.9719    1.0000 </r>
       <r>    8.5073    1.0000 </r>
       <r>    8.9845    1.0000 </r>
       <r>   28.0217    0.0000 </r>
       <r>   31.4804    0.0000 </r>
       <r>   36.6057    0.0000 </r>
       <r>   39.0395    0.0000 </r>
       <r>   39.5378    0.0000 </r>
       <r>   41.0930    0.0000 </r>
      </set>
      <set comment="kpoint 3">
       <r>    5.0514    1.0000 </r>
       <r>    7.5899    1.0000 </r>
       <r>    7.7566    1.0000 </r>
       <r>    7.8239    1.0000 </r>
       <r>    9.1516    1.0000 </r>
       <r>    9.9531    1.0030 </r>
       <r>   20.2631    0.0000 </r>
       <r>   30.5893    0.0000 </r>
       <r>   34.3817    0.0000 </r>
       <r>   36.4395    0.0000 </r>
       <r>   38.9483    0.0000 </r>
       <r>   40.4564    0.0000 </r>
      </set>
      <set comment="kpoint 4">
       <r>    5.3189    1.0000 </r>
       <r>    7.4138    1.0000 </r>
       <r>    7.6650    1.0000 </r>
       <r>    8.6789    1.0000 </r>
       <r>    9.6298    1.0000 </r>
       <r>   11.1201   -0.0000 </r>
       <r>   16.7992    0.0000 </r>
       <r>   30.9969    0.0000 </r>
       <r>   33.5332    0.0000 </r>
       <r>   33.9216    0.0000 </r>
       <r>   40.0313    0.0000 </r>
       <r>   40.0590    0.0000 </r>
      </set>
      <set comment="kpoint 5">
       <r>    4.5407    1.0000 </r>
       <r>    7.3166    1.0000 </r>
       <r>    7.6859    1.0000 </r>
       <r>    7.8881    1.0000 </r>
       <r>    9.1975    1.0000 </r>
       <r>    9.2871    1.0000 </r>
       <r>   22.6698    0.0000 </r>
       <r>   32.2957    0.0000 </r>
       <r>   33.0604    0.0000 </r>
       <r>   36.3225    0.0000 </r>
       <r>   40.0276    0.0000 </r>
       <r>   42.5646    0.0000 </r>
      </set>
      <set comment="kpoint 6">
       <r>    2.3537    1.0000 </r>
       <r>    7.3501    1.0000 </r>
       <r>    7.9047    1.0000 </r>
       <r>    7.9144    1.0000 </r>
       <r>    8.5042    1.0000 </r>
       <r>    8.8388    1.0000 </r>
       <r>   30.7367    0.0000 </r>
       <r>   33.7606    0.0000 </r>
       <r>   34.5029    0.0000 </r>
       <r>   37.1930    0.0000 </r>
       <r>   41.3457    0.0000 </r>
       <r>   43.6681    0.0000 </r>
      </set>
      <set comment="kpoint 7">
       <r>    3.6272    1.0000 </r>
       <r>    6.9191    1.0000 </r>
       <r>    7.9635    1.0000 </r>
       <r>    8.2664    1.0000 </r>
       <r>    8.5817    1.0000 </r>
       <r>    9.0663    1.0000 </r>
       <r>   28.5031    0.0000 </r>
       <r>   31.4944    0.0000 </r>
       <r>   32.0012    0.0000 </r>
       <r>   34.1269    0.0000 </r>
       <r>   39.0813    0.0000 </r>
       <r>   45.1825    0.0000 </r>
      </set>
      <set comment="kpoint 8">
       <r>    5.3510    1.0000 </r>
       <r>    6.6233    1.0000 </r>
       <r>    7.5391    1.0000 </r>
       <r>    8.5497    1.0000 </r>
       <r>    9.1721    1.0000 </r>
       <r>   10.2907    0.9123 </r>
       <r>   23.6163    0.0000 </r>
       <r>   27.1040    0.0000 </r>
       <r>   29.5768    0.0000 </r>
       <r>   34.9032    0.0000 </r>
       <r>   39.8868    0.0000 </r>
       <r>   44.1447    0.0000 </r>
      </set>
      <set comment="kpoint 9">
       <r>    6.0350    1.0000 </r>
       <r>    6.7343    1.0000 </r>
       <r>    7.6172    1.0000 </r>
       <r>    8.2563    1.0000 </r>
       <r>    9.5829    1.0000 </r>
       <r>   13.6823   -0.0000 </r>
       <r>   17.2382    0.0000 </r>
       <r>   26.1470    0.0000 </r>
       <r>   28.0966    0.0000 </r>
       <r>   35.0215    0.0000 </r>
       <r>   41.4674    0.0000 </r>
       <r>   47.0734    0.0000 </r>
      </set>
      <set comment="kpoint 10">
       <r>    5.9375    1.0000 </r>
       <r>    6.9607    1.0000 </r>
       <r>    7.1626    1.0000 </r>
       <r>    8.3278    1.0000 </r>
       <r>    9.0609    1.0000 </r>
       <r>   11.4863   -0.0000 </r>
       <r>   21.1901    0.0000 </r>
       <r>   25.0090    0.0000 </r>
       <r>   30.6177    0.0000 </r>
       <r>   36.8684    0.0000 </r>
       <r>   39.9087    0.0000 </r>
       <r>   45.2472    0.0000 </r>
      </set>
      <set comment="kpoint 11">
       <r>    4.1870    1.0000 </r>
       <r>    6.9977    1.0000 </r>
       <r>    7.7237    1.0000 </r>
       <r>    8.1793    1.0000 </r>
       <r>    8.6551    1.0000 </r>
       <r>    9.4425    1.0000 </r>
       <r>   25.6249    0.0000 </r>
       <r>   29.1460    0.0000 </r>
       <r>   34.1880    0.0000 </r>
       <r>   36.5749    0.0000 </r>
       <r>   40.9449    0.0000 </r>
       <r>   41.8083    0.0000 </r>
      </set>
      <set comment="kpoint 12">
       <r>    5.2938    1.0000 </r>
       <r>    6.0405    1.0000 </r>
       <r>    8.8791    1.0000 </r>
       <r>    9.1648    1.0000 </r>
       <r>    9.6091    1.0000 </r>
       <r>   10.8365   -0.0049 </r>
       <r>   24.0679    0.0000 </r>
       <r>   24.9807    0.0000 </r>
       <r>   26.8557    0.0000 </r>
       <r>   31.4818    0.0000 </r>
       <r>   35.8020    0.0000 </r>
       <r>   47.8795    0.0000 </r>
      </set>
      <set comment="kpoint 13">
       <r>    5.5680    1.0000 </r>
       <r>    6.0870    1.0000 </r>
       <r>    8.4251    1.0000 </r>
       <r>    9.1292    1.0000 </r>
       <r>    9.7866    1.0001 </r>
       <r>   14.5066   -0.0000 </r>
       <r>   20.6805    0.0000 </r>
       <r>   21.5499    0.0000 </r>
       <r>   24.9213    0.0000 </r>
       <r>   33.6188    0.0000 </r>
       <r>   38.7968    0.0000 </r>
       <r>   47.7320    0.0000 </r>
      </set>
      <set comment="kpoint 14">
       <r>    6.3036    1.0000 </r>
       <r>    6.5153    1.0000 </r>
       <r>    7.4151    1.0000 </r>
       <r>    8.5663    1.0000 </r>
       <r>    9.5006    1.0000 </r>
       <r>   15.4205   -0.0000 </r>
       <r>   17.7054    0.0000 </r>
       <r>   22.3141    0.0000 </r>
       <r>   27.3241    0.0000 </r>
       <r>   34.9333    0.0000 </r>
       <r>   43.3537    0.0000 </r>
       <r>   46.7325    0.0000 </r>
      </set>
      <set comment="kpoint 15">
       <r>    5.5598    1.0000 </r>
       <r>    7.2223    1.0000 </r>
       <r>    7.7972    1.0000 </r>
       <r>    7.9580    1.0000 </r>
       <r>    9.4670    1.0000 </r>
       <r>   11.3635   -0.0000 </r>
       <r>   18.4240    0.0000 </r>
       <r>   28.8268    0.0000 </r>
       <r>   31.1820    0.0000 </r>
       <r>   35.2752    0.0000 </r>
       <r>   39.9885    0.0000 </r>
       <r>   43.4538    0.0000 </r>
      </set>
      <set comment="kpoint 16">
       <r>    5.2143    1.0000 </r>
       <r>    5.8174    1.0000 </r>
       <r>    9.4107    1.0000 </r>
       <r>    9.4213    1.0000 </r>
       <r>    9.8116    1.0001 </r>
       <r>   13.0132   -0.0000 </r>
       <r>   20.6844    0.0000 </r>
       <r>   23.8967    0.0000 </r>
       <r>   25.7598    0.0000 </r>
       <r>   31.2162    0.0000 </r>
       <r>   35.4354    0.0000 </r>
       <r>   48.1201    0.0000 </r>
      </set>
      <set comment="kpoint 17">
       <r>    5.6830    1.0000 </r>
       <r>    6.2770    1.0000 </r>
       <r>    7.9357    1.0000 </r>
       <r>    8.9574    1.0000 </r>
       <r>    9.5636    1.0000 </r>
       <r>   12.0980   -0.0000 </r>
       <r>   22.0597    0.0000 </r>
       <r>   24.6254    0.0000 </r>
       <r>   25.9247    0.0000 </r>
       <r>   34.0121    0.0000 </r>
       <r>   39.1136    0.0000 </r>
       <r>   46.2023    0.0000 </r>
      </set>
      <set comment="kpoint 18">
       <r>    4.9094    1.0000 </r>
       <r>    6.4397    1.0000 </r>
       <r>    8.0710    1.0000 </r>
       <r>    8.7270    1.0000 </r>
       <r>    9.3165    1.0000 </r>
       <r>    9.3394    1.0000 </r>
       <r>   26.4082    0.0000 </r>
       <r>   28.6534    0.0000 </r>
       <r>   28.8546    0.0000 </r>
       <r>   32.1560    0.0000 </r>
       <r>   36.8358    0.0000 </r>
       <r>   47.8484    0.0000 </r>
      </set>
      <set comment="kpoint 19">
       <r>    3.5878    1.0000 </r>
       <r>    7.3478    1.0000 </r>
       <r>    7.8475    1.0000 </r>
       <r>    7.8475    1.0000 </r>
       <r>    8.8826    1.0000 </r>
       <r>    8.8826    1.0000 </r>
       <r>   25.1168    0.0000 </r>
       <r>   33.7126    0.0000 </r>
       <r>   36.0756    0.0000 </r>
       <r>   36.0756    0.0000 </r>
       <r>   41.3454    0.0000 </r>
       <r>   41.3454    0.0000 </r>
      </set>
      <set comment="kpoint 20">
       <r>    5.1009    1.0000 </r>
       <r>    7.0662    1.0000 </r>
       <r>    7.5205    1.0000 </r>
       <r>    8.1009    1.0000 </r>
       <r>    8.6852    1.0000 </r>
       <r>   10.2203    1.0170 </r>
       <r>   23.1818    0.0000 </r>
       <r>   26.8424    0.0000 </r>
       <r>   35.1324    0.0000 </r>
       <r>   36.0851    0.0000 </r>
       <r>   40.3361    0.0000 </r>
       <r>   41.8561    0.0000 </r>
      </set>
      <set comment="kpoint 21">
       <r>    6.2708    1.0000 </r>
       <r>    6.8099    1.0000 </r>
       <r>    7.3180    1.0000 </r>
       <r>    8.3055    1.0000 </r>
       <r>    9.1915    1.0000 </r>
       <r>   13.1246   -0.0000 </r>
       <r>   19.1902    0.0000 </r>
       <r>   23.3697    0.0000 </r>
       <r>   31.4875    0.0000 </r>
       <r>   33.0930    0.0000 </r>
       <r>   44.2467    0.0000 </r>
       <r>   44.6590    0.0000 </r>
      </set>
      <set comment="kpoint 22">
       <r>    5.8572    1.0000 </r>
       <r>    6.4968    1.0000 </r>
       <r>    7.7673    1.0000 </r>
       <r>    8.4950    1.0000 </r>
       <r>    9.6876    1.0000 </r>
       <r>   12.7860   -0.0000 </r>
       <r>   19.1921    0.0000 </r>
       <r>   25.2218    0.0000 </r>
       <r>   28.7898    0.0000 </r>
       <r>   32.3870    0.0000 </r>
       <r>   42.8529    0.0000 </r>
       <r>   46.4344    0.0000 </r>
      </set>
      <set comment="kpoint 23">
       <r>    5.4433    1.0000 </r>
       <r>    6.9595    1.0000 </r>
       <r>    7.5633    1.0000 </r>
       <r>    8.1232    1.0000 </r>
       <r>    9.5834    1.0000 </r>
       <r>   10.5059    0.1339 </r>
       <r>   20.6885    0.0000 </r>
       <r>   29.4844    0.0000 </r>
       <r>   30.5694    0.0000 </r>
       <r>   33.2466    0.0000 </r>
       <r>   43.3287    0.0000 </r>
       <r>   44.0732    0.0000 </r>
      </set>
      <set comment="kpoint 24">
       <r>    6.2358    1.0000 </r>
       <r>    6.6397    1.0000 </r>
       <r>    7.1843    1.0000 </r>
       <r>    8.6399    1.0000 </r>
       <r>    9.4880    1.0000 </r>
       <r>   13.6502   -0.0000 </r>
       <r>   19.6810    0.0000 </r>
       <r>   23.6797    0.0000 </r>
       <r>   25.9382    0.0000 </r>
       <r>   37.7262    0.0000 </r>
       <r>   40.1693    0.0000 </r>
       <r>   44.8132    0.0000 </r>
      </set>
      <set comment="kpoint 25">
       <r>    6.0311    1.0000 </r>
       <r>    6.6022    1.0000 </r>
       <r>    7.4100    1.0000 </r>
       <r>    8.7359    1.0000 </r>
       <r>    9.7777    1.0000 </r>
       <r>   16.4515    0.0000 </r>
       <r>   18.7589    0.0000 </r>
       <r>   21.6679    0.0000 </r>
       <r>   23.3283    0.0000 </r>
       <r>   37.6640    0.0000 </r>
       <r>   42.1110    0.0000 </r>
       <r>   43.9252    0.0000 </r>
      </set>
      <set comment="kpoint 26">
       <r>    5.8555    1.0000 </r>
       <r>    6.2823    1.0000 </r>
       <r>    8.0326    1.0000 </r>
       <r>    8.8486    1.0000 </r>
       <r>    9.6153    1.0000 </r>
       <r>   15.5626   -0.0000 </r>
       <r>   18.1993    0.0000 </r>
       <r>   21.5116    0.0000 </r>
       <r>   27.8587    0.0000 </r>
       <r>   32.1574    0.0000 </r>
       <r>   42.5277    0.0000 </r>
       <r>   47.7822    0.0000 </r>
      </set>
      <set comment="kpoint 27">
       <r>    5.0917    1.0000 </r>
       <r>    7.5939    1.0000 </r>
       <r>    7.5939    1.0000 </r>
       <r>    9.1499    1.0000 </r>
       <r>    9.5079    1.0000 </r>
       <r>    9.5079    1.0000 </r>
       <r>   18.0718    0.0000 </r>
       <r>   32.2741    0.0000 </r>
       <r>   35.4396    0.0000 </r>
       <r>   35.4396    0.0000 </r>
       <r>   38.4311    0.0000 </r>
       <r>   38.4311    0.0000 </r>
      </set>
      <set comment="kpoint 28">
       <r>    5.7458    1.0000 </r>
       <r>    7.0793    1.0000 </r>
       <r>    7.9451    1.0000 </r>
       <r>    7.9552    1.0000 </r>
       <r>    9.4868    1.0000 </r>
       <r>   12.6745   -0.0000 </r>
       <r>   17.0017    0.0000 </r>
       <r>   27.3047    0.0000 </r>
       <r>   32.1723    0.0000 </r>
       <r>   33.1048    0.0000 </r>
       <r>   42.2785    0.0000 </r>
       <r>   42.5846    0.0000 </r>
      </set>
     </set>
     <set comment="spin 2">
      <set comment="kpoint 1">
       <r>    1.6592    1.0000 </r>
       <r>    9.1907    1.0000 </r>
       <r>    9.3612    1.0000 </r>
       <r>    9.3612    1.0000 </r>
       <r>   10.6846   -0.0323 </r>
       <r>   10.6846   -0.0323 </r>
       <r>   32.5855    0.0000 </r>
       <r>   35.4804    0.0000 </r>
       <r>   37.6267    0.0000 </r>
       <r>   37.6267    0.0000 </r>
       <r>   41.9276    0.0000 </r>
       <r>   41.9929    0.0000 </r>
      </set>
      <set comment="kpoint 2">
       <r>    3.0558    1.0000 </r>
       <r>    8.7652    1.0000 </r>
       <r>    9.5498    1.0000 </r>
       <r>    9.6502    1.0000 </r>
       <r>   10.4211    0.4417 </r>
       <r>   10.9235   -0.0008 </r>
       <r>   28.3484    0.0000 </r>
       <r>   31.6409    0.0000 </r>
       <r>   36.6030    0.0000 </r>
       <r>   39.2374    0.0000 </r>
       <r>   39.5174    0.0000 </r>
       <r>   41.3848    0.0000 </r>
      </set>
      <set comment="kpoint 3">
       <r>    5.5654    1.0000 </r>
       <r>    8.7528    1.0000 </r>
       <r>    9.2855    1.0000 </r>
       <r>    9.4982    1.0000 </r>
       <r>   11.0356   -0.0000 </r>
       <r>   11.7182   -0.0000 </r>
       <r>   20.9155    0.0000 </r>
       <r>   30.6957    0.0000 </r>
       <r>   34.4292    0.0000 </r>
       <r>   36.7834    0.0000 </r>
       <r>   39.2409    0.0000 </r>
       <r>   40.6121    0.0000 </r>
      </set>
      <set comment="kpoint 4">
       <r>    6.2582    1.0000 </r>
       <r>    9.0288    1.0000 </r>
       <r>    9.3932    1.0000 </r>
       <r>    9.5758    1.0000 </r>
       <r>   11.5753   -0.0000 </r>
       <r>   12.2396   -0.0000 </r>
       <r>   17.7800    0.0000 </r>
       <r>   30.9135    0.0000 </r>
       <r>   33.8662    0.0000 </r>
       <r>   34.1677    0.0000 </r>
       <r>   40.2562    0.0000 </r>
       <r>   40.2954    0.0000 </r>
      </set>
      <set comment="kpoint 5">
       <r>    4.7785    1.0000 </r>
       <r>    8.5426    1.0000 </r>
       <r>    9.3987    1.0000 </r>
       <r>    9.6102    1.0000 </r>
       <r>   10.9739   -0.0002 </r>
       <r>   11.2299   -0.0000 </r>
       <r>   23.1981    0.0000 </r>
       <r>   32.1726    0.0000 </r>
       <r>   33.4190    0.0000 </r>
       <r>   36.6586    0.0000 </r>
       <r>   40.1808    0.0000 </r>
       <r>   42.7359    0.0000 </r>
      </set>
      <set comment="kpoint 6">
       <r>    2.3762    1.0000 </r>
       <r>    8.9002    1.0000 </r>
       <r>    9.5550    1.0000 </r>
       <r>    9.5650    1.0000 </r>
       <r>   10.4245    0.4276 </r>
       <r>   10.8230   -0.0062 </r>
       <r>   30.9210    0.0000 </r>
       <r>   33.7017    0.0000 </r>
       <r>   34.8334    0.0000 </r>
       <r>   37.2486    0.0000 </r>
       <r>   41.6048    0.0000 </r>
       <r>   44.1895    0.0000 </r>
      </set>
      <set comment="kpoint 7">
       <r>    3.6983    1.0000 </r>
       <r>    8.3909    1.0000 </r>
       <r>    9.6948    1.0000 </r>
       <r>    9.9600    1.0035 </r>
       <r>   10.3148    0.8490 </r>
       <r>   11.0619   -0.0000 </r>
       <r>   28.8232    0.0000 </r>
       <r>   31.8398    0.0000 </r>
       <r>   32.0277    0.0000 </r>
       <r>   34.2851    0.0000 </r>
       <r>   39.7268    0.0000 </r>
       <r>   45.1938    0.0000 </r>
      </set>
      <set comment="kpoint 8">
       <r>    5.7631    1.0000 </r>
       <r>    7.9772    1.0000 </r>
       <r>    9.1004    1.0000 </r>
       <r>   10.3292    0.8041 </r>
       <r>   10.9893   -0.0002 </r>
       <r>   11.9472   -0.0000 </r>
       <r>   24.0743    0.0000 </r>
       <r>   27.4251    0.0000 </r>
       <r>   29.8918    0.0000 </r>
       <r>   35.0927    0.0000 </r>
       <r>   40.2439    0.0000 </r>
       <r>   44.3754    0.0000 </r>
      </set>
      <set comment="kpoint 9">
       <r>    7.1163    1.0000 </r>
       <r>    8.0285    1.0000 </r>
       <r>    8.9179    1.0000 </r>
       <r>   10.0579    1.0165 </r>
       <r>   11.4909   -0.0000 </r>
       <r>   14.5666   -0.0000 </r>
       <r>   18.0514    0.0000 </r>
       <r>   26.5035    0.0000 </r>
       <r>   28.4584    0.0000 </r>
       <r>   35.1542    0.0000 </r>
       <r>   41.6400    0.0000 </r>
       <r>   47.1837    0.0000 </r>
      </set>
      <set comment="kpoint 10">
       <r>    6.5339    1.0000 </r>
       <r>    8.2362    1.0000 </r>
       <r>    8.7185    1.0000 </r>
       <r>   10.1407    1.0339 </r>
       <r>   10.8700   -0.0026 </r>
       <r>   12.9320   -0.0000 </r>
       <r>   21.7585    0.0000 </r>
       <r>   25.4061    0.0000 </r>
       <r>   30.9007    0.0000 </r>
       <r>   36.9951    0.0000 </r>
       <r>   40.0217    0.0000 </r>
       <r>   45.6033    0.0000 </r>
      </set>
      <set comment="kpoint 11">
       <r>    4.2995    1.0000 </r>
       <r>    8.4179    1.0000 </r>
       <r>    9.4194    1.0000 </r>
       <r>    9.9121    1.0013 </r>
       <r>   10.4631    0.2740 </r>
       <r>   11.3322   -0.0000 </r>
       <r>   26.0399    0.0000 </r>
       <r>   29.4147    0.0000 </r>
       <r>   34.3011    0.0000 </r>
       <r>   36.7295    0.0000 </r>
       <r>   41.1807    0.0000 </r>
       <r>   42.1033    0.0000 </r>
      </set>
      <set comment="kpoint 12">
       <r>    6.2245    1.0000 </r>
       <r>    7.3722    1.0000 </r>
       <r>   10.1497    1.0349 </r>
       <r>   11.0577   -0.0000 </r>
       <r>   11.5737   -0.0000 </r>
       <r>   11.9893   -0.0000 </r>
       <r>   24.5552    0.0000 </r>
       <r>   25.3431    0.0000 </r>
       <r>   27.1012    0.0000 </r>
       <r>   31.8123    0.0000 </r>
       <r>   36.2419    0.0000 </r>
       <r>   51.4234    0.0000 </r>
      </set>
      <set comment="kpoint 13">
       <r>    6.7900    1.0000 </r>
       <r>    7.3722    1.0000 </r>
       <r>    9.7630    1.0000 </r>
       <r>   11.1006   -0.0000 </r>
       <r>   11.6637   -0.0000 </r>
       <r>   15.1493   -0.0000 </r>
       <r>   21.3021    0.0000 </r>
       <r>   22.0766    0.0000 </r>
       <r>   25.2312    0.0000 </r>
       <r>   33.8727    0.0000 </r>
       <r>   39.1787    0.0000 </r>
       <r>   48.3172    0.0000 </r>
      </set>
      <set comment="kpoint 14">
       <r>    7.6072    1.0000 </r>
       <r>    7.6746    1.0000 </r>
       <r>    8.7119    1.0000 </r>
       <r>   10.4496    0.3253 </r>
       <r>   11.3501   -0.0000 </r>
       <r>   16.1970    0.0000 </r>
       <r>   18.3799    0.0000 </r>
       <r>   22.8625    0.0000 </r>
       <r>   27.6803    0.0000 </r>
       <r>   35.1022    0.0000 </r>
       <r>   43.4407    0.0000 </r>
       <r>   47.3886    0.0000 </r>
      </set>
      <set comment="kpoint 15">
       <r>    6.3977    1.0000 </r>
       <r>    8.5770    1.0000 </r>
       <r>    9.0835    1.0000 </r>
       <r>    9.6755    1.0000 </r>
       <r>   11.3667   -0.0000 </r>
       <r>   12.6703   -0.0000 </r>
       <r>   19.1831    0.0000 </r>
       <r>   29.0340    0.0000 </r>
       <r>   31.4703    0.0000 </r>
       <r>   35.4171    0.0000 </r>
       <r>   40.2223    0.0000 </r>
       <r>   43.5824    0.0000 </r>
      </set>
      <set comment="kpoint 16">
       <r>    6.3885    1.0000 </r>
       <r>    7.1169    1.0000 </r>
       <r>   10.9364   -0.0006 </r>
       <r>   11.4397   -0.0000 </r>
       <r>   11.7063   -0.0000 </r>
       <r>   13.4783   -0.0000 </r>
       <r>   21.4886    0.0000 </r>
       <r>   24.1705    0.0000 </r>
       <r>   25.9527    0.0000 </r>
       <r>   31.5900    0.0000 </r>
       <r>   35.8693    0.0000 </r>
       <r>   51.8126    0.0000 </r>
      </set>
      <set comment="kpoint 17">
       <r>    6.6698    1.0000 </r>
       <r>    7.5881    1.0000 </r>
       <r>    9.2492    1.0000 </r>
       <r>   10.8234   -0.0061 </r>
       <r>   11.4526   -0.0000 </r>
       <r>   13.2302   -0.0000 </r>
       <r>   22.5121    0.0000 </r>
       <r>   25.0852    0.0000 </r>
       <r>   26.2817    0.0000 </r>
       <r>   34.2383    0.0000 </r>
       <r>   39.4798    0.0000 </r>
       <r>   46.4980    0.0000 </r>
      </set>
      <set comment="kpoint 18">
       <r>    5.2633    1.0000 </r>
       <r>    7.8320    1.0000 </r>
       <r>    9.5541    1.0000 </r>
       <r>   10.4974    0.1583 </r>
       <r>   10.9394   -0.0005 </r>
       <r>   11.3368   -0.0000 </r>
       <r>   26.7591    0.0000 </r>
       <r>   28.9358    0.0000 </r>
       <r>   29.1633    0.0000 </r>
       <r>   32.4159    0.0000 </r>
       <r>   37.3347    0.0000 </r>
       <r>   48.7925    0.0000 </r>
      </set>
      <set comment="kpoint 19">
       <r>    3.6735    1.0000 </r>
       <r>    8.7187    1.0000 </r>
       <r>    9.5500    1.0000 </r>
       <r>    9.5500    1.0000 </r>
       <r>   10.7983   -0.0092 </r>
       <r>   10.7983   -0.0092 </r>
       <r>   25.5506    0.0000 </r>
       <r>   33.4658    0.0000 </r>
       <r>   36.4313    0.0000 </r>
       <r>   36.4313    0.0000 </r>
       <r>   41.5257    0.0000 </r>
       <r>   41.5257    0.0000 </r>
      </set>
      <set comment="kpoint 20">
       <r>    5.3579    1.0000 </r>
       <r>    8.3948    1.0000 </r>
       <r>    9.1559    1.0000 </r>
       <r>    9.9074    1.0012 </r>
       <r>   10.4849    0.1975 </r>
       <r>   11.9795   -0.0000 </r>
       <r>   23.6877    0.0000 </r>
       <r>   27.1833    0.0000 </r>
       <r>   35.1237    0.0000 </r>
       <r>   36.4276    0.0000 </r>
       <r>   40.3015    0.0000 </r>
       <r>   42.1340    0.0000 </r>
      </set>
      <set comment="kpoint 21">
       <r>    7.1868    1.0000 </r>
       <r>    8.1881    1.0000 </r>
       <r>    8.6161    1.0000 </r>
       <r>   10.1579    1.0354 </r>
       <r>   11.0174   -0.0001 </r>
       <r>   14.2328   -0.0000 </r>
       <r>   19.8415    0.0000 </r>
       <r>   23.8442    0.0000 </r>
       <r>   31.8431    0.0000 </r>
       <r>   33.1958    0.0000 </r>
       <r>   44.2235    0.0000 </r>
       <r>   44.8277    0.0000 </r>
      </set>
      <set comment="kpoint 22">
       <r>    6.9186    1.0000 </r>
       <r>    7.7414    1.0000 </r>
       <r>    9.0858    1.0000 </r>
       <r>   10.3254    0.8166 </r>
       <r>   11.6298   -0.0000 </r>
       <r>   13.8189   -0.0000 </r>
       <r>   19.7913    0.0000 </r>
       <r>   25.6537    0.0000 </r>
       <r>   29.0928    0.0000 </r>
       <r>   32.6235    0.0000 </r>
       <r>   43.1760    0.0000 </r>
       <r>   46.5901    0.0000 </r>
      </set>
      <set comment="kpoint 23">
       <r>    6.0421    1.0000 </r>
       <r>    8.1868    1.0000 </r>
       <r>    9.0963    1.0000 </r>
       <r>    9.8852    1.0007 </r>
       <r>   11.5429   -0.0000 </r>
       <r>   11.9521   -0.0000 </r>
       <r>   21.2781    0.0000 </r>
       <r>   29.6533    0.0000 </r>
       <r>   30.9016    0.0000 </r>
       <r>   33.5109    0.0000 </r>
       <r>   43.4364    0.0000 </r>
       <r>   44.3900    0.0000 </r>
      </set>
      <set comment="kpoint 24">
       <r>    7.3033    1.0000 </r>
       <r>    7.9390    1.0000 </r>
       <r>    8.5126    1.0000 </r>
       <r>   10.5027    0.1429 </r>
       <r>   11.3333   -0.0000 </r>
       <r>   14.6469   -0.0000 </r>
       <r>   20.2624    0.0000 </r>
       <r>   24.1175    0.0000 </r>
       <r>   26.3566    0.0000 </r>
       <r>   37.8448    0.0000 </r>
       <r>   40.2994    0.0000 </r>
       <r>   45.3906    0.0000 </r>
      </set>
      <set comment="kpoint 25">
       <r>    7.3150    1.0000 </r>
       <r>    7.8683    1.0000 </r>
       <r>    8.6976    1.0000 </r>
       <r>   10.6398   -0.0348 </r>
       <r>   11.6471   -0.0000 </r>
       <r>   17.1043    0.0000 </r>
       <r>   19.3234    0.0000 </r>
       <r>   22.2704    0.0000 </r>
       <r>   23.7694    0.0000 </r>
       <r>   37.8119    0.0000 </r>
       <r>   42.2577    0.0000 </r>
       <r>   44.2420    0.0000 </r>
      </set>
      <set comment="kpoint 26">
       <r>    7.1437    1.0000 </r>
       <r>    7.4952    1.0000 </r>
       <r>    9.3281    1.0000 </r>
       <r>   10.7752   -0.0130 </r>
       <r>   11.4910   -0.0000 </r>
       <r>   16.2487    0.0000 </r>
       <r>   18.7780    0.0000 </r>
       <r>   22.1587    0.0000 </r>
       <r>   28.1437    0.0000 </r>
       <r>   32.4224    0.0000 </r>
       <r>   42.8966    0.0000 </r>
       <r>   48.4088    0.0000 </r>
      </set>
      <set comment="kpoint 27">
       <r>    5.8717    1.0000 </r>
       <r>    9.3124    1.0000 </r>
       <r>    9.3124    1.0000 </r>
       <r>    9.4624    1.0000 </r>
       <r>   11.4425   -0.0000 </r>
       <r>   11.4425   -0.0000 </r>
       <r>   18.9077    0.0000 </r>
       <r>   31.9763    0.0000 </r>
       <r>   35.7771    0.0000 </r>
       <r>   35.7771    0.0000 </r>
       <r>   38.7094    0.0000 </r>
       <r>   38.7094    0.0000 </r>
      </set>
      <set comment="kpoint 28">
       <r>    6.7442    1.0000 </r>
       <r>    8.4862    1.0000 </r>
       <r>    9.1366    1.0000 </r>
       <r>    9.7169    1.0000 </r>
       <r>   11.3951   -0.0000 </r>
       <r>   13.6543   -0.0000 </r>
       <r>   17.9062    0.0000 </r>
       <r>   27.6022    0.0000 </r>
       <r>   32.5163    0.0000 </r>
       <r>   33.1819    0.0000 </r>
       <r>   42.5144    0.0000 </r>
       <r>   42.6842    0.0000 </r>
      </set>
     </set>
    </set>
   </array>
  </eigenvalues>
  <separator name="orbital magnetization" >
   <v name="MAGDIPOLOUT">      0.00000000      0.00000000      0.00000000</v>
  </separator>
  <dos>
   <i name="efermi">     10.40731422 </i>
   <total>
    <array>
     <dimension dim="1">gridpoints</dimension>
     <dimension dim="2">spin</dimension>
     <field>energy</field>
     <field>total</field>
     <field>integrated</field>
     <set>
      <set comment="spin 1">
       <r>    -0.8646     0.0000     0.0000 </r>
       <r>    -0.6806     0.0000     0.0000 </r>
       <r>    -0.4967     0.0000     0.0000 </r>
       <r>    -0.3127     0.0000     0.0000 </r>
       <r>    -0.1288    -0.0000    -0.0000 </r>
       <r>     0.0552    -0.0000    -0.0000 </r>
       <r>     0.2391    -0.0000    -0.0000 </r>
       <r>     0.4231    -0.0000    -0.0000 </r>
       <r>     0.6070    -0.0000    -0.0000 </r>
       <r>     0.7910    -0.0000    -0.0000 </r>
       <r>     0.9749    -0.0000    -0.0000 </r>
       <r>     1.1589    -0.0001    -0.0000 </r>
       <r>     1.3428    -0.0013    -0.0003 </r>
       <r>     1.5268     0.0057     0.0008 </r>
       <r>     1.7107     0.0342     0.0071 </r>
       <r>     1.8947     0.0131     0.0095 </r>
       <r>     2.0787    -0.0061     0.0084 </r>
       <r>     2.2626     0.0281     0.0136 </r>
       <r>     2.4466     0.1048     0.0329 </r>
       <r>     2.6305     0.0261     0.0377 </r>
       <r>     2.8145    -0.0069     0.0364 </r>
       <r>     2.9984     0.0674     0.0488 </r>
       <r>     3.1824     0.0858     0.0646 </r>
       <r>     3.3663    -0.0030     0.0640 </r>
       <r>     3.5503     0.0519     0.0736 </r>
       <r>     3.7342     0.1346     0.0983 </r>
       <r>     3.9182     0.0146     0.1010 </r>
       <r>     4.1021     0.0569     0.1115 </r>
       <r>     4.2861     0.2044     0.1491 </r>
       <r>     4.4700     0.0875     0.1652 </r>
       <r>     4.6540     0.0878     0.1813 </r>
       <r>     4.8379     0.0439     0.1894 </r>
       <r>     5.0219     0.1911     0.2245 </r>
       <r>     5.2058     0.3728     0.2931 </r>
       <r>     5.3898     0.5512     0.3945 </r>
       <r>     5.5737     0.6226     0.5090 </r>
       <r>     5.7577     0.6395     0.6267 </r>
       <r>     5.9416     0.7315     0.7612 </r>
       <r>     6.1256     0.9813     0.9417 </r>
       <r>     6.3096     0.9603     1.1184 </r>
       <r>     6.4935     0.8011     1.2658 </r>
       <r>     6.6775     0.9464     1.4398 </r>
       <r>     6.8614     0.6890     1.5666 </r>
       <r>     7.0454     0.8047     1.7146 </r>
       <r>     7.2293     1.0481     1.9074 </r>
       <r>     7.4133     1.1714     2.1229 </r>
       <r>     7.5972     1.2349     2.3500 </r>
       <r>     7.7812     1.4207     2.6114 </r>
       <r>     7.9651     1.7421     2.9319 </r>
       <r>     8.1491     1.2783     3.1670 </r>
       <r>     8.3330     0.8830     3.3294 </r>
       <r>     8.5170     1.0634     3.5250 </r>
       <r>     8.7009     1.5173     3.8041 </r>
       <r>     8.8849     1.0765     4.0022 </r>
       <r>     9.0688     0.9668     4.1800 </r>
       <r>     9.2528     1.2055     4.4018 </r>
       <r>     9.4367     1.2667     4.6348 </r>
       <r>     9.6207     1.8271     4.9709 </r>
       <r>     9.8046     1.0993     5.1731 </r>
       <r>     9.9886     0.3858     5.2441 </r>
       <r>    10.1726     0.1138     5.2650 </r>
       <r>    10.3565     0.2975     5.3197 </r>
       <r>    10.5405     0.1811     5.3530 </r>
       <r>    10.7244     0.0639     5.3648 </r>
       <r>    10.9084     0.0940     5.3821 </r>
       <r>    11.0923     0.0876     5.3982 </r>
       <r>    11.2763     0.1403     5.4240 </r>
       <r>    11.4602     0.3409     5.4867 </r>
       <r>    11.6442     0.2281     5.5287 </r>
       <r>    11.8281    -0.0087     5.5271 </r>
       <r>    12.0121     0.0557     5.5373 </r>
       <r>    12.1960     0.2090     5.5758 </r>
       <r>    12.3800     0.0452     5.5841 </r>
       <r>    12.5639     0.0066     5.5853 </r>
       <r>    12.7479     0.1532     5.6135 </r>
       <r>    12.9318     0.1637     5.6436 </r>
       <r>    13.1158     0.1804     5.6768 </r>
       <r>    13.2997     0.0939     5.6940 </r>
       <r>    13.4837    -0.0019     5.6937 </r>
       <r>    13.6676     0.3099     5.7507 </r>
       <r>    13.8516     0.3065     5.8070 </r>
       <r>    14.0355    -0.0010     5.8069 </r>
       <r>    14.2195    -0.0161     5.8039 </r>
       <r>    14.4035     0.0456     5.8123 </r>
       <r>    14.5874     0.2089     5.8507 </r>
       <r>    14.7714     0.0668     5.8630 </r>
       <r>    14.9553    -0.0100     5.8612 </r>
       <r>    15.1393    -0.0106     5.8592 </r>
       <r>    15.3232     0.0465     5.8678 </r>
       <r>    15.5072     0.2565     5.9149 </r>
       <r>    15.6911     0.1611     5.9446 </r>
       <r>    15.8751     0.0038     5.9453 </r>
       <r>    16.0590    -0.0071     5.9440 </r>
       <r>    16.2430    -0.0063     5.9428 </r>
       <r>    16.4269     0.1267     5.9661 </r>
       <r>    16.6109     0.1767     5.9986 </r>
       <r>    16.7948     0.0801     6.0134 </r>
       <r>    16.9788     0.1306     6.0374 </r>
       <r>    17.1627     0.1611     6.0670 </r>
       <r>    17.3467     0.2054     6.1048 </r>
       <r>    17.5306     0.0411     6.1124 </r>
       <r>    17.7146     0.1554     6.1410 </r>
       <r>    17.8985     0.1415     6.1670 </r>
       <r>    18.0825     0.0367     6.1738 </r>
       <r>    18.2664     0.1324     6.1981 </r>
       <r>    18.4504     0.2129     6.2373 </r>
       <r>    18.6344     0.1502     6.2649 </r>
       <r>    18.8183     0.1916     6.3002 </r>
       <r>    19.0023     0.0848     6.3158 </r>
       <r>    19.1862     0.1406     6.3416 </r>
       <r>    19.3702     0.1518     6.3696 </r>
       <r>    19.5541     0.0283     6.3748 </r>
       <r>    19.7381     0.1969     6.4110 </r>
       <r>    19.9220     0.0891     6.4274 </r>
       <r>    20.1060    -0.0044     6.4266 </r>
       <r>    20.2899     0.0836     6.4420 </r>
       <r>    20.4739     0.0506     6.4513 </r>
       <r>    20.6578     0.2514     6.4975 </r>
       <r>    20.8418     0.3534     6.5625 </r>
       <r>    21.0257     0.0243     6.5670 </r>
       <r>    21.2097     0.1539     6.5953 </r>
       <r>    21.3936     0.1517     6.6232 </r>
       <r>    21.5776     0.3358     6.6850 </r>
       <r>    21.7615     0.3650     6.7521 </r>
       <r>    21.9455     0.0761     6.7661 </r>
       <r>    22.1294     0.1933     6.8017 </r>
       <r>    22.3134     0.2299     6.8440 </r>
       <r>    22.4974     0.1484     6.8713 </r>
       <r>    22.6813     0.0817     6.8863 </r>
       <r>    22.8653     0.0634     6.8980 </r>
       <r>    23.0492    -0.0024     6.8975 </r>
       <r>    23.2332     0.1567     6.9264 </r>
       <r>    23.4171     0.3428     6.9894 </r>
       <r>    23.6011     0.3096     7.0464 </r>
       <r>    23.7850     0.3797     7.1162 </r>
       <r>    23.9690     0.1751     7.1484 </r>
       <r>    24.1529     0.1288     7.1721 </r>
       <r>    24.3369     0.0174     7.1753 </r>
       <r>    24.5208     0.0362     7.1819 </r>
       <r>    24.7048     0.1884     7.2166 </r>
       <r>    24.8887     0.2435     7.2614 </r>
       <r>    25.0727     0.5095     7.3551 </r>
       <r>    25.2566     0.2461     7.4004 </r>
       <r>    25.4406     0.0373     7.4073 </r>
       <r>    25.6245     0.1440     7.4337 </r>
       <r>    25.8085     0.3078     7.4904 </r>
       <r>    25.9924     0.4654     7.5760 </r>
       <r>    26.1764     0.3459     7.6396 </r>
       <r>    26.3603     0.1545     7.6680 </r>
       <r>    26.5443     0.0806     7.6829 </r>
       <r>    26.7283     0.0364     7.6896 </r>
       <r>    26.9122     0.1942     7.7253 </r>
       <r>    27.0962     0.2210     7.7659 </r>
       <r>    27.2801     0.3250     7.8257 </r>
       <r>    27.4641     0.2823     7.8776 </r>
       <r>    27.6480     0.0130     7.8800 </r>
       <r>    27.8320     0.0436     7.8881 </r>
       <r>    28.0159     0.2314     7.9306 </r>
       <r>    28.1999     0.2900     7.9840 </r>
       <r>    28.3838     0.0530     7.9937 </r>
       <r>    28.5678     0.1050     8.0130 </r>
       <r>    28.7517     0.2955     8.0674 </r>
       <r>    28.9357     0.4209     8.1448 </r>
       <r>    29.1196     0.2008     8.1817 </r>
       <r>    29.3036     0.1553     8.2103 </r>
       <r>    29.4875     0.1461     8.2372 </r>
       <r>    29.6715     0.2805     8.2888 </r>
       <r>    29.8554     0.0525     8.2984 </r>
       <r>    30.0394    -0.0109     8.2964 </r>
       <r>    30.2233    -0.0080     8.2949 </r>
       <r>    30.4073    -0.0057     8.2939 </r>
       <r>    30.5912     0.3002     8.3491 </r>
       <r>    30.7752     0.4114     8.4248 </r>
       <r>    30.9592     0.1064     8.4444 </r>
       <r>    31.1431     0.2214     8.4851 </r>
       <r>    31.3271     0.3179     8.5436 </r>
       <r>    31.5110     0.3906     8.6154 </r>
       <r>    31.6950     0.2411     8.6598 </r>
       <r>    31.8789    -0.0118     8.6576 </r>
       <r>    32.0629     0.1621     8.6874 </r>
       <r>    32.2468     0.4376     8.7679 </r>
       <r>    32.4308     0.3135     8.8256 </r>
       <r>    32.6147     0.0591     8.8365 </r>
       <r>    32.7987     0.0121     8.8387 </r>
       <r>    32.9826     0.0743     8.8524 </r>
       <r>    33.1666     0.3388     8.9147 </r>
       <r>    33.3505     0.1953     8.9506 </r>
       <r>    33.5345     0.1448     8.9772 </r>
       <r>    33.7184     0.3493     9.0415 </r>
       <r>    33.9024     0.2640     9.0901 </r>
       <r>    34.0863     0.3900     9.1618 </r>
       <r>    34.2703     0.3920     9.2339 </r>
       <r>    34.4542     0.2143     9.2733 </r>
       <r>    34.6382     0.1016     9.2920 </r>
       <r>    34.8222     0.1018     9.3107 </r>
       <r>    35.0061     0.5542     9.4127 </r>
       <r>    35.1901     0.4454     9.4946 </r>
       <r>    35.3740     0.3256     9.5545 </r>
       <r>    35.5580     0.2379     9.5983 </r>
       <r>    35.7419     0.0624     9.6098 </r>
       <r>    35.9259     0.1003     9.6282 </r>
       <r>    36.1098     0.1587     9.6574 </r>
       <r>    36.2938     0.1570     9.6863 </r>
       <r>    36.4777     0.2399     9.7304 </r>
       <r>    36.6617     0.3651     9.7976 </r>
       <r>    36.8456     0.3115     9.8549 </r>
       <r>    37.0296     0.2372     9.8985 </r>
       <r>    37.2135     0.0902     9.9151 </r>
       <r>    37.3975     0.0939     9.9324 </r>
       <r>    37.5814     0.1322     9.9567 </r>
       <r>    37.7654     0.3985    10.0300 </r>
       <r>    37.9493     0.1579    10.0591 </r>
       <r>    38.1333    -0.0192    10.0556 </r>
       <r>    38.3172     0.0090    10.0572 </r>
       <r>    38.5012     0.0600    10.0682 </r>
       <r>    38.6851     0.0551    10.0784 </r>
       <r>    38.8691     0.2276    10.1202 </r>
       <r>    39.0531     0.4139    10.1964 </r>
       <r>    39.2370     0.3731    10.2650 </r>
       <r>    39.4210     0.0436    10.2730 </r>
       <r>    39.6049     0.0691    10.2857 </r>
       <r>    39.7889     0.1015    10.3044 </r>
       <r>    39.9728     0.6647    10.4267 </r>
       <r>    40.1568     0.7603    10.5665 </r>
       <r>    40.3407     0.3045    10.6225 </r>
       <r>    40.5247     0.1615    10.6522 </r>
       <r>    40.7086     0.0232    10.6565 </r>
       <r>    40.8926     0.0875    10.6726 </r>
       <r>    41.0765     0.2563    10.7198 </r>
       <r>    41.2605     0.1560    10.7485 </r>
       <r>    41.4444     0.2933    10.8024 </r>
       <r>    41.6284     0.2199    10.8429 </r>
       <r>    41.8123     0.2712    10.8928 </r>
       <r>    41.9963     0.3070    10.9492 </r>
       <r>    42.1802     0.2306    10.9917 </r>
       <r>    42.3642     0.1732    11.0235 </r>
       <r>    42.5481     0.2316    11.0661 </r>
       <r>    42.7321     0.2566    11.1133 </r>
       <r>    42.9161     0.1063    11.1329 </r>
       <r>    43.1000     0.0177    11.1361 </r>
       <r>    43.2840     0.1290    11.1599 </r>
       <r>    43.4679     0.4688    11.2461 </r>
       <r>    43.6519     0.2453    11.2912 </r>
       <r>    43.8358     0.1160    11.3126 </r>
       <r>    44.0198     0.2810    11.3642 </r>
       <r>    44.2037     0.4061    11.4390 </r>
       <r>    44.3877     0.1836    11.4727 </r>
       <r>    44.5716     0.0167    11.4758 </r>
       <r>    44.7556     0.1901    11.5108 </r>
       <r>    44.9395     0.2150    11.5503 </r>
       <r>    45.1235     0.0977    11.5683 </r>
       <r>    45.3074     0.2959    11.6227 </r>
       <r>    45.4914     0.1024    11.6416 </r>
       <r>    45.6753    -0.0131    11.6392 </r>
       <r>    45.8593    -0.0069    11.6379 </r>
       <r>    46.0432     0.0074    11.6393 </r>
       <r>    46.2272     0.1759    11.6716 </r>
       <r>    46.4111     0.1867    11.7060 </r>
       <r>    46.5951     0.1026    11.7249 </r>
       <r>    46.7790     0.1884    11.7595 </r>
       <r>    46.9630     0.1408    11.7854 </r>
       <r>    47.1470     0.1986    11.8219 </r>
       <r>    47.3309     0.0694    11.8347 </r>
       <r>    47.5149    -0.0262    11.8299 </r>
       <r>    47.6988     0.1560    11.8586 </r>
       <r>    47.8828     0.4589    11.9430 </r>
       <r>    48.0667     0.2196    11.9834 </r>
       <r>    48.2507     0.0851    11.9991 </r>
       <r>    48.4346     0.0089    12.0007 </r>
       <r>    48.6186    -0.0036    12.0000 </r>
       <r>    48.8025    -0.0002    12.0000 </r>
       <r>    48.9865    -0.0000    12.0000 </r>
       <r>    49.1704    -0.0000    12.0000 </r>
       <r>    49.3544    -0.0000    12.0000 </r>
       <r>    49.5383     0.0000    12.0000 </r>
       <r>    49.7223     0.0000    12.0000 </r>
       <r>    49.9062     0.0000    12.0000 </r>
       <r>    50.0902     0.0000    12.0000 </r>
       <r>    50.2741     0.0000    12.0000 </r>
       <r>    50.4581     0.0000    12.0000 </r>
       <r>    50.6420     0.0000    12.0000 </r>
       <r>    50.8260     0.0000    12.0000 </r>
       <r>    51.0099     0.0000    12.0000 </r>
       <r>    51.1939     0.0000    12.0000 </r>
       <r>    51.3779     0.0000    12.0000 </r>
       <r>    51.5618     0.0000    12.0000 </r>
       <r>    51.7458     0.0000    12.0000 </r>
       <r>    51.9297     0.0000    12.0000 </r>
       <r>    52.1137     0.0000    12.0000 </r>
       <r>    52.2976     0.0000    12.0000 </r>
       <r>    52.4816     0.0000    12.0000 </r>
       <r>    52.6655     0.0000    12.0000 </r>
       <r>    52.8495     0.0000    12.0000 </r>
       <r>    53.0334     0.0000    12.0000 </r>
       <r>    53.2174     0.0000    12.0000 </r>
       <r>    53.4013     0.0000    12.0000 </r>
       <r>    53.5853     0.0000    12.0000 </r>
       <r>    53.7692     0.0000    12.0000 </r>
       <r>    53.9532     0.0000    12.0000 </r>
       <r>    54.1371     0.0000    12.0000 </r>
       <r>    54.3211     0.0000    12.0000 </r>
      </set>
      <set comment="spin 2">
       <r>    -0.8646     0.0000     0.0000 </r>
       <r>    -0.6806     0.0000     0.0000 </r>
       <r>    -0.4967     0.0000     0.0000 </r>
       <r>    -0.3127     0.0000     0.0000 </r>
       <r>    -0.1288     0.0000     0.0000 </r>
       <r>     0.0552    -0.0000    -0.0000 </r>
       <r>     0.2391    -0.0000    -0.0000 </r>
       <r>     0.4231    -0.0000    -0.0000 </r>
       <r>     0.6070    -0.0000    -0.0000 </r>
       <r>     0.7910    -0.0000    -0.0000 </r>
       <r>     0.9749    -0.0000    -0.0000 </r>
       <r>     1.1589    -0.0001    -0.0000 </r>
       <r>     1.3428    -0.0011    -0.0002 </r>
       <r>     1.5268     0.0039     0.0005 </r>
       <r>     1.7107     0.0330     0.0066 </r>
       <r>     1.8947     0.0161     0.0095 </r>
       <r>     2.0787    -0.0055     0.0085 </r>
       <r>     2.2626     0.0183     0.0119 </r>
       <r>     2.4466     0.1032     0.0309 </r>
       <r>     2.6305     0.0380     0.0379 </r>
       <r>     2.8145    -0.0092     0.0362 </r>
       <r>     2.9984     0.0452     0.0445 </r>
       <r>     3.1824     0.1004     0.0630 </r>
       <r>     3.3663     0.0096     0.0647 </r>
       <r>     3.5503     0.0085     0.0663 </r>
       <r>     3.7342     0.1275     0.0897 </r>
       <r>     3.9182     0.0694     0.1025 </r>
       <r>     4.1021    -0.0093     0.1008 </r>
       <r>     4.2861     0.1395     0.1264 </r>
       <r>     4.4700     0.1651     0.1568 </r>
       <r>     4.6540     0.0185     0.1602 </r>
       <r>     4.8379     0.0957     0.1778 </r>
       <r>     5.0219     0.0371     0.1846 </r>
       <r>     5.2058     0.0450     0.1929 </r>
       <r>     5.3898     0.1898     0.2278 </r>
       <r>     5.5737     0.1522     0.2558 </r>
       <r>     5.7577     0.2172     0.2958 </r>
       <r>     5.9416     0.2074     0.3339 </r>
       <r>     6.1256     0.1376     0.3592 </r>
       <r>     6.3096     0.3106     0.4164 </r>
       <r>     6.4935     0.4885     0.5062 </r>
       <r>     6.6775     0.4912     0.5966 </r>
       <r>     6.8614     0.4808     0.6850 </r>
       <r>     7.0454     0.3050     0.7411 </r>
       <r>     7.2293     0.6556     0.8617 </r>
       <r>     7.4133     0.8587     1.0197 </r>
       <r>     7.5972     0.7031     1.1490 </r>
       <r>     7.7812     0.7103     1.2797 </r>
       <r>     7.9651     0.7863     1.4243 </r>
       <r>     8.1491     0.6858     1.5505 </r>
       <r>     8.3330     0.5435     1.6505 </r>
       <r>     8.5170     0.8705     1.8106 </r>
       <r>     8.7009     1.2026     2.0318 </r>
       <r>     8.8849     0.9267     2.2023 </r>
       <r>     9.0688     0.8225     2.3536 </r>
       <r>     9.2528     1.1093     2.5577 </r>
       <r>     9.4367     1.0428     2.7495 </r>
       <r>     9.6207     1.2833     2.9855 </r>
       <r>     9.8046     1.0800     3.1842 </r>
       <r>     9.9886     0.7427     3.3208 </r>
       <r>    10.1726     0.7054     3.4506 </r>
       <r>    10.3565     0.8401     3.6051 </r>
       <r>    10.5405     1.2480     3.8347 </r>
       <r>    10.7244     0.7529     3.9732 </r>
       <r>    10.9084     1.0591     4.1680 </r>
       <r>    11.0923     1.2811     4.4037 </r>
       <r>    11.2763     0.8614     4.5621 </r>
       <r>    11.4602     1.5814     4.8530 </r>
       <r>    11.6442     1.4722     5.1239 </r>
       <r>    11.8281     0.7367     5.2594 </r>
       <r>    12.0121     0.4922     5.3499 </r>
       <r>    12.1960     0.2856     5.4024 </r>
       <r>    12.3800     0.0670     5.4148 </r>
       <r>    12.5639     0.0439     5.4228 </r>
       <r>    12.7479     0.2039     5.4604 </r>
       <r>    12.9318     0.2173     5.5003 </r>
       <r>    13.1158     0.1806     5.5335 </r>
       <r>    13.2997     0.2028     5.5708 </r>
       <r>    13.4837     0.1543     5.5992 </r>
       <r>    13.6676     0.1560     5.6279 </r>
       <r>    13.8516     0.1595     5.6573 </r>
       <r>    14.0355     0.0538     5.6672 </r>
       <r>    14.2195     0.0589     5.6780 </r>
       <r>    14.4035     0.0809     5.6929 </r>
       <r>    14.5874     0.2668     5.7420 </r>
       <r>    14.7714     0.3294     5.8026 </r>
       <r>    14.9553     0.0203     5.8063 </r>
       <r>    15.1393     0.1346     5.8311 </r>
       <r>    15.3232     0.1650     5.8614 </r>
       <r>    15.5072     0.0027     5.8619 </r>
       <r>    15.6911    -0.0047     5.8611 </r>
       <r>    15.8751    -0.0084     5.8595 </r>
       <r>    16.0590     0.0190     5.8630 </r>
       <r>    16.2430     0.2696     5.9126 </r>
       <r>    16.4269     0.1850     5.9466 </r>
       <r>    16.6109    -0.0083     5.9451 </r>
       <r>    16.7948    -0.0112     5.9430 </r>
       <r>    16.9788     0.0281     5.9482 </r>
       <r>    17.1627     0.2017     5.9853 </r>
       <r>    17.3467     0.0897     6.0018 </r>
       <r>    17.5306    -0.0158     5.9989 </r>
       <r>    17.7146     0.0330     6.0050 </r>
       <r>    17.8985     0.1872     6.0394 </r>
       <r>    18.0825     0.2746     6.0900 </r>
       <r>    18.2664     0.1555     6.1186 </r>
       <r>    18.4504     0.1939     6.1542 </r>
       <r>    18.6344     0.0816     6.1692 </r>
       <r>    18.8183     0.0916     6.1861 </r>
       <r>    19.0023     0.0830     6.2014 </r>
       <r>    19.1862     0.1840     6.2352 </r>
       <r>    19.3702     0.3439     6.2985 </r>
       <r>    19.5541     0.0932     6.3156 </r>
       <r>    19.7381     0.0585     6.3264 </r>
       <r>    19.9220     0.1966     6.3625 </r>
       <r>    20.1060     0.0559     6.3728 </r>
       <r>    20.2899     0.1733     6.4047 </r>
       <r>    20.4739     0.1240     6.4275 </r>
       <r>    20.6578    -0.0112     6.4254 </r>
       <r>    20.8418     0.0331     6.4315 </r>
       <r>    21.0257     0.0896     6.4480 </r>
       <r>    21.2097     0.1107     6.4684 </r>
       <r>    21.3936     0.3312     6.5293 </r>
       <r>    21.5776     0.1788     6.5622 </r>
       <r>    21.7615     0.1665     6.5928 </r>
       <r>    21.9455     0.1612     6.6225 </r>
       <r>    22.1294     0.2739     6.6728 </r>
       <r>    22.3134     0.3731     6.7415 </r>
       <r>    22.4974     0.2397     6.7856 </r>
       <r>    22.6813     0.1576     6.8145 </r>
       <r>    22.8653     0.1578     6.8436 </r>
       <r>    23.0492     0.1548     6.8720 </r>
       <r>    23.2332     0.0916     6.8889 </r>
       <r>    23.4171     0.0447     6.8971 </r>
       <r>    23.6011     0.0260     6.9019 </r>
       <r>    23.7850     0.3036     6.9577 </r>
       <r>    23.9690     0.3207     7.0167 </r>
       <r>    24.1529     0.4688     7.1030 </r>
       <r>    24.3369     0.2609     7.1510 </r>
       <r>    24.5208     0.0443     7.1591 </r>
       <r>    24.7048     0.0843     7.1746 </r>
       <r>    24.8887    -0.0031     7.1741 </r>
       <r>    25.0727     0.1377     7.1994 </r>
       <r>    25.2566     0.3890     7.2710 </r>
       <r>    25.4406     0.4261     7.3493 </r>
       <r>    25.6245     0.2235     7.3904 </r>
       <r>    25.8085     0.0880     7.4066 </r>
       <r>    25.9924     0.1865     7.4409 </r>
       <r>    26.1764     0.2869     7.4937 </r>
       <r>    26.3603     0.4003     7.5674 </r>
       <r>    26.5443     0.4007     7.6411 </r>
       <r>    26.7283     0.1576     7.6700 </r>
       <r>    26.9122     0.0735     7.6836 </r>
       <r>    27.0962     0.1027     7.7025 </r>
       <r>    27.2801     0.1926     7.7379 </r>
       <r>    27.4641     0.2192     7.7782 </r>
       <r>    27.6480     0.3229     7.8376 </r>
       <r>    27.8320     0.2254     7.8791 </r>
       <r>    28.0159     0.0153     7.8819 </r>
       <r>    28.1999     0.0913     7.8987 </r>
       <r>    28.3838     0.2125     7.9378 </r>
       <r>    28.5678     0.2538     7.9845 </r>
       <r>    28.7517     0.0616     7.9958 </r>
       <r>    28.9357     0.2219     8.0366 </r>
       <r>    29.1196     0.4414     8.1178 </r>
       <r>    29.3036     0.2541     8.1646 </r>
       <r>    29.4875     0.2026     8.2018 </r>
       <r>    29.6715     0.1485     8.2291 </r>
       <r>    29.8554     0.1736     8.2611 </r>
       <r>    30.0394     0.1847     8.2950 </r>
       <r>    30.2233     0.0127     8.2974 </r>
       <r>    30.4073    -0.0111     8.2953 </r>
       <r>    30.5912     0.0049     8.2962 </r>
       <r>    30.7752     0.1640     8.3264 </r>
       <r>    30.9592     0.5283     8.4236 </r>
       <r>    31.1431     0.2336     8.4666 </r>
       <r>    31.3271    -0.0141     8.4640 </r>
       <r>    31.5110     0.2239     8.5052 </r>
       <r>    31.6950     0.3419     8.5680 </r>
       <r>    31.8789     0.3646     8.6351 </r>
       <r>    32.0629     0.2878     8.6880 </r>
       <r>    32.2468     0.1548     8.7165 </r>
       <r>    32.4308     0.2272     8.7583 </r>
       <r>    32.6147     0.3452     8.8218 </r>
       <r>    32.7987     0.1208     8.8440 </r>
       <r>    32.9826    -0.0139     8.8415 </r>
       <r>    33.1666     0.1196     8.8635 </r>
       <r>    33.3505     0.2237     8.9046 </r>
       <r>    33.5345     0.2282     8.9466 </r>
       <r>    33.7184     0.1943     8.9823 </r>
       <r>    33.9024     0.3229     9.0417 </r>
       <r>    34.0863     0.2101     9.0804 </r>
       <r>    34.2703     0.4730     9.1674 </r>
       <r>    34.4542     0.4969     9.2588 </r>
       <r>    34.6382     0.0626     9.2703 </r>
       <r>    34.8222     0.0303     9.2759 </r>
       <r>    35.0061     0.2241     9.3171 </r>
       <r>    35.1901     0.7015     9.4462 </r>
       <r>    35.3740     0.3791     9.5159 </r>
       <r>    35.5580     0.1914     9.5511 </r>
       <r>    35.7419     0.0777     9.5654 </r>
       <r>    35.9259     0.1512     9.5932 </r>
       <r>    36.1098     0.0564     9.6036 </r>
       <r>    36.2938     0.1036     9.6227 </r>
       <r>    36.4777     0.2128     9.6618 </r>
       <r>    36.6617     0.3501     9.7262 </r>
       <r>    36.8456     0.4325     9.8058 </r>
       <r>    37.0296     0.2509     9.8519 </r>
       <r>    37.2135     0.1757     9.8843 </r>
       <r>    37.3975     0.1811     9.9176 </r>
       <r>    37.5814     0.0646     9.9295 </r>
       <r>    37.7654     0.2291     9.9716 </r>
       <r>    37.9493     0.4095    10.0470 </r>
       <r>    38.1333     0.0628    10.0585 </r>
       <r>    38.3172    -0.0160    10.0556 </r>
       <r>    38.5012    -0.0029    10.0550 </r>
       <r>    38.6851     0.0425    10.0628 </r>
       <r>    38.8691     0.0485    10.0718 </r>
       <r>    39.0531     0.0279    10.0769 </r>
       <r>    39.2370     0.3394    10.1393 </r>
       <r>    39.4210     0.3603    10.2056 </r>
       <r>    39.6049     0.3112    10.2629 </r>
       <r>    39.7889     0.1417    10.2889 </r>
       <r>    39.9728     0.0940    10.3062 </r>
       <r>    40.1568     0.4583    10.3905 </r>
       <r>    40.3407     1.0090    10.5761 </r>
       <r>    40.5247     0.3622    10.6428 </r>
       <r>    40.7086     0.0638    10.6545 </r>
       <r>    40.8926     0.0114    10.6566 </r>
       <r>    41.0765     0.0363    10.6633 </r>
       <r>    41.2605     0.2140    10.7026 </r>
       <r>    41.4444     0.1915    10.7378 </r>
       <r>    41.6284     0.3342    10.7993 </r>
       <r>    41.8123     0.2351    10.8426 </r>
       <r>    41.9963     0.1008    10.8611 </r>
       <r>    42.1802     0.4053    10.9357 </r>
       <r>    42.3642     0.3303    10.9964 </r>
       <r>    42.5481     0.1291    11.0202 </r>
       <r>    42.7321     0.2251    11.0616 </r>
       <r>    42.9161     0.2087    11.1000 </r>
       <r>    43.1000     0.0892    11.1164 </r>
       <r>    43.2840     0.1063    11.1359 </r>
       <r>    43.4679     0.3293    11.1965 </r>
       <r>    43.6519     0.3878    11.2679 </r>
       <r>    43.8358     0.0622    11.2793 </r>
       <r>    44.0198    -0.0277    11.2742 </r>
       <r>    44.2037     0.2665    11.3232 </r>
       <r>    44.3877     0.5907    11.4319 </r>
       <r>    44.5716     0.2333    11.4748 </r>
       <r>    44.7556     0.0236    11.4791 </r>
       <r>    44.9395     0.0923    11.4961 </r>
       <r>    45.1235     0.0482    11.5050 </r>
       <r>    45.3074     0.1555    11.5336 </r>
       <r>    45.4914     0.2660    11.5825 </r>
       <r>    45.6753     0.2508    11.6287 </r>
       <r>    45.8593     0.0669    11.6410 </r>
       <r>    46.0432    -0.0110    11.6389 </r>
       <r>    46.2272    -0.0124    11.6367 </r>
       <r>    46.4111     0.0614    11.6479 </r>
       <r>    46.5951     0.2898    11.7013 </r>
       <r>    46.7790     0.1240    11.7241 </r>
       <r>    46.9630    -0.0190    11.7206 </r>
       <r>    47.1470     0.1032    11.7396 </r>
       <r>    47.3309     0.2797    11.7910 </r>
       <r>    47.5149     0.2161    11.8308 </r>
       <r>    47.6988     0.0218    11.8348 </r>
       <r>    47.8828    -0.0089    11.8331 </r>
       <r>    48.0667    -0.0124    11.8309 </r>
       <r>    48.2507     0.0862    11.8467 </r>
       <r>    48.4346     0.2929    11.9006 </r>
       <r>    48.6186     0.0992    11.9188 </r>
       <r>    48.8025     0.0719    11.9321 </r>
       <r>    48.9865     0.0706    11.9451 </r>
       <r>    49.1704    -0.0016    11.9448 </r>
       <r>    49.3544    -0.0017    11.9445 </r>
       <r>    49.5383    -0.0000    11.9444 </r>
       <r>    49.7223    -0.0000    11.9444 </r>
       <r>    49.9062    -0.0000    11.9444 </r>
       <r>    50.0902    -0.0000    11.9444 </r>
       <r>    50.2741    -0.0000    11.9444 </r>
       <r>    50.4581    -0.0000    11.9444 </r>
       <r>    50.6420    -0.0000    11.9444 </r>
       <r>    50.8260    -0.0000    11.9444 </r>
       <r>    51.0099    -0.0010    11.9443 </r>
       <r>    51.1939    -0.0042    11.9435 </r>
       <r>    51.3779     0.0518    11.9530 </r>
       <r>    51.5618     0.0926    11.9700 </r>
       <r>    51.7458     0.0505    11.9793 </r>
       <r>    51.9297     0.0994    11.9976 </r>
       <r>    52.1137     0.0171    12.0008 </r>
       <r>    52.2976    -0.0039    12.0000 </r>
       <r>    52.4816    -0.0002    12.0000 </r>
       <r>    52.6655    -0.0000    12.0000 </r>
       <r>    52.8495    -0.0000    12.0000 </r>
       <r>    53.0334    -0.0000    12.0000 </r>
       <r>    53.2174    -0.0000    12.0000 </r>
       <r>    53.4013     0.0000    12.0000 </r>
       <r>    53.5853     0.0000    12.0000 </r>
       <r>    53.7692     0.0000    12.0000 </r>
       <r>    53.9532     0.0000    12.0000 </r>
       <r>    54.1371     0.0000    12.0000 </r>
       <r>    54.3211     0.0000    12.0000 </r>
      </set>
     </set>
    </array>
   </total>
  </dos>
 </calculation>
 <structure name="finalpos" >
  <crystal>
   <varray name="basis" >
    <v>       0.00000000       1.75500000       1.75500000 </v>
    <v>       1.75500000       0.00000000       1.75500000 </v>
    <v>       1.75500000       1.75500000       0.00000000 </v>
   </varray>
   <i name="volume">     10.81088775 </i>
   <varray name="rec_basis" >
    <v>      -0.28490028       0.28490028       0.28490028 </v>
    <v>       0.28490028      -0.28490028       0.28490028 </v>
    <v>       0.28490028       0.28490028      -0.28490028 </v>
   </varray>
  </crystal>
  <varray name="positions" >
   <v>       0.00000000       0.00000000       0.00000000 </v>
  </varray>
 </structure>
</modeling>
