   2   2   0   0
  0.1579990E+02  0.2760000E-09  0.2760000E-09  0.4790000E-09  0.5000000E-15
  1.000000000000000E-004
  CAR 
 Pt-hcc                                  
     35.85401381    -45.37093051  301     11.12263162      1.00000000
    -45.371  0.0000E+00  0.0000E+00
    -45.100  0.0000E+00  0.0000E+00
    -44.829  0.0000E+00  0.0000E+00
    -44.559  0.0000E+00  0.0000E+00
    -44.288  0.0000E+00  0.0000E+00
    -44.017  0.0000E+00  0.0000E+00
    -43.746  0.0000E+00  0.0000E+00
    -43.476  0.0000E+00  0.0000E+00
    -43.205  0.0000E+00  0.0000E+00
    -42.934  0.0000E+00  0.0000E+00
    -42.663  0.0000E+00  0.0000E+00
    -42.393  0.0000E+00  0.0000E+00
    -42.122  0.0000E+00  0.0000E+00
    -41.851  0.1059E-06  0.2866E-07
    -41.580  0.6770E+01  0.1833E+01
    -41.310  0.2425E+02  0.8399E+01
    -41.039  0.1330E+02  0.1200E+02
    -40.768  0.1721E-04  0.1200E+02
    -40.497  0.0000E+00  0.1200E+02
    -40.227  0.0000E+00  0.1200E+02
    -39.956  0.0000E+00  0.1200E+02
    -39.685  0.0000E+00  0.1200E+02
    -39.414  0.0000E+00  0.1200E+02
    -39.144  0.0000E+00  0.1200E+02
    -38.873  0.0000E+00  0.1200E+02
    -38.602  0.0000E+00  0.1200E+02
    -38.331  0.0000E+00  0.1200E+02
    -38.061  0.0000E+00  0.1200E+02
    -37.790  0.0000E+00  0.1200E+02
    -37.519  0.0000E+00  0.1200E+02
    -37.248  0.0000E+00  0.1200E+02
    -36.978  0.0000E+00  0.1200E+02
    -36.707  0.0000E+00  0.1200E+02
    -36.436  0.0000E+00  0.1200E+02
    -36.165  0.0000E+00  0.1200E+02
    -35.895  0.0000E+00  0.1200E+02
    -35.624  0.0000E+00  0.1200E+02
    -35.353  0.0000E+00  0.1200E+02
    -35.082  0.0000E+00  0.1200E+02
    -34.812  0.0000E+00  0.1200E+02
    -34.541  0.0000E+00  0.1200E+02
    -34.270  0.0000E+00  0.1200E+02
    -33.999  0.0000E+00  0.1200E+02
    -33.729  0.0000E+00  0.1200E+02
    -33.458  0.0000E+00  0.1200E+02
    -33.187  0.0000E+00  0.1200E+02
    -32.916  0.0000E+00  0.1200E+02
    -32.646  0.0000E+00  0.1200E+02
    -32.375  0.0000E+00  0.1200E+02
    -32.104  0.0000E+00  0.1200E+02
    -31.833  0.0000E+00  0.1200E+02
    -31.563  0.0000E+00  0.1200E+02
    -31.292  0.0000E+00  0.1200E+02
    -31.021  0.0000E+00  0.1200E+02
    -30.750  0.0000E+00  0.1200E+02
    -30.480  0.0000E+00  0.1200E+02
    -30.209  0.0000E+00  0.1200E+02
    -29.938  0.0000E+00  0.1200E+02
    -29.667  0.0000E+00  0.1200E+02
    -29.397  0.0000E+00  0.1200E+02
    -29.126  0.0000E+00  0.1200E+02
    -28.855  0.0000E+00  0.1200E+02
    -28.584  0.0000E+00  0.1200E+02
    -28.314  0.0000E+00  0.1200E+02
    -28.043  0.0000E+00  0.1200E+02
    -27.772  0.0000E+00  0.1200E+02
    -27.501  0.0000E+00  0.1200E+02
    -27.231  0.0000E+00  0.1200E+02
    -26.960  0.0000E+00  0.1200E+02
    -26.689  0.0000E+00  0.1200E+02
    -26.418  0.0000E+00  0.1200E+02
    -26.148  0.0000E+00  0.1200E+02
    -25.877  0.0000E+00  0.1200E+02
    -25.606  0.0000E+00  0.1200E+02
    -25.335  0.0000E+00  0.1200E+02
    -25.065  0.0000E+00  0.1200E+02
    -24.794  0.0000E+00  0.1200E+02
    -24.523  0.0000E+00  0.1200E+02
    -24.252  0.0000E+00  0.1200E+02
    -23.982  0.0000E+00  0.1200E+02
    -23.711  0.0000E+00  0.1200E+02
    -23.440  0.0000E+00  0.1200E+02
    -23.169  0.0000E+00  0.1200E+02
    -22.899  0.0000E+00  0.1200E+02
    -22.628  0.0000E+00  0.1200E+02
    -22.357  0.0000E+00  0.1200E+02
    -22.086  0.0000E+00  0.1200E+02
    -21.816  0.0000E+00  0.1200E+02
    -21.545  0.0000E+00  0.1200E+02
    -21.274  0.0000E+00  0.1200E+02
    -21.003  0.0000E+00  0.1200E+02
    -20.733  0.0000E+00  0.1200E+02
    -20.462  0.0000E+00  0.1200E+02
    -20.191  0.0000E+00  0.1200E+02
    -19.920  0.0000E+00  0.1200E+02
    -19.650  0.0000E+00  0.1200E+02
    -19.379  0.0000E+00  0.1200E+02
    -19.108  0.0000E+00  0.1200E+02
    -18.837  0.0000E+00  0.1200E+02
    -18.567  0.0000E+00  0.1200E+02
    -18.296  0.0000E+00  0.1200E+02
    -18.025  0.0000E+00  0.1200E+02
    -17.754  0.0000E+00  0.1200E+02
    -17.484  0.0000E+00  0.1200E+02
    -17.213  0.0000E+00  0.1200E+02
    -16.942  0.0000E+00  0.1200E+02
    -16.671  0.0000E+00  0.1200E+02
    -16.401  0.0000E+00  0.1200E+02
    -16.130  0.0000E+00  0.1200E+02
    -15.859  0.0000E+00  0.1200E+02
    -15.588  0.0000E+00  0.1200E+02
    -15.318  0.0000E+00  0.1200E+02
    -15.047  0.0000E+00  0.1200E+02
    -14.776  0.0000E+00  0.1200E+02
    -14.505  0.0000E+00  0.1200E+02
    -14.235  0.0000E+00  0.1200E+02
    -13.964  0.0000E+00  0.1200E+02
    -13.693  0.0000E+00  0.1200E+02
    -13.422  0.0000E+00  0.1200E+02
    -13.152  0.0000E+00  0.1200E+02
    -12.881  0.0000E+00  0.1200E+02
    -12.610  0.0000E+00  0.1200E+02
    -12.339  0.0000E+00  0.1200E+02
    -12.069  0.0000E+00  0.1200E+02
    -11.798  0.0000E+00  0.1200E+02
    -11.527  0.0000E+00  0.1200E+02
    -11.256  0.0000E+00  0.1200E+02
    -10.986  0.0000E+00  0.1200E+02
    -10.715  0.0000E+00  0.1200E+02
    -10.444  0.0000E+00  0.1200E+02
    -10.173  0.0000E+00  0.1200E+02
     -9.903  0.0000E+00  0.1200E+02
     -9.632  0.0000E+00  0.1200E+02
     -9.361  0.0000E+00  0.1200E+02
     -9.090  0.0000E+00  0.1200E+02
     -8.820  0.0000E+00  0.1200E+02
     -8.549  0.0000E+00  0.1200E+02
     -8.278  0.0000E+00  0.1200E+02
     -8.007  0.0000E+00  0.1200E+02
     -7.737  0.0000E+00  0.1200E+02
     -7.466  0.0000E+00  0.1200E+02
     -7.195  0.0000E+00  0.1200E+02
     -6.924  0.0000E+00  0.1200E+02
     -6.654  0.0000E+00  0.1200E+02
     -6.383  0.0000E+00  0.1200E+02
     -6.112  0.0000E+00  0.1200E+02
     -5.841  0.0000E+00  0.1200E+02
     -5.571  0.0000E+00  0.1200E+02
     -5.300  0.0000E+00  0.1200E+02
     -5.029  0.0000E+00  0.1200E+02
     -4.758  0.0000E+00  0.1200E+02
     -4.488  0.0000E+00  0.1200E+02
     -4.217  0.0000E+00  0.1200E+02
     -3.946  0.0000E+00  0.1200E+02
     -3.675  0.0000E+00  0.1200E+02
     -3.405  0.0000E+00  0.1200E+02
     -3.134  0.0000E+00  0.1200E+02
     -2.863  0.0000E+00  0.1200E+02
     -2.592  0.0000E+00  0.1200E+02
     -2.322  0.0000E+00  0.1200E+02
     -2.051  0.0000E+00  0.1200E+02
     -1.780  0.0000E+00  0.1200E+02
     -1.509  0.0000E+00  0.1200E+02
     -1.239  0.0000E+00  0.1200E+02
     -0.968  0.0000E+00  0.1200E+02
     -0.697  0.0000E+00  0.1200E+02
     -0.426  0.0000E+00  0.1200E+02
     -0.156  0.0000E+00  0.1200E+02
      0.115  0.0000E+00  0.1200E+02
      0.386  0.0000E+00  0.1200E+02
      0.657  0.0000E+00  0.1200E+02
      0.927  0.0000E+00  0.1200E+02
      1.198  0.4955E-12  0.1200E+02
      1.469  0.4467E-02  0.1200E+02
      1.740  0.7273E-01  0.1202E+02
      2.010  0.7882E-01  0.1204E+02
      2.281  0.1354E+00  0.1208E+02
      2.552  0.1194E+00  0.1211E+02
      2.823  0.2225E+00  0.1217E+02
      3.093  0.2153E+00  0.1223E+02
      3.364  0.2576E+00  0.1230E+02
      3.635  0.2813E+00  0.1238E+02
      3.906  0.4279E+00  0.1249E+02
      4.176  0.3714E+00  0.1259E+02
      4.447  0.9536E+00  0.1285E+02
      4.718  0.1727E+01  0.1332E+02
      4.989  0.2201E+01  0.1391E+02
      5.259  0.2250E+01  0.1452E+02
      5.530  0.2406E+01  0.1517E+02
      5.801  0.1767E+01  0.1565E+02
      6.072  0.3072E+01  0.1648E+02
      6.342  0.3516E+01  0.1744E+02
      6.613  0.2463E+01  0.1810E+02
      6.884  0.3379E+01  0.1902E+02
      7.155  0.2660E+01  0.1974E+02
      7.425  0.2757E+01  0.2048E+02
      7.696  0.3877E+01  0.2153E+02
      7.967  0.3286E+01  0.2242E+02
      8.238  0.3707E+01  0.2343E+02
      8.508  0.3466E+01  0.2437E+02
      8.779  0.3555E+01  0.2533E+02
      9.050  0.2583E+01  0.2603E+02
      9.321  0.2527E+01  0.2671E+02
      9.591  0.2598E+01  0.2742E+02
      9.862  0.2528E+01  0.2810E+02
     10.133  0.1799E+01  0.2859E+02
     10.404  0.2891E+01  0.2937E+02
     10.674  0.3138E+01  0.3022E+02
     10.945  0.3601E+01  0.3119E+02
     11.216  0.4256E+01  0.3235E+02
     11.487  0.2803E+01  0.3311E+02
     11.757  0.5113E+00  0.3324E+02
     12.028  0.8255E+00  0.3347E+02
     12.299  0.9316E+00  0.3372E+02
     12.570  0.2675E+00  0.3379E+02
     12.840  0.3755E+00  0.3389E+02
     13.111  0.4900E+00  0.3403E+02
     13.382  0.1063E+01  0.3431E+02
     13.653  0.3977E+00  0.3442E+02
     13.923  0.3511E+00  0.3452E+02
     14.194  0.4702E+00  0.3464E+02
     14.465  0.5978E+00  0.3481E+02
     14.736  0.6439E+00  0.3498E+02
     15.006  0.2806E+00  0.3506E+02
     15.277  0.7586E+00  0.3526E+02
     15.548  0.3918E+00  0.3537E+02
     15.819  0.6058E+00  0.3553E+02
     16.089  0.5029E+00  0.3567E+02
     16.360  0.5973E+00  0.3583E+02
     16.631  0.3306E+00  0.3592E+02
     16.902  0.5166E+00  0.3606E+02
     17.172  0.1042E+00  0.3609E+02
     17.443  0.3989E+00  0.3620E+02
     17.714  0.9583E+00  0.3646E+02
     17.985  0.9720E+00  0.3672E+02
     18.255  0.8756E+00  0.3696E+02
     18.526  0.8737E+00  0.3719E+02
     18.797  0.6350E+00  0.3736E+02
     19.068  0.5936E+00  0.3752E+02
     19.338  0.7344E+00  0.3772E+02
     19.609  0.6574E+00  0.3790E+02
     19.880  0.9142E+00  0.3815E+02
     20.151  0.7833E+00  0.3836E+02
     20.421  0.5021E+00  0.3850E+02
     20.692  0.6977E+00  0.3869E+02
     20.963  0.8443E+00  0.3891E+02
     21.234  0.3913E+00  0.3902E+02
     21.504  0.6407E+00  0.3919E+02
     21.775  0.7370E+00  0.3939E+02
     22.046  0.8105E+00  0.3961E+02
     22.317  0.6537E+00  0.3979E+02
     22.587  0.6968E+00  0.3998E+02
     22.858  0.6597E+00  0.4016E+02
     23.129  0.4350E+00  0.4028E+02
     23.400  0.7534E+00  0.4048E+02
     23.670  0.8542E+00  0.4071E+02
     23.941  0.1058E+01  0.4100E+02
     24.212  0.7670E+00  0.4120E+02
     24.483  0.7915E+00  0.4142E+02
     24.753  0.1095E+01  0.4172E+02
     25.024  0.1204E+01  0.4204E+02
     25.295  0.1349E+01  0.4241E+02
     25.566  0.1399E+01  0.4279E+02
     25.836  0.1398E+01  0.4316E+02
     26.107  0.1913E+01  0.4368E+02
     26.378  0.1164E+01  0.4400E+02
     26.649  0.1471E+01  0.4440E+02
     26.919  0.1123E+01  0.4470E+02
     27.190  0.1505E+01  0.4511E+02
     27.461  0.1666E+01  0.4556E+02
     27.732  0.1232E+01  0.4589E+02
     28.002  0.1365E+01  0.4626E+02
     28.273  0.1484E+01  0.4666E+02
     28.544  0.8112E+00  0.4688E+02
     28.815  0.7252E+00  0.4708E+02
     29.085  0.6146E+00  0.4725E+02
     29.356  0.5574E+00  0.4740E+02
     29.627  0.5815E+00  0.4755E+02
     29.898  0.4786E+00  0.4768E+02
     30.168  0.2310E+00  0.4775E+02
     30.439  0.4724E+00  0.4787E+02
     30.710  0.9927E-01  0.4790E+02
     30.981  0.1672E+00  0.4795E+02
     31.251  0.1425E+00  0.4798E+02
     31.522  0.3390E-01  0.4799E+02
     31.793  0.1394E-01  0.4800E+02
     32.064  0.1940E-02  0.4800E+02
     32.334  0.7517E-02  0.4800E+02
     32.605  0.0000E+00  0.4800E+02
     32.876  0.0000E+00  0.4800E+02
     33.147  0.0000E+00  0.4800E+02
     33.417  0.0000E+00  0.4800E+02
     33.688  0.0000E+00  0.4800E+02
     33.959  0.0000E+00  0.4800E+02
     34.230  0.0000E+00  0.4800E+02
     34.500  0.0000E+00  0.4800E+02
     34.771  0.0000E+00  0.4800E+02
     35.042  0.0000E+00  0.4800E+02
     35.313  0.0000E+00  0.4800E+02
     35.583  0.0000E+00  0.4800E+02
     35.854  0.0000E+00  0.4800E+02
