    2    2    1    1
  0.1579990E+02  0.2760000E-09  0.2760000E-09  0.4790000E-09  0.5000000E-15
  1.000000000000000E-004
  CAR 
 Pt-hcc                                  
     32    144     24
 
  0.0000000E+00  0.0000000E+00  0.0000000E+00  0.5102041E-03
      1        -41.488560   1.000000
      2        -41.299428   1.000000
      3        -41.299427   1.000000
      4        -41.259282   1.000000
      5        -41.259281   1.000000
      6        -41.159892   1.000000
      7          1.421455   1.000000
      8          4.070710   1.000000
      9          7.193957   1.000000
     10          7.719788   1.000000
     11          7.719788   1.000000
     12          8.084773   1.000000
     13          8.084774   1.000000
     14          9.339009   1.000000
     15          9.339009   1.000000
     16         10.413848   1.000000
     17         10.915989   1.000000
     18         10.915989   1.000000
     19         15.796947   0.000000
     20         26.235595   0.000000
     21         26.806294   0.000000
     22         28.385922   0.000000
     23         32.161970   0.000000
     24         32.161971   0.000000
 
  0.7142857E-01 -0.6938894E-17  0.0000000E+00  0.3061224E-02
      1        -41.482213   1.000000
      2        -41.317477   1.000000
      3        -41.304110   1.000000
      4        -41.278193   1.000000
      5        -41.262869   1.000000
      6        -41.161095   1.000000
      7          1.607532   1.000000
      8          4.241726   1.000000
      9          7.178360   1.000000
     10          7.710252   1.000000
     11          7.861979   1.000000
     12          7.995721   1.000000
     13          8.219802   1.000000
     14          9.095386   1.000000
     15          9.248530   1.000000
     16          9.523091   1.000000
     17         10.951090   0.999999
     18         12.085762   0.000000
     19         15.778287   0.000000
     20         26.491843   0.000000
     21         27.084342   0.000000
     22         28.611470   0.000000
     23         31.097520   0.000000
     24         31.280533   0.000000
 
  0.1428571E+00 -0.1387779E-16  0.0000000E+00  0.3061224E-02
      1        -41.464279   1.000000
      2        -41.369887   1.000000
      3        -41.331295   1.000000
      4        -41.319279   1.000000
      5        -41.273717   1.000000
      6        -41.165033   1.000000
      7          2.141982   1.000000
      8          4.700071   1.000000
      9          7.029739   1.000000
     10          7.658568   1.000000
     11          7.981660   1.000000
     12          8.150452   1.000000
     13          8.275132   1.000000
     14          8.611639   1.000000
     15          9.019986   1.000000
     16          9.095946   1.000000
     17         11.023723   0.997425
     18         13.586064   0.000000
     19         15.730456   0.000000
     20         26.608809   0.000000
     21         27.787025   0.000000
     22         28.622113   0.000000
     23         29.638953   0.000000
     24         29.996354   0.000000
 
  0.2142857E+00 -0.1387779E-16  0.0000000E+00  0.3061224E-02
      1        -41.445896   1.000000
      2        -41.437816   1.000000
      3        -41.407365   1.000000
      4        -41.340667   1.000000
      5        -41.289441   1.000000
      6        -41.172459   1.000000
      7          2.940920   1.000000
      8          5.197502   1.000000
      9          6.927584   1.000000
     10          7.220768   1.000000
     11          7.392214   1.000000
     12          8.458221   1.000000
     13          8.726196   1.000000
     14          8.733257   1.000000
     15          8.922163   1.000000
     16          9.220846   1.000000
     17         11.088163   0.835201
     18         15.159411   0.000000
     19         15.692693   0.000000
     20         24.662117   0.000000
     21         27.786993   0.000000
     22         27.880815   0.000000
     23         29.323943   0.000000
     24         29.343579   0.000000
 
  0.2857143E+00  0.0000000E+00  0.0000000E+00  0.3061224E-02
      1        -41.529688   1.000000
      2        -41.490566   1.000000
      3        -41.404795   1.000000
      4        -41.364183   1.000000
      5        -41.307310   1.000000
      6        -41.183661   1.000000
      7          3.815558   1.000000
      8          5.279746   1.000000
      9          6.468609   1.000000
     10          7.156208   1.000000
     11          7.422919   1.000000
     12          8.359183   1.000000
     13          8.453481   1.000000
     14          9.276987   1.000000
     15          9.728519   1.000000
     16          9.971011   1.000000
     17         11.125921   0.462938
     18         15.774266   0.000000
     19         16.741037   0.000000
     20         21.983828   0.000000
     21         26.175265   0.000000
     22         26.626033   0.000000
     23         28.624105   0.000000
     24         29.244369   0.000000
 
  0.3571429E+00  0.2775558E-16  0.0000000E+00  0.3061224E-02
      1        -41.605356   1.000000
      2        -41.564527   1.000000
      3        -41.385133   1.000000
      4        -41.370723   1.000000
      5        -41.324359   1.000000
      6        -41.199063   1.000000
      7          4.450564   1.000000
      8          5.064133   1.000000
      9          5.918130   1.000000
     10          7.400878   1.000000
     11          8.041776   1.000000
     12          8.052405   1.000000
     13          8.224618   1.000000
     14         10.466135   1.000000
     15         10.558253   1.000000
     16         10.745266   1.000000
     17         11.139729   0.314341
     18         16.184918   0.000000
     19         18.233415   0.000000
     20         19.281214   0.000000
     21         24.667769   0.000000
     22         25.399054   0.000000
     23         25.570430   0.000000
     24         28.340613   0.000000
 
  0.4285714E+00 -0.2775558E-16  0.0000000E+00  0.3061224E-02
      1        -41.657469   1.000000
      2        -41.614985   1.000000
      3        -41.399455   1.000000
      4        -41.341856   1.000000
      5        -41.335820   1.000000
      6        -41.214402   1.000000
      7          4.695254   1.000000
      8          4.867843   1.000000
      9          5.582674   1.000000
     10          7.851505   1.000000
     11          7.900250   1.000000
     12          8.076915   1.000000
     13          8.469360   1.000000
     14         11.141302   0.298722
     15         11.195634   0.019470
     16         11.377444   0.000000
     17         12.013312   0.000000
     18         16.487595   0.000000
     19         17.445759   0.000000
     20         19.443968   0.000000
     21         22.408122   0.000000
     22         23.576160   0.000000
     23         24.756405   0.000000
     24         27.543583   0.000000
 
  0.5000000E+00  0.0000000E+00  0.0000000E+00  0.1530612E-02
      1        -41.676331   1.000000
      2        -41.633553   1.000000
      3        -41.404895   1.000000
      4        -41.339994   1.000000
      5        -41.329687   1.000000
      6        -41.222426   1.000000
      7          4.729587   1.000000
      8          4.804077   1.000000
      9          5.469771   1.000000
     10          7.781720   1.000000
     11          8.025760   1.000000
     12          8.208467   1.000000
     13          8.545749   1.000000
     14         11.140229   0.309334
     15         11.434059   0.000000
     16         11.634002   0.000000
     17         13.400257   0.000000
     18         14.878468   0.000000
     19         18.401125   0.000000
     20         19.961856   0.000000
     21         20.634202   0.000000
     22         23.166595   0.000000
     23         24.399824   0.000000
     24         27.242316   0.000000
 
  0.7142857E-01  0.7142857E-01  0.0000000E+00  0.3061224E-02
      1        -41.470155   1.000000
      2        -41.350970   1.000000
      3        -41.324334   1.000000
      4        -41.304703   1.000000
      5        -41.271948   1.000000
      6        -41.163694   1.000000
      7          1.968843   1.000000
      8          4.561886   1.000000
      9          7.073053   1.000000
     10          7.773578   1.000000
     11          7.827873   1.000000
     12          8.154678   1.000000
     13          8.465205   1.000000
     14          8.507832   1.000000
     15          8.905301   1.000000
     16          9.344716   1.000000
     17         10.983742   0.999957
     18         13.180433   0.000000
     19         15.745261   0.000000
     20         26.801656   0.000000
     21         27.598676   0.000000
     22         28.493811   0.000000
     23         30.206568   0.000000
     24         30.318206   0.000000
 
  0.1428571E+00  0.7142857E-01  0.0000000E+00  0.6122449E-02
      1        -41.448283   1.000000
      2        -41.411986   1.000000
      3        -41.382912   1.000000
      4        -41.329741   1.000000
      5        -41.288108   1.000000
      6        -41.169676   1.000000
      7          2.644662   1.000000
      8          5.091968   1.000000
      9          6.843193   1.000000
     10          7.545857   1.000000
     11          7.577006   1.000000
     12          8.075077   1.000000
     13          8.546818   1.000000
     14          8.723597   1.000000
     15          9.071796   1.000000
     16          9.132142   1.000000
     17         11.018888   0.998329
     18         14.617485   0.000000
     19         15.704625   0.000000
     20         25.909978   0.000000
     21         27.252283   0.000000
     22         28.282453   0.000000
     23         29.093714   0.000000
     24         29.858250   0.000000
 
  0.2142857E+00  0.7142857E-01  0.0000000E+00  0.6122449E-02
      1        -41.489771   1.000000
      2        -41.457596   1.000000
      3        -41.418057   1.000000
      4        -41.356568   1.000000
      5        -41.307511   1.000000
      6        -41.178990   1.000000
      7          3.514798   1.000000
      8          5.449266   1.000000
      9          6.787917   1.000000
     10          6.852080   1.000000
     11          7.344775   1.000000
     12          8.223947   1.000000
     13          8.633189   1.000000
     14          8.814061   1.000000
     15          9.492292   1.000000
     16          9.850604   1.000000
     17         11.045708   0.985212
     18         15.735703   0.000000
     19         16.163652   0.000000
     20         23.345639   0.000000
     21         25.961624   0.000000
     22         27.330793   0.000000
     23         29.348214   0.000000
     24         29.842162   0.000000
 
  0.2857143E+00  0.7142857E-01  0.0000000E+00  0.6122449E-02
      1        -41.568047   1.000000
      2        -41.531877   1.000000
      3        -41.384240   1.000000
      4        -41.382454   1.000000
      5        -41.326617   1.000000
      6        -41.192282   1.000000
      7          4.324730   1.000000
      8          5.322179   1.000000
      9          6.167999   1.000000
     10          7.147445   1.000000
     11          7.633688   1.000000
     12          7.973422   1.000000
     13          8.471356   1.000000
     14          9.459896   1.000000
     15         10.314499   1.000000
     16         10.784043   1.000000
     17         11.055070   0.971993
     18         16.012409   0.000000
     19         17.707712   0.000000
     20         20.602705   0.000000
     21         24.418900   0.000000
     22         26.207578   0.000000
     23         27.272009   0.000000
     24         28.728958   0.000000
 
  0.3571429E+00  0.7142857E-01  0.0000000E+00  0.6122449E-02
      1        -41.631407   1.000000
      2        -41.590910   1.000000
      3        -41.403031   1.000000
      4        -41.352034   1.000000
      5        -41.342226   1.000000
      6        -41.208564   1.000000
      7          4.765817   1.000000
      8          5.084282   1.000000
      9          5.743431   1.000000
     10          7.592937   1.000000
     11          7.823043   1.000000
     12          8.172771   1.000000
     13          8.173863   1.000000
     14         10.461637   1.000000
     15         10.988621   0.999925
     16         11.051906   0.977273
     17         11.853122   0.000000
     18         16.764948   0.000000
     19         17.995840   0.000000
     20         19.107358   0.000000
     21         22.798899   0.000000
     22         24.567197   0.000000
     23         25.282813   0.000000
     24         27.784323   0.000000
 
  0.4285714E+00  0.7142857E-01  0.0000000E+00  0.6122449E-02
      1        -41.665790   1.000000
      2        -41.623149   1.000000
      3        -41.414210   1.000000
      4        -41.350953   1.000000
      5        -41.329526   1.000000
      6        -41.222024   1.000000
      7          4.869014   1.000000
      8          4.954741   1.000000
      9          5.528077   1.000000
     10          7.776390   1.000000
     11          7.981915   1.000000
     12          8.114081   1.000000
     13          8.397218   1.000000
     14         11.046698   0.984132
     15         11.208271   0.007713
     16         11.349627   0.000000
     17         13.189047   0.000000
     18         15.625852   0.000000
     19         18.179838   0.000000
     20         20.063089   0.000000
     21         20.901048   0.000000
     22         23.139904   0.000000
     23         24.645713   0.000000
     24         27.203140   0.000000
 
  0.1428571E+00  0.1428571E+00  0.0000000E+00  0.3061224E-02
      1        -41.466915   1.000000
      2        -41.450853   1.000000
      3        -41.422775   1.000000
      4        -41.352079   1.000000
      5        -41.313459   1.000000
      6        -41.177422   1.000000
      7          3.416703   1.000000
      8          5.631379   1.000000
      9          6.543059   1.000000
     10          6.951200   1.000000
     11          7.421851   1.000000
     12          8.105065   1.000000
     13          8.290730   1.000000
     14          9.000543   1.000000
     15          9.457174   1.000000
     16          9.856715   1.000000
     17         10.966360   0.999995
     18         15.738874   0.000000
     19         15.977839   0.000000
     20         24.557505   0.000000
     21         24.889532   0.000000
     22         27.871734   0.000000
     23         29.125376   0.000000
     24         30.617005   0.000000
 
  0.2142857E+00  0.1428571E+00  0.0000000E+00  0.6122449E-02
      1        -41.531960   1.000000
      2        -41.514647   1.000000
      3        -41.391550   1.000000
      4        -41.383532   1.000000
      5        -41.340430   1.000000
      6        -41.189090   1.000000
      7          4.310614   1.000000
      8          5.826046   1.000000
      9          6.385733   1.000000
     10          6.570492   1.000000
     11          7.448207   1.000000
     12          7.797253   1.000000
     13          8.708706   1.000000
     14          8.761353   1.000000
     15         10.276244   1.000000
     16         10.849630   1.000000
     17         10.911631   1.000000
     18         15.990535   0.000000
     19         17.480440   0.000000
     20         21.889575   0.000000
     21         23.403592   0.000000
     22         26.911846   0.000000
     23         28.794842   0.000000
     24         28.921582   0.000000
 
  0.2857143E+00  0.1428571E+00  0.0000000E+00  0.6122449E-02
      1        -41.594989   1.000000
      2        -41.565434   1.000000
      3        -41.415399   1.000000
      4        -41.364091   1.000000
      5        -41.358504   1.000000
      6        -41.204883   1.000000
      7          5.008811   1.000000
      8          5.566079   1.000000
      9          5.949214   1.000000
     10          7.015190   1.000000
     11          7.636095   1.000000
     12          7.831491   1.000000
     13          8.350353   1.000000
     14          9.474577   1.000000
     15         10.865260   1.000000
     16         10.907604   1.000000
     17         11.966315   0.000000
     18         16.690643   0.000000
     19         18.986726   0.000000
     20         19.225921   0.000000
     21         21.951252   0.000000
     22         26.055400   0.000000
     23         26.131590   0.000000
     24         27.908120   0.000000
 
  0.3571429E+00  0.1428571E+00  0.0000000E+00  0.6122449E-02
      1        -41.638197   1.000000
      2        -41.598984   1.000000
      3        -41.437908   1.000000
      4        -41.379962   1.000000
      5        -41.329748   1.000000
      6        -41.221775   1.000000
      7          5.269058   1.000000
      8          5.356739   1.000000
      9          5.676494   1.000000
     10          7.622111   1.000000
     11          7.625490   1.000000
     12          8.012970   1.000000
     13          8.211962   1.000000
     14         10.316595   1.000000
     15         10.832610   1.000000
     16         11.177551   0.060169
     17         13.168007   0.000000
     18         16.817806   0.000000
     19         17.952376   0.000000
     20         20.286641   0.000000
     21         20.659250   0.000000
     22         23.818248   0.000000
     23         25.290400   0.000000
     24         27.074721   0.000000
 
  0.4285714E+00  0.1428571E+00  0.0000000E+00  0.3061224E-02
      1        -41.653644   1.000000
      2        -41.610859   1.000000
      3        -41.446019   1.000000
      4        -41.385414   1.000000
      5        -41.316529   1.000000
      6        -41.230645   1.000000
      7          5.258703   1.000000
      8          5.332813   1.000000
      9          5.584025   1.000000
     10          7.749060   1.000000
     11          7.767492   1.000000
     12          7.968760   1.000000
     13          8.306313   1.000000
     14         10.820586   1.000000
     15         10.845676   1.000000
     16         11.121600   0.511637
     17         14.256538   0.000000
     18         15.249945   0.000000
     19         19.307998   0.000000
     20         19.539377   0.000000
     21         20.882648   0.000000
     22         22.732029   0.000000
     23         24.887141   0.000000
     24         26.779484   0.000000
 
  0.2142857E+00  0.2142857E+00  0.0000000E+00  0.3061224E-02
      1        -41.567892   1.000000
      2        -41.562446   1.000000
      3        -41.419267   1.000000
      4        -41.379427   1.000000
      5        -41.361029   1.000000
      6        -41.203592   1.000000
      7          5.166016   1.000000
      8          6.056213   1.000000
      9          6.242684   1.000000
     10          6.252616   1.000000
     11          7.525207   1.000000
     12          7.718643   1.000000
     13          8.438834   1.000000
     14          9.067957   1.000000
     15         10.766436   1.000000
     16         10.900944   1.000000
     17         12.010655   0.000000
     18         16.673779   0.000000
     19         18.964473   0.000000
     20         20.143199   0.000000
     21         21.121703   0.000000
     22         26.499657   0.000000
     23         27.112697   0.000000
     24         27.924630   0.000000
 
  0.2857143E+00  0.2142857E+00  0.0000000E+00  0.6122449E-02
      1        -41.604980   1.000000
      2        -41.580244   1.000000
      3        -41.457822   1.000000
      4        -41.412947   1.000000
      5        -41.330018   1.000000
      6        -41.221424   1.000000
      7          5.687116   1.000000
      8          5.822533   1.000000
      9          5.990482   1.000000
     10          6.819031   1.000000
     11          7.433749   1.000000
     12          8.092413   1.000000
     13          8.113275   1.000000
     14          9.596388   1.000000
     15         10.654888   1.000000
     16         11.119489   0.535412
     17         13.216315   0.000000
     18         17.397609   0.000000
     19         18.475781   0.000000
     20         19.721026   0.000000
     21         20.462753   0.000000
     22         25.102051   0.000000
     23         26.027580   0.000000
     24         26.824439   0.000000
 
  0.3571429E+00  0.2142857E+00  0.0000000E+00  0.6122449E-02
      1        -41.624848   1.000000
      2        -41.585166   1.000000
      3        -41.485187   1.000000
      4        -41.431387   1.000000
      5        -41.306082   1.000000
      6        -41.238299   1.000000
      7          5.701029   1.000000
      8          5.806712   1.000000
      9          5.857404   1.000000
     10          7.369919   1.000000
     11          7.510877   1.000000
     12          7.772912   1.000000
     13          8.381073   1.000000
     14         10.227173   1.000000
     15         10.595001   1.000000
     16         10.965846   0.999995
     17         14.427997   0.000000
     18         15.916473   0.000000
     19         18.459966   0.000000
     20         20.097599   0.000000
     21         21.653149   0.000000
     22         23.151825   0.000000
     23         25.270827   0.000000
     24         26.334288   0.000000
 
  0.2857143E+00  0.2857143E+00  0.0000000E+00  0.3061224E-02
      1        -41.601814   1.000000
      2        -41.573358   1.000000
      3        -41.501842   1.000000
      4        -41.461135   1.000000
      5        -41.301697   1.000000
      6        -41.241747   1.000000
      7          5.767204   1.000000
      8          6.064512   1.000000
      9          6.409548   1.000000
     10          6.799398   1.000000
     11          7.391386   1.000000
     12          7.788887   1.000000
     13          8.405278   1.000000
     14          9.897655   1.000000
     15         10.500775   1.000000
     16         10.922489   1.000000
     17         14.388557   0.000000
     18         16.456216   0.000000
     19         17.931740   0.000000
     20         20.219514   0.000000
     21         21.990330   0.000000
     22         24.190194   0.000000
     23         25.341374   0.000000
     24         25.493254   0.000000
 
  0.3571429E+00  0.2857143E+00  0.0000000E+00  0.3061224E-02
      1        -41.596179   1.000000
      2        -41.554808   1.000000
      3        -41.531968   1.000000
      4        -41.483967   1.000000
      5        -41.283537   1.000000
      6        -41.256895   1.000000
      7          5.753449   1.000000
      8          6.271332   1.000000
      9          6.319430   1.000000
     10          6.999812   1.000000
     11          7.469161   1.000000
     12          7.582554   1.000000
     13          8.534491   1.000000
     14         10.243395   1.000000
     15         10.445374   1.000000
     16         10.596455   1.000000
     17         15.379299   0.000000
     18         15.495939   0.000000
     19         17.305055   0.000000
     20         21.915461   0.000000
     21         22.892732   0.000000
     22         23.013194   0.000000
     23         24.510403   0.000000
     24         24.570156   0.000000
 
  0.0000000E+00  0.0000000E+00  0.1000000E+00  0.1020408E-02
      1        -41.479812   1.000000
      2        -41.297624   1.000000
      3        -41.297623   1.000000
      4        -41.259973   1.000000
      5        -41.259972   1.000000
      6        -41.167742   1.000000
      7          1.507346   1.000000
      8          4.059260   1.000000
      9          7.172579   1.000000
     10          7.707319   1.000000
     11          7.707319   1.000000
     12          8.059984   1.000000
     13          8.059984   1.000000
     14          9.402623   1.000000
     15          9.402623   1.000000
     16          9.996927   1.000000
     17         10.899493   1.000000
     18         10.899494   1.000000
     19         16.373687   0.000000
     20         25.886316   0.000000
     21         27.192756   0.000000
     22         28.197666   0.000000
     23         31.752491   0.000000
     24         31.752491   0.000000
 
  0.7142857E-01 -0.6938894E-17  0.1000000E+00  0.6122449E-02
      1        -41.474256   1.000000
      2        -41.316288   1.000000
      3        -41.303272   1.000000
      4        -41.279458   1.000000
      5        -41.263895   1.000000
      6        -41.168578   1.000000
      7          1.692638   1.000000
      8          4.232275   1.000000
      9          7.168761   1.000000
     10          7.673223   1.000000
     11          7.846099   1.000000
     12          7.954923   1.000000
     13          8.193445   1.000000
     14          9.098468   1.000000
     15          9.317689   1.000000
     16          9.415336   1.000000
     17         10.930003   1.000000
     18         11.796462   0.000000
     19         16.401251   0.000000
     20         26.159379   0.000000
     21         27.448449   0.000000
     22         28.426474   0.000000
     23         30.681395   0.000000
     24         31.129289   0.000000
 
  0.1428571E+00 -0.1387779E-16  0.1000000E+00  0.6122449E-02
      1        -41.458614   1.000000
      2        -41.367585   1.000000
      3        -41.333173   1.000000
      4        -41.318150   1.000000
      5        -41.274842   1.000000
      6        -41.171700   1.000000
      7          2.223674   1.000000
      8          4.697182   1.000000
      9          7.044024   1.000000
     10          7.585970   1.000000
     11          7.770391   1.000000
     12          8.244428   1.000000
     13          8.256829   1.000000
     14          8.577447   1.000000
     15          9.114832   1.000000
     16          9.143520   1.000000
     17         10.993650   0.999868
     18         13.032696   0.000000
     19         16.524272   0.000000
     20         26.516126   0.000000
     21         27.741069   0.000000
     22         28.690473   0.000000
     23         29.496662   0.000000
     24         29.673565   0.000000
 
  0.2142857E+00 -0.1387779E-16  0.1000000E+00  0.6122449E-02
      1        -41.455177   1.000000
      2        -41.421859   1.000000
      3        -41.408343   1.000000
      4        -41.339332   1.000000
      5        -41.290740   1.000000
      6        -41.178065   1.000000
      7          3.012270   1.000000
      8          5.207466   1.000000
      9          6.943547   1.000000
     10          7.086180   1.000000
     11          7.384522   1.000000
     12          8.322913   1.000000
     13          8.672242   1.000000
     14          8.917659   1.000000
     15          9.017216   1.000000
     16          9.217615   1.000000
     17         11.048232   0.982326
     18         14.123458   0.000000
     19         16.893191   0.000000
     20         24.737681   0.000000
     21         27.687265   0.000000
     22         27.991920   0.000000
     23         28.767160   0.000000
     24         29.786459   0.000000
 
  0.2857143E+00  0.0000000E+00  0.1000000E+00  0.6122449E-02
      1        -41.531808   1.000000
      2        -41.492928   1.000000
      3        -41.396357   1.000000
      4        -41.362799   1.000000
      5        -41.309005   1.000000
      6        -41.187981   1.000000
      7          3.858746   1.000000
      8          5.298512   1.000000
      9          6.439208   1.000000
     10          7.080920   1.000000
     11          7.425009   1.000000
     12          8.390242   1.000000
     13          8.488300   1.000000
     14          9.333396   1.000000
     15          9.746381   1.000000
     16          9.942761   1.000000
     17         11.080599   0.882755
     18         14.897321   0.000000
     19         17.673765   0.000000
     20         22.133430   0.000000
     21         26.323946   0.000000
     22         26.507738   0.000000
     23         28.174308   0.000000
     24         29.749222   0.000000
 
  0.3571429E+00  0.2775558E-16  0.1000000E+00  0.6122449E-02
      1        -41.606475   1.000000
      2        -41.567049   1.000000
      3        -41.383616   1.000000
      4        -41.364270   1.000000
      5        -41.325859   1.000000
      6        -41.201517   1.000000
      7          4.438398   1.000000
      8          5.078575   1.000000
      9          5.978573   1.000000
     10          7.114952   1.000000
     11          7.984359   1.000000
     12          8.274977   1.000000
     13          8.438070   1.000000
     14         10.440728   1.000000
     15         10.567842   1.000000
     16         10.675446   1.000000
     17         11.117165   0.561437
     18         15.580808   0.000000
     19         18.478487   0.000000
     20         19.762238   0.000000
     21         24.819255   0.000000
     22         24.837297   0.000000
     23         26.032631   0.000000
     24         28.504075   0.000000
 
  0.4285714E+00 -0.2775558E-16  0.1000000E+00  0.6122449E-02
      1        -41.658472   1.000000
      2        -41.617740   1.000000
      3        -41.398041   1.000000
      4        -41.337396   1.000000
      5        -41.336953   1.000000
      6        -41.216150   1.000000
      7          4.638498   1.000000
      8          4.858263   1.000000
      9          5.713962   1.000000
     10          7.250780   1.000000
     11          8.132769   1.000000
     12          8.160752   1.000000
     13          8.915058   1.000000
     14         11.004856   0.999568
     15         11.208408   0.007631
     16         11.401618   0.000000
     17         11.936263   0.000000
     18         16.057445   0.000000
     19         17.419028   0.000000
     20         19.753213   0.000000
     21         22.441120   0.000000
     22         23.758213   0.000000
     23         24.908579   0.000000
     24         27.703540   0.000000
 
  0.5000000E+00  0.0000000E+00  0.1000000E+00  0.3061224E-02
      1        -41.676994   1.000000
      2        -41.635945   1.000000
      3        -41.403131   1.000000
      4        -41.341535   1.000000
      5        -41.324781   1.000000
      6        -41.223265   1.000000
      7          4.690598   1.000000