 vasp.6.3.2 27Jun22 (build Aug 12 2022 00:53:59) complex                        
  
 executed on               tv2STD date 2024.11.30  16:03:19
 running   24 mpi-ranks, with    1 threads/rank
 distrk:  each k-point on   24 cores,    1 groups
 distr:  one band on NCORE=   1 cores,   24 groups


--------------------------------------------------------------------------------------------------------


 INCAR:
   SYSTEM = Pt-hcc
   NWRITE = 2    write-flag
   ISTART = 0    job   : 0-new, 1-cont, 2-samecut
   ICHARG = 2    charge: 0-wave, 1-file, 2-atom, >10-const
   INIWAV = 1    electr: 0-lowe 1-rand  2-diag
   ENCUT = 450.0     energy cutoff in eV
   PREC = Accurate      normal | accurate
   ADDGRID = .FALSE.  (use fine grid)
   NELM = 100     number of ELM steps
   EDIFF = 1E-06    energy stopping-criterion for ELM
   LREAL = .FALSE.      real-space projection (.FALSE., .TRUE., On, Auto)
   ALGO = Normal     Normal, Fast, Very_Fast
   LWAVE = .FALSE.
   LCHARG = .FALSE.
   NSW = 0       max number of geometry steps
   IBRION = -1     ionic relax: 0-MD, 1-quasi-Newton, 2-CG, 3-Damped MD
   EDIFFG = -0.02  force (eV/A) stopping-criterion for geometry steps
   ISIF = 2     (1:force\=y stress\=trace only ions\=y shape\=n volume\=n)
   ISYM = 1     (1-use symmetry, 0-no symmetry)
   ISMEAR = 0     (-1-Fermi, 1-Methfessel/Paxton)
   SIGMA = 0.05   broadening in eV

 POTCAR:    PAW_PBE Pt_pv 12Dec2005               
 POTCAR:    PAW_PBE Pt_pv 12Dec2005               
   SHA256 =  e5abf7e8cd8db70d0153315afc5ad66b6e3eeee29cc2d5b91b16730957c1d208 Pt_pv/POTCAR          
   COPYR  = (c) Copyright 12Dec2005 Georg Kresse                                                    
   COPYR  = This file is part of the software VASP. Any use, copying, and all other rights are regul
   COPYR  = If you do not have a valid VASP license, you may not use, copy or distribute this file. 
   VRHFIN =Pt: 5ps1d9                                                                               
   LEXCH  = PE                                                                                      
   EATOM  =  2428.2504 eV,  178.4714 Ry                                                             
                                                                                                    
   TITEL  = PAW_PBE Pt_pv 12Dec2005                                                                 
   LULTRA =        F    use ultrasoft PP ?                                                          
   IUNSCR =        1    unscreen: 0-lin 1-nonlin 2-no                                               
   RPACOR =    2.000    partial core radius                                                         
   POMASS =  195.080; ZVAL   =   16.000    mass and valenz                                          
   RCORE  =    2.200    outmost cutoff radius                                                       
   RWIGS  =    2.200; RWIGS  =    1.164    wigner-seitz radius (au A)                               
   ENMAX  =  294.607; ENMIN  =  220.955 eV                                                          
   ICORE  =        3    local potential                                                             
   LCOR   =        T    correct aug charges                                                         
   LPAW   =        T    paw PP                                                                      
   EAUG   =  527.014                                                                                
   DEXC   =    0.000                                                                                
   RMAX   =    2.247    core radius for proj-oper                                                   
   RAUG   =    1.300    factor for augmentation sphere                                              
   RDEP   =    2.279    radius for radial grids                                                     
   RDEPT  =    1.878    core radius for aug-charge                                                  
                                                                                                    
   Atomic configuration                                                                             
   16 entries                                                                                       
     n  l   j            E        occ.                                                              
     1  0  0.50    -78401.1885   2.0000                                                             
     2  0  0.50    -13770.7750   2.0000                                                             
     2  1  1.50    -11931.0468   6.0000                                                             
     3  0  0.50     -3234.7234   2.0000                                                             
     3  1  1.50     -2699.2216   6.0000                                                             
     3  2  2.50     -2119.5714  10.0000                                                             
     4  0  0.50      -695.1528   2.0000                                                             
     4  1  1.50      -519.6034   6.0000                                                             
     4  2  2.50      -306.6786  10.0000                                                             
     4  3  3.50       -70.1041  14.0000                                                             
     5  0  0.50      -101.7747   2.0000                                                             
     5  1  1.50       -55.9873   6.0000                                                             
     6  1  1.50        -6.8029   0.0000                                                             
     5  2  2.50        -6.1423   9.0000                                                             
     6  0  0.50        -5.6573   1.0000                                                             
     5  3  2.50        -1.3606   0.0000                                                             
   Description                                                                                      
     l       E           TYP  RCUT    TYP  RCUT                                                     
     1    -55.9873477     23  2.000                                                                 
     1     27.2116520     23  2.000                                                                 
     2     -6.1423404     23  2.200                                                                 
     2     -4.6754623     23  2.200                                                                 
     0     -5.6573207     23  2.200                                                                 
     0     47.6203910     23  2.200                                                                 
     3      6.8029130     23  2.200                                                                 
  local pseudopotential read in
  partial core-charges read in
  partial kinetic energy density read in
  atomic valenz-charges read in
  non local Contribution for L=           1  read in
    real space projection operators read in
  non local Contribution for L=           1  read in
    real space projection operators read in
  non local Contribution for L=           2  read in
    real space projection operators read in
  non local Contribution for L=           2  read in
    real space projection operators read in
  non local Contribution for L=           0  read in
    real space projection operators read in
  non local Contribution for L=           0  read in
    real space projection operators read in
    PAW grid and wavefunctions read in
 
   number of l-projection  operators is LMAX  =           6
   number of lm-projection operators is LMMAX =          18
 
  PAW_PBE Pt_pv 12Dec2005               :
 energy of atom  1       EATOM=-2428.2504
 kinetic energy error for atom=    0.0356 (will be added to EATOM!!)
 
 
 POSCAR: Pt
  positions in cartesian coordinates
  No initial velocities read in
 exchange correlation table for  LEXCH =        8
   RHO(1)=    0.500       N(1)  =     2000
   RHO(2)=  100.500       N(2)  =     4000
 


--------------------------------------------------------------------------------------------------------


 ion  position               nearest neighbor table
   1  0.000  0.000  0.000-
   2  0.333  0.667  0.500-
 
  LATTYP: Found a hexagonal cell.
 ALAT       =     2.7600000000
 C/A-ratio  =     1.7355072464
  
  Lattice vectors:
  
 A1 = (   2.7600000000,   0.0000000000,   0.0000000000)
 A2 = (  -1.3800000000,   2.3902301144,   0.0000000000)
 A3 = (   0.0000000000,   0.0000000000,   4.7900000000)


Analysis of symmetry for initial positions (statically):
=====================================================================
 Subroutine PRICEL returns:
 Original cell was already a primitive cell.
 

 Routine SETGRP: Setting up the symmetry group for a 
 hexagonal supercell.


 Subroutine GETGRP returns: Found 24 space group operations
 (whereof 12 operations were pure point group operations)
 out of a pool of 24 trial point group operations.


The static configuration has the point symmetry D_3h.
 The point group associated with its full space group is D_6h.


Analysis of symmetry for dynamics (positions and initial velocities):
=====================================================================
 Subroutine PRICEL returns:
 Original cell was already a primitive cell.
 

 Routine SETGRP: Setting up the symmetry group for a 
 hexagonal supercell.


 Subroutine GETGRP returns: Found 24 space group operations
 (whereof 12 operations were pure point group operations)
 out of a pool of 24 trial point group operations.


The dynamic configuration has the point symmetry D_3h.
 The point group associated with its full space group is D_6h.


 Subroutine INISYM returns: Found 24 space group operations
 (whereof 12 operations are pure point group operations),
 and found     1 'primitive' translations


----------------------------------------------------------------------------------------

                                     Primitive cell                                     

  volume of cell :      31.5998

  direct lattice vectors                    reciprocal lattice vectors
     2.760000000  0.000000000  0.000000000     0.362318841  0.209184880  0.000000000
    -1.380000000  2.390230114  0.000000000     0.000000000  0.418369760  0.000000000
     0.000000000  0.000000000  4.790000000     0.000000000  0.000000000  0.208768267

  length of vectors
     2.760000000  2.760000000  4.790000000     0.418369760  0.418369760  0.208768267

  position of ions in fractional coordinates (direct lattice)
     0.000000000  0.000000000  0.000000000
     0.333333333  0.666666667  0.500000000

  ion indices of the primitive-cell ions
   primitive index   ion index
                 1           1
                 2           2

----------------------------------------------------------------------------------------

 
 
 KPOINTS: Automatic mesh                          

Automatic generation of k-mesh.
 Grid dimensions read from file:
 generate k-points for:   14   14   10

 Generating k-lattice:

  Cartesian coordinates                     Fractional coordinates (reciprocal lattice)
     0.025879917  0.014941777  0.000000000     0.071428571  0.000000000  0.000000000
     0.000000000  0.029883554  0.000000000     0.000000000  0.071428571  0.000000000
     0.000000000  0.000000000  0.020876827     0.000000000  0.000000000  0.100000000

  Length of vectors
     0.029883554  0.029883554  0.020876827

  Shift w.r.t. Gamma in fractional coordinates (k-lattice)
     0.000000000  0.000000000  0.000000000

 
 Subroutine IBZKPT returns following result:
 ===========================================
 
 Found    144 irreducible k-points:
 
 Following reciprocal coordinates:
            Coordinates               Weight
  0.000000  0.000000  0.000000      1.000000
  0.071429 -0.000000  0.000000      6.000000
  0.142857 -0.000000  0.000000      6.000000
  0.214286 -0.000000  0.000000      6.000000
  0.285714  0.000000  0.000000      6.000000
  0.357143  0.000000  0.000000      6.000000
  0.428571 -0.000000  0.000000      6.000000
  0.500000  0.000000  0.000000      3.000000
  0.071429  0.071429  0.000000      6.000000
  0.142857  0.071429  0.000000     12.000000
  0.214286  0.071429  0.000000     12.000000
  0.285714  0.071429  0.000000     12.000000
  0.357143  0.071429  0.000000     12.000000
  0.428571  0.071429  0.000000     12.000000
  0.142857  0.142857  0.000000      6.000000
  0.214286  0.142857  0.000000     12.000000
  0.285714  0.142857  0.000000     12.000000
  0.357143  0.142857  0.000000     12.000000
  0.428571  0.142857  0.000000      6.000000
  0.214286  0.214286  0.000000      6.000000
  0.285714  0.214286  0.000000     12.000000
  0.357143  0.214286  0.000000     12.000000
  0.285714  0.285714  0.000000      6.000000
  0.357143  0.285714  0.000000      6.000000
  0.000000  0.000000  0.100000      2.000000
  0.071429 -0.000000  0.100000     12.000000
  0.142857 -0.000000  0.100000     12.000000
  0.214286 -0.000000  0.100000     12.000000
  0.285714  0.000000  0.100000     12.000000
  0.357143  0.000000  0.100000     12.000000
  0.428571 -0.000000  0.100000     12.000000
  0.500000  0.000000  0.100000      6.000000
  0.071429  0.071429  0.100000     12.000000
  0.142857  0.071429  0.100000     24.000000
  0.214286  0.071429  0.100000     24.000000
  0.285714  0.071429  0.100000     24.000000
  0.357143  0.071429  0.100000     24.000000
  0.428571  0.071429  0.100000     24.000000
  0.142857  0.142857  0.100000     12.000000
  0.214286  0.142857  0.100000     24.000000
  0.285714  0.142857  0.100000     24.000000
  0.357143  0.142857  0.100000     24.000000
  0.428571  0.142857  0.100000     12.000000
  0.214286  0.214286  0.100000     12.000000
  0.285714  0.214286  0.100000     24.000000
  0.357143  0.214286  0.100000     24.000000
  0.285714  0.285714  0.100000     12.000000
  0.357143  0.285714  0.100000     12.000000
  0.000000  0.000000  0.200000      2.000000
  0.071429 -0.000000  0.200000     12.000000
  0.142857 -0.000000  0.200000     12.000000
  0.214286 -0.000000  0.200000     12.000000
  0.285714  0.000000  0.200000     12.000000
  0.357143  0.000000  0.200000     12.000000
  0.428571 -0.000000  0.200000     12.000000
  0.500000  0.000000  0.200000      6.000000
  0.071429  0.071429  0.200000     12.000000
  0.142857  0.071429  0.200000     24.000000
  0.214286  0.071429  0.200000     24.000000
  0.285714  0.071429  0.200000     24.000000
  0.357143  0.071429  0.200000     24.000000
  0.428571  0.071429  0.200000     24.000000
  0.142857  0.142857  0.200000     12.000000
  0.214286  0.142857  0.200000     24.000000
  0.285714  0.142857  0.200000     24.000000
  0.357143  0.142857  0.200000     24.000000
  0.428571  0.142857  0.200000     12.000000
  0.214286  0.214286  0.200000     12.000000
  0.285714  0.214286  0.200000     24.000000
  0.357143  0.214286  0.200000     24.000000
  0.285714  0.285714  0.200000     12.000000
  0.357143  0.285714  0.200000     12.000000
  0.000000  0.000000  0.300000      2.000000
  0.071429 -0.000000  0.300000     12.000000
  0.142857 -0.000000  0.300000     12.000000
  0.214286 -0.000000  0.300000     12.000000
  0.285714  0.000000  0.300000     12.000000
  0.357143  0.000000  0.300000     12.000000
  0.428571 -0.000000  0.300000     12.000000
  0.500000  0.000000  0.300000      6.000000
  0.071429  0.071429  0.300000     12.000000
  0.142857  0.071429  0.300000     24.000000
  0.214286  0.071429  0.300000     24.000000
  0.285714  0.071429  0.300000     24.000000
  0.357143  0.071429  0.300000     24.000000
  0.428571  0.071429  0.300000     24.000000
  0.142857  0.142857  0.300000     12.000000
  0.214286  0.142857  0.300000     24.000000
  0.285714  0.142857  0.300000     24.000000
  0.357143  0.142857  0.300000     24.000000
  0.428571  0.142857  0.300000     12.000000
  0.214286  0.214286  0.300000     12.000000
  0.285714  0.214286  0.300000     24.000000
  0.357143  0.214286  0.300000     24.000000
  0.285714  0.285714  0.300000     12.000000
  0.357143  0.285714  0.300000     12.000000
  0.000000  0.000000  0.400000      2.000000
  0.071429 -0.000000  0.400000     12.000000
  0.142857 -0.000000  0.400000     12.000000
  0.214286 -0.000000  0.400000     12.000000
  0.285714  0.000000  0.400000     12.000000
  0.357143  0.000000  0.400000     12.000000
  0.428571 -0.000000  0.400000     12.000000
  0.500000  0.000000  0.400000      6.000000
  0.071429  0.071429  0.400000     12.000000
  0.142857  0.071429  0.400000     24.000000
  0.214286  0.071429  0.400000     24.000000
  0.285714  0.071429  0.400000     24.000000
  0.357143  0.071429  0.400000     24.000000
  0.428571  0.071429  0.400000     24.000000
  0.142857  0.142857  0.400000     12.000000
  0.214286  0.142857  0.400000     24.000000
  0.285714  0.142857  0.400000     24.000000
  0.357143  0.142857  0.400000     24.000000
  0.428571  0.142857  0.400000     12.000000
  0.214286  0.214286  0.400000     12.000000
  0.285714  0.214286  0.400000     24.000000
  0.357143  0.214286  0.400000     24.000000
  0.285714  0.285714  0.400000     12.000000
  0.357143  0.285714  0.400000     12.000000
  0.000000  0.000000  0.500000      1.000000
  0.071429 -0.000000  0.500000      6.000000
  0.142857 -0.000000  0.500000      6.000000
  0.214286 -0.000000  0.500000      6.000000
  0.285714  0.000000  0.500000      6.000000
  0.357143  0.000000  0.500000      6.000000
  0.428571 -0.000000  0.500000      6.000000
  0.500000  0.000000  0.500000      3.000000
  0.071429  0.071429  0.500000      6.000000
  0.142857  0.071429  0.500000     12.000000
  0.214286  0.071429  0.500000     12.000000
  0.285714  0.071429  0.500000     12.000000
  0.357143  0.071429  0.500000     12.000000
  0.428571  0.071429  0.500000     12.000000
  0.142857  0.142857  0.500000      6.000000
  0.214286  0.142857  0.500000     12.000000
  0.285714  0.142857  0.500000     12.000000
  0.357143  0.142857  0.500000     12.000000
  0.428571  0.142857  0.500000      6.000000
  0.214286  0.214286  0.500000      6.000000
  0.285714  0.214286  0.500000     12.000000
  0.357143  0.214286  0.500000     12.000000
  0.285714  0.285714  0.500000      6.000000
  0.357143  0.285714  0.500000      6.000000
 
 Following cartesian coordinates:
            Coordinates               Weight
  0.000000  0.000000  0.000000      1.000000
  0.025880  0.014942  0.000000      6.000000
  0.051760  0.029884  0.000000      6.000000
  0.077640  0.044825  0.000000      6.000000
  0.103520  0.059767  0.000000      6.000000
  0.129400  0.074709  0.000000      6.000000
  0.155280  0.089651  0.000000      6.000000
  0.181159  0.104592  0.000000      3.000000
  0.025880  0.044825  0.000000      6.000000
  0.051760  0.059767  0.000000     12.000000
  0.077640  0.074709  0.000000     12.000000
  0.103520  0.089651  0.000000     12.000000
  0.129400  0.104592  0.000000     12.000000
  0.155280  0.119534  0.000000     12.000000
  0.051760  0.089651  0.000000      6.000000
  0.077640  0.104592  0.000000     12.000000
  0.103520  0.119534  0.000000     12.000000
  0.129400  0.134476  0.000000     12.000000
  0.155280  0.149418  0.000000      6.000000
  0.077640  0.134476  0.000000      6.000000
  0.103520  0.149418  0.000000     12.000000
  0.129400  0.164360  0.000000     12.000000
  0.103520  0.179301  0.000000      6.000000
  0.129400  0.194243  0.000000      6.000000
  0.000000  0.000000  0.020877      2.000000
  0.025880  0.014942  0.020877     12.000000
  0.051760  0.029884  0.020877     12.000000
  0.077640  0.044825  0.020877     12.000000
  0.103520  0.059767  0.020877     12.000000
  0.129400  0.074709  0.020877     12.000000
  0.155280  0.089651  0.020877     12.000000
  0.181159  0.104592  0.020877      6.000000
  0.025880  0.044825  0.020877     12.000000
  0.051760  0.059767  0.020877     24.000000
  0.077640  0.074709  0.020877     24.000000
  0.103520  0.089651  0.020877     24.000000
  0.129400  0.104592  0.020877     24.000000
  0.155280  0.119534  0.020877     24.000000
  0.051760  0.089651  0.020877     12.000000
  0.077640  0.104592  0.020877     24.000000
  0.103520  0.119534  0.020877     24.000000
  0.129400  0.134476  0.020877     24.000000
  0.155280  0.149418  0.020877     12.000000
  0.077640  0.134476  0.020877     12.000000
  0.103520  0.149418  0.020877     24.000000
  0.129400  0.164360  0.020877     24.000000
  0.103520  0.179301  0.020877     12.000000
  0.129400  0.194243  0.020877     12.000000
  0.000000  0.000000  0.041754      2.000000
  0.025880  0.014942  0.041754     12.000000
  0.051760  0.029884  0.041754     12.000000
  0.077640  0.044825  0.041754     12.000000
  0.103520  0.059767  0.041754     12.000000
  0.129400  0.074709  0.041754     12.000000
  0.155280  0.089651  0.041754     12.000000
  0.181159  0.104592  0.041754      6.000000
  0.025880  0.044825  0.041754     12.000000
  0.051760  0.059767  0.041754     24.000000
  0.077640  0.074709  0.041754     24.000000
  0.103520  0.089651  0.041754     24.000000
  0.129400  0.104592  0.041754     24.000000
  0.155280  0.119534  0.041754     24.000000
  0.051760  0.089651  0.041754     12.000000
  0.077640  0.104592  0.041754     24.000000
  0.103520  0.119534  0.041754     24.000000
  0.129400  0.134476  0.041754     24.000000
  0.155280  0.149418  0.041754     12.000000
  0.077640  0.134476  0.041754     12.000000
  0.103520  0.149418  0.041754     24.000000
  0.129400  0.164360  0.041754     24.000000
  0.103520  0.179301  0.041754     12.000000
  0.129400  0.194243  0.041754     12.000000
  0.000000  0.000000  0.062630      2.000000
  0.025880  0.014942  0.062630     12.000000
  0.051760  0.029884  0.062630     12.000000
  0.077640  0.044825  0.062630     12.000000
  0.103520  0.059767  0.062630     12.000000
  0.129400  0.074709  0.062630     12.000000
  0.155280  0.089651  0.062630     12.000000
  0.181159  0.104592  0.062630      6.000000
  0.025880  0.044825  0.062630     12.000000
  0.051760  0.059767  0.062630     24.000000
  0.077640  0.074709  0.062630     24.000000
  0.103520  0.089651  0.062630     24.000000
  0.129400  0.104592  0.062630     24.000000
  0.155280  0.119534  0.062630     24.000000
  0.051760  0.089651  0.062630     12.000000
  0.077640  0.104592  0.062630     24.000000
  0.103520  0.119534  0.062630     24.000000
  0.129400  0.134476  0.062630     24.000000
  0.155280  0.149418  0.062630     12.000000
  0.077640  0.134476  0.062630     12.000000
  0.103520  0.149418  0.062630     24.000000
  0.129400  0.164360  0.062630     24.000000
  0.103520  0.179301  0.062630     12.000000
  0.129400  0.194243  0.062630     12.000000
  0.000000  0.000000  0.083507      2.000000
  0.025880  0.014942  0.083507     12.000000
  0.051760  0.029884  0.083507     12.000000
  0.077640  0.044825  0.083507     12.000000
  0.103520  0.059767  0.083507     12.000000
  0.129400  0.074709  0.083507     12.000000
  0.155280  0.089651  0.083507     12.000000
  0.181159  0.104592  0.083507      6.000000
  0.025880  0.044825  0.083507     12.000000
  0.051760  0.059767  0.083507     24.000000
  0.077640  0.074709  0.083507     24.000000
  0.103520  0.089651  0.083507     24.000000
  0.129400  0.104592  0.083507     24.000000
  0.155280  0.119534  0.083507     24.000000
  0.051760  0.089651  0.083507     12.000000
  0.077640  0.104592  0.083507     24.000000
  0.103520  0.119534  0.083507     24.000000
  0.129400  0.134476  0.083507     24.000000
  0.155280  0.149418  0.083507     12.000000
  0.077640  0.134476  0.083507     12.000000
  0.103520  0.149418  0.083507     24.000000
  0.129400  0.164360  0.083507     24.000000
  0.103520  0.179301  0.083507     12.000000
  0.129400  0.194243  0.083507     12.000000
  0.000000  0.000000  0.104384      1.000000
  0.025880  0.014942  0.104384      6.000000
  0.051760  0.029884  0.104384      6.000000
  0.077640  0.044825  0.104384      6.000000
  0.103520  0.059767  0.104384      6.000000
  0.129400  0.074709  0.104384      6.000000
  0.155280  0.089651  0.104384      6.000000
  0.181159  0.104592  0.104384      3.000000
  0.025880  0.044825  0.104384      6.000000
  0.051760  0.059767  0.104384     12.000000
  0.077640  0.074709  0.104384     12.000000
  0.103520  0.089651  0.104384     12.000000
  0.129400  0.104592  0.104384     12.000000
  0.155280  0.119534  0.104384     12.000000
  0.051760  0.089651  0.104384      6.000000
  0.077640  0.104592  0.104384     12.000000
  0.103520  0.119534  0.104384     12.000000
  0.129400  0.134476  0.104384     12.000000
  0.155280  0.149418  0.104384      6.000000
  0.077640  0.134476  0.104384      6.000000
  0.103520  0.149418  0.104384     12.000000
  0.129400  0.164360  0.104384     12.000000
  0.103520  0.179301  0.104384      6.000000
  0.129400  0.194243  0.104384      6.000000
 


--------------------------------------------------------------------------------------------------------




 Dimension of arrays:
   k-points           NKPTS =    144   k-points in BZ     NKDIM =    144   number of bands    NBANDS=     24
   number of dos      NEDOS =    301   number of ions     NIONS =      2
   non local maximal  LDIM  =      6   non local SUM 2l+1 LMDIM =     18
   total plane-waves  NPLWV =  14400
   max r-space proj   IRMAX =      1   max aug-charges    IRDMAX=  15713
   dimension x,y,z NGX =    20 NGY =   20 NGZ =   36
   dimension x,y,z NGXF=    40 NGYF=   40 NGZF=   72
   support grid    NGXF=    40 NGYF=   40 NGZF=   72
   ions per type =               2
   NGX,Y,Z   is equivalent  to a cutoff of  12.05, 12.05, 12.49 a.u.
   NGXF,Y,Z  is equivalent  to a cutoff of  24.09, 24.09, 24.99 a.u.

 SYSTEM =  Pt-hcc                                  
 POSCAR =  Pt                                      

 Startparameter for this run:
   NWRITE =      2    write-flag & timer
   PREC   = accura    normal or accurate (medium, high low for compatibility)
   ISTART =      0    job   : 0-new  1-cont  2-samecut
   ICHARG =      2    charge: 1-file 2-atom 10-const
   ISPIN  =      1    spin polarized calculation?
   LNONCOLLINEAR =      F non collinear calculations
   LSORBIT =      F    spin-orbit coupling
   INIWAV =      1    electr: 0-lowe 1-rand  2-diag
   LASPH  =      F    aspherical Exc in radial PAW
 Electronic Relaxation 1
   ENCUT  =  450.0 eV  33.07 Ry    5.75 a.u.   4.77  4.77  8.29*2*pi/ulx,y,z
   ENINI  =  450.0     initial cutoff
   ENAUG  =  527.0 eV  augmentation charge cutoff
   NELM   =    100;   NELMIN=  2; NELMDL= -5     # of ELM steps 
   EDIFF  = 0.1E-05   stopping-criterion for ELM
   LREAL  =      F    real-space projection
   NLSPLINE    = F    spline interpolate recip. space projectors
   LCOMPAT=      F    compatible to vasp.4.4
   GGA_COMPAT  = T    GGA compatible to vasp.4.4-vasp.4.6
   LMAXPAW     = -100 max onsite density
   LMAXMIX     =    2 max onsite mixed and CHGCAR
   VOSKOWN=      0    Vosko Wilk Nusair interpolation
   ROPT   =    0.00000
 Ionic relaxation
   EDIFFG = -.2E-01   stopping-criterion for IOM
   NSW    =      0    number of steps for IOM
   NBLOCK =      1;   KBLOCK =      1    inner block; outer block 
   IBRION =     -1    ionic relax: 0-MD 1-quasi-New 2-CG
   NFREE  =      0    steps in history (QN), initial steepest desc. (CG)
   ISIF   =      2    stress and relaxation
   IWAVPR =     10    prediction:  0-non 1-charg 2-wave 3-comb
   ISYM   =      1    0-nonsym 1-usesym 2-fastsym
   LCORR  =      T    Harris-Foulkes like correction to forces

   POTIM  = 0.5000    time-step for ionic-motion
   TEIN   =    0.0    initial temperature
   TEBEG  =    0.0;   TEEND  =   0.0 temperature during run
   SMASS  =  -3.00    Nose mass-parameter (am)
   estimated Nose-frequenzy (Omega)   =  0.10E-29 period in steps = 0.13E+47 mass=  -0.174E-27a.u.
   SCALEE = 1.0000    scale energy and forces
   NPACO  =    256;   APACO  = 10.0  distance and # of slots for P.C.
   PSTRESS=    0.0 pullay stress

  Mass of Ions in am
   POMASS = 195.08
  Ionic Valenz
   ZVAL   =  16.00
  Atomic Wigner-Seitz radii
   RWIGS  =  -1.00
  virtual crystal weights 
   VCA    =   1.00
   NELECT =      32.0000    total number of electrons
   NUPDOWN=      -1.0000    fix difference up-down

 DOS related values:
   EMIN   =  10.00;   EMAX   =-10.00  energy-range for DOS
   EFERMI =   0.00
   ISMEAR =     0;   SIGMA  =   0.05  broadening in eV -4-tet -1-fermi 0-gaus

 Electronic relaxation 2 (details)
   IALGO  =     38    algorithm
   LDIAG  =      T    sub-space diagonalisation (order eigenvalues)
   LSUBROT=      F    optimize rotation matrix (better conditioning)
   TURBO    =      0    0=normal 1=particle mesh
   IRESTART =      0    0=no restart 2=restart with 2 vectors
   NREBOOT  =      0    no. of reboots
   NMIN     =      0    reboot dimension
   EREF     =   0.00    reference energy to select bands
   IMIX   =      4    mixing-type and parameters
     AMIX     =   0.40;   BMIX     =  1.00
     AMIX_MAG =   1.60;   BMIX_MAG =  1.00
     AMIN     =   0.10
     WC   =   100.;   INIMIX=   1;  MIXPRE=   1;  MAXMIX= -45

 Intra band minimization:
   WEIMIN = 0.0000     energy-eigenvalue tresh-hold
   EBREAK =  0.10E-07  absolut break condition
   DEPER  =   0.30     relativ break condition  

   TIME   =   0.40     timestep for ELM

  volume/ion in A,a.u.               =      15.80       106.62
  Fermi-wavevector in a.u.,A,eV,Ry     =   1.643981  3.106673 36.772093  2.702673
  Thomas-Fermi vector in A             =   2.734024
 
 Write flags
   LWAVE        =      F    write WAVECAR
   LDOWNSAMPLE  =      F    k-point downsampling of WAVECAR
   LCHARG       =      F    write CHGCAR
   LVTOT        =      F    write LOCPOT, total local potential
   LVHAR        =      F    write LOCPOT, Hartree potential only
   LELF         =      F    write electronic localiz. function (ELF)
   LORBIT       =      0    0 simple, 1 ext, 2 COOP (PROOUT), +10 PAW based schemes


 Dipole corrections
   LMONO  =      F    monopole corrections only (constant potential shift)
   LDIPOL =      F    correct potential (dipole corrections)
   IDIPOL =      0    1-x, 2-y, 3-z, 4-all directions 
   EPSILON=  1.0000000 bulk dielectric constant

 Exchange correlation treatment:
   GGA     =    --    GGA type
   LEXCH   =     8    internal setting for exchange type
   LIBXC   =     F    Libxc                    
   VOSKOWN =     0    Vosko Wilk Nusair interpolation
   LHFCALC =     F    Hartree Fock is set to
   LHFONE  =     F    Hartree Fock one center treatment
   AEXX    =    0.0000 exact exchange contribution

 Linear response parameters
   LEPSILON=     F    determine dielectric tensor
   LRPA    =     F    only Hartree local field effects (RPA)
   LNABLA  =     F    use nabla operator in PAW spheres
   LVEL    =     F    velocity operator in full k-point grid
   CSHIFT  =0.1000    complex shift for real part using Kramers Kronig
   OMEGAMAX=  -1.0    maximum frequency
   DEG_THRESHOLD= 0.2000000E-02 threshold for treating states as degnerate
   RTIME   =   -0.100 relaxation time in fs
  (WPLASMAI=    0.000 imaginary part of plasma frequency in eV, 0.658/RTIME)
   DFIELD  = 0.0000000 0.0000000 0.0000000 field for delta impulse in time
 
  Optional k-point grid parameters
   LKPOINTS_OPT  =     F    use optional k-point grid
   KPOINTS_OPT_MODE=     1    mode for optional k-point grid
 
 Orbital magnetization related:
   ORBITALMAG=     F  switch on orbital magnetization
   LCHIMAG   =     F  perturbation theory with respect to B field
   DQ        =  0.001000  dq finite difference perturbation B field
   LLRAUG    =     F  two centre corrections for induced B field



--------------------------------------------------------------------------------------------------------


 Static calculation
 charge density and potential will be updated during run
 non-spin polarized calculation
 Variant of blocked Davidson
 Davidson routine will perform the subspace rotation
 perform sub-space diagonalisation
    after iterative eigenvector-optimisation
 modified Broyden-mixing scheme, WC =      100.0
 initial mixing is a Kerker type mixing with AMIX =  0.4000 and BMIX =      1.0000
 Hartree-type preconditioning will be used
 using additional bands            8
 reciprocal scheme for non local part
 use partial core corrections
 calculate Harris-corrections to forces 
   (improved forces if not selfconsistent)
 use gradient corrections 
 use of overlap-Matrix (Vanderbilt PP)
 Gauss-broadening in eV      SIGMA  =   0.05


--------------------------------------------------------------------------------------------------------


  energy-cutoff  :      450.00
  volume of cell :       31.60
      direct lattice vectors                 reciprocal lattice vectors
     2.760000000  0.000000000  0.000000000     0.362318841  0.209184880  0.000000000
    -1.380000000  2.390230114  0.000000000     0.000000000  0.418369760  0.000000000
     0.000000000  0.000000000  4.790000000     0.000000000  0.000000000  0.208768267

  length of vectors
     2.760000000  2.760000000  4.790000000     0.418369760  0.418369760  0.208768267


 
 k-points in units of 2pi/SCALE and weight: Automatic mesh                          
   0.00000000  0.00000000  0.00000000       0.001
   0.02587992  0.01494178  0.00000000       0.003
   0.05175983  0.02988355  0.00000000       0.003
   0.07763975  0.04482533  0.00000000       0.003
   0.10351967  0.05976711  0.00000000       0.003
   0.12939959  0.07470889  0.00000000       0.003
   0.15527950  0.08965066  0.00000000       0.003
   0.18115942  0.10459244  0.00000000       0.002
   0.02587992  0.04482533  0.00000000       0.003
   0.05175983  0.05976711  0.00000000       0.006
   0.07763975  0.07470889  0.00000000       0.006
   0.10351967  0.08965066  0.00000000       0.006
   0.12939959  0.10459244  0.00000000       0.006
   0.15527950  0.11953422  0.00000000       0.006
   0.05175983  0.08965066  0.00000000       0.003
   0.07763975  0.10459244  0.00000000       0.006
   0.10351967  0.11953422  0.00000000       0.006
   0.12939959  0.13447599  0.00000000       0.006
   0.15527950  0.14941777  0.00000000       0.003
   0.07763975  0.13447599  0.00000000       0.003
   0.10351967  0.14941777  0.00000000       0.006
   0.12939959  0.16435955  0.00000000       0.006
   0.10351967  0.17930133  0.00000000       0.003
   0.12939959  0.19424310  0.00000000       0.003
   0.00000000  0.00000000  0.02087683       0.001
   0.02587992  0.01494178  0.02087683       0.006
   0.05175983  0.02988355  0.02087683       0.006
   0.07763975  0.04482533  0.02087683       0.006
   0.10351967  0.05976711  0.02087683       0.006
   0.12939959  0.07470889  0.02087683       0.006
   0.15527950  0.08965066  0.02087683       0.006
   0.18115942  0.10459244  0.02087683       0.003
   0.02587992  0.04482533  0.02087683       0.006
   0.05175983  0.05976711  0.02087683       0.012
   0.07763975  0.07470889  0.02087683       0.012
   0.10351967  0.08965066  0.02087683       0.012
   0.12939959  0.10459244  0.02087683       0.012
   0.15527950  0.11953422  0.02087683       0.012
   0.05175983  0.08965066  0.02087683       0.006
   0.07763975  0.10459244  0.02087683       0.012
   0.10351967  0.11953422  0.02087683       0.012
   0.12939959  0.13447599  0.02087683       0.012
   0.15527950  0.14941777  0.02087683       0.006
   0.07763975  0.13447599  0.02087683       0.006
   0.10351967  0.14941777  0.02087683       0.012
   0.12939959  0.16435955  0.02087683       0.012
   0.10351967  0.17930133  0.02087683       0.006
   0.12939959  0.19424310  0.02087683       0.006
   0.00000000  0.00000000  0.04175365       0.001
   0.02587992  0.01494178  0.04175365       0.006
   0.05175983  0.02988355  0.04175365       0.006
   0.07763975  0.04482533  0.04175365       0.006
   0.10351967  0.05976711  0.04175365       0.006
   0.12939959  0.07470889  0.04175365       0.006
   0.15527950  0.08965066  0.04175365       0.006
   0.18115942  0.10459244  0.04175365       0.003
   0.02587992  0.04482533  0.04175365       0.006
   0.05175983  0.05976711  0.04175365       0.012
   0.07763975  0.07470889  0.04175365       0.012
   0.10351967  0.08965066  0.04175365       0.012
   0.12939959  0.10459244  0.04175365       0.012
   0.15527950  0.11953422  0.04175365       0.012
   0.05175983  0.08965066  0.04175365       0.006
   0.07763975  0.10459244  0.04175365       0.012
   0.10351967  0.11953422  0.04175365       0.012
   0.12939959  0.13447599  0.04175365       0.012
   0.15527950  0.14941777  0.04175365       0.006
   0.07763975  0.13447599  0.04175365       0.006
   0.10351967  0.14941777  0.04175365       0.012
   0.12939959  0.16435955  0.04175365       0.012
   0.10351967  0.17930133  0.04175365       0.006
   0.12939959  0.19424310  0.04175365       0.006
   0.00000000  0.00000000  0.06263048       0.001
   0.02587992  0.01494178  0.06263048       0.006
   0.05175983  0.02988355  0.06263048       0.006
   0.07763975  0.04482533  0.06263048       0.006
   0.10351967  0.05976711  0.06263048       0.006
   0.12939959  0.07470889  0.06263048       0.006
   0.15527950  0.08965066  0.06263048       0.006
   0.18115942  0.10459244  0.06263048       0.003
   0.02587992  0.04482533  0.06263048       0.006
   0.05175983  0.05976711  0.06263048       0.012
   0.07763975  0.07470889  0.06263048       0.012
   0.10351967  0.08965066  0.06263048       0.012
   0.12939959  0.10459244  0.06263048       0.012
   0.15527950  0.11953422  0.06263048       0.012
   0.05175983  0.08965066  0.06263048       0.006
   0.07763975  0.10459244  0.06263048       0.012
   0.10351967  0.11953422  0.06263048       0.012
   0.12939959  0.13447599  0.06263048       0.012
   0.15527950  0.14941777  0.06263048       0.006
   0.07763975  0.13447599  0.06263048       0.006
   0.10351967  0.14941777  0.06263048       0.012
   0.12939959  0.16435955  0.06263048       0.012
   0.10351967  0.17930133  0.06263048       0.006
   0.12939959  0.19424310  0.06263048       0.006
   0.00000000  0.00000000  0.08350731       0.001
   0.02587992  0.01494178  0.08350731       0.006
   0.05175983  0.02988355  0.08350731       0.006
   0.07763975  0.04482533  0.08350731       0.006
   0.10351967  0.05976711  0.08350731       0.006
   0.12939959  0.07470889  0.08350731       0.006
   0.15527950  0.08965066  0.08350731       0.006
   0.18115942  0.10459244  0.08350731       0.003
   0.02587992  0.04482533  0.08350731       0.006
   0.05175983  0.05976711  0.08350731       0.012
   0.07763975  0.07470889  0.08350731       0.012
   0.10351967  0.08965066  0.08350731       0.012
   0.12939959  0.10459244  0.08350731       0.012
   0.15527950  0.11953422  0.08350731       0.012
   0.05175983  0.08965066  0.08350731       0.006
   0.07763975  0.10459244  0.08350731       0.012
   0.10351967  0.11953422  0.08350731       0.012
   0.12939959  0.13447599  0.08350731       0.012
   0.15527950  0.14941777  0.08350731       0.006
   0.07763975  0.13447599  0.08350731       0.006
   0.10351967  0.14941777  0.08350731       0.012
   0.12939959  0.16435955  0.08350731       0.012
   0.10351967  0.17930133  0.08350731       0.006
   0.12939959  0.19424310  0.08350731       0.006
   0.00000000  0.00000000  0.10438413       0.001
   0.02587992  0.01494178  0.10438413       0.003
   0.05175983  0.02988355  0.10438413       0.003
   0.07763975  0.04482533  0.10438413       0.003
   0.10351967  0.05976711  0.10438413       0.003
   0.12939959  0.07470889  0.10438413       0.003
   0.15527950  0.08965066  0.10438413       0.003
   0.18115942  0.10459244  0.10438413       0.002
   0.02587992  0.04482533  0.10438413       0.003
   0.05175983  0.05976711  0.10438413       0.006
   0.07763975  0.07470889  0.10438413       0.006
   0.10351967  0.08965066  0.10438413       0.006
   0.12939959  0.10459244  0.10438413       0.006
   0.15527950  0.11953422  0.10438413       0.006
   0.05175983  0.08965066  0.10438413       0.003
   0.07763975  0.10459244  0.10438413       0.006
   0.10351967  0.11953422  0.10438413       0.006
   0.12939959  0.13447599  0.10438413       0.006
   0.15527950  0.14941777  0.10438413       0.003
   0.07763975  0.13447599  0.10438413       0.003
   0.10351967  0.14941777  0.10438413       0.006
   0.12939959  0.16435955  0.10438413       0.006
   0.10351967  0.17930133  0.10438413       0.003
   0.12939959  0.19424310  0.10438413       0.003
 
 k-points in reciprocal lattice and weights: Automatic mesh                          
   0.00000000  0.00000000  0.00000000       0.001
   0.07142857 -0.00000000  0.00000000       0.003
   0.14285714 -0.00000000  0.00000000       0.003
   0.21428571 -0.00000000  0.00000000       0.003
   0.28571429  0.00000000  0.00000000       0.003
   0.35714286  0.00000000  0.00000000       0.003
   0.42857143 -0.00000000  0.00000000       0.003
   0.50000000  0.00000000  0.00000000       0.002
   0.07142857  0.07142857  0.00000000       0.003
   0.14285714  0.07142857  0.00000000       0.006
   0.21428571  0.07142857  0.00000000       0.006
   0.28571429  0.07142857  0.00000000       0.006
   0.35714286  0.07142857  0.00000000       0.006
   0.42857143  0.07142857  0.00000000       0.006
   0.14285714  0.14285714  0.00000000       0.003
   0.21428571  0.14285714  0.00000000       0.006
   0.28571429  0.14285714  0.00000000       0.006
   0.35714286  0.14285714  0.00000000       0.006
   0.42857143  0.14285714  0.00000000       0.003
   0.21428571  0.21428571  0.00000000       0.003
   0.28571429  0.21428571  0.00000000       0.006
   0.35714286  0.21428571  0.00000000       0.006
   0.28571429  0.28571429  0.00000000       0.003
   0.35714286  0.28571429  0.00000000       0.003
   0.00000000  0.00000000  0.10000000       0.001
   0.07142857 -0.00000000  0.10000000       0.006
   0.14285714 -0.00000000  0.10000000       0.006
   0.21428571 -0.00000000  0.10000000       0.006
   0.28571429  0.00000000  0.10000000       0.006
   0.35714286  0.00000000  0.10000000       0.006
   0.42857143 -0.00000000  0.10000000       0.006
   0.50000000  0.00000000  0.10000000       0.003
   0.07142857  0.07142857  0.10000000       0.006
   0.14285714  0.07142857  0.10000000       0.012
   0.21428571  0.07142857  0.10000000       0.012
   0.28571429  0.07142857  0.10000000       0.012
   0.35714286  0.07142857  0.10000000       0.012
   0.42857143  0.07142857  0.10000000       0.012
   0.14285714  0.14285714  0.10000000       0.006
   0.21428571  0.14285714  0.10000000       0.012
   0.28571429  0.14285714  0.10000000       0.012
   0.35714286  0.14285714  0.10000000       0.012
   0.42857143  0.14285714  0.10000000       0.006
   0.21428571  0.21428571  0.10000000       0.006
   0.28571429  0.21428571  0.10000000       0.012
   0.35714286  0.21428571  0.10000000       0.012
   0.28571429  0.28571429  0.10000000       0.006
   0.35714286  0.28571429  0.10000000       0.006
   0.00000000  0.00000000  0.20000000       0.001
   0.07142857 -0.00000000  0.20000000       0.006
   0.14285714 -0.00000000  0.20000000       0.006
   0.21428571 -0.00000000  0.20000000       0.006
   0.28571429  0.00000000  0.20000000       0.006
   0.35714286  0.00000000  0.20000000       0.006
   0.42857143 -0.00000000  0.20000000       0.006
   0.50000000  0.00000000  0.20000000       0.003
   0.07142857  0.07142857  0.20000000       0.006
   0.14285714  0.07142857  0.20000000       0.012
   0.21428571  0.07142857  0.20000000       0.012
   0.28571429  0.07142857  0.20000000       0.012
   0.35714286  0.07142857  0.20000000       0.012
   0.42857143  0.07142857  0.20000000       0.012
   0.14285714  0.14285714  0.20000000       0.006
   0.21428571  0.14285714  0.20000000       0.012
   0.28571429  0.14285714  0.20000000       0.012
   0.35714286  0.14285714  0.20000000       0.012
   0.42857143  0.14285714  0.20000000       0.006
   0.21428571  0.21428571  0.20000000       0.006
   0.28571429  0.21428571  0.20000000       0.012
   0.35714286  0.21428571  0.20000000       0.012
   0.28571429  0.28571429  0.20000000       0.006
   0.35714286  0.28571429  0.20000000       0.006
   0.00000000  0.00000000  0.30000000       0.001
   0.07142857 -0.00000000  0.30000000       0.006
   0.14285714 -0.00000000  0.30000000       0.006
   0.21428571 -0.00000000  0.30000000       0.006
   0.28571429  0.00000000  0.30000000       0.006
   0.35714286  0.00000000  0.30000000       0.006
   0.42857143 -0.00000000  0.30000000       0.006
   0.50000000  0.00000000  0.30000000       0.003
   0.07142857  0.07142857  0.30000000       0.006
   0.14285714  0.07142857  0.30000000       0.012
   0.21428571  0.07142857  0.30000000       0.012
   0.28571429  0.07142857  0.30000000       0.012
   0.35714286  0.07142857  0.30000000       0.012
   0.42857143  0.07142857  0.30000000       0.012
   0.14285714  0.14285714  0.30000000       0.006
   0.21428571  0.14285714  0.30000000       0.012
   0.28571429  0.14285714  0.30000000       0.012
   0.35714286  0.14285714  0.30000000       0.012
   0.42857143  0.14285714  0.30000000       0.006
   0.21428571  0.21428571  0.30000000       0.006
   0.28571429  0.21428571  0.30000000       0.012
   0.35714286  0.21428571  0.30000000       0.012
   0.28571429  0.28571429  0.30000000       0.006
   0.35714286  0.28571429  0.30000000       0.006
   0.00000000  0.00000000  0.40000000       0.001
   0.07142857 -0.00000000  0.40000000       0.006
   0.14285714 -0.00000000  0.40000000       0.006
   0.21428571 -0.00000000  0.40000000       0.006
   0.28571429  0.00000000  0.40000000       0.006
   0.35714286  0.00000000  0.40000000       0.006
   0.42857143 -0.00000000  0.40000000       0.006
   0.50000000  0.00000000  0.40000000       0.003
   0.07142857  0.07142857  0.40000000       0.006
   0.14285714  0.07142857  0.40000000       0.012
   0.21428571  0.07142857  0.40000000       0.012
   0.28571429  0.07142857  0.40000000       0.012
   0.35714286  0.07142857  0.40000000       0.012
   0.42857143  0.07142857  0.40000000       0.012
   0.14285714  0.14285714  0.40000000       0.006
   0.21428571  0.14285714  0.40000000       0.012
   0.28571429  0.14285714  0.40000000       0.012
   0.35714286  0.14285714  0.40000000       0.012
   0.42857143  0.14285714  0.40000000       0.006
   0.21428571  0.21428571  0.40000000       0.006
   0.28571429  0.21428571  0.40000000       0.012
   0.35714286  0.21428571  0.40000000       0.012
   0.28571429  0.28571429  0.40000000       0.006
   0.35714286  0.28571429  0.40000000       0.006
   0.00000000  0.00000000  0.50000000       0.001
   0.07142857 -0.00000000  0.50000000       0.003
   0.14285714 -0.00000000  0.50000000       0.003
   0.21428571 -0.00000000  0.50000000       0.003
   0.28571429  0.00000000  0.50000000       0.003
   0.35714286  0.00000000  0.50000000       0.003
   0.42857143 -0.00000000  0.50000000       0.003
   0.50000000  0.00000000  0.50000000       0.002
   0.07142857  0.07142857  0.50000000       0.003
   0.14285714  0.07142857  0.50000000       0.006
   0.21428571  0.07142857  0.50000000       0.006
   0.28571429  0.07142857  0.50000000       0.006
   0.35714286  0.07142857  0.50000000       0.006
   0.42857143  0.07142857  0.50000000       0.006
   0.14285714  0.14285714  0.50000000       0.003
   0.21428571  0.14285714  0.50000000       0.006
   0.28571429  0.14285714  0.50000000       0.006
   0.35714286  0.14285714  0.50000000       0.006
   0.42857143  0.14285714  0.50000000       0.003
   0.21428571  0.21428571  0.50000000       0.003
   0.28571429  0.21428571  0.50000000       0.006
   0.35714286  0.21428571  0.50000000       0.006
   0.28571429  0.28571429  0.50000000       0.003
   0.35714286  0.28571429  0.50000000       0.003
 
 position of ions in fractional coordinates (direct lattice) 
   0.00000000  0.00000000  0.00000000
   0.33333333  0.66666667  0.50000000
 
 position of ions in cartesian coordinates  (Angst):
   0.00000000  0.00000000  0.00000000
   0.00000000  1.59348674  2.39500000
 


--------------------------------------------------------------------------------------------------------


 k-point   1 :   0.0000 0.0000 0.0000  plane waves:     713
 k-point   2 :   0.0714-0.0000 0.0000  plane waves:     695
 k-point   3 :   0.1429-0.0000 0.0000  plane waves:     686
 k-point   4 :   0.2143-0.0000 0.0000  plane waves:     684
 k-point   5 :   0.2857 0.0000 0.0000  plane waves:     678
 k-point   6 :   0.3571 0.0000 0.0000  plane waves:     688
 k-point   7 :   0.4286-0.0000 0.0000  plane waves:     686
 k-point   8 :   0.5000 0.0000 0.0000  plane waves:     700
 k-point   9 :   0.0714 0.0714 0.0000  plane waves:     689
 k-point  10 :   0.1429 0.0714 0.0000  plane waves:     691
 k-point  11 :   0.2143 0.0714 0.0000  plane waves:     683
 k-point  12 :   0.2857 0.0714 0.0000  plane waves:     680
 k-point  13 :   0.3571 0.0714 0.0000  plane waves:     690
 k-point  14 :   0.4286 0.0714 0.0000  plane waves:     687
 k-point  15 :   0.1429 0.1429 0.0000  plane waves:     689
 k-point  16 :   0.2143 0.1429 0.0000  plane waves:     681
 k-point  17 :   0.2857 0.1429 0.0000  plane waves:     688
 k-point  18 :   0.3571 0.1429 0.0000  plane waves:     683
 k-point  19 :   0.4286 0.1429 0.0000  plane waves:     680
 k-point  20 :   0.2143 0.2143 0.0000  plane waves:     681
 k-point  21 :   0.2857 0.2143 0.0000  plane waves:     680
 k-point  22 :   0.3571 0.2143 0.0000  plane waves:     684
 k-point  23 :   0.2857 0.2857 0.0000  plane waves:     689
 k-point  24 :   0.3571 0.2857 0.0000  plane waves:     687
 k-point  25 :   0.0000 0.0000 0.1000  plane waves:     689
 k-point  26 :   0.0714-0.0000 0.1000  plane waves:     691
 k-point  27 :   0.1429-0.0000 0.1000  plane waves:     688
 k-point  28 :   0.2143-0.0000 0.1000  plane waves:     682
 k-point  29 :   0.2857 0.0000 0.1000  plane waves:     682
 k-point  30 :   0.3571 0.0000 0.1000  plane waves:     685
 k-point  31 :   0.4286-0.0000 0.1000  plane waves:     692
 k-point  32 :   0.5000 0.0000 0.1000  plane waves:     692
 k-point  33 :   0.0714 0.0714 0.1000  plane waves:     691
 k-point  34 :   0.1429 0.0714 0.1000  plane waves:     685
 k-point  35 :   0.2143 0.0714 0.1000  plane waves:     685
 k-point  36 :   0.2857 0.0714 0.1000  plane waves:     684
 k-point  37 :   0.3571 0.0714 0.1000  plane waves:     686
 k-point  38 :   0.4286 0.0714 0.1000  plane waves:     686
 k-point  39 :   0.1429 0.1429 0.1000  plane waves:     685
 k-point  40 :   0.2143 0.1429 0.1000  plane waves:     682
 k-point  41 :   0.2857 0.1429 0.1000  plane waves:     685
 k-point  42 :   0.3571 0.1429 0.1000  plane waves:     683
 k-point  43 :   0.4286 0.1429 0.1000  plane waves:     681
 k-point  44 :   0.2143 0.2143 0.1000  plane waves:     684
 k-point  45 :   0.2857 0.2143 0.1000  plane waves:     680
 k-point  46 :   0.3571 0.2143 0.1000  plane waves:     686
 k-point  47 :   0.2857 0.2857 0.1000  plane waves:     689
 k-point  48 :   0.3571 0.2857 0.1000  plane waves:     689
 k-point  49 :   0.0000 0.0000 0.2000  plane waves:     689
 k-point  50 :   0.0714-0.0000 0.2000  plane waves:     691
 k-point  51 :   0.1429-0.0000 0.2000  plane waves:     683
 k-point  52 :   0.2143-0.0000 0.2000  plane waves:     682
 k-point  53 :   0.2857 0.0000 0.2000  plane waves:     684
 k-point  54 :   0.3571 0.0000 0.2000  plane waves:     691
 k-point  55 :   0.4286-0.0000 0.2000  plane waves:     689
 k-point  56 :   0.5000 0.0000 0.2000  plane waves:     690
 k-point  57 :   0.0714 0.0714 0.2000  plane waves:     685
 k-point  58 :   0.1429 0.0714 0.2000  plane waves:     680
 k-point  59 :   0.2143 0.0714 0.2000  plane waves:     681
 k-point  60 :   0.2857 0.0714 0.2000  plane waves:     684
 k-point  61 :   0.3571 0.0714 0.2000  plane waves:     686
 k-point  62 :   0.4286 0.0714 0.2000  plane waves:     688
 k-point  63 :   0.1429 0.1429 0.2000  plane waves:     689
 k-point  64 :   0.2143 0.1429 0.2000  plane waves:     685
 k-point  65 :   0.2857 0.1429 0.2000  plane waves:     690
 k-point  66 :   0.3571 0.1429 0.2000  plane waves:     684
 k-point  67 :   0.4286 0.1429 0.2000  plane waves:     686
 k-point  68 :   0.2143 0.2143 0.2000  plane waves:     686
 k-point  69 :   0.2857 0.2143 0.2000  plane waves:     683
 k-point  70 :   0.3571 0.2143 0.2000  plane waves:     683
 k-point  71 :   0.2857 0.2857 0.2000  plane waves:     685
 k-point  72 :   0.3571 0.2857 0.2000  plane waves:     687
 k-point  73 :   0.0000 0.0000 0.3000  plane waves:     688
 k-point  74 :   0.0714-0.0000 0.3000  plane waves:     686
 k-point  75 :   0.1429-0.0000 0.3000  plane waves:     682
 k-point  76 :   0.2143-0.0000 0.3000  plane waves:     680
 k-point  77 :   0.2857 0.0000 0.3000  plane waves:     678
 k-point  78 :   0.3571 0.0000 0.3000  plane waves:     692
 k-point  79 :   0.4286-0.0000 0.3000  plane waves:     687
 k-point  80 :   0.5000 0.0000 0.3000  plane waves:     694
 k-point  81 :   0.0714 0.0714 0.3000  plane waves:     684
 k-point  82 :   0.1429 0.0714 0.3000  plane waves:     678
 k-point  83 :   0.2143 0.0714 0.3000  plane waves:     681
 k-point  84 :   0.2857 0.0714 0.3000  plane waves:     688
 k-point  85 :   0.3571 0.0714 0.3000  plane waves:     687
 k-point  86 :   0.4286 0.0714 0.3000  plane waves:     687
 k-point  87 :   0.1429 0.1429 0.3000  plane waves:     681
 k-point  88 :   0.2143 0.1429 0.3000  plane waves:     683
 k-point  89 :   0.2857 0.1429 0.3000  plane waves:     684
 k-point  90 :   0.3571 0.1429 0.3000  plane waves:     687
 k-point  91 :   0.4286 0.1429 0.3000  plane waves:     693
 k-point  92 :   0.2143 0.2143 0.3000  plane waves:     685
 k-point  93 :   0.2857 0.2143 0.3000  plane waves:     684
 k-point  94 :   0.3571 0.2143 0.3000  plane waves:     685
 k-point  95 :   0.2857 0.2857 0.3000  plane waves:     683
 k-point  96 :   0.3571 0.2857 0.3000  plane waves:     677
 k-point  97 :   0.0000 0.0000 0.4000  plane waves:     676
 k-point  98 :   0.0714-0.0000 0.4000  plane waves:     679
 k-point  99 :   0.1429-0.0000 0.4000  plane waves:     679
 k-point 100 :   0.2143-0.0000 0.4000  plane waves:     681
 k-point 101 :   0.2857 0.0000 0.4000  plane waves:     681
 k-point 102 :   0.3571 0.0000 0.4000  plane waves:     686
 k-point 103 :   0.4286-0.0000 0.4000  plane waves:     687
 k-point 104 :   0.5000 0.0000 0.4000  plane waves:     690
 k-point 105 :   0.0714 0.0714 0.4000  plane waves:     681
 k-point 106 :   0.1429 0.0714 0.4000  plane waves:     678
 k-point 107 :   0.2143 0.0714 0.4000  plane waves:     681
 k-point 108 :   0.2857 0.0714 0.4000  plane waves:     686
 k-point 109 :   0.3571 0.0714 0.4000  plane waves:     685
 k-point 110 :   0.4286 0.0714 0.4000  plane waves:     688
 k-point 111 :   0.1429 0.1429 0.4000  plane waves:     684
 k-point 112 :   0.2143 0.1429 0.4000  plane waves:     687
 k-point 113 :   0.2857 0.1429 0.4000  plane waves:     686
 k-point 114 :   0.3571 0.1429 0.4000  plane waves:     688
 k-point 115 :   0.4286 0.1429 0.4000  plane waves:     690
 k-point 116 :   0.2143 0.2143 0.4000  plane waves:     687
 k-point 117 :   0.2857 0.2143 0.4000  plane waves:     689
 k-point 118 :   0.3571 0.2143 0.4000  plane waves:     688
 k-point 119 :   0.2857 0.2857 0.4000  plane waves:     690
 k-point 120 :   0.3571 0.2857 0.4000  plane waves:     682
 k-point 121 :   0.0000 0.0000 0.5000  plane waves:     688
 k-point 122 :   0.0714-0.0000 0.5000  plane waves:     680
 k-point 123 :   0.1429-0.0000 0.5000  plane waves:     688
 k-point 124 :   0.2143-0.0000 0.5000  plane waves:     680
 k-point 125 :   0.2857 0.0000 0.5000  plane waves:     680
 k-point 126 :   0.3571 0.0000 0.5000  plane waves:     676
 k-point 127 :   0.4286-0.0000 0.5000  plane waves:     680
 k-point 128 :   0.5000 0.0000 0.5000  plane waves:     676
 k-point 129 :   0.0714 0.0714 0.5000  plane waves:     676
 k-point 130 :   0.1429 0.0714 0.5000  plane waves:     678
 k-point 131 :   0.2143 0.0714 0.5000  plane waves:     684
 k-point 132 :   0.2857 0.0714 0.5000  plane waves:     686
 k-point 133 :   0.3571 0.0714 0.5000  plane waves:     684
 k-point 134 :   0.4286 0.0714 0.5000  plane waves:     692
 k-point 135 :   0.1429 0.1429 0.5000  plane waves:     680
 k-point 136 :   0.2143 0.1429 0.5000  plane waves:     688
 k-point 137 :   0.2857 0.1429 0.5000  plane waves:     686
 k-point 138 :   0.3571 0.1429 0.5000  plane waves:     690
 k-point 139 :   0.4286 0.1429 0.5000  plane waves:     690
 k-point 140 :   0.2143 0.2143 0.5000  plane waves:     690
 k-point 141 :   0.2857 0.2143 0.5000  plane waves:     692
 k-point 142 :   0.3571 0.2143 0.5000  plane waves:     686
 k-point 143 :   0.2857 0.2857 0.5000  plane waves:     686
 k-point 144 :   0.3571 0.2857 0.5000  plane waves:     688

 maximum and minimum number of plane-waves per node :       713      676

 maximum number of plane-waves:       713
 maximum index in each direction: 
   IXMAX=    4   IYMAX=    4   IZMAX=    8
   IXMIN=   -5   IYMIN=   -5   IZMIN=   -8


 serial   3D FFT for wavefunctions
 parallel 3D FFT for charge:
    minimum data exchange during FFTs selected (reduces bandwidth)


 total amount of memory used by VASP MPI-rank0    47870. kBytes
=======================================================================

   base      :      30000. kBytes
   nonl-proj :      14952. kBytes
   fftplans  :        254. kBytes
   grid      :        864. kBytes
   one-center:         31. kBytes
   wavefun   :       1769. kBytes
 
     INWAV:  cpu time      0.0000: real time      0.0001
 Broyden mixing: mesh for mixing (old mesh)
   NGX =  9   NGY =  9   NGZ = 17
  (NGX  = 40   NGY  = 40   NGZ  = 72)
  gives a total of   1377 points

 initial charge density was supplied:
 charge density of overlapping atoms calculated
 number of electron      32.0000000 magnetization 
 keeping initial charge density in first step


--------------------------------------------------------------------------------------------------------


 Maximum index for augmentation-charges          730 (set IRDMAX)


--------------------------------------------------------------------------------------------------------


 First call to EWALD:  gamma=   0.561
 Maximum number of real-space cells 3x 3x 2
 Maximum number of reciprocal cells 2x 2x 4

    FEWALD:  cpu time      0.0015: real time      0.0015


--------------------------------------- Iteration      1(   1)  ---------------------------------------


    POTLOK:  cpu time      0.0038: real time      0.0039
    SETDIJ:  cpu time      0.0023: real time      0.0023
     EDDAV:  cpu time      0.6479: real time      0.6512
       DOS:  cpu time      0.0011: real time      0.0011
    --------------------------------------------
      LOOP:  cpu time      0.6551: real time      0.6585

 eigenvalue-minimisations  :  6912
 total energy-change (2. order) : 0.1445457E+03  (-0.2313819E+04)
 number of electron      32.0000000 magnetization 
 augmentation part       32.0000000 magnetization 

 Free energy of the ion-electron system (eV)
  ---------------------------------------------------
  alpha Z        PSCENC =       303.71314961
  Ewald energy   TEWEN  =     -4240.69024974
  -Hartree energ DENC   =      -819.48907223
  -exchange      EXHF   =         0.00000000
  -V(xc)+E(xc)   XCENC  =       127.32804754
  PAW double counting   =      4131.50523274    -4061.67189606
  entropy T*S    EENTRO =        -0.00138020
  eigenvalues    EBANDS =      -152.57777000
  atomic energy  EATOM  =      4856.42966544
  Solvation  Ediel_sol  =         0.00000000
  ---------------------------------------------------
  free energy    TOTEN  =       144.54572711 eV

  energy without entropy =      144.54710731  energy(sigma->0) =      144.54641721


--------------------------------------------------------------------------------------------------------




--------------------------------------- Iteration      1(   2)  ---------------------------------------


     EDDAV:  cpu time      0.7152: real time      0.7207
       DOS:  cpu time      0.0007: real time      0.0007
    --------------------------------------------
      LOOP:  cpu time      0.7159: real time      0.7214

 eigenvalue-minimisations  :  7344
 total energy-change (2. order) :-0.1559025E+03  (-0.1550238E+03)
 number of electron      32.0000000 magnetization 
 augmentation part       32.0000000 magnetization 

 Free energy of the ion-electron system (eV)
  ---------------------------------------------------
  alpha Z        PSCENC =       303.71314961
  Ewald energy   TEWEN  =     -4240.69024974
  -Hartree energ DENC   =      -819.48907223
  -exchange      EXHF   =         0.00000000
  -V(xc)+E(xc)   XCENC  =       127.32804754
  PAW double counting   =      4131.50523274    -4061.67189606
  entropy T*S    EENTRO =        -0.00469022
  eigenvalues    EBANDS =      -308.47695280
  atomic energy  EATOM  =      4856.42966544
  Solvation  Ediel_sol  =         0.00000000
  ---------------------------------------------------
  free energy    TOTEN  =       -11.35676570 eV

  energy without entropy =      -11.35207548  energy(sigma->0) =      -11.35442059


--------------------------------------------------------------------------------------------------------




--------------------------------------- Iteration      1(   3)  ---------------------------------------


     EDDAV:  cpu time      0.9931: real time      0.9979
       DOS:  cpu time      0.0007: real time      0.0007
    --------------------------------------------
      LOOP:  cpu time      0.9938: real time      0.9986

 eigenvalue-minimisations  :  8976
 total energy-change (2. order) :-0.1397507E+01  (-0.1390738E+01)
 number of electron      32.0000000 magnetization 
 augmentation part       32.0000000 magnetization 

 Free energy of the ion-electron system (eV)
  ---------------------------------------------------
  alpha Z        PSCENC =       303.71314961
  Ewald energy   TEWEN  =     -4240.69024974
  -Hartree energ DENC   =      -819.48907223
  -exchange      EXHF   =         0.00000000
  -V(xc)+E(xc)   XCENC  =       127.32804754
  PAW double counting   =      4131.50523274    -4061.67189606
  entropy T*S    EENTRO =        -0.00567049
  eigenvalues    EBANDS =      -309.87347995
  atomic energy  EATOM  =      4856.42966544
  Solvation  Ediel_sol  =         0.00000000
  ---------------------------------------------------
  free energy    TOTEN  =       -12.75427313 eV

  energy without entropy =      -12.74860264  energy(sigma->0) =      -12.75143788


--------------------------------------------------------------------------------------------------------




--------------------------------------- Iteration      1(   4)  ---------------------------------------


     EDDAV:  cpu time      1.2219: real time      1.2276
       DOS:  cpu time      0.0007: real time      0.0007
    --------------------------------------------
      LOOP:  cpu time      1.2226: real time      1.2282

 eigenvalue-minimisations  : 10344
 total energy-change (2. order) :-0.4415651E-02  (-0.4415393E-02)
 number of electron      32.0000000 magnetization 
 augmentation part       32.0000000 magnetization 

 Free energy of the ion-electron system (eV)
  ---------------------------------------------------
  alpha Z        PSCENC =       303.71314961
  Ewald energy   TEWEN  =     -4240.69024974
  -Hartree energ DENC   =      -819.48907223
  -exchange      EXHF   =         0.00000000
  -V(xc)+E(xc)   XCENC  =       127.32804754
  PAW double counting   =      4131.50523274    -4061.67189606
  entropy T*S    EENTRO =        -0.00568785
  eigenvalues    EBANDS =      -309.87787824
  atomic energy  EATOM  =      4856.42966544
  Solvation  Ediel_sol  =         0.00000000
  ---------------------------------------------------
  free energy    TOTEN  =       -12.75868878 eV

  energy without entropy =      -12.75300093  energy(sigma->0) =      -12.75584485


--------------------------------------------------------------------------------------------------------




--------------------------------------- Iteration      1(   5)  ---------------------------------------


     EDDAV:  cpu time      1.0833: real time      1.0885
       DOS:  cpu time      0.0006: real time      0.0006
    CHARGE:  cpu time      0.0379: real time      0.0380
    MIXING:  cpu time      0.0003: real time      0.0003
    --------------------------------------------
      LOOP:  cpu time      1.1221: real time      1.1274

 eigenvalue-minimisations  :  9384
 total energy-change (2. order) :-0.1480091E-05  (-0.1480411E-05)
 number of electron      31.9999996 magnetization 
 augmentation part        7.9512110 magnetization 

 Broyden mixing:
  rms(total) = 0.19703E+01    rms(broyden)= 0.19701E+01
  rms(prec ) = 0.21891E+01
  weight for this iteration     100.00

 Free energy of the ion-electron system (eV)
  ---------------------------------------------------
  alpha Z        PSCENC =       303.71314961
  Ewald energy   TEWEN  =     -4240.69024974
  -Hartree energ DENC   =      -819.48907223
  -exchange      EXHF   =         0.00000000
  -V(xc)+E(xc)   XCENC  =       127.32804754
  PAW double counting   =      4131.50523274    -4061.67189606
  entropy T*S    EENTRO =        -0.00568785
  eigenvalues    EBANDS =      -309.87787972
  atomic energy  EATOM  =      4856.42966544
  Solvation  Ediel_sol  =         0.00000000
  ---------------------------------------------------
  free energy    TOTEN  =       -12.75869026 eV

  energy without entropy =      -12.75300240  energy(sigma->0) =      -12.75584633


--------------------------------------------------------------------------------------------------------




--------------------------------------- Iteration      1(   6)  ---------------------------------------


    POTLOK:  cpu time      0.0035: real time      0.0037
    SETDIJ:  cpu time      0.0021: real time      0.0021
     EDDAV:  cpu time      0.6805: real time      0.6838
       DOS:  cpu time      0.0007: real time      0.0007
    CHARGE:  cpu time      0.0369: real time      0.0370
    MIXING:  cpu time      0.0005: real time      0.0005
    --------------------------------------------
      LOOP:  cpu time      0.7242: real time      0.7278

 eigenvalue-minimisations  :  7200
 total energy-change (2. order) : 0.6765349E+00  (-0.2610006E+00)
 number of electron      31.9999996 magnetization 
 augmentation part        8.1853192 magnetization 

 Broyden mixing:
  rms(total) = 0.59659E+00    rms(broyden)= 0.59658E+00
  rms(prec ) = 0.63620E+00
  weight for this iteration     100.00

 eigenvalues of (default mixing * dielectric matrix)
  average eigenvalue GAMMA=   1.4064
  1.4064

 Free energy of the ion-electron system (eV)
  ---------------------------------------------------
  alpha Z        PSCENC =       303.71314961
  Ewald energy   TEWEN  =     -4240.69024974
  -Hartree energ DENC   =      -788.25840686
  -exchange      EXHF   =         0.00000000
  -V(xc)+E(xc)   XCENC  =       125.99052548
  PAW double counting   =      4438.71150965    -4372.94194880
  entropy T*S    EENTRO =        -0.00509592
  eigenvalues    EBANDS =      -335.03130428
  atomic energy  EATOM  =      4856.42966544
  Solvation  Ediel_sol  =         0.00000000
  ---------------------------------------------------
  free energy    TOTEN  =       -12.08215541 eV

  energy without entropy =      -12.07705949  energy(sigma->0) =      -12.07960745


--------------------------------------------------------------------------------------------------------




--------------------------------------- Iteration      1(   7)  ---------------------------------------


    POTLOK:  cpu time      0.0034: real time      0.0036
    SETDIJ:  cpu time      0.0020: real time      0.0020
     EDDAV:  cpu time      1.0520: real time      1.0568
       DOS:  cpu time      0.0007: real time      0.0007
    CHARGE:  cpu time      0.0371: real time      0.0372
    MIXING:  cpu time      0.0012: real time      0.0012
    --------------------------------------------
      LOOP:  cpu time      1.0964: real time      1.1015

 eigenvalue-minimisations  :  9600
 total energy-change (2. order) : 0.3261445E-01  (-0.1450918E-01)
 number of electron      31.9999996 magnetization 
 augmentation part        8.2351946 magnetization 

 Broyden mixing:
  rms(total) = 0.18483E+00    rms(broyden)= 0.18482E+00
  rms(prec ) = 0.19668E+00
  weight for this iteration     100.00

 eigenvalues of (default mixing * dielectric matrix)
  average eigenvalue GAMMA=   1.9306
  1.1656  2.6957

 Free energy of the ion-electron system (eV)
  ---------------------------------------------------
  alpha Z        PSCENC =       303.71314961
  Ewald energy   TEWEN  =     -4240.69024974
  -Hartree energ DENC   =      -780.66931626
  -exchange      EXHF   =         0.00000000
  -V(xc)+E(xc)   XCENC  =       125.64471690
  PAW double counting   =      4559.81691162    -4495.07499533
  entropy T*S    EENTRO =        -0.00536875
  eigenvalues    EBANDS =      -341.21405445
  atomic energy  EATOM  =      4856.42966544
  Solvation  Ediel_sol  =         0.00000000
  ---------------------------------------------------
  free energy    TOTEN  =       -12.04954095 eV

  energy without entropy =      -12.04417221  energy(sigma->0) =      -12.04685658


--------------------------------------------------------------------------------------------------------




--------------------------------------- Iteration      1(   8)  ---------------------------------------


    POTLOK:  cpu time      0.0035: real time      0.0037
    SETDIJ:  cpu time      0.0027: real time      0.0027
     EDDAV:  cpu time      0.7118: real time      0.7152
       DOS:  cpu time      0.0007: real time      0.0007
    CHARGE:  cpu time      0.0367: real time      0.0368
    MIXING:  cpu time      0.0003: real time      0.0003
    --------------------------------------------
      LOOP:  cpu time      0.7556: real time      0.7594

 eigenvalue-minimisations  :  7368
 total energy-change (2. order) : 0.2275454E-02  (-0.7841767E-03)
 number of electron      31.9999996 magnetization 
 augmentation part        8.2273447 magnetization 

 Broyden mixing:
  rms(total) = 0.26231E-01    rms(broyden)= 0.26220E-01
  rms(prec ) = 0.28310E-01
  weight for this iteration     100.00

 eigenvalues of (default mixing * dielectric matrix)
  average eigenvalue GAMMA=   1.5787
  1.0978  1.2333  2.4050

 Free energy of the ion-electron system (eV)
  ---------------------------------------------------
  alpha Z        PSCENC =       303.71314961
  Ewald energy   TEWEN  =     -4240.69024974
  -Hartree energ DENC   =      -780.49486472
  -exchange      EXHF   =         0.00000000
  -V(xc)+E(xc)   XCENC  =       125.61158787
  PAW double counting   =      4632.71681878    -4568.00678726
  entropy T*S    EENTRO =        -0.00546352
  eigenvalues    EBANDS =      -341.32112197
  atomic energy  EATOM  =      4856.42966544
  Solvation  Ediel_sol  =         0.00000000
  ---------------------------------------------------
  free energy    TOTEN  =       -12.04726550 eV

  energy without entropy =      -12.04180198  energy(sigma->0) =      -12.04453374


--------------------------------------------------------------------------------------------------------




--------------------------------------- Iteration      1(   9)  ---------------------------------------


    POTLOK:  cpu time      0.0034: real time      0.0036
    SETDIJ:  cpu time      0.0020: real time      0.0020
     EDDAV:  cpu time      1.0202: real time      1.0248
       DOS:  cpu time      0.0007: real time      0.0007
    CHARGE:  cpu time      0.0361: real time      0.0363
    MIXING:  cpu time      0.0003: real time      0.0003
    --------------------------------------------
      LOOP:  cpu time      1.0627: real time      1.0676

 eigenvalue-minimisations  :  9120
 total energy-change (2. order) : 0.1950626E-03  (-0.2151043E-04)
 number of electron      31.9999996 magnetization 
 augmentation part        8.2270224 magnetization 

 Broyden mixing:
  rms(total) = 0.29729E-02    rms(broyden)= 0.29715E-02
  rms(prec ) = 0.36757E-02
  weight for this iteration     100.00

 eigenvalues of (default mixing * dielectric matrix)
  average eigenvalue GAMMA=   1.6513
  2.4867  1.0107  1.1794  1.9286

 Free energy of the ion-electron system (eV)
  ---------------------------------------------------
  alpha Z        PSCENC =       303.71314961
  Ewald energy   TEWEN  =     -4240.69024974
  -Hartree energ DENC   =      -780.72757290
  -exchange      EXHF   =         0.00000000
  -V(xc)+E(xc)   XCENC  =       125.62391516
  PAW double counting   =      4625.33925053    -4560.56361620
  entropy T*S    EENTRO =        -0.00543919
  eigenvalues    EBANDS =      -341.16617317
  atomic energy  EATOM  =      4856.42966544
  Solvation  Ediel_sol  =         0.00000000
  ---------------------------------------------------
  free energy    TOTEN  =       -12.04707044 eV

  energy without entropy =      -12.04163125  energy(sigma->0) =      -12.04435084


--------------------------------------------------------------------------------------------------------




--------------------------------------- Iteration      1(  10)  ---------------------------------------


    POTLOK:  cpu time      0.0032: real time      0.0034
    SETDIJ:  cpu time      0.0020: real time      0.0020
     EDDAV:  cpu time      0.9930: real time      0.9994
       DOS:  cpu time      0.0007: real time      0.0007
    CHARGE:  cpu time      0.0366: real time      0.0367
    MIXING:  cpu time      0.0005: real time      0.0005
    --------------------------------------------
      LOOP:  cpu time      1.0361: real time      1.0428

 eigenvalue-minimisations  :  9048
 total energy-change (2. order) :-0.1248417E-04  (-0.1371300E-05)
 number of electron      31.9999996 magnetization 
 augmentation part        8.2271102 magnetization 

 Broyden mixing:
  rms(total) = 0.82001E-03    rms(broyden)= 0.81955E-03
  rms(prec ) = 0.10275E-02
  weight for this iteration     100.00

 eigenvalues of (default mixing * dielectric matrix)
  average eigenvalue GAMMA=   1.7052
  2.5856  2.1548  0.9897  1.1861  1.6099

 Free energy of the ion-electron system (eV)
  ---------------------------------------------------
  alpha Z        PSCENC =       303.71314961
  Ewald energy   TEWEN  =     -4240.69024974
  -Hartree energ DENC   =      -780.75614364
  -exchange      EXHF   =         0.00000000
  -V(xc)+E(xc)   XCENC  =       125.62478895
  PAW double counting   =      4627.97744679    -4563.16716250
  entropy T*S    EENTRO =        -0.00543644
  eigenvalues    EBANDS =      -341.17314139
  atomic energy  EATOM  =      4856.42966544
  Solvation  Ediel_sol  =         0.00000000
  ---------------------------------------------------
  free energy    TOTEN  =       -12.04708292 eV

  energy without entropy =      -12.04164648  energy(sigma->0) =      -12.04436470


--------------------------------------------------------------------------------------------------------




--------------------------------------- Iteration      1(  11)  ---------------------------------------


    POTLOK:  cpu time      0.0033: real time      0.0035
    SETDIJ:  cpu time      0.0020: real time      0.0020
     EDDAV:  cpu time      0.7600: real time      0.7636
       DOS:  cpu time      0.0007: real time      0.0007
    --------------------------------------------
      LOOP:  cpu time      0.7659: real time      0.7698

 eigenvalue-minimisations  :  7368
 total energy-change (2. order) :-0.5006314E-07  (-0.1174120E-06)
 number of electron      31.9999996 magnetization 
 augmentation part        8.2271102 magnetization 

 Free energy of the ion-electron system (eV)
  ---------------------------------------------------
  alpha Z        PSCENC =       303.71314961
  Ewald energy   TEWEN  =     -4240.69024974
  -Hartree energ DENC   =      -780.76805497
  -exchange      EXHF   =         0.00000000
  -V(xc)+E(xc)   XCENC  =       125.62523850
  PAW double counting   =      4628.52770352    -4563.70343378
  entropy T*S    EENTRO =        -0.00543640
  eigenvalues    EBANDS =      -341.17566515
  atomic energy  EATOM  =      4856.42966544
  Solvation  Ediel_sol  =         0.00000000
  ---------------------------------------------------
  free energy    TOTEN  =       -12.04708297 eV

  energy without entropy =      -12.04164657  energy(sigma->0) =      -12.04436477


--------------------------------------------------------------------------------------------------------




 average (electrostatic) potential at core
  the test charge radii are     0.9952
  (the norm of the test charge is              1.0000)
       1 -89.4843       2 -89.4843
 
 
 
 E-fermi :  11.1226     XC(G=0): -13.6991     alpha+bet :-16.6031

 Fermi energy:        11.1226316233

 k-point     1 :       0.0000    0.0000    0.0000
  band No.  band energies     occupation 
      1     -41.4886      2.00000
      2     -41.2994      2.00000
      3     -41.2994      2.00000
      4     -41.2593      2.00000
      5     -41.2593      2.00000
      6     -41.1599      2.00000
      7       1.4215      2.00000
      8       4.0707      2.00000
      9       7.1940      2.00000
     10       7.7198      2.00000
     11       7.7198      2.00000
     12       8.0848      2.00000
     13       8.0848      2.00000
     14       9.3390      2.00000
     15       9.3390      2.00000
     16      10.4138      2.00000
     17      10.9160      2.00000
     18      10.9160      2.00000
     19      15.7969      0.00000
     20      26.2356      0.00000
     21      26.8063      0.00000
     22      28.3859      0.00000
     23      32.1620      0.00000
     24      32.1620      0.00000

 k-point     2 :       0.0714   -0.0000    0.0000
  band No.  band energies     occupation 
      1     -41.4822      2.00000
      2     -41.3175      2.00000
      3     -41.3041      2.00000
      4     -41.2782      2.00000
      5     -41.2629      2.00000
      6     -41.1611      2.00000
      7       1.6075      2.00000
      8       4.2417      2.00000
      9       7.1784      2.00000
     10       7.7103      2.00000
     11       7.8620      2.00000
     12       7.9957      2.00000
     13       8.2198      2.00000
     14       9.0954      2.00000
     15       9.2485      2.00000
     16       9.5231      2.00000
     17      10.9511      2.00000
     18      12.0858      0.00000
     19      15.7783      0.00000
     20      26.4918      0.00000
     21      27.0843      0.00000
     22      28.6115      0.00000
     23      31.0975      0.00000
     24      31.2805      0.00000

 k-point     3 :       0.1429   -0.0000    0.0000
  band No.  band energies     occupation 
      1     -41.4643      2.00000
      2     -41.3699      2.00000
      3     -41.3313      2.00000
      4     -41.3193      2.00000
      5     -41.2737      2.00000
      6     -41.1650      2.00000
      7       2.1420      2.00000
      8       4.7001      2.00000
      9       7.0297      2.00000
     10       7.6586      2.00000
     11       7.9817      2.00000
     12       8.1505      2.00000
     13       8.2751      2.00000
     14       8.6116      2.00000
     15       9.0200      2.00000
     16       9.0959      2.00000
     17      11.0237      1.99485
     18      13.5861      0.00000
     19      15.7305      0.00000
     20      26.6088      0.00000
     21      27.7870      0.00000
     22      28.6221      0.00000
     23      29.6390      0.00000
     24      29.9964      0.00000

 k-point     4 :       0.2143   -0.0000    0.0000
  band No.  band energies     occupation 
      1     -41.4459      2.00000
      2     -41.4378      2.00000
      3     -41.4074      2.00000
      4     -41.3407      2.00000
      5     -41.2894      2.00000
      6     -41.1725      2.00000
[...]
      5     -41.2615      2.00000
      6     -41.2615      2.00000
      7       4.8391      2.00000
      8       4.8391      2.00000
      9       6.1319      2.00000
     10       6.1319      2.00000
     11       8.9687      2.00000
     12       8.9687      2.00000
     13       9.5157      2.00000
     14       9.5157      2.00000
     15      11.0752      1.82002
     16      11.0752      1.81999
     17      12.1921      0.00000
     18      12.1921      0.00000
     19      19.7429      0.00000
     20      19.7429      0.00000
     21      25.3521      0.00000
     22      25.3521      0.00000
     23      26.4896      0.00000
     24      26.4896      0.00000

 k-point   134 :       0.4286    0.0714    0.5000
  band No.  band energies     occupation 
      1     -41.6608      2.00000
      2     -41.6608      2.00000
      3     -41.3846      2.00000
      4     -41.3846      2.00000
      5     -41.2573      2.00000
      6     -41.2573      2.00000
      7       4.7512      2.00000
      8       4.7512      2.00000
      9       6.0324      2.00000
     10       6.0324      2.00000
     11       9.0347      2.00000
     12       9.0347      2.00000
     13      10.1498      2.00000
     14      10.1498      2.00000
     15      11.1859      0.07342
     16      11.1859      0.07341
     17      13.2771      0.00000
     18      13.2771      0.00000
     19      17.9204      0.00000
     20      17.9204      0.00000
     21      25.3926      0.00000
     22      25.3926      0.00000
     23      25.9170      0.00000
     24      25.9170      0.00000

 k-point   135 :       0.1429    0.1429    0.5000
  band No.  band energies     occupation 
      1     -41.4749      2.00000
      2     -41.4749      2.00000
      3     -41.3386      2.00000
      4     -41.3386      2.00000
      5     -41.2784      2.00000
      6     -41.2784      2.00000
      7       4.8356      2.00000
      8       4.8356      2.00000
      9       6.5603      2.00000
     10       6.5603      2.00000
     11       7.1907      2.00000
     12       7.1907      2.00000
     13       9.0111      2.00000
     14       9.0111      2.00000
     15      10.3220      2.00000
     16      10.3220      2.00000
     17      10.8991      2.00000
     18      10.8991      2.00000
     19      23.7087      0.00000
     20      23.7087      0.00000
     21      26.3602      0.00000
     22      26.3602      0.00000
     23      27.1271      0.00000
     24      27.1271      0.00000

 k-point   136 :       0.2143    0.1429    0.5000
  band No.  band energies     occupation 
      1     -41.5388      2.00000
      2     -41.5388      2.00000
      3     -41.3686      2.00000
      4     -41.3686      2.00000
      5     -41.2691      2.00000
      6     -41.2690      2.00000
      7       5.1931      2.00000
      8       5.1931      2.00000
      9       6.5302      2.00000
     10       6.5302      2.00000
     11       7.3122      2.00000
     12       7.3122      2.00000
     13       9.0865      2.00000
     14       9.0865      2.00000
     15      10.8950      2.00000
     16      10.8950      2.00000
     17      11.2954      0.00000
     18      11.2954      0.00000
     19      22.9653      0.00000
     20      22.9653      0.00000
     21      25.1829      0.00000
     22      25.1829      0.00000
     23      26.4074      0.00000
     24      26.4074      0.00000

 k-point   137 :       0.2857    0.1429    0.5000
  band No.  band energies     occupation 
      1     -41.5952      2.00000
      2     -41.5952      2.00000
      3     -41.3959      2.00000
      4     -41.3959      2.00000
      5     -41.2604      2.00000
      6     -41.2604      2.00000
      7       5.2064      2.00000
      8       5.2064      2.00000
      9       6.3898      2.00000
     10       6.3898      2.00000
     11       8.0080      2.00000
     12       8.0080      2.00000
     13       9.0374      2.00000
     14       9.0374      2.00000
     15      11.1287      0.86419
     16      11.1287      0.86412
     17      12.4079      0.00000
     18      12.4079      0.00000
     19      20.9296      0.00000
     20      20.9296      0.00000
     21      24.7430      0.00000
     22      24.7430      0.00000
     23      26.0007      0.00000
     24      26.0007      0.00000

 k-point   138 :       0.3571    0.1429    0.5000
  band No.  band energies     occupation 
      1     -41.6340      2.00000
      2     -41.6340      2.00000
      3     -41.4150      2.00000
      4     -41.4150      2.00000
      5     -41.2544      2.00000
      6     -41.2544      2.00000
      7       5.1248      2.00000
      8       5.1248      2.00000
      9       6.2697      2.00000
     10       6.2697      2.00000
     11       8.4022      2.00000
     12       8.4022      2.00000
     13       9.4230      2.00000
     14       9.4230      2.00000
     15      11.1229      0.99488
     16      11.1229      0.99482
     17      13.7873      0.00000
     18      13.7873      0.00000
     19      18.8066      0.00000
     20      18.8066      0.00000
     21      24.1938      0.00000
     22      24.1938      0.00000
     23      26.0689      0.00000
     24      26.0689      0.00000

 k-point   139 :       0.4286    0.1429    0.5000
  band No.  band energies     occupation 
      1     -41.6475      2.00000
      2     -41.6475      2.00000
      3     -41.4220      2.00000
      4     -41.4220      2.00000
      5     -41.2523      2.00000
      6     -41.2523      2.00000
      7       5.0868      2.00000
      8       5.0868      2.00000
      9       6.2275      2.00000
     10       6.2275      2.00000
     11       8.4219      2.00000
     12       8.4219      2.00000
     13       9.7989      2.00000
     14       9.7989      2.00000
     15      11.0467      1.96829
     16      11.0467      1.96829
     17      14.6793      0.00000
     18      14.6793      0.00000
     19      17.6344      0.00000
     20      17.6344      0.00000
     21      23.9352      0.00000
     22      23.9352      0.00000
     23      26.1545      0.00000
     24      26.1545      0.00000

 k-point   140 :       0.2143    0.2143    0.5000
  band No.  band energies     occupation 
      1     -41.5786      2.00000
      2     -41.5786      2.00000
      3     -41.4090      2.00000
      4     -41.4090      2.00000
      5     -41.2599      2.00000
      6     -41.2599      2.00000
      7       5.4363      2.00000
      8       5.4363      2.00000
      9       6.6806      2.00000
     10       6.6806      2.00000
     11       7.3410      2.00000
     12       7.3410      2.00000
     13       8.8601      2.00000
     14       8.8601      2.00000
     15      11.1748      0.14003
     16      11.1748      0.14001
     17      12.4924      0.00000
     18      12.4924      0.00000
     19      21.6827      0.00000
     20      21.6827      0.00000
     21      23.9375      0.00000
     22      23.9375      0.00000
     23      26.1108      0.00000
     24      26.1108      0.00000

 k-point   141 :       0.2857    0.2143    0.5000
  band No.  band energies     occupation 
      1     -41.6060      2.00000
      2     -41.6060      2.00000
      3     -41.4457      2.00000
      4     -41.4457      2.00000
      5     -41.2526      2.00000
      6     -41.2526      2.00000
      7       5.5187      2.00000
      8       5.5187      2.00000
      9       6.6199      2.00000
     10       6.6199      2.00000
     11       7.7128      2.00000
     12       7.7128      2.00000
     13       8.8118      2.00000
     14       8.8118      2.00000
     15      11.1887      0.06161
     16      11.1887      0.06160
     17      14.0429      0.00000
     18      14.0429      0.00000
     19      19.8441      0.00000
     20      19.8441      0.00000
     21      22.8262      0.00000
     22      22.8262      0.00000
     23      26.5580      0.00000
     24      26.5580      0.00000

 k-point   142 :       0.3571    0.2143    0.5000
  band No.  band energies     occupation 
      1     -41.6185      2.00000
      2     -41.6185      2.00000
      3     -41.4680      2.00000
      4     -41.4680      2.00000
      5     -41.2486      2.00000
      6     -41.2486      2.00000
      7       5.5428      2.00000
      8       5.5428      2.00000
      9       6.5482      2.00000
     10       6.5483      2.00000
     11       7.8140      2.00000
     12       7.8140      2.00000
     13       9.1336      2.00000
     14       9.1336      2.00000
     15      11.0640      1.90304
     16      11.0640      1.90302
     17      15.5765      0.00000
     18      15.5765      0.00000
     19      18.1160      0.00000
     20      18.1160      0.00000
     21      22.1723      0.00000
     22      22.1723      0.00000
     23      27.0303      0.00000
     24      27.0303      0.00000

 k-point   143 :       0.2857    0.2857    0.5000
  band No.  band energies     occupation 
      1     -41.5975      2.00000
      2     -41.5975      2.00000
      3     -41.4951      2.00000
      4     -41.4951      2.00000
      5     -41.2473      2.00000
      6     -41.2473      2.00000
      7       5.8029      2.00000
      8       5.8029      2.00000
      9       6.7516      2.00000
     10       6.7516      2.00000
     11       7.5215      2.00000
     12       7.5215      2.00000
     13       8.7634      2.00000
     14       8.7634      2.00000
     15      11.0782      1.79089
     16      11.0782      1.79086
     17      15.7916      0.00000
     18      15.7916      0.00000
     19      18.8002      0.00000
     20      18.8002      0.00000
     21      21.1566      0.00000
     22      21.1566      0.00000
     23      27.5444      0.00000
     24      27.5444      0.00000

 k-point   144 :       0.3571    0.2857    0.5000
  band No.  band energies     occupation 
      1     -41.5854      2.00000
      2     -41.5854      2.00000
      3     -41.5218      2.00000
      4     -41.5218      2.00000
      5     -41.2457      2.00000
      6     -41.2457      2.00000
      7       5.9515      2.00000
      8       5.9515      2.00000
      9       6.6987      2.00000
     10       6.6987      2.00000
     11       7.5016      2.00000
     12       7.5016      2.00000
     13       8.8117      2.00000
     14       8.8118      2.00000
     15      10.9817      1.99993
     16      10.9817      1.99993
     17      17.1330      0.00000
     18      17.1330      0.00000
     19      17.8522      0.00000
     20      17.8522      0.00000
     21      20.4239      0.00000
     22      20.4239      0.00000
     23      28.2211      0.00000
     24      28.2211      0.00000


--------------------------------------------------------------------------------------------------------


 soft charge-density along one line, spin component           1
         0         1         2         3         4         5         6         7         8         9
 total charge-density along one line
 
 pseudopotential strength for first ion, spin component:           1
-31.681  -0.000   0.000  10.736   0.000  -0.000  -0.000  -0.000
 -0.000 -31.623  -0.000   0.000  10.677   0.000   0.000   0.000
  0.000  -0.000 -31.681  -0.000   0.000  10.736  -0.000   0.000
 10.736   0.000  -0.000  16.249  -0.000   0.000   0.000   0.000
  0.000  10.677   0.000  -0.000  16.271  -0.000  -0.000  -0.000
 -0.000   0.000  10.736   0.000  -0.000  16.249   0.000  -0.000
 -0.000   0.000  -0.000   0.000  -0.000   0.000  -3.717   0.000
 -0.000   0.000   0.000   0.000  -0.000  -0.000   0.000  -3.676
 -0.000  -0.000   0.000   0.000   0.000  -0.000  -0.000   0.000
  0.000  -0.000   0.000  -0.000   0.000  -0.000  -0.000   0.000
 -0.000   0.000  -0.000   0.000  -0.000   0.000  -0.000   0.000
 -0.000   0.000  -0.000   0.000  -0.000   0.000  -3.947   0.000
 -0.000   0.000   0.000   0.000  -0.000  -0.000   0.000  -3.901
 -0.000  -0.000   0.000   0.000   0.000  -0.000  -0.000   0.000
  0.000  -0.000   0.000  -0.000   0.000  -0.000  -0.000   0.000
 -0.000   0.000  -0.000   0.000  -0.000   0.000  -0.000   0.000
 -0.000   0.000   0.000  -0.000   0.000   0.000  -0.000   0.000
  0.000  -0.000  -0.000   0.000  -0.000  -0.000   0.000  -0.000
 total augmentation occupancy for first ion, spin component:           1
  2.002   0.000  -0.000  -0.021   0.000   0.000   0.000  -0.000  -0.000   0.000   0.004  -0.000   0.000   0.000   0.000  -0.004
 -0.000   2.002   0.000   0.000  -0.019   0.000   0.000  -0.000   0.000   0.000  -0.000   0.000   0.000   0.000  -0.000   0.000
 -0.000   0.000   2.002   0.000  -0.000  -0.021   0.004   0.000   0.000  -0.000   0.000  -0.004   0.000  -0.000   0.000  -0.000
 -0.021   0.000   0.000   0.050   0.000   0.000  -0.000   0.000   0.000   0.000  -0.025  -0.000  -0.000  -0.000   0.000   0.024
  0.000  -0.019   0.000  -0.000   0.042   0.000   0.000   0.000   0.000   0.000   0.000   0.000   0.000   0.000   0.000   0.000
  0.000   0.000  -0.021   0.000   0.000   0.050  -0.025   0.000  -0.000   0.000   0.000   0.024   0.000   0.000  -0.000   0.000
  0.000   0.000   0.004  -0.000   0.000  -0.025   4.984   0.000   0.000   0.000   0.000  -2.707  -0.000  -0.000   0.000  -0.000
  0.000   0.000   0.000   0.000   0.000   0.000  -0.000   4.245   0.000  -0.000  -0.000   0.000  -2.307   0.000  -0.000   0.000
 -0.000   0.000   0.000   0.000   0.000  -0.000   0.000   0.000   5.009   0.000  -0.000  -0.000  -0.000  -2.722   0.000   0.000
  0.000   0.000   0.000   0.000  -0.000   0.000  -0.000   0.000   0.000   4.245   0.000   0.000   0.000   0.000  -2.307   0.000
  0.004  -0.000  -0.000  -0.025  -0.000   0.000   0.000  -0.000  -0.000   0.000   4.984  -0.000  -0.000   0.000   0.000  -2.707
 -0.000   0.000  -0.004   0.000   0.000   0.024  -2.707  -0.000  -0.000   0.000  -0.000   2.169   0.000   0.000   0.000   0.000
  0.000  -0.000   0.000   0.000   0.000   0.000   0.000  -2.307   0.000   0.000   0.000   0.000   2.215  -0.000  -0.000  -0.000
  0.000   0.000  -0.000  -0.000   0.000   0.000  -0.000  -0.000  -2.722   0.000   0.000   0.000   0.000   2.153   0.000  -0.000
  0.000   0.000   0.000   0.000   0.000  -0.000   0.000  -0.000   0.000  -2.307   0.000  -0.000  -0.000   0.000   2.215   0.000
 -0.004  -0.000  -0.000   0.024   0.000  -0.000  -0.000  -0.000   0.000   0.000  -2.707   0.000   0.000  -0.000   0.000   2.169
  0.000   0.000   0.000   0.000   0.000   0.000  -0.000   0.000  -0.205   0.000   0.000   0.000   0.000   0.179   0.000  -0.000
 -0.000   0.000  -0.000   0.000   0.000   0.000  -0.000  -0.000   0.003   0.000   0.000   0.000   0.000   0.001   0.000  -0.000


------------------------ aborting loop because EDIFF is reached ----------------------------------------


    CHARGE:  cpu time      0.0366: real time      0.0368
    FORLOC:  cpu time      0.0003: real time      0.0003
    FORNL :  cpu time      0.0311: real time      0.0312
    STRESS:  cpu time      0.3615: real time      0.3629
    FORCOR:  cpu time      0.0032: real time      0.0032
    FORHAR:  cpu time      0.0006: real time      0.0006
    MIXING:  cpu time      0.0003: real time      0.0003
    OFIELD:  cpu time      0.0000: real time      0.0000

  FORCE on cell =-STRESS in cart. coord.  units (eV):
  Direction    XX          YY          ZZ          XY          YZ          ZX
  --------------------------------------------------------------------------------------
  Alpha Z   303.71315   303.71315   303.71315
  Ewald   -1374.27429 -1374.27429 -1492.14368     0.00000     0.00000    -0.00000
  Hartree   277.94364   277.94364   224.88215    -0.00000    -0.00000    -0.00000
  E(xc)    -170.75580  -170.75580  -170.99590    -0.00000    -0.00000    -0.00000
  Local     182.68577   182.68575   342.97532    -0.00002    -0.00000    -0.00000
  n-local   -59.15138   -60.83990   -62.78459   -12.70662     3.85878     3.32712
  augment   145.59651   145.59652   148.99400     0.00001    -0.00000    -0.00000
  Kinetic   696.73816   692.60647   704.77437   -16.87769     3.80278     1.62372
  Fock        0.00000     0.00000     0.00000     0.00000     0.00000     0.00000
  -------------------------------------------------------------------------------------
  Total      -0.41435    -0.41435    -0.58519     0.00000     0.00000    -0.00000
  in kB     -21.00856   -21.00856   -29.67039     0.00000     0.00000    -0.00000
  external pressure =      -23.90 kB  Pullay stress =        0.00 kB


 VOLUME and BASIS-vectors are now :
 -----------------------------------------------------------------------------
  energy-cutoff  :      450.00
  volume of cell :       31.60
      direct lattice vectors                 reciprocal lattice vectors
     2.760000000  0.000000000  0.000000000     0.362318841  0.209184880  0.000000000
    -1.380000000  2.390230114  0.000000000     0.000000000  0.418369760  0.000000000
     0.000000000  0.000000000  4.790000000     0.000000000  0.000000000  0.208768267

  length of vectors
     2.760000000  2.760000000  4.790000000     0.418369760  0.418369760  0.208768267


 FORCES acting on ions
    electron-ion (+dipol)            ewald-force                    non-local-force                 convergence-correction
 -----------------------------------------------------------------------------------------------
   0.374E-06 -.216E-06 0.203E-13   0.179E-11 -.111E-11 -.683E-13   -.104E-16 0.278E-16 0.000E+00   0.847E-08 -.489E-08 -.163E-12
   -.288E-06 0.166E-06 -.298E-11   -.176E-11 0.110E-11 0.683E-13   0.139E-16 -.278E-16 0.000E+00   -.846E-08 0.488E-08 -.103E-12
 -----------------------------------------------------------------------------------------------
   0.862E-07 -.497E-07 -.296E-11   0.219E-13 -.314E-14 0.000E+00   0.347E-17 0.000E+00 0.000E+00   0.123E-10 -.725E-11 -.265E-12
 
 
 POSITION                                       TOTAL-FORCE (eV/Angst)
 -----------------------------------------------------------------------------------
      0.00000      0.00000      0.00000        -0.000000      0.000000      0.000000
      0.00000      1.59349      2.39500         0.000000      0.000000      0.000000
 -----------------------------------------------------------------------------------
    total drift:                                0.000000     -0.000000     -0.000000


--------------------------------------------------------------------------------------------------------



  FREE ENERGIE OF THE ION-ELECTRON SYSTEM (eV)
  ---------------------------------------------------
  free  energy   TOTEN  =       -12.04708297 eV

  energy  without entropy=      -12.04164657  energy(sigma->0) =      -12.04436477
 


--------------------------------------------------------------------------------------------------------


    POTLOK:  cpu time      0.0058: real time      0.0059


--------------------------------------------------------------------------------------------------------


     LOOP+:  cpu time     10.5985: real time     10.6581
    4ORBIT:  cpu time      0.0000: real time      0.0000

 total amount of memory used by VASP MPI-rank0    47870. kBytes
=======================================================================

   base      :      30000. kBytes
   nonl-proj :      14952. kBytes
   fftplans  :        254. kBytes
   grid      :        864. kBytes
   one-center:         31. kBytes
   wavefun   :       1769. kBytes
 
  
  
 General timing and accounting informations for this job:
 ========================================================
  
                  Total CPU time used (sec):       11.499
                            User time (sec):       10.995
                          System time (sec):        0.504
                         Elapsed time (sec):       12.910
  
                   Maximum memory used (kb):      245332.
                   Average memory used (kb):          N/A
  
                          Minor page faults:        43898
                          Major page faults:           77
                 Voluntary context switches:         2158
