<?xml version="1.0" encoding="ISO-8859-1"?>
<modeling>
 <generator>
  <i name="program" type="string">vasp </i>
  <i name="version" type="string">6.3.2  </i>
  <i name="subversion" type="string">27Jun22 (build Aug 12 2022 00:53:59) complex                          parallel </i>
  <i name="platform" type="string">tv2STD </i>
  <i name="date" type="string">2024 11 30 </i>
  <i name="time" type="string">16:03:19 </i>
 </generator>
 <incar>
  <i type="string" name="SYSTEM">Pt-hcc</i>
  <i type="int" name="ISTART">     0</i>
  <i type="string" name="PREC">Accurate      normal | accurate</i>
  <i type="string" name="ALGO">Normal     Normal, Fast, Very_Fast</i>
  <i type="logical" name="ADDGRID"> F  </i>
  <i type="int" name="ICHARG">     2</i>
  <i type="int" name="INIWAV">     1</i>
  <i type="int" name="NELM">   100</i>
  <i type="int" name="IBRION">    -1</i>
  <i name="EDIFF">      0.00000100</i>
  <i name="EDIFFG">     -0.02000000</i>
  <i type="int" name="NSW">     0</i>
  <i type="int" name="ISIF">     2</i>
  <i type="int" name="ISYM">     1</i>
  <i name="ENCUT">    450.00000000</i>
  <i type="logical" name="LREAL"> F  </i>
  <i type="int" name="ISMEAR">     0</i>
  <i name="SIGMA">      0.05000000</i>
  <i type="int" name="NWRITE">     2</i>
  <i type="logical" name="LWAVE"> F  </i>
  <i type="logical" name="LCHARG"> F  </i>
 </incar>
 <primitive_cell>
  <structure name="primitive_cell" >
   <crystal>
    <varray name="basis" >
     <v>       2.76000000       0.00000000       0.00000000 </v>
     <v>      -1.38000000       2.39023011       0.00000000 </v>
     <v>       0.00000000       0.00000000       4.79000000 </v>
    </varray>
    <i name="volume">     31.59979821 </i>
    <varray name="rec_basis" >
     <v>       0.36231884       0.20918488       0.00000000 </v>
     <v>       0.00000000       0.41836976       0.00000000 </v>
     <v>       0.00000000       0.00000000       0.20876827 </v>
    </varray>
   </crystal>
   <varray name="positions" >
    <v>       0.00000000       0.00000000       0.00000000 </v>
    <v>       0.33333333       0.66666667       0.50000000 </v>
   </varray>
  </structure>
  <varray name="primitive_index" >
   <v type="int" >        1 </v>
   <v type="int" >        2 </v>
  </varray>
 </primitive_cell>
 <kpoints>
  <generation param="Gamma">
   <v type="int" name="divisions">      14       14       10 </v>
   <v name="usershift">      0.00000000       0.00000000       0.00000000 </v>
   <v name="genvec1">      0.07142857       0.00000000       0.00000000 </v>
   <v name="genvec2">      0.00000000       0.07142857       0.00000000 </v>
   <v name="genvec3">      0.00000000       0.00000000       0.10000000 </v>
   <v name="shift">      0.00000000       0.00000000       0.00000000 </v>
  </generation>
  <varray name="kpointlist" >
   <v>       0.00000000       0.00000000       0.00000000 </v>
   <v>       0.07142857      -0.00000000       0.00000000 </v>
   <v>       0.14285714      -0.00000000       0.00000000 </v>
   <v>       0.21428571      -0.00000000       0.00000000 </v>
   <v>       0.28571429       0.00000000       0.00000000 </v>
   <v>       0.35714286       0.00000000       0.00000000 </v>
   <v>       0.42857143      -0.00000000       0.00000000 </v>
   <v>       0.50000000       0.00000000       0.00000000 </v>
   <v>       0.07142857       0.07142857       0.00000000 </v>
   <v>       0.14285714       0.07142857       0.00000000 </v>
   <v>       0.21428571       0.07142857       0.00000000 </v>
   <v>       0.28571429       0.07142857       0.00000000 </v>
   <v>       0.35714286       0.07142857       0.00000000 </v>
   <v>       0.42857143       0.07142857       0.00000000 </v>
   <v>       0.14285714       0.14285714       0.00000000 </v>
   <v>       0.21428571       0.14285714       0.00000000 </v>
   <v>       0.28571429       0.14285714       0.00000000 </v>
   <v>       0.35714286       0.14285714       0.00000000 </v>
   <v>       0.42857143       0.14285714       0.00000000 </v>
   <v>       0.21428571       0.21428571       0.00000000 </v>
   <v>       0.28571429       0.21428571       0.00000000 </v>
   <v>       0.35714286       0.21428571       0.00000000 </v>
   <v>       0.28571429       0.28571429       0.00000000 </v>
   <v>       0.35714286       0.28571429       0.00000000 </v>
   <v>       0.00000000       0.00000000       0.10000000 </v>
   <v>       0.07142857      -0.00000000       0.10000000 </v>
   <v>       0.14285714      -0.00000000       0.10000000 </v>
   <v>       0.21428571      -0.00000000       0.10000000 </v>
   <v>       0.28571429       0.00000000       0.10000000 </v>
   <v>       0.35714286       0.00000000       0.10000000 </v>
   <v>       0.42857143      -0.00000000       0.10000000 </v>
   <v>       0.50000000       0.00000000       0.10000000 </v>
   <v>       0.07142857       0.07142857       0.10000000 </v>
   <v>       0.14285714       0.07142857       0.10000000 </v>
   <v>       0.21428571       0.07142857       0.10000000 </v>
   <v>       0.28571429       0.07142857       0.10000000 </v>
   <v>       0.35714286       0.07142857       0.10000000 </v>
   <v>       0.42857143       0.07142857       0.10000000 </v>
   <v>       0.14285714       0.14285714       0.10000000 </v>
   <v>       0.21428571       0.14285714       0.10000000 </v>
   <v>       0.28571429       0.14285714       0.10000000 </v>
   <v>       0.35714286       0.14285714       0.10000000 </v>
   <v>       0.42857143       0.14285714       0.10000000 </v>
   <v>       0.21428571       0.21428571       0.10000000 </v>
   <v>       0.28571429       0.21428571       0.10000000 </v>
   <v>       0.35714286       0.21428571       0.10000000 </v>
   <v>       0.28571429       0.28571429       0.10000000 </v>
   <v>       0.35714286       0.28571429       0.10000000 </v>
   <v>       0.00000000       0.00000000       0.20000000 </v>
   <v>       0.07142857      -0.00000000       0.20000000 </v>
   <v>       0.14285714      -0.00000000       0.20000000 </v>
   <v>       0.21428571      -0.00000000       0.20000000 </v>
   <v>       0.28571429       0.00000000       0.20000000 </v>
   <v>       0.35714286       0.00000000       0.20000000 </v>
   <v>       0.42857143      -0.00000000       0.20000000 </v>
   <v>       0.50000000       0.00000000       0.20000000 </v>
   <v>       0.07142857       0.07142857       0.20000000 </v>
   <v>       0.14285714       0.07142857       0.20000000 </v>
   <v>       0.21428571       0.07142857       0.20000000 </v>
   <v>       0.28571429       0.07142857       0.20000000 </v>
   <v>       0.35714286       0.07142857       0.20000000 </v>
   <v>       0.42857143       0.07142857       0.20000000 </v>
   <v>       0.14285714       0.14285714       0.20000000 </v>
   <v>       0.21428571       0.14285714       0.20000000 </v>
   <v>       0.28571429       0.14285714       0.20000000 </v>
   <v>       0.35714286       0.14285714       0.20000000 </v>
   <v>       0.42857143       0.14285714       0.20000000 </v>
   <v>       0.21428571       0.21428571       0.20000000 </v>
   <v>       0.28571429       0.21428571       0.20000000 </v>
   <v>       0.35714286       0.21428571       0.20000000 </v>
   <v>       0.28571429       0.28571429       0.20000000 </v>
   <v>       0.35714286       0.28571429       0.20000000 </v>
   <v>       0.00000000       0.00000000       0.30000000 </v>
   <v>       0.07142857      -0.00000000       0.30000000 </v>
   <v>       0.14285714      -0.00000000       0.30000000 </v>
   <v>       0.21428571      -0.00000000       0.30000000 </v>
   <v>       0.28571429       0.00000000       0.30000000 </v>
   <v>       0.35714286       0.00000000       0.30000000 </v>
   <v>       0.42857143      -0.00000000       0.30000000 </v>
   <v>       0.50000000       0.00000000       0.30000000 </v>
   <v>       0.07142857       0.07142857       0.30000000 </v>
   <v>       0.14285714       0.07142857       0.30000000 </v>
   <v>       0.21428571       0.07142857       0.30000000 </v>
   <v>       0.28571429       0.07142857       0.30000000 </v>
   <v>       0.35714286       0.07142857       0.30000000 </v>
   <v>       0.42857143       0.07142857       0.30000000 </v>
   <v>       0.14285714       0.14285714       0.30000000 </v>
   <v>       0.21428571       0.14285714       0.30000000 </v>
   <v>       0.28571429       0.14285714       0.30000000 </v>
   <v>       0.35714286       0.14285714       0.30000000 </v>
   <v>       0.42857143       0.14285714       0.30000000 </v>
   <v>       0.21428571       0.21428571       0.30000000 </v>
   <v>       0.28571429       0.21428571       0.30000000 </v>
   <v>       0.35714286       0.21428571       0.30000000 </v>
   <v>       0.28571429       0.28571429       0.30000000 </v>
   <v>       0.35714286       0.28571429       0.30000000 </v>
   <v>       0.00000000       0.00000000       0.40000000 </v>
   <v>       0.07142857      -0.00000000       0.40000000 </v>
   <v>       0.14285714      -0.00000000       0.40000000 </v>
   <v>       0.21428571      -0.00000000       0.40000000 </v>
   <v>       0.28571429       0.00000000       0.40000000 </v>
   <v>       0.35714286       0.00000000       0.40000000 </v>
   <v>       0.42857143      -0.00000000       0.40000000 </v>
   <v>       0.50000000       0.00000000       0.40000000 </v>
   <v>       0.07142857       0.07142857       0.40000000 </v>
   <v>       0.14285714       0.07142857       0.40000000 </v>
   <v>       0.21428571       0.07142857       0.40000000 </v>
   <v>       0.28571429       0.07142857       0.40000000 </v>
   <v>       0.35714286       0.07142857       0.40000000 </v>
   <v>       0.42857143       0.07142857       0.40000000 </v>
   <v>       0.14285714       0.14285714       0.40000000 </v>
   <v>       0.21428571       0.14285714       0.40000000 </v>
   <v>       0.28571429       0.14285714       0.40000000 </v>
   <v>       0.35714286       0.14285714       0.40000000 </v>
   <v>       0.42857143       0.14285714       0.40000000 </v>
   <v>       0.21428571       0.21428571       0.40000000 </v>
   <v>       0.28571429       0.21428571       0.40000000 </v>
   <v>       0.35714286       0.21428571       0.40000000 </v>
   <v>       0.28571429       0.28571429       0.40000000 </v>
   <v>       0.35714286       0.28571429       0.40000000 </v>
   <v>       0.00000000       0.00000000       0.50000000 </v>
   <v>       0.07142857      -0.00000000       0.50000000 </v>
   <v>       0.14285714      -0.00000000       0.50000000 </v>
   <v>       0.21428571      -0.00000000       0.50000000 </v>
   <v>       0.28571429       0.00000000       0.50000000 </v>
   <v>       0.35714286       0.00000000       0.50000000 </v>
   <v>       0.42857143      -0.00000000       0.50000000 </v>
   <v>       0.50000000       0.00000000       0.50000000 </v>
   <v>       0.07142857       0.07142857       0.50000000 </v>
   <v>       0.14285714       0.07142857       0.50000000 </v>
   <v>       0.21428571       0.07142857       0.50000000 </v>
   <v>       0.28571429       0.07142857       0.50000000 </v>
   <v>       0.35714286       0.07142857       0.50000000 </v>
   <v>       0.42857143       0.07142857       0.50000000 </v>
   <v>       0.14285714       0.14285714       0.50000000 </v>
   <v>       0.21428571       0.14285714       0.50000000 </v>
   <v>       0.28571429       0.14285714       0.50000000 </v>
   <v>       0.35714286       0.14285714       0.50000000 </v>
   <v>       0.42857143       0.14285714       0.50000000 </v>
   <v>       0.21428571       0.21428571       0.50000000 </v>
   <v>       0.28571429       0.21428571       0.50000000 </v>
   <v>       0.35714286       0.21428571       0.50000000 </v>
   <v>       0.28571429       0.28571429       0.50000000 </v>
   <v>       0.35714286       0.28571429       0.50000000 </v>
  </varray>
  <varray name="weights" >
   <v>       0.00051020 </v>
   <v>       0.00306122 </v>
   <v>       0.00306122 </v>
   <v>       0.00306122 </v>
   <v>       0.00306122 </v>
   <v>       0.00306122 </v>
   <v>       0.00306122 </v>
   <v>       0.00153061 </v>
   <v>       0.00306122 </v>
   <v>       0.00612245 </v>
   <v>       0.00612245 </v>
   <v>       0.00612245 </v>
   <v>       0.00612245 </v>
   <v>       0.00612245 </v>
   <v>       0.00306122 </v>
   <v>       0.00612245 </v>
   <v>       0.00612245 </v>
   <v>       0.00612245 </v>
   <v>       0.00306122 </v>
   <v>       0.00306122 </v>
   <v>       0.00612245 </v>
   <v>       0.00612245 </v>
   <v>       0.00306122 </v>
   <v>       0.00306122 </v>
   <v>       0.00102041 </v>
   <v>       0.00612245 </v>
   <v>       0.00612245 </v>
   <v>       0.00612245 </v>
   <v>       0.00612245 </v>
   <v>       0.00612245 </v>
   <v>       0.00612245 </v>
   <v>       0.00306122 </v>
   <v>       0.00612245 </v>
   <v>       0.01224490 </v>
   <v>       0.01224490 </v>
   <v>       0.01224490 </v>
   <v>       0.01224490 </v>
   <v>       0.01224490 </v>
   <v>       0.00612245 </v>
   <v>       0.01224490 </v>
   <v>       0.01224490 </v>
   <v>       0.01224490 </v>
   <v>       0.00612245 </v>
   <v>       0.00612245 </v>
   <v>       0.01224490 </v>
   <v>       0.01224490 </v>
   <v>       0.00612245 </v>
   <v>       0.00612245 </v>
   <v>       0.00102041 </v>
   <v>       0.00612245 </v>
   <v>       0.00612245 </v>
   <v>       0.00612245 </v>
   <v>       0.00612245 </v>
   <v>       0.00612245 </v>
   <v>       0.00612245 </v>
   <v>       0.00306122 </v>
   <v>       0.00612245 </v>
   <v>       0.01224490 </v>
   <v>       0.01224490 </v>
   <v>       0.01224490 </v>
   <v>       0.01224490 </v>
   <v>       0.01224490 </v>
   <v>       0.00612245 </v>
   <v>       0.01224490 </v>
   <v>       0.01224490 </v>
   <v>       0.01224490 </v>
   <v>       0.00612245 </v>
   <v>       0.00612245 </v>
   <v>       0.01224490 </v>
   <v>       0.01224490 </v>
   <v>       0.00612245 </v>
   <v>       0.00612245 </v>
   <v>       0.00102041 </v>
   <v>       0.00612245 </v>
   <v>       0.00612245 </v>
   <v>       0.00612245 </v>
   <v>       0.00612245 </v>
   <v>       0.00612245 </v>
   <v>       0.00612245 </v>
   <v>       0.00306122 </v>
   <v>       0.00612245 </v>
   <v>       0.01224490 </v>
   <v>       0.01224490 </v>
   <v>       0.01224490 </v>
   <v>       0.01224490 </v>
   <v>       0.01224490 </v>
   <v>       0.00612245 </v>
   <v>       0.01224490 </v>
   <v>       0.01224490 </v>
   <v>       0.01224490 </v>
   <v>       0.00612245 </v>
   <v>       0.00612245 </v>
   <v>       0.01224490 </v>
   <v>       0.01224490 </v>
   <v>       0.00612245 </v>
   <v>       0.00612245 </v>
   <v>       0.00102041 </v>
   <v>       0.00612245 </v>
   <v>       0.00612245 </v>
   <v>       0.00612245 </v>
   <v>       0.00612245 </v>
   <v>       0.00612245 </v>
   <v>       0.00612245 </v>
   <v>       0.00306122 </v>
   <v>       0.00612245 </v>
   <v>       0.01224490 </v>
   <v>       0.01224490 </v>
   <v>       0.01224490 </v>
   <v>       0.01224490 </v>
   <v>       0.01224490 </v>
   <v>       0.00612245 </v>
   <v>       0.01224490 </v>
   <v>       0.01224490 </v>
   <v>       0.01224490 </v>
   <v>       0.00612245 </v>
   <v>       0.00612245 </v>
   <v>       0.01224490 </v>
   <v>       0.01224490 </v>
   <v>       0.00612245 </v>
   <v>       0.00612245 </v>
   <v>       0.00051020 </v>
   <v>       0.00306122 </v>
   <v>       0.00306122 </v>
   <v>       0.00306122 </v>
   <v>       0.00306122 </v>
   <v>       0.00306122 </v>
   <v>       0.00306122 </v>
   <v>       0.00153061 </v>
   <v>       0.00306122 </v>
   <v>       0.00612245 </v>
   <v>       0.00612245 </v>
   <v>       0.00612245 </v>
   <v>       0.00612245 </v>
   <v>       0.00612245 </v>
   <v>       0.00306122 </v>
   <v>       0.00612245 </v>
   <v>       0.00612245 </v>
   <v>       0.00612245 </v>
   <v>       0.00306122 </v>
   <v>       0.00306122 </v>
   <v>       0.00612245 </v>
   <v>       0.00612245 </v>
   <v>       0.00306122 </v>
   <v>       0.00306122 </v>
  </varray>
 </kpoints>
 <parameters>
  <separator name="general" >
   <i type="string" name="SYSTEM">Pt-hcc</i>
   <i type="logical" name="LCOMPAT"> F  </i>
  </separator>
  <separator name="electronic" >
   <i type="string" name="PREC">accura</i>
   <i name="ENMAX">    450.00000000</i>
   <i name="ENAUG">    527.01400000</i>
   <i name="EDIFF">      0.00000100</i>
   <i type="int" name="IALGO">    38</i>
   <i type="int" name="IWAVPR">    10</i>
   <i type="int" name="NBANDS">    24</i>
   <i type="int" name="NBANDSLOW">    -1</i>
   <i type="int" name="NBANDSHIGH">    -1</i>
   <i name="NELECT">     32.00000000</i>
   <i type="int" name="TURBO">     0</i>
   <i type="int" name="IRESTART">     0</i>
   <i type="int" name="NREBOOT">     0</i>
   <i type="int" name="NMIN">     0</i>
   <i name="EREF">      0.00000000</i>
   <separator name="electronic smearing" >
    <i type="int" name="ISMEAR">     0</i>
    <i name="SIGMA">      0.05000000</i>
    <i name="KSPACING">      0.50000000</i>
    <i type="logical" name="KGAMMA"> T  </i>
    <i type="logical" name="KBLOWUP"> T  </i>
   </separator>
   <separator name="electronic projectors" >
    <i type="logical" name="LREAL"> F  </i>
    <v name="ROPT">      0.00000000</v>
    <i type="int" name="LMAXPAW">  -100</i>
    <i type="int" name="LMAXMIX">     2</i>
    <i type="logical" name="NLSPLINE"> F  </i>
   </separator>
   <separator name="electronic startup" >
    <i type="int" name="ISTART">     0</i>
    <i type="int" name="ICHARG">     2</i>
    <i type="int" name="INIWAV">     1</i>
   </separator>
   <separator name="electronic spin" >
    <i type="int" name="ISPIN">     1</i>
    <i type="logical" name="LNONCOLLINEAR"> F  </i>
    <v name="MAGMOM">      1.00000000      1.00000000</v>
    <i name="NUPDOWN">     -1.00000000</i>
    <i type="logical" name="LSORBIT"> F  </i>
    <v name="SAXIS">      0.00000000      0.00000000      1.00000000</v>
    <i type="logical" name="LSPIRAL"> F  </i>
    <v name="QSPIRAL">      0.00000000      0.00000000      0.00000000</v>
    <i type="logical" name="LZEROZ"> F  </i>
   </separator>
   <separator name="electronic exchange-correlation" >
    <i type="logical" name="LASPH"> F  </i>
    <i type="logical" name="LMETAGGA"> F  </i>
   </separator>
   <separator name="electronic convergence" >
    <i type="int" name="NELM">   100</i>
    <i type="int" name="NELMDL">    -5</i>
    <i type="int" name="NELMIN">     2</i>
    <i name="ENINI">    450.00000000</i>
    <separator name="electronic convergence detail" >
     <i type="logical" name="LDIAG"> T  </i>
     <i type="logical" name="LSUBROT"> F  </i>
     <i name="WEIMIN">      0.00000000</i>
     <i name="EBREAK">      0.00000001</i>
     <i name="DEPER">      0.30000000</i>
     <i type="int" name="NRMM">     4</i>
     <i name="TIME">      0.40000000</i>
    </separator>
   </separator>
   <separator name="electronic mixer" >
    <i name="AMIX">      0.40000000</i>
    <i name="BMIX">      1.00000000</i>
    <i name="AMIN">      0.10000000</i>
    <i name="AMIX_MAG">      1.60000000</i>
    <i name="BMIX_MAG">      1.00000000</i>
    <separator name="electronic mixer details" >
     <i type="int" name="IMIX">     4</i>
     <i type="logical" name="MIXFIRST"> F  </i>
     <i type="int" name="MAXMIX">   -45</i>
     <i name="WC">    100.00000000</i>
     <i type="int" name="INIMIX">     1</i>
     <i type="int" name="MIXPRE">     1</i>
     <i type="int" name="MREMOVE">     5</i>
    </separator>
   </separator>
   <separator name="electronic dipolcorrection" >
    <i type="logical" name="LDIPOL"> F  </i>
    <i type="logical" name="LMONO"> F  </i>
    <i type="int" name="IDIPOL">     0</i>
    <i name="EPSILON">      1.00000000</i>
    <v name="DIPOL">   -100.00000000   -100.00000000   -100.00000000</v>
    <i name="EFIELD">      0.00000000</i>
   </separator>
  </separator>
  <separator name="grids" >
   <i type="int" name="NGX">    20</i>
   <i type="int" name="NGY">    20</i>
   <i type="int" name="NGZ">    36</i>
   <i type="int" name="NGXF">    40</i>
   <i type="int" name="NGYF">    40</i>
   <i type="int" name="NGZF">    72</i>
   <i type="logical" name="ADDGRID"> F  </i>
  </separator>
  <separator name="ionic" >
   <i type="int" name="NSW">     0</i>
   <i type="int" name="IBRION">    -1</i>
   <i type="int" name="MDALGO">     0</i>
   <i type="int" name="ISIF">     2</i>
   <i name="PSTRESS">      0.00000000</i>
   <i name="EDIFFG">     -0.02000000</i>
   <i type="int" name="NFREE">     0</i>
   <i name="POTIM">      0.50000000</i>
   <i name="SMASS">     -3.00000000</i>
   <i name="SCALEE">      1.00000000</i>
  </separator>
  <separator name="ionic md" >
   <i name="TEBEG">      0.00010000</i>
   <i name="TEEND">      0.00010000</i>
   <i type="int" name="NBLOCK">     1</i>
   <i type="int" name="KBLOCK">     1</i>
   <i type="int" name="NPACO">   256</i>
   <i name="APACO">     10.00000000</i>
  </separator>
  <separator name="symmetry" >
   <i type="int" name="ISYM">     1</i>
   <i name="SYMPREC">      0.00001000</i>
  </separator>
  <separator name="dos" >
   <i type="int" name="LORBIT">     0</i>
   <v name="RWIGS">     -1.00000000</v>
   <i type="int" name="NEDOS">   301</i>
   <i name="EMIN">     10.00000000</i>
   <i name="EMAX">    -10.00000000</i>
   <i name="EFERMI">      0.00000000</i>
  </separator>
  <separator name="writing" >
   <i type="int" name="NWRITE">     2</i>
   <i type="logical" name="LWAVE"> F  </i>
   <i type="logical" name="LDOWNSAMPLE"> F  </i>
   <i type="logical" name="LCHARG"> F  </i>
   <i type="logical" name="LPARD"> F  </i>
   <i type="logical" name="LVTOT"> F  </i>
   <i type="logical" name="LVHAR"> F  </i>
   <i type="logical" name="LELF"> F  </i>
   <i type="logical" name="LOPTICS"> F  </i>
   <v name="STM">      0.00000000      0.00000000      0.00000000      0.00000000      0.00000000      0.00000000      0.00000000</v>
  </separator>
  <separator name="performance" >
   <i type="int" name="NPAR">    24</i>
   <i type="int" name="NSIM">     4</i>
   <i type="int" name="NBLK">    -1</i>
   <i type="logical" name="LPLANE"> T  </i>
   <i type="logical" name="LSCALAPACK"> T  </i>
   <i type="logical" name="LSCAAWARE"> F  </i>
   <i type="logical" name="LSCALU"> F  </i>
   <i type="logical" name="LASYNC"> F  </i>
   <i type="logical" name="LORBITALREAL"> F  </i>
  </separator>
  <separator name="miscellaneous" >
   <i type="int" name="IDIOT">     3</i>
   <i type="int" name="PHON_NSTRUCT">    -1</i>
   <i type="logical" name="LMUSIC"> F  </i>
   <v name="POMASS">    195.08000000</v>
   <v name="DARWINR">      0.00000000</v>
   <v name="DARWINV">      1.00000000</v>
   <i type="logical" name="LCORR"> T  </i>
  </separator>
  <i type="logical" name="GGA_COMPAT"> T  </i>
  <i type="logical" name="LBERRY"> F  </i>
  <i type="int" name="ICORELEVEL">     0</i>
  <i type="logical" name="LDAU"> F  </i>
  <i type="int" name="I_CONSTRAINED_M">     0</i>
  <separator name="electronic exchange-correlation" >
   <i type="string" name="GGA">--</i>
   <i type="int" name="VOSKOWN">     0</i>
   <i type="logical" name="LHFCALC"> F  </i>
   <i type="string" name="PRECFOCK"></i>
   <i type="logical" name="LSYMGRAD"> F  </i>
   <i type="logical" name="LHFONE"> F  </i>
   <i type="logical" name="LRHFCALC"> F  </i>
   <i type="logical" name="LTHOMAS"> F  </i>
   <i type="logical" name="LMODELHF"> F  </i>
   <i type="logical" name="LFOCKACE"> F  </i>
   <i name="ENCUT4O">     -1.00000000</i>
   <i type="int" name="EXXOEP">     0</i>
   <i type="int" name="FOURORBIT">     0</i>
   <i name="AEXX">      0.00000000</i>
   <i name="HFALPHA">      0.00000000</i>
   <i name="MCALPHA">      0.00000000</i>
   <i name="ALDAX">      1.00000000</i>
   <i name="AGGAX">      1.00000000</i>
   <i name="ALDAC">      1.00000000</i>
   <i name="AGGAC">      1.00000000</i>
   <i type="int" name="NKREDX">     1</i>
   <i type="int" name="NKREDY">     1</i>
   <i type="int" name="NKREDZ">     1</i>
   <i type="logical" name="SHIFTRED"> F  </i>
   <i type="logical" name="ODDONLY"> F  </i>
   <i type="logical" name="EVENONLY"> F  </i>
   <i type="int" name="LMAXFOCK">     0</i>
   <i type="int" name="NMAXFOCKAE">     0</i>
   <i type="logical" name="LFOCKAEDFT"> F  </i>
   <i name="HFSCREEN">      0.00000000</i>
   <i name="HFSCREENC">      0.00000000</i>
   <i type="int" name="NBANDSGWLOW">     0</i>
  </separator>
  <separator name="vdW DFT" >
   <i type="logical" name="LUSE_VDW"> F  </i>
   <i name="Zab_VDW">     -0.84910000</i>
   <i name="PARAM1">      0.12340000</i>
   <i name="PARAM2">      1.00000000</i>
   <i name="PARAM3">      0.00000000</i>
  </separator>
  <separator name="model GW" >
   <i type="int" name="MODEL_GW">     0</i>
   <i name="MODEL_EPS0">      9.47993946</i>
   <i name="MODEL_ALPHA">      1.00000000</i>
  </separator>
  <separator name="linear response parameters" >
   <i type="logical" name="LEPSILON"> F  </i>
   <i type="logical" name="LRPA"> F  </i>
   <i type="logical" name="LNABLA"> F  </i>
   <i type="logical" name="LVEL"> F  </i>
   <i name="CSHIFT">      0.10000000</i>
   <i name="OMEGAMAX">     -1.00000000</i>
   <i name="DEG_THRESHOLD">      0.00200000</i>
   <i name="RTIME">     -0.10000000</i>
   <i name="WPLASMAI">      0.00000000</i>
   <v name="DFIELD">      0.00000000      0.00000000      0.00000000</v>
   <v name="WPLASMA">      0.00000000      0.00000000      0.00000000      0.00000000      0.00000000      0.00000000      0.00000000      0.00000000      0.00000000</v>
  </separator>
  <separator name="orbital magnetization" >
   <i type="logical" name="NUCIND"> F  </i>
   <v name="MAGPOS">      0.00000000      0.00000000      0.00000000</v>
   <i type="logical" name="LNICSALL"> T  </i>
   <i type="logical" name="ORBITALMAG"> F  </i>
   <i type="logical" name="LMAGBLOCH"> F  </i>
   <i type="logical" name="LCHIMAG"> F  </i>
   <i type="logical" name="LGAUGE"> T  </i>
   <i type="int" name="MAGATOM">     0</i>
   <v name="MAGDIPOL">      0.00000000      0.00000000      0.00000000</v>
   <v name="AVECCONST">      0.00000000      0.00000000      0.00000000</v>
  </separator>
  <separator name="response functions" >
   <i type="logical" name="LFINITE_TEMPERATURE"> F  </i>
   <i type="logical" name="LADDER"> F  </i>
   <i type="logical" name="LRPAFORCE"> F  </i>
   <i type="logical" name="LFXC"> F  </i>
   <i type="logical" name="LHARTREE"> T  </i>
   <i type="int" name="IBSE">     0</i>
   <v type="int" name="KPOINT">    -1     0     0     0</v>
   <i type="logical" name="LTCTC"> F  </i>
   <i type="logical" name="LTCTE"> F  </i>
   <i type="logical" name="LTETE"> F  </i>
   <i type="logical" name="LTRIPLET"> F  </i>
   <i type="logical" name="LFXCEPS"> F  </i>
   <i type="logical" name="LFXHEG"> F  </i>
   <i type="int" name="NATURALO">     2</i>
   <i type="logical" name="LHOLEGF"> F  </i>
   <i type="logical" name="L2ORDER"> F  </i>
   <i type="logical" name="LDMP1"> F  </i>
   <i type="logical" name="LMP2LT"> F  </i>
   <i type="logical" name="LSMP2LT"> F  </i>
   <i type="logical" name="LGWLF"> F  </i>
   <i name="ENCUTGW">     -2.00000000</i>
   <i name="ENCUTGWSOFT">     -2.00000000</i>
   <i name="ENCUTLF">     -1.00000000</i>
   <i type="logical" name="LESF_SPLINES"> F  </i>
   <i type="int" name="LMAXMP2">    -1</i>
   <i name="SCISSOR">      0.00000000</i>
   <i type="int" name="NOMEGA">     0</i>
   <i type="int" name="NOMEGAR">     0</i>
   <i type="int" name="NBANDSGW">    -1</i>
   <i type="int" name="NBANDSO">    -1</i>
   <i type="int" name="NBANDSV">    -1</i>
   <i type="int" name="NELMGW">     1</i>
   <i type="int" name="NELMHF">     1</i>
   <i type="int" name="DIM">     3</i>
   <i type="int" name="IESPILON">     4</i>
   <i type="int" name="ANTIRES">     0</i>
   <i name="OMEGAMAX">    -30.00000000</i>
   <i name="OMEGAMIN">    -30.00000000</i>
   <i name="OMEGATL">   -200.00000000</i>
   <i type="int" name="OMEGAGRID">     0</i>
   <i name="CSHIFT">     -0.10000000</i>
   <i type="logical" name="LSELFENERGY"> F  </i>
   <i type="logical" name="LSPECTRAL"> F  </i>
   <i type="logical" name="LSPECTRALGW"> F  </i>
   <i type="logical" name="LSINGLES"> F  </i>
   <i type="logical" name="LFERMIGW"> F  </i>
   <i type="logical" name="ODDONLYGW"> F  </i>
   <i type="logical" name="EVENONLYGW"> F  </i>
   <i type="int" name="NKREDLFX">     1</i>
   <i type="int" name="NKREDLFY">     1</i>
   <i type="int" name="NKREDLFZ">     1</i>
   <i type="int" name="MAXMEM">  2800</i>
   <i type="int" name="TELESCOPE">     0</i>
   <i type="int" name="NTAUPAR">    -1</i>
   <i type="int" name="NOMEGAPAR">    -1</i>
   <i name="DAMP_NEWTON">      0.80000001</i>
   <i name="LAMBDA">      1.00000000</i>
  </separator>
  <separator name="External order field" >
   <i name="OFIELD_KAPPA">      0.00000000</i>
   <v name="OFIELD_K">      0.00000000      0.00000000      0.00000000</v>
   <i name="OFIELD_Q6_NEAR">      0.00000000</i>
   <i name="OFIELD_Q6_FAR">      0.00000000</i>
   <i name="OFIELD_A">      0.00000000</i>
  </separator>
  <separator name="optional k-points parameters" >
   <i type="int" name="KPOINTS_OPT_MODE">     1</i>
   <i type="logical" name="LKPOINTS_OPT"> F  </i>
  </separator>
 </parameters>
 <atominfo>
  <atoms>       2 </atoms>
  <types>       1 </types>
  <array name="atoms" >
   <dimension dim="1">ion</dimension>
   <field type="string">element</field>
   <field type="int">atomtype</field>
   <set>
    <rc><c>Pt</c><c>   1</c></rc>
    <rc><c>Pt</c><c>   1</c></rc>
   </set>
  </array>
  <array name="atomtypes" >
   <dimension dim="1">type</dimension>
   <field type="int">atomspertype</field>
   <field type="string">element</field>
   <field>mass</field>
   <field>valence</field>
   <field type="string">pseudopotential</field>
   <set>
    <rc><c>   2</c><c>Pt</c><c>    195.08000000</c><c>     16.00000000</c><c>  PAW_PBE Pt_pv 12Dec2005               </c></rc>
   </set>
  </array>
 </atominfo>
 <structure name="initialpos" >
  <crystal>
   <varray name="basis" >
    <v>       2.76000000       0.00000000       0.00000000 </v>
    <v>      -1.38000000       2.39023011       0.00000000 </v>
    <v>       0.00000000       0.00000000       4.79000000 </v>
   </varray>
   <i name="volume">     31.59979821 </i>
   <varray name="rec_basis" >
    <v>       0.36231884       0.20918488       0.00000000 </v>
    <v>       0.00000000       0.41836976       0.00000000 </v>
    <v>       0.00000000       0.00000000       0.20876827 </v>
   </varray>
  </crystal>
  <varray name="positions" >
   <v>       0.00000000       0.00000000       0.00000000 </v>
   <v>       0.33333333       0.66666667       0.50000000 </v>
  </varray>
 </structure>
 <calculation>
  <scstep>
   <time name="dav">    0.65    0.65</time>
   <time name="total">    0.66    0.66</time>
   <energy>
    <i name="alphaZ">    303.71314961 </i>
    <i name="ewald">  -4240.69024974 </i>
    <i name="hartreedc">   -819.48907223 </i>
    <i name="XCdc">    127.32804754 </i>
    <i name="pawpsdc">   4131.50523274 </i>
    <i name="pawaedc">  -4061.67189606 </i>
    <i name="eentropy">     -0.00138020 </i>
    <i name="bandstr">   -152.57777000 </i>
    <i name="atom">   4856.42966544 </i>
    <i name="e_fr_energy">    144.54572711 </i>
    <i name="e_wo_entrp">    144.54710731 </i>
    <i name="e_0_energy">    144.54641721 </i>
   </energy>
  </scstep>
  <scstep>
   <time name="dav">    0.72    0.72</time>
   <time name="total">    0.72    0.72</time>
   <energy>
    <i name="e_fr_energy">    -11.35676570 </i>
    <i name="e_wo_entrp">    -11.35207548 </i>
    <i name="e_0_energy">    -11.35442059 </i>
   </energy>
  </scstep>
  <scstep>
   <time name="dav">    0.99    1.00</time>
   <time name="total">    0.99    1.00</time>
   <energy>
    <i name="e_fr_energy">    -12.75427313 </i>
    <i name="e_wo_entrp">    -12.74860264 </i>
    <i name="e_0_energy">    -12.75143788 </i>
   </energy>
  </scstep>
  <scstep>
   <time name="dav">    1.22    1.23</time>
   <time name="total">    1.22    1.23</time>
   <energy>
    <i name="e_fr_energy">    -12.75868878 </i>
    <i name="e_wo_entrp">    -12.75300093 </i>
    <i name="e_0_energy">    -12.75584485 </i>
   </energy>
  </scstep>
  <scstep>
   <time name="dav">    1.08    1.09</time>
   <time name="total">    1.12    1.13</time>
   <energy>
    <i name="e_fr_energy">    -12.75869026 </i>
    <i name="e_wo_entrp">    -12.75300240 </i>
    <i name="e_0_energy">    -12.75584633 </i>
   </energy>
  </scstep>
  <scstep>
   <time name="dav">    0.68    0.68</time>
   <time name="total">    0.72    0.73</time>
   <energy>
    <i name="e_fr_energy">    -12.08215541 </i>
    <i name="e_wo_entrp">    -12.07705949 </i>
    <i name="e_0_energy">    -12.07960745 </i>
   </energy>
  </scstep>
  <scstep>
   <time name="dav">    1.05    1.06</time>
   <time name="total">    1.10    1.10</time>
   <energy>
    <i name="e_fr_energy">    -12.04954095 </i>
    <i name="e_wo_entrp">    -12.04417221 </i>
    <i name="e_0_energy">    -12.04685658 </i>
   </energy>
  </scstep>
  <scstep>
   <time name="dav">    0.71    0.72</time>
   <time name="total">    0.76    0.76</time>
   <energy>
    <i name="e_fr_energy">    -12.04726550 </i>
    <i name="e_wo_entrp">    -12.04180198 </i>
    <i name="e_0_energy">    -12.04453374 </i>
   </energy>
  </scstep>
  <scstep>
   <time name="dav">    1.02    1.02</time>
   <time name="total">    1.06    1.07</time>
   <energy>
    <i name="e_fr_energy">    -12.04707044 </i>
    <i name="e_wo_entrp">    -12.04163125 </i>
    <i name="e_0_energy">    -12.04435084 </i>
   </energy>
  </scstep>
  <scstep>
   <time name="dav">    0.99    1.00</time>
   <time name="total">    1.04    1.04</time>
   <energy>
    <i name="e_fr_energy">    -12.04708292 </i>
    <i name="e_wo_entrp">    -12.04164648 </i>
    <i name="e_0_energy">    -12.04436470 </i>
   </energy>
  </scstep>
  <scstep>
   <time name="dav">    0.76    0.76</time>
   <time name="total">    0.77    0.77</time>
   <energy>
    <i name="alphaZ">    303.71314961 </i>
    <i name="ewald">  -4240.69024974 </i>
    <i name="hartreedc">   -780.76805497 </i>
    <i name="XCdc">    125.62523850 </i>
    <i name="pawpsdc">   4628.52770352 </i>
    <i name="pawaedc">  -4563.70343378 </i>
    <i name="eentropy">     -0.00543640 </i>
    <i name="bandstr">   -341.17566515 </i>
    <i name="atom">   4856.42966544 </i>
    <i name="e_fr_energy">    -12.04708297 </i>
    <i name="e_wo_entrp">    -12.04164657 </i>
    <i name="e_0_energy">    -12.04436477 </i>
   </energy>
  </scstep>
  <structure>
   <crystal>
    <varray name="basis" >
     <v>       2.76000000       0.00000000       0.00000000 </v>
     <v>      -1.38000000       2.39023011       0.00000000 </v>
     <v>       0.00000000       0.00000000       4.79000000 </v>
    </varray>
    <i name="volume">     31.59979821 </i>
    <varray name="rec_basis" >
     <v>       0.36231884       0.20918488       0.00000000 </v>
     <v>       0.00000000       0.41836976       0.00000000 </v>
     <v>       0.00000000       0.00000000       0.20876827 </v>
    </varray>
   </crystal>
   <varray name="positions" >
    <v>       0.00000000       0.00000000       0.00000000 </v>
    <v>       0.33333333       0.66666667       0.50000000 </v>
   </varray>
  </structure>
  <varray name="forces" >
   <v>      -0.00000000       0.00000000       0.00000000 </v>
   <v>       0.00000000       0.00000000       0.00000000 </v>
  </varray>
  <varray name="stress" >
   <v>     -21.00855661       0.00000000      -0.00000000 </v>
   <v>       0.00000000     -21.00855661       0.00000000 </v>
   <v>       0.00000000       0.00000000     -29.67039408 </v>
  </varray>
  <energy>
   <i name="e_fr_energy">    -12.04708297 </i>
   <i name="e_wo_entrp">    -12.04164657 </i>
   <i name="e_0_energy">    -12.04436477 </i>
  </energy>
  <time name="totalsc">   10.60   10.66</time>
  <eigenvalues>
   <array>
    <dimension dim="1">band</dimension>
    <dimension dim="2">kpoint</dimension>
    <dimension dim="3">spin</dimension>
    <field>eigene</field>
    <field>occ</field>
    <set>
     <set comment="spin 1">
      <set comment="kpoint 1">
       <r>  -41.4886    1.0000 </r>
       <r>  -41.2994    1.0000 </r>
       <r>  -41.2994    1.0000 </r>
       <r>  -41.2593    1.0000 </r>
       <r>  -41.2593    1.0000 </r>
       <r>  -41.1599    1.0000 </r>
       <r>    1.4215    1.0000 </r>
       <r>    4.0707    1.0000 </r>
       <r>    7.1940    1.0000 </r>
       <r>    7.7198    1.0000 </r>
       <r>    7.7198    1.0000 </r>
       <r>    8.0848    1.0000 </r>
       <r>    8.0848    1.0000 </r>
       <r>    9.3390    1.0000 </r>
       <r>    9.3390    1.0000 </r>
       <r>   10.4138    1.0000 </r>
       <r>   10.9160    1.0000 </r>
       <r>   10.9160    1.0000 </r>
       <r>   15.7969    0.0000 </r>
       <r>   26.2356    0.0000 </r>
       <r>   26.8063    0.0000 </r>
       <r>   28.3859    0.0000 </r>
       <r>   32.1620    0.0000 </r>
       <r>   32.1620    0.0000 </r>
      </set>
      <set comment="kpoint 2">
       <r>  -41.4822    1.0000 </r>
       <r>  -41.3175    1.0000 </r>
       <r>  -41.3041    1.0000 </r>
       <r>  -41.2782    1.0000 </r>
       <r>  -41.2629    1.0000 </r>
       <r>  -41.1611    1.0000 </r>
       <r>    1.6075    1.0000 </r>
       <r>    4.2417    1.0000 </r>
       <r>    7.1784    1.0000 </r>
       <r>    7.7103    1.0000 </r>
       <r>    7.8620    1.0000 </r>
       <r>    7.9957    1.0000 </r>
       <r>    8.2198    1.0000 </r>
       <r>    9.0954    1.0000 </r>
       <r>    9.2485    1.0000 </r>
       <r>    9.5231    1.0000 </r>
       <r>   10.9511    1.0000 </r>
       <r>   12.0858    0.0000 </r>
       <r>   15.7783    0.0000 </r>
       <r>   26.4918    0.0000 </r>
       <r>   27.0843    0.0000 </r>
       <r>   28.6115    0.0000 </r>
       <r>   31.0975    0.0000 </r>
       <r>   31.2805    0.0000 </r>
      </set>
      <set comment="kpoint 3">
       <r>  -41.4643    1.0000 </r>
       <r>  -41.3699    1.0000 </r>
       <r>  -41.3313    1.0000 </r>
       <r>  -41.3193    1.0000 </r>
       <r>  -41.2737    1.0000 </r>
       <r>  -41.1650    1.0000 </r>
       <r>    2.1420    1.0000 </r>
       <r>    4.7001    1.0000 </r>
       <r>    7.0297    1.0000 </r>
       <r>    7.6586    1.0000 </r>
       <r>    7.9817    1.0000 </r>
       <r>    8.1505    1.0000 </r>
       <r>    8.2751    1.0000 </r>
       <r>    8.6116    1.0000 </r>
       <r>    9.0200    1.0000 </r>
       <r>    9.0959    1.0000 </r>
       <r>   11.0237    0.9974 </r>
       <r>   13.5861    0.0000 </r>
       <r>   15.7305    0.0000 </r>
       <r>   26.6088    0.0000 </r>
       <r>   27.7870    0.0000 </r>
       <r>   28.6221    0.0000 </r>
       <r>   29.6390    0.0000 </r>
       <r>   29.9964    0.0000 </r>
      </set>
      <set comment="kpoint 4">
       <r>  -41.4459    1.0000 </r>
       <r>  -41.4378    1.0000 </r>
       <r>  -41.4074    1.0000 </r>
       <r>  -41.3407    1.0000 </r>
       <r>  -41.2894    1.0000 </r>
       <r>  -41.1725    1.0000 </r>
       <r>    2.9409    1.0000 </r>
       <r>    5.1975    1.0000 </r>
       <r>    6.9276    1.0000 </r>
       <r>    7.2208    1.0000 </r>
       <r>    7.3922    1.0000 </r>
       <r>    8.4582    1.0000 </r>
       <r>    8.7262    1.0000 </r>
       <r>    8.7333    1.0000 </r>
       <r>    8.9222    1.0000 </r>
       <r>    9.2208    1.0000 </r>
       <r>   11.0882    0.8352 </r>
       <r>   15.1594    0.0000 </r>
       <r>   15.6927    0.0000 </r>
       <r>   24.6621    0.0000 </r>
       <r>   27.7870    0.0000 </r>
       <r>   27.8808    0.0000 </r>
       <r>   29.3239    0.0000 </r>
       <r>   29.3436    0.0000 </r>
      </set>
      <set comment="kpoint 5">
       <r>  -41.5297    1.0000 </r>
       <r>  -41.4906    1.0000 </r>
       <r>  -41.4048    1.0000 </r>
       <r>  -41.3642    1.0000 </r>
       <r>  -41.3073    1.0000 </r>
       <r>  -41.1837    1.0000 </r>
       <r>    3.8156    1.0000 </r>
       <r>    5.2797    1.0000 </r>
       <r>    6.4686    1.0000 </r>
       <r>    7.1562    1.0000 </r>
       <r>    7.4229    1.0000 </r>
       <r>    8.3592    1.0000 </r>
       <r>    8.4535    1.0000 </r>
       <r>    9.2770    1.0000 </r>
       <r>    9.7285    1.0000 </r>
       <r>    9.9710    1.0000 </r>
       <r>   11.1259    0.4629 </r>
       <r>   15.7743    0.0000 </r>
       <r>   16.7410    0.0000 </r>
       <r>   21.9838    0.0000 </r>
       <r>   26.1753    0.0000 </r>
       <r>   26.6260    0.0000 </r>
       <r>   28.6241    0.0000 </r>
       <r>   29.2444    0.0000 </r>
      </set>
      <set comment="kpoint 6">
       <r>  -41.6054    1.0000 </r>
       <r>  -41.5645    1.0000 </r>
       <r>  -41.3851    1.0000 </r>
       <r>  -41.3707    1.0000 </r>
       <r>  -41.3244    1.0000 </r>
       <r>  -41.1991    1.0000 </r>
       <r>    4.4506    1.0000 </r>
       <r>    5.0641    1.0000 </r>
       <r>    5.9181    1.0000 </r>
       <r>    7.4009    1.0000 </r>
       <r>    8.0418    1.0000 </r>
       <r>    8.0524    1.0000 </r>
       <r>    8.2246    1.0000 </r>
       <r>   10.4661    1.0000 </r>
       <r>   10.5583    1.0000 </r>
       <r>   10.7453    1.0000 </r>
       <r>   11.1397    0.3143 </r>
       <r>   16.1849    0.0000 </r>
       <r>   18.2334    0.0000 </r>
       <r>   19.2812    0.0000 </r>
       <r>   24.6678    0.0000 </r>
       <r>   25.3991    0.0000 </r>
       <r>   25.5704    0.0000 </r>
       <r>   28.3406    0.0000 </r>
      </set>
      <set comment="kpoint 7">
       <r>  -41.6575    1.0000 </r>
       <r>  -41.6150    1.0000 </r>
       <r>  -41.3995    1.0000 </r>
       <r>  -41.3419    1.0000 </r>
       <r>  -41.3358    1.0000 </r>
       <r>  -41.2144    1.0000 </r>
       <r>    4.6953    1.0000 </r>
       <r>    4.8678    1.0000 </r>
       <r>    5.5827    1.0000 </r>
       <r>    7.8515    1.0000 </r>
       <r>    7.9002    1.0000 </r>
       <r>    8.0769    1.0000 </r>
       <r>    8.4694    1.0000 </r>
       <r>   11.1413    0.2987 </r>
       <r>   11.1956    0.0195 </r>
       <r>   11.3774    0.0000 </r>
       <r>   12.0133    0.0000 </r>
       <r>   16.4876    0.0000 </r>
       <r>   17.4458    0.0000 </r>
       <r>   19.4440    0.0000 </r>
       <r>   22.4081    0.0000 </r>
       <r>   23.5762    0.0000 </r>
       <r>   24.7564    0.0000 </r>
       <r>   27.5436    0.0000 </r>
      </set>
      <set comment="kpoint 8">
       <r>  -41.6763    1.0000 </r>
       <r>  -41.6336    1.0000 </r>
       <r>  -41.4049    1.0000 </r>
       <r>  -41.3400    1.0000 </r>
       <r>  -41.3297    1.0000 </r>
       <r>  -41.2224    1.0000 </r>
       <r>    4.7296    1.0000 </r>
       <r>    4.8041    1.0000 </r>
       <r>    5.4698    1.0000 </r>
       <r>    7.7817    1.0000 </r>
       <r>    8.0258    1.0000 </r>
       <r>    8.2085    1.0000 </r>
       <r>    8.5457    1.0000 </r>
       <r>   11.1402    0.3093 </r>
       <r>   11.4341    0.0000 </r>
       <r>   11.6340    0.0000 </r>
       <r>   13.4003    0.0000 </r>
       <r>   14.8785    0.0000 </r>
       <r>   18.4011    0.0000 </r>
       <r>   19.9619    0.0000 </r>
       <r>   20.6342    0.0000 </r>
       <r>   23.1666    0.0000 </r>
       <r>   24.3998    0.0000 </r>
       <r>   27.2423    0.0000 </r>
      </set>
      <set comment="kpoint 9">
       <r>  -41.4702    1.0000 </r>
       <r>  -41.3510    1.0000 </r>
       <r>  -41.3243    1.0000 </r>
       <r>  -41.3047    1.0000 </r>
       <r>  -41.2719    1.0000 </r>
       <r>  -41.1637    1.0000 </r>
       <r>    1.9688    1.0000 </r>
       <r>    4.5619    1.0000 </r>
       <r>    7.0731    1.0000 </r>
       <r>    7.7736    1.0000 </r>
       <r>    7.8279    1.0000 </r>
       <r>    8.1547    1.0000 </r>
       <r>    8.4652    1.0000 </r>
       <r>    8.5078    1.0000 </r>
       <r>    8.9053    1.0000 </r>
       <r>    9.3447    1.0000 </r>
       <r>   10.9837    1.0000 </r>
       <r>   13.1804    0.0000 </r>
       <r>   15.7453    0.0000 </r>
       <r>   26.8017    0.0000 </r>
       <r>   27.5987    0.0000 </r>
       <r>   28.4938    0.0000 </r>
       <r>   30.2066    0.0000 </r>
       <r>   30.3182    0.0000 </r>
      </set>
      <set comment="kpoint 10">
       <r>  -41.4483    1.0000 </r>
       <r>  -41.4120    1.0000 </r>
       <r>  -41.3829    1.0000 </r>
       <r>  -41.3297    1.0000 </r>
       <r>  -41.2881    1.0000 </r>
       <r>  -41.1697    1.0000 </r>
       <r>    2.6447    1.0000 </r>
       <r>    5.0920    1.0000 </r>
       <r>    6.8432    1.0000 </r>
       <r>    7.5459    1.0000 </r>
       <r>    7.5770    1.0000 </r>
       <r>    8.0751    1.0000 </r>
       <r>    8.5468    1.0000 </r>
       <r>    8.7236    1.0000 </r>
       <r>    9.0718    1.0000 </r>
       <r>    9.1321    1.0000 </r>
       <r>   11.0189    0.9983 </r>
       <r>   14.6175    0.0000 </r>
       <r>   15.7046    0.0000 </r>
       <r>   25.9100    0.0000 </r>
       <r>   27.2523    0.0000 </r>
       <r>   28.2825    0.0000 </r>
       <r>   29.0937    0.0000 </r>
       <r>   29.8583    0.0000 </r>
      </set>
      <set comment="kpoint 11">
       <r>  -41.4898    1.0000 </r>
       <r>  -41.4576    1.0000 </r>
       <r>  -41.4181    1.0000 </r>
       <r>  -41.3566    1.0000 </r>
       <r>  -41.3075    1.0000 </r>
       <r>  -41.1790    1.0000 </r>
       <r>    3.5148    1.0000 </r>
       <r>    5.4493    1.0000 </r>
       <r>    6.7879    1.0000 </r>
       <r>    6.8521    1.0000 </r>
       <r>    7.3448    1.0000 </r>
       <r>    8.2239    1.0000 </r>
       <r>    8.6332    1.0000 </r>
       <r>    8.8141    1.0000 </r>
       <r>    9.4923    1.0000 </r>
       <r>    9.8506    1.0000 </r>
       <r>   11.0457    0.9852 </r>
       <r>   15.7357    0.0000 </r>
       <r>   16.1637    0.0000 </r>
       <r>   23.3456    0.0000 </r>
       <r>   25.9616    0.0000 </r>
       <r>   27.3308    0.0000 </r>
       <r>   29.3482    0.0000 </r>
       <r>   29.8422    0.0000 </r>
      </set>
      <set comment="kpoint 12">
       <r>  -41.5680    1.0000 </r>
       <r>  -41.5319    1.0000 </r>
       <r>  -41.3842    1.0000 </r>
       <r>  -41.3825    1.0000 </r>
       <r>  -41.3266    1.0000 </r>
       <r>  -41.1923    1.0000 </r>
       <r>    4.3247    1.0000 </r>
       <r>    5.3222    1.0000 </r>
       <r>    6.1680    1.0000 </r>
       <r>    7.1474    1.0000 </r>
       <r>    7.6337    1.0000 </r>
       <r>    7.9734    1.0000 </r>
       <r>    8.4714    1.0000 </r>
       <r>    9.4599    1.0000 </r>
       <r>   10.3145    1.0000 </r>
       <r>   10.7840    1.0000 </r>
       <r>   11.0551    0.9720 </r>
       <r>   16.0124    0.0000 </r>
       <r>   17.7077    0.0000 </r>
       <r>   20.6027    0.0000 </r>
       <r>   24.4189    0.0000 </r>
       <r>   26.2076    0.0000 </r>
       <r>   27.2720    0.0000 </r>
       <r>   28.7290    0.0000 </r>
      </set>
      <set comment="kpoint 13">
       <r>  -41.6314    1.0000 </r>
       <r>  -41.5909    1.0000 </r>
       <r>  -41.4030    1.0000 </r>
       <r>  -41.3520    1.0000 </r>
       <r>  -41.3422    1.0000 </r>
       <r>  -41.2086    1.0000 </r>
       <r>    4.7658    1.0000 </r>
       <r>    5.0843    1.0000 </r>
       <r>    5.7434    1.0000 </r>
       <r>    7.5929    1.0000 </r>
       <r>    7.8230    1.0000 </r>
       <r>    8.1728    1.0000 </r>
       <r>    8.1739    1.0000 </r>
       <r>   10.4616    1.0000 </r>
       <r>   10.9886    0.9999 </r>
       <r>   11.0519    0.9773 </r>
       <r>   11.8531    0.0000 </r>
       <r>   16.7649    0.0000 </r>
       <r>   17.9958    0.0000 </r>
       <r>   19.1074    0.0000 </r>
       <r>   22.7989    0.0000 </r>
       <r>   24.5672    0.0000 </r>
       <r>   25.2828    0.0000 </r>
       <r>   27.7843    0.0000 </r>
      </set>
      <set comment="kpoint 14">
       <r>  -41.6658    1.0000 </r>
       <r>  -41.6231    1.0000 </r>
       <r>  -41.4142    1.0000 </r>
       <r>  -41.3510    1.0000 </r>
       <r>  -41.3295    1.0000 </r>
       <r>  -41.2220    1.0000 </r>
       <r>    4.8690    1.0000 </r>
       <r>    4.9547    1.0000 </r>
       <r>    5.5281    1.0000 </r>
       <r>    7.7764    1.0000 </r>
       <r>    7.9819    1.0000 </r>
       <r>    8.1141    1.0000 </r>
       <r>    8.3972    1.0000 </r>
       <r>   11.0467    0.9841 </r>
       <r>   11.2083    0.0077 </r>
       <r>   11.3496    0.0000 </r>
       <r>   13.1890    0.0000 </r>
       <r>   15.6259    0.0000 </r>
       <r>   18.1798    0.0000 </r>
       <r>   20.0631    0.0000 </r>
       <r>   20.9010    0.0000 </r>
       <r>   23.1399    0.0000 </r>
       <r>   24.6457    0.0000 </r>
       <r>   27.2031    0.0000 </r>
      </set>
      <set comment="kpoint 15">
       <r>  -41.4669    1.0000 </r>
       <r>  -41.4509    1.0000 </r>
       <r>  -41.4228    1.0000 </r>
       <r>  -41.3521    1.0000 </r>
       <r>  -41.3135    1.0000 </r>
       <r>  -41.1774    1.0000 </r>
       <r>    3.4167    1.0000 </r>
       <r>    5.6314    1.0000 </r>
       <r>    6.5431    1.0000 </r>
       <r>    6.9512    1.0000 </r>
       <r>    7.4219    1.0000 </r>
       <r>    8.1051    1.0000 </r>
       <r>    8.2907    1.0000 </r>
       <r>    9.0005    1.0000 </r>
       <r>    9.4572    1.0000 </r>
       <r>    9.8567    1.0000 </r>
       <r>   10.9664    1.0000 </r>
       <r>   15.7389    0.0000 </r>
       <r>   15.9778    0.0000 </r>
       <r>   24.5575    0.0000 </r>
       <r>   24.8895    0.0000 </r>
       <r>   27.8717    0.0000 </r>
       <r>   29.1254    0.0000 </r>
       <r>   30.6170    0.0000 </r>
      </set>
      <set comment="kpoint 16">
       <r>  -41.5320    1.0000 </r>
       <r>  -41.5146    1.0000 </r>
       <r>  -41.3915    1.0000 </r>
       <r>  -41.3835    1.0000 </r>
       <r>  -41.3404    1.0000 </r>
       <r>  -41.1891    1.0000 </r>
       <r>    4.3106    1.0000 </r>
       <r>    5.8260    1.0000 </r>
       <r>    6.3857    1.0000 </r>
       <r>    6.5705    1.0000 </r>
       <r>    7.4482    1.0000 </r>
       <r>    7.7973    1.0000 </r>
       <r>    8.7087    1.0000 </r>
       <r>    8.7614    1.0000 </r>
       <r>   10.2762    1.0000 </r>
       <r>   10.8496    1.0000 </r>
       <r>   10.9116    1.0000 </r>
       <r>   15.9905    0.0000 </r>
       <r>   17.4804    0.0000 </r>
       <r>   21.8896    0.0000 </r>
       <r>   23.4036    0.0000 </r>
       <r>   26.9118    0.0000 </r>
       <r>   28.7948    0.0000 </r>
       <r>   28.9216    0.0000 </r>
      </set>
      <set comment="kpoint 17">
       <r>  -41.5950    1.0000 </r>
       <r>  -41.5654    1.0000 </r>
       <r>  -41.4154    1.0000 </r>
       <r>  -41.3641    1.0000 </r>
       <r>  -41.3585    1.0000 </r>
       <r>  -41.2049    1.0000 </r>
       <r>    5.0088    1.0000 </r>
       <r>    5.5661    1.0000 </r>
       <r>    5.9492    1.0000 </r>
       <r>    7.0152    1.0000 </r>
       <r>    7.6361    1.0000 </r>
       <r>    7.8315    1.0000 </r>
       <r>    8.3504    1.0000 </r>
       <r>    9.4746    1.0000 </r>
       <r>   10.8653    1.0000 </r>
       <r>   10.9076    1.0000 </r>
       <r>   11.9663    0.0000 </r>
       <r>   16.6906    0.0000 </r>
       <r>   18.9867    0.0000 </r>
       <r>   19.2259    0.0000 </r>
       <r>   21.9513    0.0000 </r>
       <r>   26.0554    0.0000 </r>
       <r>   26.1316    0.0000 </r>
       <r>   27.9081    0.0000 </r>
      </set>
      <set comment="kpoint 18">
       <r>  -41.6382    1.0000 </r>
       <r>  -41.5990    1.0000 </r>
       <r>  -41.4379    1.0000 </r>
       <r>  -41.3800    1.0000 </r>
       <r>  -41.3297    1.0000 </r>
       <r>  -41.2218    1.0000 </r>
       <r>    5.2691    1.0000 </r>
       <r>    5.3567    1.0000 </r>
       <r>    5.6765    1.0000 </r>
       <r>    7.6221    1.0000 </r>
       <r>    7.6255    1.0000 </r>
       <r>    8.0130    1.0000 </r>
       <r>    8.2120    1.0000 </r>
       <r>   10.3166    1.0000 </r>
       <r>   10.8326    1.0000 </r>
       <r>   11.1776    0.0602 </r>
       <r>   13.1680    0.0000 </r>
       <r>   16.8178    0.0000 </r>
       <r>   17.9524    0.0000 </r>
       <r>   20.2866    0.0000 </r>
       <r>   20.6592    0.0000 </r>
       <r>   23.8182    0.0000 </r>
       <r>   25.2904    0.0000 </r>
       <r>   27.0747    0.0000 </r>
      </set>
      <set comment="kpoint 19">
       <r>  -41.6536    1.0000 </r>
       <r>  -41.6109    1.0000 </r>
       <r>  -41.4460    1.0000 </r>
       <r>  -41.3854    1.0000 </r>
       <r>  -41.3165    1.0000 </r>
       <r>  -41.2306    1.0000 </r>
       <r>    5.2587    1.0000 </r>
       <r>    5.3328    1.0000 </r>
       <r>    5.5840    1.0000 </r>
       <r>    7.7491    1.0000 </r>
       <r>    7.7675    1.0000 </r>
       <r>    7.9688    1.0000 </r>
       <r>    8.3063    1.0000 </r>
       <r>   10.8206    1.0000 </r>
       <r>   10.8457    1.0000 </r>
       <r>   11.1216    0.5116 </r>
       <r>   14.2565    0.0000 </r>
       <r>   15.2499    0.0000 </r>
       <r>   19.3080    0.0000 </r>
       <r>   19.5394    0.0000 </r>
       <r>   20.8826    0.0000 </r>
       <r>   22.7320    0.0000 </r>
       <r>   24.8871    0.0000 </r>
       <r>   26.7795    0.0000 </r>
      </set>
      <set comment="kpoint 20">
       <r>  -41.5679    1.0000 </r>
       <r>  -41.5624    1.0000 </r>
       <r>  -41.4193    1.0000 </r>
       <r>  -41.3794    1.0000 </r>
       <r>  -41.3610    1.0000 </r>
       <r>  -41.2036    1.0000 </r>
       <r>    5.1660    1.0000 </r>
       <r>    6.0562    1.0000 </r>
       <r>    6.2427    1.0000 </r>
       <r>    6.2526    1.0000 </r>
       <r>    7.5252    1.0000 </r>
       <r>    7.7186    1.0000 </r>
       <r>    8.4388    1.0000 </r>
       <r>    9.0680    1.0000 </r>
       <r>   10.7664    1.0000 </r>
       <r>   10.9009    1.0000 </r>
       <r>   12.0107    0.0000 </r>
       <r>   16.6738    0.0000 </r>
       <r>   18.9645    0.0000 </r>
       <r>   20.1432    0.0000 </r>
       <r>   21.1217    0.0000 </r>
       <r>   26.4997    0.0000 </r>
       <r>   27.1127    0.0000 </r>
       <r>   27.9246    0.0000 </r>
      </set>
      <set comment="kpoint 21">
       <r>  -41.6050    1.0000 </r>
       <r>  -41.5802    1.0000 </r>
       <r>  -41.4578    1.0000 </r>
       <r>  -41.4129    1.0000 </r>
       <r>  -41.3300    1.0000 </r>
       <r>  -41.2214    1.0000 </r>
       <r>    5.6871    1.0000 </r>
       <r>    5.8225    1.0000 </r>
       <r>    5.9905    1.0000 </r>
       <r>    6.8190    1.0000 </r>
       <r>    7.4337    1.0000 </r>
       <r>    8.0924    1.0000 </r>
       <r>    8.1133    1.0000 </r>
       <r>    9.5964    1.0000 </r>
       <r>   10.6549    1.0000 </r>
       <r>   11.1195    0.5354 </r>
       <r>   13.2163    0.0000 </r>
       <r>   17.3976    0.0000 </r>
       <r>   18.4758    0.0000 </r>
       <r>   19.7210    0.0000 </r>
       <r>   20.4628    0.0000 </r>
       <r>   25.1021    0.0000 </r>
       <r>   26.0276    0.0000 </r>
       <r>   26.8244    0.0000 </r>
      </set>
      <set comment="kpoint 22">
       <r>  -41.6248    1.0000 </r>
       <r>  -41.5852    1.0000 </r>
       <r>  -41.4852    1.0000 </r>
       <r>  -41.4314    1.0000 </r>
       <r>  -41.3061    1.0000 </r>
       <r>  -41.2383    1.0000 </r>
       <r>    5.7010    1.0000 </r>
       <r>    5.8067    1.0000 </r>
       <r>    5.8574    1.0000 </r>
       <r>    7.3699    1.0000 </r>
       <r>    7.5109    1.0000 </r>
       <r>    7.7729    1.0000 </r>
       <r>    8.3811    1.0000 </r>
       <r>   10.2272    1.0000 </r>
       <r>   10.5950    1.0000 </r>
       <r>   10.9658    1.0000 </r>
       <r>   14.4280    0.0000 </r>
       <r>   15.9165    0.0000 </r>
       <r>   18.4600    0.0000 </r>
       <r>   20.0976    0.0000 </r>
       <r>   21.6531    0.0000 </r>
       <r>   23.1518    0.0000 </r>
       <r>   25.2708    0.0000 </r>
       <r>   26.3343    0.0000 </r>
      </set>
      <set comment="kpoint 23">
       <r>  -41.6018    1.0000 </r>
       <r>  -41.5734    1.0000 </r>
       <r>  -41.5018    1.0000 </r>
       <r>  -41.4611    1.0000 </r>
       <r>  -41.3017    1.0000 </r>
       <r>  -41.2417    1.0000 </r>
       <r>    5.7672    1.0000 </r>
       <r>    6.0645    1.0000 </r>
       <r>    6.4095    1.0000 </r>
       <r>    6.7994    1.0000 </r>
       <r>    7.3914    1.0000 </r>
       <r>    7.7889    1.0000 </r>
       <r>    8.4053    1.0000 </r>
       <r>    9.8977    1.0000 </r>
       <r>   10.5008    1.0000 </r>
       <r>   10.9225    1.0000 </r>
       <r>   14.3886    0.0000 </r>
       <r>   16.4562    0.0000 </r>
       <r>   17.9317    0.0000 </r>
       <r>   20.2195    0.0000 </r>
       <r>   21.9903    0.0000 </r>
       <r>   24.1902    0.0000 </r>
       <r>   25.3414    0.0000 </r>
       <r>   25.4933    0.0000 </r>
      </set>
      <set comment="kpoint 24">
       <r>  -41.5962    1.0000 </r>
       <r>  -41.5548    1.0000 </r>
       <r>  -41.5320    1.0000 </r>
       <r>  -41.4840    1.0000 </r>
       <r>  -41.2835    1.0000 </r>
       <r>  -41.2569    1.0000 </r>
       <r>    5.7534    1.0000 </r>
       <r>    6.2713    1.0000 </r>
       <r>    6.3194    1.0000 </r>
       <r>    6.9998    1.0000 </r>
       <r>    7.4692    1.0000 </r>
       <r>    7.5826    1.0000 </r>
       <r>    8.5345    1.0000 </r>
       <r>   10.2434    1.0000 </r>
       <r>   10.4454    1.0000 </r>
       <r>   10.5965    1.0000 </r>
       <r>   15.3793    0.0000 </r>
       <r>   15.4959    0.0000 </r>
       <r>   17.3051    0.0000 </r>
       <r>   21.9155    0.0000 </r>
       <r>   22.8927    0.0000 </r>
       <r>   23.0132    0.0000 </r>
       <r>   24.5104    0.0000 </r>
       <r>   24.5702    0.0000 </r>
      </set>
      <set comment="kpoint 25">
       <r>  -41.4798    1.0000 </r>
       <r>  -41.2976    1.0000 </r>
       <r>  -41.2976    1.0000 </r>
       <r>  -41.2600    1.0000 </r>
       <r>  -41.2600    1.0000 </r>
       <r>  -41.1677    1.0000 </r>
       <r>    1.5073    1.0000 </r>
       <r>    4.0593    1.0000 </r>
       <r>    7.1726    1.0000 </r>
       <r>    7.7073    1.0000 </r>
       <r>    7.7073    1.0000 </r>
       <r>    8.0600    1.0000 </r>
       <r>    8.0600    1.0000 </r>
       <r>    9.4026    1.0000 </r>
       <r>    9.4026    1.0000 </r>
       <r>    9.9969    1.0000 </r>
       <r>   10.8995    1.0000 </r>
       <r>   10.8995    1.0000 </r>
       <r>   16.3737    0.0000 </r>
       <r>   25.8863    0.0000 </r>
       <r>   27.1928    0.0000 </r>
       <r>   28.1977    0.0000 </r>
       <r>   31.7525    0.0000 </r>
       <r>   31.7525    0.0000 </r>
      </set>
      <set comment="kpoint 26">
       <r>  -41.4743    1.0000 </r>
       <r>  -41.3163    1.0000 </r>
       <r>  -41.3033    1.0000 </r>
       <r>  -41.2795    1.0000 </r>
       <r>  -41.2639    1.0000 </r>
       <r>  -41.1686    1.0000 </r>
       <r>    1.6926    1.0000 </r>
       <r>    4.2323    1.0000 </r>
       <r>    7.1688    1.0000 </r>
       <r>    7.6732    1.0000 </r>
       <r>    7.8461    1.0000 </r>
       <r>    7.9549    1.0000 </r>
       <r>    8.1934    1.0000 </r>
       <r>    9.0985    1.0000 </r>
       <r>    9.3177    1.0000 </r>
       <r>    9.4153    1.0000 </r>
       <r>   10.9300    1.0000 </r>
       <r>   11.7965    0.0000 </r>
       <r>   16.4013    0.0000 </r>
       <r>   26.1594    0.0000 </r>
       <r>   27.4484    0.0000 </r>
       <r>   28.4265    0.0000 </r>
       <r>   30.6814    0.0000 </r>
       <r>   31.1293    0.0000 </r>
      </set>
      <set comment="kpoint 27">
       <r>  -41.4586    1.0000 </r>
       <r>  -41.3676    1.0000 </r>
       <r>  -41.3332    1.0000 </r>
       <r>  -41.3182    1.0000 </r>
       <r>  -41.2748    1.0000 </r>
       <r>  -41.1717    1.0000 </r>
       <r>    2.2237    1.0000 </r>
       <r>    4.6972    1.0000 </r>
       <r>    7.0440    1.0000 </r>
       <r>    7.5860    1.0000 </r>
       <r>    7.7704    1.0000 </r>
       <r>    8.2444    1.0000 </r>
       <r>    8.2568    1.0000 </r>
       <r>    8.5774    1.0000 </r>
       <r>    9.1148    1.0000 </r>
       <r>    9.1435    1.0000 </r>
       <r>   10.9937    0.9999 </r>
       <r>   13.0327    0.0000 </r>
       <r>   16.5243    0.0000 </r>
       <r>   26.5161    0.0000 </r>
       <r>   27.7411    0.0000 </r>
       <r>   28.6905    0.0000 </r>
       <r>   29.4967    0.0000 </r>
       <r>   29.6736    0.0000 </r>
      </set>
      <set comment="kpoint 28">
       <r>  -41.4552    1.0000 </r>
       <r>  -41.4219    1.0000 </r>
       <r>  -41.4083    1.0000 </r>
       <r>  -41.3393    1.0000 </r>
       <r>  -41.2907    1.0000 </r>
       <r>  -41.1781    1.0000 </r>
       <r>    3.0123    1.0000 </r>
       <r>    5.2075    1.0000 </r>
       <r>    6.9435    1.0000 </r>
       <r>    7.0862    1.0000 </r>
       <r>    7.3845    1.0000 </r>
       <r>    8.3229    1.0000 </r>
       <r>    8.6722    1.0000 </r>
       <r>    8.9177    1.0000 </r>
       <r>    9.0172    1.0000 </r>
       <r>    9.2176    1.0000 </r>
       <r>   11.0482    0.9823 </r>
       <r>   14.1235    0.0000 </r>
       <r>   16.8932    0.0000 </r>
       <r>   24.7377    0.0000 </r>
       <r>   27.6873    0.0000 </r>
       <r>   27.9919    0.0000 </r>
       <r>   28.7672    0.0000 </r>
       <r>   29.7865    0.0000 </r>
      </set>
      <set comment="kpoint 29">
       <r>  -41.5318    1.0000 </r>
       <r>  -41.4929    1.0000 </r>
       <r>  -41.3964    1.0000 </r>
       <r>  -41.3628    1.0000 </r>
       <r>  -41.3090    1.0000 </r>
       <r>  -41.1880    1.0000 </r>
       <r>    3.8587    1.0000 </r>
       <r>    5.2985    1.0000 </r>
       <r>    6.4392    1.0000 </r>
       <r>    7.0809    1.0000 </r>
       <r>    7.4250    1.0000 </r>
       <r>    8.3902    1.0000 </r>
       <r>    8.4883    1.0000 </r>
       <r>    9.3334    1.0000 </r>
       <r>    9.7464    1.0000 </r>
       <r>    9.9428    1.0000 </r>
       <r>   11.0806    0.8828 </r>
       <r>   14.8973    0.0000 </r>
       <r>   17.6738    0.0000 </r>
       <r>   22.1334    0.0000 </r>
       <r>   26.3239    0.0000 </r>
       <r>   26.5077    0.0000 </r>
       <r>   28.1743    0.0000 </r>
       <r>   29.7492    0.0000 </r>
      </set>
      <set comment="kpoint 30">
       <r>  -41.6065    1.0000 </r>
       <r>  -41.5670    1.0000 </r>
       <r>  -41.3836    1.0000 </r>
       <r>  -41.3643    1.0000 </r>
       <r>  -41.3259    1.0000 </r>
       <r>  -41.2015    1.0000 </r>
       <r>    4.4384    1.0000 </r>
       <r>    5.0786    1.0000 </r>
       <r>    5.9786    1.0000 </r>
       <r>    7.1150    1.0000 </r>
       <r>    7.9844    1.0000 </r>
       <r>    8.2750    1.0000 </r>
       <r>    8.4381    1.0000 </r>
       <r>   10.4407    1.0000 </r>
       <r>   10.5678    1.0000 </r>
       <r>   10.6754    1.0000 </r>
       <r>   11.1172    0.5614 </r>
       <r>   15.5808    0.0000 </r>
       <r>   18.4785    0.0000 </r>
       <r>   19.7622    0.0000 </r>
       <r>   24.8193    0.0000 </r>
       <r>   24.8373    0.0000 </r>
       <r>   26.0326    0.0000 </r>
       <r>   28.5041    0.0000 </r>
      </set>
      <set comment="kpoint 31">
       <r>  -41.6585    1.0000 </r>
       <r>  -41.6177    1.0000 </r>
       <r>  -41.3980    1.0000 </r>
       <r>  -41.3374    1.0000 </r>
       <r>  -41.3370    1.0000 </r>
       <r>  -41.2161    1.0000 </r>
       <r>    4.6385    1.0000 </r>
       <r>    4.8583    1.0000 </r>
       <r>    5.7140    1.0000 </r>
       <r>    7.2508    1.0000 </r>
       <r>    8.1328    1.0000 </r>
       <r>    8.1608    1.0000 </r>
       <r>    8.9151    1.0000 </r>
       <r>   11.0049    0.9996 </r>
       <r>   11.2084    0.0076 </r>
       <r>   11.4016    0.0000 </r>
       <r>   11.9363    0.0000 </r>
       <r>   16.0574    0.0000 </r>
       <r>   17.4190    0.0000 </r>
       <r>   19.7532    0.0000 </r>
       <r>   22.4411    0.0000 </r>
       <r>   23.7582    0.0000 </r>
       <r>   24.9086    0.0000 </r>
       <r>   27.7035    0.0000 </r>
      </set>
      <set comment="kpoint 32">
       <r>  -41.6770    1.0000 </r>
       <r>  -41.6359    1.0000 </r>
       <r>  -41.4031    1.0000 </r>
       <r>  -41.3415    1.0000 </r>
       <r>  -41.3248    1.0000 </r>
       <r>  -41.2233    1.0000 </r>
       <r>    4.6906    1.0000 </r>
       <r>    4.7491    1.0000 </r>
       <r>    5.6284    1.0000 </r>
       <r>    7.2876    1.0000 </r>
       <r>    8.0833    1.0000 </r>
       <r>    8.2536    1.0000 </r>
       <r>    9.1249    1.0000 </r>
       <r>   11.0253    0.9970 </r>
       <r>   11.4480    0.0000 </r>
       <r>   11.6301    0.0000 </r>
       <r>   13.2481    0.0000 </r>
       <r>   14.8075    0.0000 </r>
       <r>   18.3092    0.0000 </r>
       <r>   19.2100    0.0000 </r>
       <r>   21.5511    0.0000 </r>
       <r>   23.3535    0.0000 </r>
       <r>   24.4861    0.0000 </r>
       <r>   27.4240    0.0000 </r>
      </set>
      <set comment="kpoint 33">
       <r>  -41.4635    1.0000 </r>
       <r>  -41.3493    1.0000 </r>
       <r>  -41.3245    1.0000 </r>
       <r>  -41.3053    1.0000 </r>
       <r>  -41.2731    1.0000 </r>
       <r>  -41.1707    1.0000 </r>
       <r>    2.0519    1.0000 </r>
       <r>    4.5567    1.0000 </r>
       <r>    7.0833    1.0000 </r>
       <r>    7.6874    1.0000 </r>
       <r>    7.7442    1.0000 </r>
       <r>    8.1268    1.0000 </r>
       <r>    8.4478    1.0000 </r>
       <r>    8.4691    1.0000 </r>
       <r>    9.0323    1.0000 </r>
       <r>    9.3576    1.0000 </r>
       <r>   10.9571    1.0000 </r>
       <r>   12.7118    0.0000 </r>
       <r>   16.4766    0.0000 </r>
       <r>   26.5676    0.0000 </r>
       <r>   27.8332    0.0000 </r>
       <r>   28.4521    0.0000 </r>
       <r>   29.4820    0.0000 </r>
       <r>   30.3296    0.0000 </r>
      </set>
      <set comment="kpoint 34">
       <r>  -41.4471    1.0000 </r>
       <r>  -41.4054    1.0000 </r>
       <r>  -41.3840    1.0000 </r>
       <r>  -41.3290    1.0000 </r>
       <r>  -41.2893    1.0000 </r>
       <r>  -41.1753    1.0000 </r>
       <r>    2.7215    1.0000 </r>
       <r>    5.0973    1.0000 </r>
       <r>    6.8643    1.0000 </r>
       <r>    7.3051    1.0000 </r>
       <r>    7.6455    1.0000 </r>
       <r>    7.9936    1.0000 </r>
       <r>    8.6367    1.0000 </r>
       <r>    8.7190    1.0000 </r>
       <r>    9.0826    1.0000 </r>
       <r>    9.2109    1.0000 </r>
       <r>   10.9842    1.0000 </r>
       <r>   13.7893    0.0000 </r>
       <r>   16.7278    0.0000 </r>
       <r>   25.9501    0.0000 </r>
       <r>   27.2572    0.0000 </r>
       <r>   28.2034    0.0000 </r>
       <r>   28.7957    0.0000 </r>
       <r>   30.1626    0.0000 </r>
      </set>
      <set comment="kpoint 35">
       <r>  -41.4929    1.0000 </r>
       <r>  -41.4602    1.0000 </r>
       <r>  -41.4080    1.0000 </r>
       <r>  -41.3556    1.0000 </r>
       <r>  -41.3087    1.0000 </r>
       <r>  -41.1836    1.0000 </r>
       <r>    3.5743    1.0000 </r>
       <r>    5.4685    1.0000 </r>
       <r>    6.6816    1.0000 </r>
       <r>    6.8955    1.0000 </r>
       <r>    7.3039    1.0000 </r>
       <r>    8.1691    1.0000 </r>
       <r>    8.6840    1.0000 </r>
       <r>    8.8571    1.0000 </r>
       <r>    9.5586    1.0000 </r>
       <r>    9.8242    1.0000 </r>
       <r>   11.0071    0.9995 </r>
       <r>   14.6626    0.0000 </r>
       <r>   17.3501    0.0000 </r>
       <r>   23.4572    0.0000 </r>
       <r>   26.0445    0.0000 </r>
       <r>   27.2896    0.0000 </r>
       <r>   28.8212    0.0000 </r>
       <r>   30.3868    0.0000 </r>
      </set>
      <set comment="kpoint 36">
       <r>  -41.5695    1.0000 </r>
       <r>  -41.5343    1.0000 </r>
       <r>  -41.3827    1.0000 </r>
       <r>  -41.3759    1.0000 </r>
       <r>  -41.3281    1.0000 </r>
       <r>  -41.1956    1.0000 </r>
       <r>    4.3415    1.0000 </r>
       <r>    5.3440    1.0000 </r>
       <r>    6.1764    1.0000 </r>
       <r>    7.0125    1.0000 </r>
       <r>    7.6281    1.0000 </r>
       <r>    8.1331    1.0000 </r>
       <r>    8.4722    1.0000 </r>
       <r>    9.4792    1.0000 </r>
       <r>   10.3518    1.0000 </r>
       <r>   10.6762    1.0000 </r>
       <r>   11.0746    0.9129 </r>
       <r>   15.3542    0.0000 </r>
       <r>   18.3018    0.0000 </r>
       <r>   20.8408    0.0000 </r>
       <r>   24.5041    0.0000 </r>
       <r>   26.0260    0.0000 </r>
       <r>   27.2199    0.0000 </r>
       <r>   28.9841    0.0000 </r>
      </set>
      <set comment="kpoint 37">
       <r>  -41.6319    1.0000 </r>
       <r>  -41.5933    1.0000 </r>
       <r>  -41.4018    1.0000 </r>
       <r>  -41.3470    1.0000 </r>
       <r>  -41.3429    1.0000 </r>
       <r>  -41.2106    1.0000 </r>
       <r>    4.7172    1.0000 </r>
       <r>    5.0940    1.0000 </r>
       <r>    5.8521    1.0000 </r>
       <r>    7.1408    1.0000 </r>
       <r>    8.0317    1.0000 </r>
       <r>    8.1769    1.0000 </r>
       <r>    8.5030    1.0000 </r>
       <r>   10.4390    1.0000 </r>
       <r>   10.9302    1.0000 </r>
       <r>   11.0233    0.9975 </r>
       <r>   11.8522    0.0000 </r>
       <r>   16.2060    0.0000 </r>
       <r>   17.9498    0.0000 </r>
       <r>   19.7603    0.0000 </r>
       <r>   22.8131    0.0000 </r>
       <r>   24.4132    0.0000 </r>
       <r>   25.5607    0.0000 </r>
       <r>   27.9032    0.0000 </r>
      </set>
      <set comment="kpoint 38">
       <r>  -41.6665    1.0000 </r>
       <r>  -41.6257    1.0000 </r>
       <r>  -41.4130    1.0000 </r>
       <r>  -41.3526    1.0000 </r>
       <r>  -41.3246    1.0000 </r>
       <r>  -41.2231    1.0000 </r>
       <r>    4.8043    1.0000 </r>
       <r>    4.9203    1.0000 </r>
       <r>    5.7001    1.0000 </r>
       <r>    7.2589    1.0000 </r>
       <r>    7.9434    1.0000 </r>
       <r>    8.3234    1.0000 </r>
       <r>    8.8797    1.0000 </r>
       <r>   10.9234    1.0000 </r>
       <r>   11.2082    0.0078 </r>
       <r>   11.3603    0.0000 </r>
       <r>   13.1223    0.0000 </r>
       <r>   15.5121    0.0000 </r>
       <r>   17.9617    0.0000 </r>
       <r>   19.7653    0.0000 </r>
       <r>   21.4411    0.0000 </r>
       <r>   23.3441    0.0000 </r>
       <r>   24.7581    0.0000 </r>
       <r>   27.3255    0.0000 </r>
      </set>
      <set comment="kpoint 39">
       <r>  -41.4722    1.0000 </r>
       <r>  -41.4517    1.0000 </r>
       <r>  -41.4111    1.0000 </r>
       <r>  -41.3515    1.0000 </r>
       <r>  -41.3143    1.0000 </r>
       <r>  -41.1822    1.0000 </r>
       <r>    3.4820    1.0000 </r>
       <r>    5.6529    1.0000 </r>
       <r>    6.5651    1.0000 </r>
       <r>    6.7984    1.0000 </r>
       <r>    7.5147    1.0000 </r>
       <r>    7.8402    1.0000 </r>
       <r>    8.5821    1.0000 </r>
       <r>    8.8882    1.0000 </r>
       <r>    9.5647    1.0000 </r>
       <r>    9.8292    1.0000 </r>
       <r>   10.9341    1.0000 </r>
       <r>   14.5898    0.0000 </r>
       <r>   17.2607    0.0000 </r>
       <r>   24.6602    0.0000 </r>
       <r>   24.9608    0.0000 </r>
       <r>   27.8030    0.0000 </r>
       <r>   28.8833    0.0000 </r>
       <r>   30.9465    0.0000 </r>
      </set>
      <set comment="kpoint 40">
       <r>  -41.5339    1.0000 </r>
       <r>  -41.5166    1.0000 </r>
       <r>  -41.3858    1.0000 </r>
       <r>  -41.3813    1.0000 </r>
       <r>  -41.3413    1.0000 </r>
       <r>  -41.1926    1.0000 </r>
       <r>    4.3491    1.0000 </r>
       <r>    5.8559    1.0000 </r>
       <r>    6.3029    1.0000 </r>
       <r>    6.6163    1.0000 </r>
       <r>    7.4060    1.0000 </r>
       <r>    7.8137    1.0000 </r>
       <r>    8.6332    1.0000 </r>
       <r>    8.8732    1.0000 </r>
       <r>   10.3438    1.0000 </r>
       <r>   10.6444    1.0000 </r>
       <r>   11.0347    0.9936 </r>
       <r>   15.3009    0.0000 </r>
       <r>   18.1938    0.0000 </r>
       <r>   22.0626    0.0000 </r>
       <r>   23.5038    0.0000 </r>
       <r>   26.8282    0.0000 </r>
       <r>   28.1306    0.0000 </r>
       <r>   29.5741    0.0000 </r>
      </set>
      <set comment="kpoint 41">
       <r>  -41.5959    1.0000 </r>
       <r>  -41.5674    1.0000 </r>
       <r>  -41.4150    1.0000 </r>
       <r>  -41.3668    1.0000 </r>
       <r>  -41.3509    1.0000 </r>
       <r>  -41.2069    1.0000 </r>
       <r>    4.9823    1.0000 </r>
       <r>    5.5951    1.0000 </r>
       <r>    5.9921    1.0000 </r>
       <r>    6.8864    1.0000 </r>
       <r>    7.6507    1.0000 </r>
       <r>    7.9777    1.0000 </r>
       <r>    8.3237    1.0000 </r>
       <r>    9.5021    1.0000 </r>
       <r>   10.7333    1.0000 </r>
       <r>   10.9733    1.0000 </r>
       <r>   11.9934    0.0000 </r>
       <r>   16.2101    0.0000 </r>
       <r>   18.7420    0.0000 </r>
       <r>   20.0817    0.0000 </r>
       <r>   22.0499    0.0000 </r>
       <r>   25.5174    0.0000 </r>
       <r>   26.4551    0.0000 </r>
       <r>   28.0359    0.0000 </r>
      </set>
      <set comment="kpoint 42">
       <r>  -41.6387    1.0000 </r>
       <r>  -41.6014    1.0000 </r>
       <r>  -41.4375    1.0000 </r>
       <r>  -41.3820    1.0000 </r>
       <r>  -41.3244    1.0000 </r>
       <r>  -41.2225    1.0000 </r>
       <r>    5.1455    1.0000 </r>
       <r>    5.3705    1.0000 </r>
       <r>    5.8713    1.0000 </r>
       <r>    7.1015    1.0000 </r>
       <r>    7.7916    1.0000 </r>
       <r>    8.2324    1.0000 </r>
       <r>    8.3755    1.0000 </r>
       <r>   10.3132    1.0000 </r>
       <r>   10.7062    1.0000 </r>
       <r>   11.2259    0.0017 </r>
       <r>   13.1736    0.0000 </r>
       <r>   16.7423    0.0000 </r>
       <r>   17.6139    0.0000 </r>
       <r>   20.5722    0.0000 </r>
       <r>   20.7835    0.0000 </r>
       <r>   23.7966    0.0000 </r>
       <r>   25.4896    0.0000 </r>
       <r>   27.0172    0.0000 </r>
      </set>
      <set comment="kpoint 43">
       <r>  -41.6541    1.0000 </r>
       <r>  -41.6132    1.0000 </r>
       <r>  -41.4455    1.0000 </r>
       <r>  -41.3876    1.0000 </r>
       <r>  -41.3119    1.0000 </r>
       <r>  -41.2308    1.0000 </r>
       <r>    5.1465    1.0000 </r>
       <r>    5.2841    1.0000 </r>
       <r>    5.8390    1.0000 </r>
       <r>    7.2194    1.0000 </r>
       <r>    7.6734    1.0000 </r>
       <r>    8.4565    1.0000 </r>
       <r>    8.4841    1.0000 </r>
       <r>   10.6905    1.0000 </r>
       <r>   10.8429    1.0000 </r>
       <r>   11.1531    0.1943 </r>
       <r>   14.2463    0.0000 </r>
       <r>   15.2388    0.0000 </r>
       <r>   19.1524    0.0000 </r>
       <r>   19.2636    0.0000 </r>
       <r>   20.9455    0.0000 </r>
       <r>   23.2174    0.0000 </r>
       <r>   25.0070    0.0000 </r>
       <r>   26.6582    0.0000 </r>
      </set>
      <set comment="kpoint 44">
       <r>  -41.5686    1.0000 </r>
       <r>  -41.5648    1.0000 </r>
       <r>  -41.4195    1.0000 </r>
       <r>  -41.3824    1.0000 </r>
       <r>  -41.3530    1.0000 </r>
       <r>  -41.2057    1.0000 </r>
       <r>    5.1731    1.0000 </r>
       <r>    5.9655    1.0000 </r>
       <r>    6.2546    1.0000 </r>
       <r>    6.3552    1.0000 </r>
       <r>    7.5505    1.0000 </r>
       <r>    7.7137    1.0000 </r>
       <r>    8.3597    1.0000 </r>
       <r>    9.1508    1.0000 </r>
       <r>   10.6356    1.0000 </r>
       <r>   10.9759    1.0000 </r>
       <r>   12.0458    0.0000 </r>
       <r>   16.2156    0.0000 </r>
       <r>   19.0514    0.0000 </r>
       <r>   20.6767    0.0000 </r>
       <r>   21.2334    0.0000 </r>
       <r>   26.3546    0.0000 </r>
       <r>   26.5513    0.0000 </r>
       <r>   28.3804    0.0000 </r>
      </set>
      <set comment="kpoint 45">
       <r>  -41.6053    1.0000 </r>
       <r>  -41.5825    1.0000 </r>
       <r>  -41.4581    1.0000 </r>
       <r>  -41.4150    1.0000 </r>
       <r>  -41.3243    1.0000 </r>
       <r>  -41.2220    1.0000 </r>
       <r>    5.5895    1.0000 </r>
       <r>    5.8742    1.0000 </r>
       <r>    6.0685    1.0000 </r>
       <r>    6.7296    1.0000 </r>
       <r>    7.5419    1.0000 </r>
       <r>    7.9667    1.0000 </r>
       <r>    8.2023    1.0000 </r>
       <r>    9.6453    1.0000 </r>
       <r>   10.5232    1.0000 </r>
       <r>   11.1897    0.0289 </r>
       <r>   13.2473    0.0000 </r>
       <r>   17.4198    0.0000 </r>
       <r>   17.9697    0.0000 </r>
       <r>   19.7569    0.0000 </r>
       <r>   21.1102    0.0000 </r>
       <r>   24.6564    0.0000 </r>
       <r>   25.9422    0.0000 </r>
       <r>   26.9548    0.0000 </r>
      </set>
      <set comment="kpoint 46">
       <r>  -41.6252    1.0000 </r>
       <r>  -41.5876    1.0000 </r>
       <r>  -41.4853    1.0000 </r>
       <r>  -41.4335    1.0000 </r>
       <r>  -41.3018    1.0000 </r>
       <r>  -41.2377    1.0000 </r>
       <r>    5.5410    1.0000 </r>
       <r>    5.8516    1.0000 </r>
       <r>    6.0660    1.0000 </r>
       <r>    7.0382    1.0000 </r>
       <r>    7.5247    1.0000 </r>
       <r>    7.9502    1.0000 </r>
       <r>    8.4727    1.0000 </r>
       <r>   10.2526    1.0000 </r>
       <r>   10.4593    1.0000 </r>
       <r>   11.0207    0.9980 </r>
       <r>   14.4715    0.0000 </r>
       <r>   15.9660    0.0000 </r>
       <r>   18.5075    0.0000 </r>
       <r>   19.7601    0.0000 </r>
       <r>   21.4477    0.0000 </r>
       <r>   23.5563    0.0000 </r>
       <r>   25.5318    0.0000 </r>
       <r>   25.6636    0.0000 </r>
      </set>
      <set comment="kpoint 47">
       <r>  -41.6015    1.0000 </r>
       <r>  -41.5756    1.0000 </r>
       <r>  -41.5027    1.0000 </r>
       <r>  -41.4632    1.0000 </r>
       <r>  -41.2976    1.0000 </r>
       <r>  -41.2408    1.0000 </r>
       <r>    5.7717    1.0000 </r>
       <r>    6.0584    1.0000 </r>
       <r>    6.4581    1.0000 </r>
       <r>    6.6924    1.0000 </r>
       <r>    7.5142    1.0000 </r>
       <r>    7.6983    1.0000 </r>
       <r>    8.4197    1.0000 </r>
       <r>    9.9575    1.0000 </r>
       <r>   10.3639    1.0000 </r>
       <r>   10.9869    0.9999 </r>
       <r>   14.4405    0.0000 </r>
       <r>   16.5516    0.0000 </r>
       <r>   18.0842    0.0000 </r>
       <r>   19.6106    0.0000 </r>
       <r>   22.4492    0.0000 </r>
       <r>   23.5172    0.0000 </r>
       <r>   25.0144    0.0000 </r>
       <r>   26.1526    0.0000 </r>
      </set>
      <set comment="kpoint 48">
       <r>  -41.5955    1.0000 </r>
       <r>  -41.5573    1.0000 </r>
       <r>  -41.5330    1.0000 </r>
       <r>  -41.4861    1.0000 </r>
       <r>  -41.2803    1.0000 </r>
       <r>  -41.2553    1.0000 </r>
       <r>    5.7745    1.0000 </r>
       <r>    6.2769    1.0000 </r>
       <r>    6.3258    1.0000 </r>
       <r>    6.9133    1.0000 </r>
       <r>    7.4580    1.0000 </r>
       <r>    7.6169    1.0000 </r>
       <r>    8.5451    1.0000 </r>
       <r>   10.2992    1.0000 </r>
       <r>   10.3062    1.0000 </r>
       <r>   10.6583    1.0000 </r>
       <r>   15.4410    0.0000 </r>
       <r>   15.5867    0.0000 </r>
       <r>   17.4727    0.0000 </r>
       <r>   21.5541    0.0000 </r>
       <r>   21.6545    0.0000 </r>
       <r>   23.6973    0.0000 </r>
       <r>   24.2912    0.0000 </r>
       <r>   25.3991    0.0000 </r>
      </set>
      <set comment="kpoint 49">
       <r>  -41.4570    1.0000 </r>
[...]
       <r>   12.4924    0.0000 </r>
       <r>   12.4924    0.0000 </r>
       <r>   21.6827    0.0000 </r>
       <r>   21.6827    0.0000 </r>
       <r>   23.9375    0.0000 </r>
       <r>   23.9375    0.0000 </r>
       <r>   26.1108    0.0000 </r>
       <r>   26.1108    0.0000 </r>
      </set>
      <set comment="kpoint 141">
       <r>  -41.6060    1.0000 </r>
       <r>  -41.6060    1.0000 </r>
       <r>  -41.4457    1.0000 </r>
       <r>  -41.4457    1.0000 </r>
       <r>  -41.2526    1.0000 </r>
       <r>  -41.2526    1.0000 </r>
       <r>    5.5187    1.0000 </r>
       <r>    5.5187    1.0000 </r>
       <r>    6.6199    1.0000 </r>
       <r>    6.6199    1.0000 </r>
       <r>    7.7128    1.0000 </r>
       <r>    7.7128    1.0000 </r>
       <r>    8.8118    1.0000 </r>
       <r>    8.8118    1.0000 </r>
       <r>   11.1887    0.0308 </r>
       <r>   11.1887    0.0308 </r>
       <r>   14.0429    0.0000 </r>
       <r>   14.0429    0.0000 </r>
       <r>   19.8441    0.0000 </r>
       <r>   19.8441    0.0000 </r>
       <r>   22.8262    0.0000 </r>
       <r>   22.8262    0.0000 </r>
       <r>   26.5580    0.0000 </r>
       <r>   26.5580    0.0000 </r>
      </set>
      <set comment="kpoint 142">
       <r>  -41.6185    1.0000 </r>
       <r>  -41.6185    1.0000 </r>
       <r>  -41.4680    1.0000 </r>
       <r>  -41.4680    1.0000 </r>
       <r>  -41.2486    1.0000 </r>
       <r>  -41.2486    1.0000 </r>
       <r>    5.5428    1.0000 </r>
       <r>    5.5428    1.0000 </r>
       <r>    6.5482    1.0000 </r>
       <r>    6.5483    1.0000 </r>
       <r>    7.8140    1.0000 </r>
       <r>    7.8140    1.0000 </r>
       <r>    9.1336    1.0000 </r>
       <r>    9.1336    1.0000 </r>
       <r>   11.0640    0.9515 </r>
       <r>   11.0640    0.9515 </r>
       <r>   15.5765    0.0000 </r>
       <r>   15.5765    0.0000 </r>
       <r>   18.1160    0.0000 </r>
       <r>   18.1160    0.0000 </r>
       <r>   22.1723    0.0000 </r>
       <r>   22.1723    0.0000 </r>
       <r>   27.0303    0.0000 </r>
       <r>   27.0303    0.0000 </r>
      </set>
      <set comment="kpoint 143">
       <r>  -41.5975    1.0000 </r>
       <r>  -41.5975    1.0000 </r>
       <r>  -41.4951    1.0000 </r>
       <r>  -41.4951    1.0000 </r>
       <r>  -41.2473    1.0000 </r>
       <r>  -41.2473    1.0000 </r>
       <r>    5.8029    1.0000 </r>
       <r>    5.8029    1.0000 </r>
       <r>    6.7516    1.0000 </r>
       <r>    6.7516    1.0000 </r>
       <r>    7.5215    1.0000 </r>
       <r>    7.5215    1.0000 </r>
       <r>    8.7634    1.0000 </r>
       <r>    8.7634    1.0000 </r>
       <r>   11.0782    0.8954 </r>
       <r>   11.0782    0.8954 </r>
       <r>   15.7916    0.0000 </r>
       <r>   15.7916    0.0000 </r>
       <r>   18.8002    0.0000 </r>
       <r>   18.8002    0.0000 </r>
       <r>   21.1566    0.0000 </r>
       <r>   21.1566    0.0000 </r>
       <r>   27.5444    0.0000 </r>
       <r>   27.5444    0.0000 </r>
      </set>
      <set comment="kpoint 144">
       <r>  -41.5854    1.0000 </r>
       <r>  -41.5854    1.0000 </r>
       <r>  -41.5218    1.0000 </r>
       <r>  -41.5218    1.0000 </r>
       <r>  -41.2457    1.0000 </r>
       <r>  -41.2457    1.0000 </r>
       <r>    5.9515    1.0000 </r>
       <r>    5.9515    1.0000 </r>
       <r>    6.6987    1.0000 </r>
       <r>    6.6987    1.0000 </r>
       <r>    7.5016    1.0000 </r>
       <r>    7.5016    1.0000 </r>
       <r>    8.8117    1.0000 </r>
       <r>    8.8118    1.0000 </r>
       <r>   10.9817    1.0000 </r>
       <r>   10.9817    1.0000 </r>
       <r>   17.1330    0.0000 </r>
       <r>   17.1330    0.0000 </r>
       <r>   17.8522    0.0000 </r>
       <r>   17.8522    0.0000 </r>
       <r>   20.4239    0.0000 </r>
       <r>   20.4239    0.0000 </r>
       <r>   28.2211    0.0000 </r>
       <r>   28.2211    0.0000 </r>
      </set>
     </set>
    </set>
   </array>
  </eigenvalues>
  <separator name="orbital magnetization" >
   <v name="MAGDIPOLOUT">      0.00000000      0.00000000      0.00000000</v>
  </separator>
  <dos>
   <i name="efermi">     11.12263162 </i>
   <total>
    <array>
     <dimension dim="1">gridpoints</dimension>
     <dimension dim="2">spin</dimension>
     <field>energy</field>
     <field>total</field>
     <field>integrated</field>
     <set>
      <set comment="spin 1">
       <r>   -45.3709     0.0000     0.0000 </r>
       <r>   -45.1002     0.0000     0.0000 </r>
       <r>   -44.8294     0.0000     0.0000 </r>
       <r>   -44.5587     0.0000     0.0000 </r>
       <r>   -44.2879     0.0000     0.0000 </r>
       <r>   -44.0172     0.0000     0.0000 </r>
       <r>   -43.7464     0.0000     0.0000 </r>
       <r>   -43.4757     0.0000     0.0000 </r>
       <r>   -43.2049     0.0000     0.0000 </r>
       <r>   -42.9342     0.0000     0.0000 </r>
       <r>   -42.6634     0.0000     0.0000 </r>
       <r>   -42.3927     0.0000     0.0000 </r>
       <r>   -42.1219     0.0000     0.0000 </r>
       <r>   -41.8512     0.0000     0.0000 </r>
       <r>   -41.5804     6.7700     1.8330 </r>
       <r>   -41.3097    24.2523     8.3993 </r>
       <r>   -41.0389    13.2989    12.0000 </r>
       <r>   -40.7682     0.0000    12.0000 </r>
       <r>   -40.4974     0.0000    12.0000 </r>
       <r>   -40.2267     0.0000    12.0000 </r>
       <r>   -39.9559     0.0000    12.0000 </r>
       <r>   -39.6852     0.0000    12.0000 </r>
       <r>   -39.4144     0.0000    12.0000 </r>
       <r>   -39.1437     0.0000    12.0000 </r>
       <r>   -38.8729     0.0000    12.0000 </r>
       <r>   -38.6022     0.0000    12.0000 </r>
       <r>   -38.3314     0.0000    12.0000 </r>
       <r>   -38.0607     0.0000    12.0000 </r>
       <r>   -37.7899     0.0000    12.0000 </r>
       <r>   -37.5192     0.0000    12.0000 </r>
       <r>   -37.2484     0.0000    12.0000 </r>
       <r>   -36.9777     0.0000    12.0000 </r>
       <r>   -36.7069     0.0000    12.0000 </r>
       <r>   -36.4362     0.0000    12.0000 </r>
       <r>   -36.1654     0.0000    12.0000 </r>
       <r>   -35.8947     0.0000    12.0000 </r>
       <r>   -35.6239     0.0000    12.0000 </r>
       <r>   -35.3532     0.0000    12.0000 </r>
       <r>   -35.0824     0.0000    12.0000 </r>
       <r>   -34.8117     0.0000    12.0000 </r>
       <r>   -34.5409     0.0000    12.0000 </r>
       <r>   -34.2702     0.0000    12.0000 </r>
       <r>   -33.9994     0.0000    12.0000 </r>
       <r>   -33.7287     0.0000    12.0000 </r>
       <r>   -33.4579     0.0000    12.0000 </r>
       <r>   -33.1872     0.0000    12.0000 </r>
       <r>   -32.9164     0.0000    12.0000 </r>
       <r>   -32.6457     0.0000    12.0000 </r>
       <r>   -32.3749     0.0000    12.0000 </r>
       <r>   -32.1042     0.0000    12.0000 </r>
       <r>   -31.8334     0.0000    12.0000 </r>
       <r>   -31.5627     0.0000    12.0000 </r>
       <r>   -31.2919     0.0000    12.0000 </r>
       <r>   -31.0212     0.0000    12.0000 </r>
       <r>   -30.7504     0.0000    12.0000 </r>
       <r>   -30.4797     0.0000    12.0000 </r>
       <r>   -30.2089     0.0000    12.0000 </r>
       <r>   -29.9382     0.0000    12.0000 </r>
       <r>   -29.6674     0.0000    12.0000 </r>
       <r>   -29.3967     0.0000    12.0000 </r>
       <r>   -29.1259     0.0000    12.0000 </r>
       <r>   -28.8552     0.0000    12.0000 </r>
       <r>   -28.5844     0.0000    12.0000 </r>
       <r>   -28.3137     0.0000    12.0000 </r>
       <r>   -28.0429     0.0000    12.0000 </r>
       <r>   -27.7722     0.0000    12.0000 </r>
       <r>   -27.5014     0.0000    12.0000 </r>
       <r>   -27.2307     0.0000    12.0000 </r>
       <r>   -26.9599     0.0000    12.0000 </r>
       <r>   -26.6892     0.0000    12.0000 </r>
       <r>   -26.4184     0.0000    12.0000 </r>
       <r>   -26.1477     0.0000    12.0000 </r>
       <r>   -25.8769     0.0000    12.0000 </r>
       <r>   -25.6062     0.0000    12.0000 </r>
       <r>   -25.3354     0.0000    12.0000 </r>
       <r>   -25.0647     0.0000    12.0000 </r>
       <r>   -24.7939     0.0000    12.0000 </r>
       <r>   -24.5232     0.0000    12.0000 </r>
       <r>   -24.2524     0.0000    12.0000 </r>
       <r>   -23.9817     0.0000    12.0000 </r>
       <r>   -23.7109     0.0000    12.0000 </r>
       <r>   -23.4402     0.0000    12.0000 </r>
       <r>   -23.1694     0.0000    12.0000 </r>
       <r>   -22.8987     0.0000    12.0000 </r>
       <r>   -22.6279     0.0000    12.0000 </r>
       <r>   -22.3572     0.0000    12.0000 </r>
       <r>   -22.0864     0.0000    12.0000 </r>
       <r>   -21.8157     0.0000    12.0000 </r>
       <r>   -21.5449     0.0000    12.0000 </r>
       <r>   -21.2742     0.0000    12.0000 </r>
       <r>   -21.0034     0.0000    12.0000 </r>
       <r>   -20.7327     0.0000    12.0000 </r>
       <r>   -20.4619     0.0000    12.0000 </r>
       <r>   -20.1912     0.0000    12.0000 </r>
       <r>   -19.9204     0.0000    12.0000 </r>
       <r>   -19.6497     0.0000    12.0000 </r>
       <r>   -19.3789     0.0000    12.0000 </r>
       <r>   -19.1082     0.0000    12.0000 </r>
       <r>   -18.8374     0.0000    12.0000 </r>
       <r>   -18.5667     0.0000    12.0000 </r>
       <r>   -18.2959     0.0000    12.0000 </r>
       <r>   -18.0252     0.0000    12.0000 </r>
       <r>   -17.7544     0.0000    12.0000 </r>
       <r>   -17.4837     0.0000    12.0000 </r>
       <r>   -17.2129     0.0000    12.0000 </r>
       <r>   -16.9422     0.0000    12.0000 </r>
       <r>   -16.6715     0.0000    12.0000 </r>
       <r>   -16.4007     0.0000    12.0000 </r>
       <r>   -16.1300     0.0000    12.0000 </r>
       <r>   -15.8592     0.0000    12.0000 </r>
       <r>   -15.5885     0.0000    12.0000 </r>
       <r>   -15.3177     0.0000    12.0000 </r>
       <r>   -15.0470     0.0000    12.0000 </r>
       <r>   -14.7762     0.0000    12.0000 </r>
       <r>   -14.5055     0.0000    12.0000 </r>
       <r>   -14.2347     0.0000    12.0000 </r>
       <r>   -13.9640     0.0000    12.0000 </r>
       <r>   -13.6932     0.0000    12.0000 </r>
       <r>   -13.4225     0.0000    12.0000 </r>
       <r>   -13.1517     0.0000    12.0000 </r>
       <r>   -12.8810     0.0000    12.0000 </r>
       <r>   -12.6102     0.0000    12.0000 </r>
       <r>   -12.3395     0.0000    12.0000 </r>
       <r>   -12.0687     0.0000    12.0000 </r>
       <r>   -11.7980     0.0000    12.0000 </r>
       <r>   -11.5272     0.0000    12.0000 </r>
       <r>   -11.2565     0.0000    12.0000 </r>
       <r>   -10.9857     0.0000    12.0000 </r>
       <r>   -10.7150     0.0000    12.0000 </r>
       <r>   -10.4442     0.0000    12.0000 </r>
       <r>   -10.1735     0.0000    12.0000 </r>
       <r>    -9.9027     0.0000    12.0000 </r>
       <r>    -9.6320     0.0000    12.0000 </r>
       <r>    -9.3612     0.0000    12.0000 </r>
       <r>    -9.0905     0.0000    12.0000 </r>
       <r>    -8.8197     0.0000    12.0000 </r>
       <r>    -8.5490     0.0000    12.0000 </r>
       <r>    -8.2782     0.0000    12.0000 </r>
       <r>    -8.0075     0.0000    12.0000 </r>
       <r>    -7.7367     0.0000    12.0000 </r>
       <r>    -7.4660     0.0000    12.0000 </r>
       <r>    -7.1952     0.0000    12.0000 </r>
       <r>    -6.9245     0.0000    12.0000 </r>
       <r>    -6.6537     0.0000    12.0000 </r>
       <r>    -6.3830     0.0000    12.0000 </r>
       <r>    -6.1122     0.0000    12.0000 </r>
       <r>    -5.8415     0.0000    12.0000 </r>
       <r>    -5.5707     0.0000    12.0000 </r>
       <r>    -5.3000     0.0000    12.0000 </r>
       <r>    -5.0292     0.0000    12.0000 </r>
       <r>    -4.7585     0.0000    12.0000 </r>
       <r>    -4.4877     0.0000    12.0000 </r>
       <r>    -4.2170     0.0000    12.0000 </r>
       <r>    -3.9462     0.0000    12.0000 </r>
       <r>    -3.6755     0.0000    12.0000 </r>
       <r>    -3.4047     0.0000    12.0000 </r>
       <r>    -3.1340     0.0000    12.0000 </r>
       <r>    -2.8632     0.0000    12.0000 </r>
       <r>    -2.5925     0.0000    12.0000 </r>
       <r>    -2.3217     0.0000    12.0000 </r>
       <r>    -2.0510     0.0000    12.0000 </r>
       <r>    -1.7802     0.0000    12.0000 </r>
       <r>    -1.5095     0.0000    12.0000 </r>
       <r>    -1.2387     0.0000    12.0000 </r>
       <r>    -0.9680     0.0000    12.0000 </r>
       <r>    -0.6972     0.0000    12.0000 </r>
       <r>    -0.4265     0.0000    12.0000 </r>
       <r>    -0.1557     0.0000    12.0000 </r>
       <r>     0.1150     0.0000    12.0000 </r>
       <r>     0.3858     0.0000    12.0000 </r>
       <r>     0.6565     0.0000    12.0000 </r>
       <r>     0.9273     0.0000    12.0000 </r>
       <r>     1.1980     0.0000    12.0000 </r>
       <r>     1.4688     0.0045    12.0012 </r>
       <r>     1.7395     0.0727    12.0209 </r>
       <r>     2.0103     0.0788    12.0422 </r>
       <r>     2.2810     0.1354    12.0789 </r>
       <r>     2.5518     0.1194    12.1112 </r>
       <r>     2.8225     0.2225    12.1714 </r>
       <r>     3.0933     0.2153    12.2297 </r>
       <r>     3.3640     0.2576    12.2995 </r>
       <r>     3.6348     0.2813    12.3757 </r>
       <r>     3.9055     0.4279    12.4915 </r>
       <r>     4.1763     0.3714    12.5921 </r>
       <r>     4.4470     0.9536    12.8503 </r>
       <r>     4.7178     1.7271    13.3179 </r>
       <r>     4.9885     2.2006    13.9137 </r>
       <r>     5.2593     2.2502    14.5230 </r>
       <r>     5.5300     2.4060    15.1744 </r>
       <r>     5.8008     1.7669    15.6528 </r>
       <r>     6.0715     3.0725    16.4847 </r>
       <r>     6.3423     3.5156    17.4365 </r>
       <r>     6.6130     2.4628    18.1033 </r>
       <r>     6.8838     3.3787    19.0181 </r>
       <r>     7.1545     2.6600    19.7383 </r>
       <r>     7.4253     2.7574    20.4849 </r>
       <r>     7.6960     3.8767    21.5345 </r>
       <r>     7.9668     3.2864    22.4243 </r>
       <r>     8.2375     3.7074    23.4280 </r>
       <r>     8.5083     3.4657    24.3664 </r>
       <r>     8.7790     3.5553    25.3290 </r>
       <r>     9.0498     2.5827    26.0282 </r>
       <r>     9.3205     2.5271    26.7124 </r>
       <r>     9.5913     2.5984    27.4160 </r>
       <r>     9.8620     2.5282    28.1005 </r>
       <r>    10.1328     1.7989    28.5875 </r>
       <r>    10.4035     2.8908    29.3702 </r>
       <r>    10.6743     3.1383    30.2199 </r>
       <r>    10.9450     3.6010    31.1949 </r>
       <r>    11.2158     4.2556    32.3471 </r>
       <r>    11.4865     2.8026    33.1059 </r>
       <r>    11.7573     0.5113    33.2443 </r>
       <r>    12.0280     0.8255    33.4679 </r>
       <r>    12.2988     0.9316    33.7201 </r>
       <r>    12.5695     0.2675    33.7925 </r>
       <r>    12.8403     0.3755    33.8942 </r>
       <r>    13.1110     0.4900    34.0268 </r>
       <r>    13.3818     1.0634    34.3147 </r>
       <r>    13.6525     0.3977    34.4224 </r>
       <r>    13.9233     0.3511    34.5175 </r>
       <r>    14.1940     0.4702    34.6448 </r>
       <r>    14.4648     0.5978    34.8067 </r>
       <r>    14.7355     0.6439    34.9810 </r>
       <r>    15.0063     0.2806    35.0570 </r>
       <r>    15.2770     0.7586    35.2624 </r>
       <r>    15.5478     0.3918    35.3685 </r>
       <r>    15.8185     0.6058    35.5325 </r>
       <r>    16.0893     0.5029    35.6686 </r>
       <r>    16.3600     0.5973    35.8303 </r>
       <r>    16.6308     0.3306    35.9199 </r>
       <r>    16.9015     0.5166    36.0597 </r>
       <r>    17.1723     0.1042    36.0879 </r>
       <r>    17.4430     0.3989    36.1960 </r>
       <r>    17.7138     0.9583    36.4554 </r>
       <r>    17.9845     0.9720    36.7186 </r>
       <r>    18.2553     0.8756    36.9557 </r>
       <r>    18.5260     0.8737    37.1922 </r>
       <r>    18.7968     0.6350    37.3641 </r>
       <r>    19.0675     0.5936    37.5249 </r>
       <r>    19.3383     0.7344    37.7237 </r>
       <r>    19.6090     0.6574    37.9017 </r>
       <r>    19.8798     0.9142    38.1492 </r>
       <r>    20.1505     0.7833    38.3613 </r>
       <r>    20.4213     0.5021    38.4972 </r>
       <r>    20.6920     0.6977    38.6861 </r>
       <r>    20.9628     0.8443    38.9147 </r>
       <r>    21.2335     0.3913    39.0206 </r>
       <r>    21.5043     0.6407    39.1941 </r>
       <r>    21.7750     0.7370    39.3936 </r>
       <r>    22.0458     0.8105    39.6131 </r>
       <r>    22.3165     0.6537    39.7901 </r>
       <r>    22.5873     0.6968    39.9787 </r>
       <r>    22.8580     0.6597    40.1573 </r>
       <r>    23.1288     0.4350    40.2751 </r>
       <r>    23.3995     0.7534    40.4791 </r>
       <r>    23.6703     0.8542    40.7104 </r>
       <r>    23.9410     1.0580    40.9969 </r>
       <r>    24.2118     0.7670    41.2045 </r>
       <r>    24.4825     0.7915    41.4188 </r>
       <r>    24.7533     1.0948    41.7152 </r>
       <r>    25.0240     1.2044    42.0413 </r>
       <r>    25.2948     1.3491    42.4066 </r>
       <r>    25.5655     1.3993    42.7855 </r>
       <r>    25.8363     1.3981    43.1640 </r>
       <r>    26.1070     1.9126    43.6819 </r>
       <r>    26.3778     1.1636    43.9969 </r>
       <r>    26.6485     1.4711    44.3952 </r>
       <r>    26.9193     1.1235    44.6994 </r>
       <r>    27.1900     1.5051    45.1069 </r>
       <r>    27.4608     1.6658    45.5579 </r>
       <r>    27.7315     1.2324    45.8915 </r>
       <r>    28.0023     1.3654    46.2612 </r>
       <r>    28.2730     1.4841    46.6630 </r>
       <r>    28.5438     0.8112    46.8827 </r>
       <r>    28.8145     0.7252    47.0790 </r>
       <r>    29.0853     0.6146    47.2454 </r>
       <r>    29.3560     0.5574    47.3963 </r>
       <r>    29.6268     0.5815    47.5538 </r>
       <r>    29.8975     0.4786    47.6833 </r>
       <r>    30.1683     0.2310    47.7459 </r>
       <r>    30.4390     0.4724    47.8738 </r>
       <r>    30.7098     0.0993    47.9006 </r>
       <r>    30.9805     0.1672    47.9459 </r>
       <r>    31.2513     0.1425    47.9845 </r>
       <r>    31.5220     0.0339    47.9937 </r>
       <r>    31.7928     0.0139    47.9974 </r>
       <r>    32.0635     0.0019    47.9980 </r>
       <r>    32.3343     0.0075    48.0000 </r>
       <r>    32.6050     0.0000    48.0000 </r>
       <r>    32.8758     0.0000    48.0000 </r>
       <r>    33.1465     0.0000    48.0000 </r>
       <r>    33.4173     0.0000    48.0000 </r>
       <r>    33.6880     0.0000    48.0000 </r>
       <r>    33.9588     0.0000    48.0000 </r>
       <r>    34.2295     0.0000    48.0000 </r>
       <r>    34.5003     0.0000    48.0000 </r>
       <r>    34.7710     0.0000    48.0000 </r>
       <r>    35.0418     0.0000    48.0000 </r>
       <r>    35.3125     0.0000    48.0000 </r>
       <r>    35.5833     0.0000    48.0000 </r>
       <r>    35.8540     0.0000    48.0000 </r>
      </set>
     </set>
    </array>
   </total>
  </dos>
 </calculation>
 <structure name="finalpos" >
  <crystal>
   <varray name="basis" >
    <v>       2.76000000       0.00000000       0.00000000 </v>
    <v>      -1.38000000       2.39023011       0.00000000 </v>
    <v>       0.00000000       0.00000000       4.79000000 </v>
   </varray>
   <i name="volume">     31.59979821 </i>
   <varray name="rec_basis" >
    <v>       0.36231884       0.20918488       0.00000000 </v>
    <v>       0.00000000       0.41836976       0.00000000 </v>
    <v>       0.00000000       0.00000000       0.20876827 </v>
   </varray>
  </crystal>
  <varray name="positions" >
   <v>       0.00000000       0.00000000       0.00000000 </v>
   <v>       0.33333333       0.66666667       0.50000000 </v>
  </varray>
 </structure>
</modeling>
