Co-fcc                                  
   1.00000000000000     
     0.000000    1.763960    1.763960
     1.763960    0.000000    1.763960
     1.763960    1.763960    0.000000
   Co
     1
Direct
  0.000000  0.000000  0.000000
 
   32   32   32
 0.10410557040E+03 0.10177529849E+03 0.95108696191E+02 0.84990860985E+02 0.72644687029E+02
 0.59367001549E+02 0.46318759511E+02 0.34414628631E+02 0.24295486048E+02 0.16334254728E+02
 0.10636810056E+02 0.70372837269E+01 0.51166971144E+01 0.42730598907E+01 0.38650365175E+01
 0.36228171419E+01 0.35426066502E+01 0.36228171419E+01 0.38650365175E+01 0.42730598907E+01
 0.51166971144E+01 0.70372837269E+01 0.10636810056E+02 0.16334254728E+02 0.24295486048E+02
 0.34414628631E+02 0.46318759511E+02 0.59367001549E+02 0.72644687029E+02 0.84990860985E+02
 0.95108696191E+02 0.10177529849E+03 0.10177529849E+03 0.97278396055E+02 0.88897228106E+02
 0.77696569273E+02 0.64943136865E+02 0.51865101082E+02 0.39493508952E+02 0.28598247105E+02
 0.19681379091E+02 0.12980793392E+02 0.84649175632E+01 0.58357607877E+01 0.45721332464E+01
 0.40287802512E+01 0.37092642550E+01 0.35502265874E+01 0.35502265209E+01 0.37092640856E+01
 0.40287800549E+01 0.45721330930E+01 0.58357607036E+01 0.84649175119E+01 0.12980793310E+02
 0.19681378931E+02 0.28598246888E+02 0.39493508765E+02 0.51865101043E+02 0.64943137056E+02
 0.77696569672E+02 0.88897228598E+02 0.97278396460E+02 0.10177529865E+03 0.95108696191E+02
 0.88897228106E+02 0.79458121724E+02 0.67921038608E+02 0.55492603591E+02 0.43264521810E+02
 0.32108332405E+02 0.22642205315E+02 0.15227068141E+02 0.99607804198E+01 0.66727129225E+01
 0.49459384754E+01 0.41909528860E+01 0.38029064835E+01 0.35715955068E+01 0.34952514429E+01
 0.35715953671E+01 0.38029062760E+01 0.41909527095E+01 0.49459383908E+01 0.66727129171E+01
 0.99607804115E+01 0.15227068036E+02 0.22642205072E+02 0.32108332077E+02 0.43264521526E+02
 0.55492603492E+02 0.67921038762E+02 0.79458122080E+02 0.88897228510E+02 0.95108696456E+02
 0.97278396460E+02 0.84990860985E+02 0.77696569273E+02 0.67921038608E+02 0.56755244844E+02
 0.45275581910E+02 0.34406744644E+02 0.24856046599E+02 0.17091213484E+02 0.11328481921E+02
 0.75213248644E+01 0.53676200247E+01 0.43605852107E+01 0.38954187256E+01 0.36026432758E+01
 0.34583530262E+01 0.34583530174E+01 0.36026432598E+01 0.38954187268E+01 0.43605852512E+01
 0.53676201061E+01 0.75213249592E+01 0.11328481978E+02 0.17091213447E+02 0.24856046427E+02
 0.34406744329E+02 0.45275581479E+02 0.56755244355E+02 0.67921038133E+02 0.77696568879E+02
 0.84990860730E+02 0.88897228510E+02 0.88897228598E+02 0.72644687029E+02 0.64943136865E+02
 0.55492603591E+02 0.45275581910E+02 0.35206887104E+02 0.26040553034E+02 0.18323891425E+02
 0.12372824504E+02 0.82533805312E+01 0.57776685781E+01 0.45360159682E+01 0.39785082857E+01
 0.36377867548E+01 0.34371750850E+01 0.33715629001E+01 0.34371752633E+01 0.36377870200E+01
 0.39785085134E+01 0.45360160813E+01 0.57776685908E+01 0.82533805292E+01 0.12372824566E+02
 0.18323891540E+02 0.26040553068E+02 0.35206886843E+02 0.45275581188E+02 0.55492602400E+02
 0.64943135414E+02 0.72644685704E+02 0.77696568879E+02 0.79458122080E+02 0.77696569672E+02
 0.59367001549E+02 0.51865101082E+02 0.43264521810E+02 0.34406744644E+02 0.26040553034E+02
 0.18754916611E+02 0.12938075090E+02 0.87491710824E+01 0.61045203856E+01 0.46945991680E+01
 0.40460564986E+01 0.36712754531E+01 0.34276329237E+01 0.33095970659E+01 0.33095972472E+01
 0.34276333484E+01 0.36712758452E+01 0.40460566014E+01 0.46945989205E+01 0.61045199623E+01
 0.87491707857E+01 0.12938075134E+02 0.18754916951E+02 0.26040553342E+02 0.34406744462E+02
 0.43264520825E+02 0.51865099343E+02 0.59366999514E+02 0.64943135414E+02 0.67921038133E+02
 0.67921038762E+02 0.64943137056E+02 0.46318759511E+02 0.39493508952E+02 0.32108332405E+02
 0.24856046599E+02 0.18323891425E+02 0.12938075090E+02 0.89245131180E+01 0.62858842174E+01
 0.48062124460E+01 0.40957615343E+01 0.36983285406E+01 0.34251823363E+01 0.32685165287E+01
 0.32179195603E+01 0.32685169076E+01 0.34251827974E+01 0.36983286847E+01 0.40957611221E+01
 0.48062115723E+01 0.62858832712E+01 0.89245125607E+01 0.12938075163E+02 0.18323891976E+02
 0.24856047146E+02 0.32108332384E+02 0.39493508064E+02 0.46318757924E+02 0.51865099343E+02
 0.55492602400E+02 0.56755244355E+02 0.55492603492E+02 0.51865101043E+02 0.34414628631E+02
 0.28598247105E+02 0.22642205315E+02 0.17091213484E+02 0.12372824504E+02 0.87491710824E+01
 0.62858842174E+01 0.48464962037E+01 0.41228166978E+01 0.37157032169E+01 0.34258628933E+01
 0.32435840002E+01 0.31570288772E+01 0.31570290608E+01 0.32435843988E+01 0.34258631362E+01
 0.37157029581E+01 0.41228158356E+01 0.48464949770E+01 0.62858830849E+01 0.87491704792E+01
 0.12372824601E+02 0.17091214086E+02 0.22642205981E+02 0.28598247394E+02 0.34414628346E+02
 0.39493508064E+02 0.43264520825E+02 0.45275581188E+02 0.45275581479E+02 0.43264521526E+02
 0.39493508765E+02 0.24295486048E+02 0.19681379091E+02 0.15227068141E+02 0.11328481921E+02
 0.82533805312E+01 0.61045203856E+01 0.48062124460E+01 0.41228166978E+01 0.37216688167E+01
 0.34268989382E+01 0.32305503332E+01 0.31208532209E+01 0.30858850671E+01 0.31208534446E+01
 0.32305506048E+01 0.34268990031E+01 0.37216684885E+01 0.41228159655E+01 0.48062114950E+01
 0.61045195158E+01 0.82533800135E+01 0.11328481894E+02 0.15227068542E+02 0.19681379729E+02
 0.24295486700E+02 0.28598247394E+02 0.32108332384E+02 0.34406744462E+02 0.35206886843E+02
 0.34406744329E+02 0.32108332077E+02 0.28598246888E+02 0.16334254728E+02 0.12980793392E+02
 0.99607804198E+01 0.75213248644E+01 0.57776685781E+01 0.46945991680E+01 0.40957615343E+01
 0.37157032169E+01 0.34268989382E+01 0.32265420067E+01 0.31042286559E+01 0.30471671449E+01
 0.30471671937E+01 0.31042287931E+01 0.32265422135E+01 0.34268991587E+01 0.37157033696E+01
 0.40957615259E+01 0.46945989442E+01 0.57776681758E+01 0.75213244083E+01 0.99607801166E+01
 0.12980793430E+02 0.16334255185E+02 0.19681379729E+02 0.22642205981E+02 0.24856047146E+02
 0.26040553342E+02 0.26040553068E+02 0.24856046427E+02 0.22642205072E+02 0.19681378931E+02
 0.10636810056E+02 0.84649175632E+01 0.66727129225E+01 0.53676200247E+01 0.45360159682E+01
 0.40460564986E+01 0.36983285406E+01 0.34258628933E+01 0.32305503332E+01 0.31042286559E+01
 0.30349814700E+01 0.30131182252E+01 0.30349814095E+01 0.31042286717E+01 0.32305505989E+01
 0.34258634867E+01 0.36983293566E+01 0.40460572863E+01 0.45360164355E+01 0.53676200317E+01
 0.66727125347E+01 0.84649170540E+01 0.10636809758E+02 0.12980793430E+02 0.15227068542E+02
 0.17091214086E+02 0.18323891976E+02 0.18754916951E+02 0.18323891540E+02 0.17091213447E+02
 0.15227068036E+02 0.12980793310E+02 0.70372837269E+01 0.58357607877E+01 0.49459384754E+01
 0.43605852107E+01 0.39785082857E+01 0.36712754531E+01 0.34251823363E+01 0.32435840002E+01
 0.31208532209E+01 0.30471671449E+01 0.30131182252E+01 0.30131181018E+01 0.30471668835E+01
 0.31208530798E+01 0.32435842393E+01 0.34251830612E+01 0.36712765319E+01 0.39785094223E+01
 0.43605860572E+01 0.49459388285E+01 0.58357606575E+01 0.70372832978E+01 0.84649170540E+01
 0.99607801166E+01 0.11328481894E+02 0.12372824601E+02 0.12938075163E+02 0.12938075134E+02
 0.12372824566E+02 0.11328481978E+02 0.99607804115E+01 0.84649175119E+01 0.51166971144E+01
 0.45721332464E+01 0.41909528860E+01 0.38954187256E+01 0.36377867548E+01 0.34276329237E+01
 0.32685165287E+01 0.31570288772E+01 0.30858850671E+01 0.30471671937E+01 0.30349814095E+01
 0.30471668835E+01 0.30858845907E+01 0.31570284684E+01 0.32685164081E+01 0.34276332275E+01
 0.36377874585E+01 0.38954196835E+01 0.41909538606E+01 0.45721339910E+01 0.51166974854E+01
 0.58357606575E+01 0.66727125347E+01 0.75213244083E+01 0.82533800135E+01 0.87491704792E+01
 0.89245125607E+01 0.87491707857E+01 0.82533805292E+01 0.75213249592E+01 0.66727129171E+01
 0.58357607036E+01 0.42730598907E+01 0.40287802512E+01 0.38029064835E+01 0.36026432758E+01
 0.34371750850E+01 0.33095970659E+01 0.32179195603E+01 0.31570290608E+01 0.31208534446E+01
 0.31042287931E+01 0.31042286717E+01 0.31208530798E+01 0.31570284684E+01 0.32179188217E+01
 0.33095963457E+01 0.34371746186E+01 0.36026432682E+01 0.38029070108E+01 0.40287812171E+01
 0.42730609984E+01 0.45721339910E+01 0.49459388285E+01 0.53676200317E+01 0.57776681758E+01
 0.61045195158E+01 0.62858830849E+01 0.62858832712E+01 0.61045199623E+01 0.57776685908E+01
 0.53676201061E+01 0.49459383908E+01 0.45721330930E+01 0.38650365175E+01 0.37092642550E+01
 0.35715955068E+01 0.34583530262E+01 0.33715629001E+01 0.33095972472E+01 0.32685169076E+01
 0.32435843988E+01 0.32305506048E+01 0.32265422135E+01 0.32305505989E+01 0.32435842393E+01
 0.32685164081E+01 0.33095963457E+01 0.33715617417E+01 0.34583519502E+01 0.35715948986E+01
 0.37092643440E+01 0.38650372793E+01 0.40287812171E+01 0.41909538606E+01 0.43605860572E+01
 0.45360164355E+01 0.46945989442E+01 0.48062114950E+01 0.48464949770E+01 0.48062115723E+01
 0.46945989205E+01 0.45360160813E+01 0.43605852512E+01 0.41909527095E+01 0.40287800549E+01
 0.36228171419E+01 0.35502265874E+01 0.34952514429E+01 0.34583530174E+01 0.34371752633E+01
 0.34276333484E+01 0.34251827974E+01 0.34258631362E+01 0.34268990031E+01 0.34268991587E+01
 0.34258634867E+01 0.34251830612E+01 0.34276332275E+01 0.34371746186E+01 0.34583519502E+01
 0.34952502609E+01 0.35502256772E+01 0.36228167839E+01 0.37092643440E+01 0.38029070108E+01
 0.38954196835E+01 0.39785094223E+01 0.40460572863E+01 0.40957615259E+01 0.41228159655E+01
 0.41228158356E+01 0.40957611221E+01 0.40460566014E+01 0.39785085134E+01 0.38954187268E+01
 0.38029062760E+01 0.37092640856E+01 0.35426066502E+01 0.35502265209E+01 0.35715953671E+01
 0.36026432598E+01 0.36377870200E+01 0.36712758452E+01 0.36983286847E+01 0.37157029581E+01
 0.37216684885E+01 0.37157033696E+01 0.36983293566E+01 0.36712765319E+01 0.36377874585E+01
 0.36026432682E+01 0.35715948986E+01 0.35502256772E+01 0.35426056636E+01 0.35502256772E+01
 0.35715948986E+01 0.36026432682E+01 0.36377874585E+01 0.36712765319E+01 0.36983293566E+01
 0.37157033696E+01 0.37216684885E+01 0.37157029581E+01 0.36983286847E+01 0.36712758452E+01
 0.36377870200E+01 0.36026432598E+01 0.35715953671E+01 0.35502265209E+01 0.36228171419E+01
 0.37092640856E+01 0.38029062760E+01 0.38954187268E+01 0.39785085134E+01 0.40460566014E+01
 0.40957611221E+01 0.41228158356E+01 0.41228159655E+01 0.40957615259E+01 0.40460572863E+01
 0.39785094223E+01 0.38954196835E+01 0.38029070108E+01 0.37092643440E+01 0.36228167839E+01
 0.35502256772E+01 0.34952502609E+01 0.34583519502E+01 0.34371746186E+01 0.34276332275E+01
 0.34251830612E+01 0.34258634867E+01 0.34268991587E+01 0.34268990031E+01 0.34258631362E+01
 0.34251827974E+01 0.34276333484E+01 0.34371752633E+01 0.34583530174E+01 0.34952514429E+01
 0.35502265874E+01 0.38650365175E+01 0.40287800549E+01 0.41909527095E+01 0.43605852512E+01
 0.45360160813E+01 0.46945989205E+01 0.48062115723E+01 0.48464949770E+01 0.48062114950E+01
 0.46945989442E+01 0.45360164355E+01 0.43605860572E+01 0.41909538606E+01 0.40287812171E+01
 0.38650372793E+01 0.37092643440E+01 0.35715948986E+01 0.34583519502E+01 0.33715617417E+01
 0.33095963457E+01 0.32685164081E+01 0.32435842393E+01 0.32305505989E+01 0.32265422135E+01
 0.32305506048E+01 0.32435843988E+01 0.32685169076E+01 0.33095972472E+01 0.33715629001E+01
 0.34583530262E+01 0.35715955068E+01 0.37092642550E+01 0.42730598907E+01 0.45721330930E+01
 0.49459383908E+01 0.53676201061E+01 0.57776685908E+01 0.61045199623E+01 0.62858832712E+01
 0.62858830849E+01 0.61045195158E+01 0.57776681758E+01 0.53676200317E+01 0.49459388285E+01
 0.45721339910E+01 0.42730609984E+01 0.40287812171E+01 0.38029070108E+01 0.36026432682E+01
 0.34371746186E+01 0.33095963457E+01 0.32179188217E+01 0.31570284684E+01 0.31208530798E+01
 0.31042286717E+01 0.31042287931E+01 0.31208534446E+01 0.31570290608E+01 0.32179195603E+01
 0.33095970659E+01 0.34371750850E+01 0.36026432758E+01 0.38029064835E+01 0.40287802512E+01
 0.51166971144E+01 0.58357607036E+01 0.66727129171E+01 0.75213249592E+01 0.82533805292E+01
 0.87491707857E+01 0.89245125607E+01 0.87491704792E+01 0.82533800135E+01 0.75213244083E+01
 0.66727125347E+01 0.58357606575E+01 0.51166974854E+01 0.45721339910E+01 0.41909538606E+01
 0.38954196835E+01 0.36377874585E+01 0.34276332275E+01 0.32685164081E+01 0.31570284684E+01
 0.30858845907E+01 0.30471668835E+01 0.30349814095E+01 0.30471671937E+01 0.30858850671E+01
 0.31570288772E+01 0.32685165287E+01 0.34276329237E+01 0.36377867548E+01 0.38954187256E+01
 0.41909528860E+01 0.45721332464E+01 0.70372837269E+01 0.84649175119E+01 0.99607804115E+01
 0.11328481978E+02 0.12372824566E+02 0.12938075134E+02 0.12938075163E+02 0.12372824601E+02
 0.11328481894E+02 0.99607801166E+01 0.84649170540E+01 0.70372832978E+01 0.58357606575E+01
 0.49459388285E+01 0.43605860572E+01 0.39785094223E+01 0.36712765319E+01 0.34251830612E+01
 0.32435842393E+01 0.31208530798E+01 0.30471668835E+01 0.30131181018E+01 0.30131182252E+01
 0.30471671449E+01 0.31208532209E+01 0.32435840002E+01 0.34251823363E+01 0.36712754531E+01
 0.39785082857E+01 0.43605852107E+01 0.49459384754E+01 0.58357607877E+01 0.10636810056E+02
 0.12980793310E+02 0.15227068036E+02 0.17091213447E+02 0.18323891540E+02 0.18754916951E+02
 0.18323891976E+02 0.17091214086E+02 0.15227068542E+02 0.12980793430E+02 0.10636809758E+02
 0.84649170540E+01 0.66727125347E+01 0.53676200317E+01 0.45360164355E+01 0.40460572863E+01
 0.36983293566E+01 0.34258634867E+01 0.32305505989E+01 0.31042286717E+01 0.30349814095E+01
 0.30131182252E+01 0.30349814700E+01 0.31042286559E+01 0.32305503332E+01 0.34258628933E+01
 0.36983285406E+01 0.40460564986E+01 0.45360159682E+01 0.53676200247E+01 0.66727129225E+01
 0.84649175632E+01 0.16334254728E+02 0.19681378931E+02 0.22642205072E+02 0.24856046427E+02
 0.26040553068E+02 0.26040553342E+02 0.24856047146E+02 0.22642205981E+02 0.19681379729E+02
 0.16334255185E+02 0.12980793430E+02 0.99607801166E+01 0.75213244083E+01 0.57776681758E+01
 0.46945989442E+01 0.40957615259E+01 0.37157033696E+01 0.34268991587E+01 0.32265422135E+01
 0.31042287931E+01 0.30471671937E+01 0.30471671449E+01 0.31042286559E+01 0.32265420067E+01
 0.34268989382E+01 0.37157032169E+01 0.40957615343E+01 0.46945991680E+01 0.57776685781E+01
 0.75213248644E+01 0.99607804198E+01 0.12980793392E+02 0.24295486048E+02 0.28598246888E+02
 0.32108332077E+02 0.34406744329E+02 0.35206886843E+02 0.34406744462E+02 0.32108332384E+02
 0.28598247394E+02 0.24295486700E+02 0.19681379729E+02 0.15227068542E+02 0.11328481894E+02
 0.82533800135E+01 0.61045195158E+01 0.48062114950E+01 0.41228159655E+01 0.37216684885E+01
 0.34268990031E+01 0.32305506048E+01 0.31208534446E+01 0.30858850671E+01 0.31208532209E+01
 0.32305503332E+01 0.34268989382E+01 0.37216688167E+01 0.41228166978E+01 0.48062124460E+01
 0.61045203856E+01 0.82533805312E+01 0.11328481921E+02 0.15227068141E+02 0.19681379091E+02
 0.34414628631E+02 0.39493508765E+02 0.43264521526E+02 0.45275581479E+02 0.45275581188E+02
 0.43264520825E+02 0.39493508064E+02 0.34414628346E+02 0.28598247394E+02 0.22642205981E+02
 0.17091214086E+02 0.12372824601E+02 0.87491704792E+01 0.62858830849E+01 0.48464949770E+01
 0.41228158356E+01 0.37157029581E+01 0.34258631362E+01 0.32435843988E+01 0.31570290608E+01
 0.31570288772E+01 0.32435840002E+01 0.34258628933E+01 0.37157032169E+01 0.41228166978E+01
 0.48464962037E+01 0.62858842174E+01 0.87491710824E+01 0.12372824504E+02 0.17091213484E+02
 0.22642205315E+02 0.28598247105E+02 0.46318759511E+02 0.51865101043E+02 0.55492603492E+02
 0.56755244355E+02 0.55492602400E+02 0.51865099343E+02 0.46318757924E+02 0.39493508064E+02
 0.32108332384E+02 0.24856047146E+02 0.18323891976E+02 0.12938075163E+02 0.89245125607E+01
 0.62858832712E+01 0.48062115723E+01 0.40957611221E+01 0.36983286847E+01 0.34251827974E+01
 0.32685169076E+01 0.32179195603E+01 0.32685165287E+01 0.34251823363E+01 0.36983285406E+01
 0.40957615343E+01 0.48062124460E+01 0.62858842174E+01 0.89245131180E+01 0.12938075090E+02
 0.18323891425E+02 0.24856046599E+02 0.32108332405E+02 0.39493508952E+02 0.59367001549E+02
 0.64943137056E+02 0.67921038762E+02 0.67921038133E+02 0.64943135414E+02 0.59366999514E+02
 0.51865099343E+02 0.43264520825E+02 0.34406744462E+02 0.26040553342E+02 0.18754916951E+02
 0.12938075134E+02 0.87491707857E+01 0.61045199623E+01 0.46945989205E+01 0.40460566014E+01
 0.36712758452E+01 0.34276333484E+01 0.33095972472E+01 0.33095970659E+01 0.34276329237E+01
 0.36712754531E+01 0.40460564986E+01 0.46945991680E+01 0.61045203856E+01 0.87491710824E+01
 0.12938075090E+02 0.18754916611E+02 0.26040553034E+02 0.34406744644E+02 0.43264521810E+02
 0.51865101082E+02 0.72644687029E+02 0.77696569672E+02 0.79458122080E+02 0.77696568879E+02
 0.72644685704E+02 0.64943135414E+02 0.55492602400E+02 0.45275581188E+02 0.35206886843E+02
 0.26040553068E+02 0.18323891540E+02 0.12372824566E+02 0.82533805292E+01 0.57776685908E+01
 0.45360160813E+01 0.39785085134E+01 0.36377870200E+01 0.34371752633E+01 0.33715629001E+01
 0.34371750850E+01 0.36377867548E+01 0.39785082857E+01 0.45360159682E+01 0.57776685781E+01
 0.82533805312E+01 0.12372824504E+02 0.18323891425E+02 0.26040553034E+02 0.35206887104E+02
 0.45275581910E+02 0.55492603591E+02 0.64943136865E+02 0.84990860985E+02 0.88897228598E+02
 0.88897228510E+02 0.84990860730E+02 0.77696568879E+02 0.67921038133E+02 0.56755244355E+02
 0.45275581479E+02 0.34406744329E+02 0.24856046427E+02 0.17091213447E+02 0.11328481978E+02
 0.75213249592E+01 0.53676201061E+01 0.43605852512E+01 0.38954187268E+01 0.36026432598E+01
 0.34583530174E+01 0.34583530262E+01 0.36026432758E+01 0.38954187256E+01 0.43605852107E+01
 0.53676200247E+01 0.75213248644E+01 0.11328481921E+02 0.17091213484E+02 0.24856046599E+02
 0.34406744644E+02 0.45275581910E+02 0.56755244844E+02 0.67921038608E+02 0.77696569273E+02
 0.95108696191E+02 0.97278396460E+02 0.95108696456E+02 0.88897228510E+02 0.79458122080E+02
 0.67921038762E+02 0.55492603492E+02 0.43264521526E+02 0.32108332077E+02 0.22642205072E+02
 0.15227068036E+02 0.99607804115E+01 0.66727129171E+01 0.49459383908E+01 0.41909527095E+01
 0.38029062760E+01 0.35715953671E+01 0.34952514429E+01 0.35715955068E+01 0.38029064835E+01
 0.41909528860E+01 0.49459384754E+01 0.66727129225E+01 0.99607804198E+01 0.15227068141E+02
 0.22642205315E+02 0.32108332405E+02 0.43264521810E+02 0.55492603591E+02 0.67921038608E+02
 0.79458121724E+02 0.88897228106E+02 0.10177529849E+03 0.10177529865E+03 0.97278396460E+02
 0.88897228598E+02 0.77696569672E+02 0.64943137056E+02 0.51865101043E+02 0.39493508765E+02
 0.28598246888E+02 0.19681378931E+02 0.12980793310E+02 0.84649175119E+01 0.58357607036E+01
 0.45721330930E+01 0.40287800549E+01 0.37092640856E+01 0.35502265209E+01 0.35502265874E+01
 0.37092642550E+01 0.40287802512E+01 0.45721332464E+01 0.58357607877E+01 0.84649175632E+01
 0.12980793392E+02 0.19681379091E+02 0.28598247105E+02 0.39493508952E+02 0.51865101082E+02
 0.64943136865E+02 0.77696569273E+02 0.88897228106E+02 0.97278396055E+02 0.10177529849E+03
 0.97278396055E+02 0.88897228106E+02 0.77696569273E+02 0.64943136865E+02 0.51865101082E+02
 0.39493508952E+02 0.28598247105E+02 0.19681379091E+02 0.12980793392E+02 0.84649175632E+01
 0.58357607877E+01 0.45721332464E+01 0.40287802512E+01 0.37092642550E+01 0.35502265874E+01
 0.35502265209E+01 0.37092640856E+01 0.40287800549E+01 0.45721330930E+01 0.58357607036E+01
 0.84649175119E+01 0.12980793310E+02 0.19681378931E+02 0.28598246888E+02 0.39493508765E+02
 0.51865101043E+02 0.64943137056E+02 0.77696569672E+02 0.88897228598E+02 0.97278396460E+02
 0.10177529865E+03 0.97278396055E+02 0.90927911345E+02 0.81279714273E+02 0.69490081885E+02
 0.56791875743E+02 0.44297847771E+02 0.32894030849E+02 0.23207946990E+02 0.15606952815E+02
 0.10193614062E+02 0.67998946445E+01 0.50081187498E+01 0.42239047622E+01 0.38290256475E+01
 0.35938122612E+01 0.35160977816E+01 0.35938120207E+01 0.38290252805E+01 0.42239044259E+01
 0.50081185447E+01 0.67998945521E+01 0.10193613959E+02 0.15606952563E+02 0.23207946535E+02
 0.32894030292E+02 0.44297847321E+02 0.56791875626E+02 0.69490082198E+02 0.81279714917E+02
 0.90927912057E+02 0.97278396516E+02 0.99496937580E+02 0.88897228106E+02 0.81279714273E+02
 0.71075115529E+02 0.59422953734E+02 0.47443022683E+02 0.36092880226E+02 0.26102513330E+02
 0.17955516727E+02 0.11880004654E+02 0.78374863455E+01 0.55279983504E+01 0.44389896526E+01
 0.39498267671E+01 0.36475366098E+01 0.34980920052E+01 0.34980918631E+01 0.36475362576E+01
 0.39498263815E+01 0.44389894011E+01 0.55279982850E+01 0.78374863662E+01 0.11880004565E+02
 0.17955516362E+02 0.26102512659E+02 0.36092879400E+02 0.47443021955E+02 0.59422953334E+02
 0.71075115541E+02 0.81279714575E+02 0.88897228449E+02 0.92977947899E+02 0.92977947753E+02
 0.77696569273E+02 0.69490081885E+02 0.59422953734E+02 0.48538158013E+02 0.37801333350E+02
 0.28004793553E+02 0.19724086524E+02 0.13296834601E+02 0.88051370852E+01 0.60692604276E+01
 0.46765592739E+01 0.40618606254E+01 0.37052908761E+01 0.34941031140E+01 0.34248357785E+01
 0.34941029241E+01 0.37052905996E+01 0.40618604087E+01 0.46765592193E+01 0.60692605292E+01
 0.88051372242E+01 0.13296834596E+02 0.19724086226E+02 0.28004792908E+02 0.37801332437E+02
 0.48538156992E+02 0.59422952785E+02 0.69490081139E+02 0.77696568784E+02 0.83081701869E+02
 0.84959909082E+02 0.83081702105E+02 0.64943136865E+02 0.56791875743E+02 0.47443022683E+02
 0.37801333350E+02 0.28668146569E+02 0.20674128722E+02 0.14240957644E+02 0.95539555287E+01
 0.65459738235E+01 0.49103047554E+01 0.41603148445E+01 0.37603095815E+01 0.34999908083E+01
 0.33732112065E+01 0.33732111729E+01 0.34999907147E+01 0.37603094530E+01 0.41603147258E+01
 0.49103047026E+01 0.65459738768E+01 0.95539556806E+01 0.14240957807E+02 0.20674128741E+02
 0.28668146257E+02 0.37801332579E+02 0.47443021457E+02 0.56791874233E+02 0.64943135388E+02
 0.71002381531E+02 0.74238901638E+02 0.74238902038E+02 0.71002382617E+02 0.51865101082E+02
 0.44297847771E+02 0.36092880226E+02 0.28004793553E+02 0.20674128722E+02 0.14572306906E+02
 0.99623807036E+01 0.68732780212E+01 0.50996048069E+01 0.42430374844E+01 0.38065348039E+01
 0.35108120912E+01 0.33398560700E+01 0.32844324751E+01 0.33398561180E+01 0.35108120922E+01
 0.38065346485E+01 0.42430371532E+01 0.50996044238E+01 0.68732777986E+01 0.99623808148E+01
 0.14572307341E+02 0.20674129245E+02 0.28004793777E+02 0.36092879811E+02 0.44297846618E+02
 0.51865099443E+02 0.58008639307E+02 0.62025426997E+02 0.63423470554E+02 0.62025427990E+02
 0.58008640912E+02 0.39493508952E+02 0.32894030849E+02 0.26102513330E+02 0.19724086524E+02
 0.14240957644E+02 0.99623807036E+01 0.69898133986E+01 0.52058158725E+01 0.42999440913E+01
 0.38395088530E+01 0.35219859305E+01 0.33202546158E+01 0.32238956158E+01 0.32238956893E+01
 0.33202547370E+01 0.35219858744E+01 0.38395084429E+01 0.42999433540E+01 0.52058150771E+01
 0.69898129254E+01 0.99623808325E+01 0.14240958361E+02 0.19724087495E+02 0.26102514053E+02
 0.32894030910E+02 0.39493508264E+02 0.45239072336E+02 0.49498166949E+02 0.51767779222E+02
 0.51767779634E+02 0.49498167977E+02 0.45239073469E+02 0.28598247105E+02 0.23207946990E+02
 0.17955516727E+02 0.13296834601E+02 0.95539555287E+01 0.68732780212E+01 0.52058158725E+01
 0.43203745304E+01 0.38565747816E+01 0.35300554154E+01 0.33100140234E+01 0.31861687415E+01
 0.31465455106E+01 0.31861688942E+01 0.33100141358E+01 0.35300552332E+01 0.38565741758E+01
 0.43203736113E+01 0.52058149752E+01 0.68732775347E+01 0.95539556969E+01 0.13296835379E+02
 0.17955517792E+02 0.23207947918E+02 0.28598247580E+02 0.33593318685E+02 0.37651945470E+02
 0.40303446768E+02 0.41225555140E+02 0.40303447055E+02 0.37651945796E+02 0.33593318717E+02
 0.19681379091E+02 0.15606952815E+02 0.11880004654E+02 0.88051370852E+01 0.65459738235E+01
 0.50996048069E+01 0.42999440913E+01 0.38565747816E+01 0.35329679144E+01 0.33057850158E+01
 0.31660152338E+01 0.31005153186E+01 0.31005153987E+01 0.31660154043E+01 0.33057851164E+01
 0.35329677829E+01 0.38565743681E+01 0.42999434897E+01 0.50996042345E+01 0.65459735073E+01
 0.88051371617E+01 0.11880005115E+02 0.15606953504E+02 0.19681379806E+02 0.23702976193E+02
 0.27233246938E+02 0.29859908193E+02 0.31261471068E+02 0.31261471018E+02 0.29859908013E+02
 0.27233246570E+02 0.23702975619E+02 0.12980793392E+02 0.10193614062E+02 0.78374863455E+01
 0.60692604276E+01 0.49103047554E+01 0.42430374844E+01 0.38395088530E+01 0.35300554154E+01
 0.33057850158E+01 0.31597391635E+01 0.30793594453E+01 0.30539340315E+01 0.30793595200E+01
 0.31597392998E+01 0.33057851902E+01 0.35300555873E+01 0.38395089807E+01 0.42430375276E+01
 0.49103047018E+01 0.60692603026E+01 0.78374861941E+01 0.10193613960E+02 0.12980793392E+02
 0.15934890506E+02 0.18729149782E+02 0.21027409045E+02 0.22538724049E+02 0.23065777181E+02
 0.22538723925E+02 0.21027408851E+02 0.18729149593E+02 0.15934890393E+02 0.84649175632E+01
 0.67998946445E+01 0.55279983504E+01 0.46765592739E+01 0.41603148445E+01 0.38065348039E+01
 0.35219859305E+01 0.33100140234E+01 0.31660152338E+01 0.30793594453E+01 0.30392867302E+01
 0.30392866951E+01 0.30793593913E+01 0.31660152671E+01 0.33100142567E+01 0.35219863904E+01
 0.38065354167E+01 0.41603154432E+01 0.46765596666E+01 0.55279984156E+01 0.67998943492E+01
 0.84649169933E+01 0.10390559783E+02 0.12366920802E+02 0.14147226096E+02 0.15493144682E+02
 0.16217480499E+02 0.16217480606E+02 0.15493145003E+02 0.14147226614E+02 0.12366921461E+02
 0.10390560475E+02 0.58357607877E+01 0.50081187498E+01 0.44389896526E+01 0.40618606254E+01
 0.37603095815E+01 0.35108120912E+01 0.33202546158E+01 0.31861687415E+01 0.31005153186E+01
 0.30539340315E+01 0.30392866951E+01 0.30539338324E+01 0.31005150304E+01 0.31861685372E+01
 0.33202546625E+01 0.35108124779E+01 0.37603102652E+01 0.40618614542E+01 0.44389903689E+01
 0.50081191230E+01 0.58357606535E+01 0.69016729975E+01 0.81077354843E+01 0.93028456888E+01
 0.10316894884E+02 0.10996449231E+02 0.11235551836E+02 0.10996449835E+02 0.10316895931E+02
 0.93028469057E+01 0.81077365584E+01 0.69016736685E+01 0.45721332464E+01 0.42239047622E+01
 0.39498267671E+01 0.37052908761E+01 0.34999908083E+01 0.33398560700E+01 0.32238956158E+01
 0.31465455106E+01 0.31005153987E+01 0.30793595200E+01 0.30793593913E+01 0.31005150304E+01
 0.31465449701E+01 0.32238950334E+01 0.33398556290E+01 0.34999907074E+01 0.37052912226E+01
 0.39498275344E+01 0.42239057231E+01 0.45721340437E+01 0.50499951562E+01 0.56515663152E+01
 0.63159303801E+01 0.69475438688E+01 0.74424866739E+01 0.77143206823E+01 0.77143210605E+01
 0.74424876556E+01 0.69475450628E+01 0.63159313225E+01 0.56515666728E+01 0.50499948465E+01
 0.40287802512E+01 0.38290256475E+01 0.36475366098E+01 0.34941031140E+01 0.33732112065E+01
 0.32844324751E+01 0.32238956893E+01 0.31861688942E+01 0.31660154043E+01 0.31597392998E+01
 0.31660152671E+01 0.31861685372E+01 0.32238950334E+01 0.32844315592E+01 0.33732102353E+01
 0.34941024197E+01 0.36475364794E+01 0.38290261774E+01 0.40287812790E+01 0.42383621215E+01
 0.44827717086E+01 0.47720393027E+01 0.50792266109E+01 0.53552852358E+01 0.55474970499E+01
 0.56164102763E+01 0.55474974919E+01 0.53552858405E+01 0.50792269723E+01 0.47720391162E+01
 0.44827709304E+01 0.42383610007E+01 0.37092642550E+01 0.35938122612E+01 0.34980920052E+01
 0.34248357785E+01 0.33732111729E+01 0.33398561180E+01 0.33202547370E+01 0.33100141358E+01
 0.33057851164E+01 0.33057851902E+01 0.33100142567E+01 0.33202546625E+01 0.33398556290E+01
 0.33732102353E+01 0.34248345948E+01 0.34980909535E+01 0.35938117136E+01 0.37092643866E+01
 0.38379233267E+01 0.39703125640E+01 0.40964004894E+01 0.42171680280E+01 0.43312903704E+01
 0.44235866294E+01 0.44756859812E+01 0.44756859787E+01 0.44235865473E+01 0.43312900484E+01
 0.42171673480E+01 0.40963994975E+01 0.39703115192E+01 0.38379225949E+01 0.35502265874E+01
 0.35160977816E+01 0.34980918631E+01 0.34941029241E+01 0.34999907147E+01 0.35108120922E+01
 0.35219858744E+01 0.35300552332E+01 0.35329677829E+01 0.35300555873E+01 0.35219863904E+01
 0.35108124779E+01 0.34999907074E+01 0.34941024197E+01 0.34980909535E+01 0.35160967249E+01
 0.35502257053E+01 0.35996886346E+01 0.36606608447E+01 0.37269813127E+01 0.37915026211E+01
 0.38476202968E+01 0.38904011749E+01 0.39169519287E+01 0.39259917658E+01 0.39169515479E+01
 0.38904004881E+01 0.38476194523E+01 0.37915018284E+01 0.37269808028E+01 0.36606607889E+01
 0.35996890939E+01 0.35502265209E+01 0.35938120207E+01 0.36475362576E+01 0.37052905996E+01
 0.37603094530E+01 0.38065346485E+01 0.38395084429E+01 0.38565741758E+01 0.38565743681E+01
 0.38395089807E+01 0.38065354167E+01 0.37603102652E+01 0.37052912226E+01 0.36475364794E+01
 0.35938117136E+01 0.35502257053E+01 0.35208835357E+01 0.35070431117E+01 0.35070486516E+01
 0.35170271174E+01 0.35320719430E+01 0.35474774585E+01 0.35596046264E+01 0.35661831699E+01
 0.35661829427E+01 0.35596040626E+01 0.35474768496E+01 0.35320716257E+01 0.35170273200E+01
 0.35070493928E+01 0.35070442039E+01 0.35208846547E+01 0.37092640856E+01 0.38290252805E+01
 0.39498263815E+01 0.40618604087E+01 0.41603147258E+01 0.42430371532E+01 0.42999433540E+01
 0.43203736113E+01 0.42999434897E+01 0.42430375276E+01 0.41603154432E+01 0.40618614542E+01
 0.39498275344E+01 0.38290261774E+01 0.37092643866E+01 0.35996886346E+01 0.35070431117E+01
 0.34346840120E+01 0.33825589999E+01 0.33480127778E+01 0.33270294082E+01 0.33154643932E+01
 0.33099446785E+01 0.33083438860E+01 0.33099444738E+01 0.33154642124E+01 0.33270295719E+01
 0.33480134923E+01 0.33825602091E+01 0.34346853987E+01 0.35070442198E+01 0.35996890939E+01
 0.40287800549E+01 0.42239044259E+01 0.44389894011E+01 0.46765592193E+01 0.49103047026E+01
 0.50996044238E+01 0.52058150771E+01 0.52058149752E+01 0.50996042345E+01 0.49103047018E+01
 0.46765596666E+01 0.44389903689E+01 0.42239057231E+01 0.40287812790E+01 0.38379233267E+01
 0.36606608447E+01 0.35070486516E+01 0.33825589999E+01 0.32880815725E+01 0.32210042211E+01
 0.31768114670E+01 0.31506680745E+01 0.31386713875E+01 0.31386714241E+01 0.31506682455E+01
 0.31768119098E+01 0.32210050131E+01 0.32880826258E+01 0.33825600373E+01 0.35070492979E+01