 vasp.6.3.2 27Jun22 (build Aug 12 2022 00:53:59) complex                        
  
 executed on               tv2STD date 2024.12.03  02:19:50
 running   24 mpi-ranks, with    1 threads/rank
 distrk:  each k-point on   24 cores,    1 groups
 distr:  one band on NCORE=   1 cores,   24 groups


--------------------------------------------------------------------------------------------------------


 INCAR:
   SYSTEM = Pt-fcc
   NWRITE = 2    write-flag
   ISTART = 0    job   : 0-new, 1-cont, 2-samecut
   ICHARG = 2    charge: 0-wave, 1-file, 2-atom, >10-const
   INIWAV = 1    electr: 0-lowe 1-rand  2-diag
   ENCUT = 425.0     energy cutoff in eV
   PREC = accurate      normal | accurate
   ADDGRID = .FALSE.  (use fine grid)
   NELM = 100     number of ELM steps
   EDIFF = 1E-06    energy stopping-criterion for ELM
   LREAL = .FALSE.      real-space projection (.FALSE., .TRUE., On, Auto)
   ALGO = Normal     Normal, Fast, Very_Fast
   LWAVE = .TRUE.
   LCHARG = .TRUE.
   NSW = 100       max number of geometry steps
   IBRION = 2     ionic relax: 0-MD, 1-quasi-Newton, 2-CG, 3-Damped MD
   EDIFFG = -0.02  force (eV/A) stopping-criterion for geometry steps
   ISIF = 2     (1:force\=y stress\=trace only ions\=y shape\=n volume\=n)
   ISYM = 1     (1-use symmetry, 0-no symmetry)
   ISMEAR = 0     (-1-Fermi, 1-Methfessel/Paxton)
   SIGMA = 0.05   broadening in eV
   LORBIT = 11

 POTCAR:    PAW_PBE Pt_pv 12Dec2005               
 POTCAR:    PAW_PBE Pt_pv 12Dec2005               
   SHA256 =  e5abf7e8cd8db70d0153315afc5ad66b6e3eeee29cc2d5b91b16730957c1d208 Pt_pv/POTCAR          
   COPYR  = (c) Copyright 12Dec2005 Georg Kresse                                                    
   COPYR  = This file is part of the software VASP. Any use, copying, and all other rights are regul
   COPYR  = If you do not have a valid VASP license, you may not use, copy or distribute this file. 
   VRHFIN =Pt: 5ps1d9                                                                               
   LEXCH  = PE                                                                                      
   EATOM  =  2428.2504 eV,  178.4714 Ry                                                             
                                                                                                    
   TITEL  = PAW_PBE Pt_pv 12Dec2005                                                                 
   LULTRA =        F    use ultrasoft PP ?                                                          
   IUNSCR =        1    unscreen: 0-lin 1-nonlin 2-no                                               
   RPACOR =    2.000    partial core radius                                                         
   POMASS =  195.080; ZVAL   =   16.000    mass and valenz                                          
   RCORE  =    2.200    outmost cutoff radius                                                       
   RWIGS  =    2.200; RWIGS  =    1.164    wigner-seitz radius (au A)                               
   ENMAX  =  294.607; ENMIN  =  220.955 eV                                                          
   ICORE  =        3    local potential                                                             
   LCOR   =        T    correct aug charges                                                         
   LPAW   =        T    paw PP                                                                      
   EAUG   =  527.014                                                                                
   DEXC   =    0.000                                                                                
   RMAX   =    2.247    core radius for proj-oper                                                   
   RAUG   =    1.300    factor for augmentation sphere                                              
   RDEP   =    2.279    radius for radial grids                                                     
   RDEPT  =    1.878    core radius for aug-charge                                                  
                                                                                                    
   Atomic configuration                                                                             
   16 entries                                                                                       
     n  l   j            E        occ.                                                              
     1  0  0.50    -78401.1885   2.0000                                                             
     2  0  0.50    -13770.7750   2.0000                                                             
     2  1  1.50    -11931.0468   6.0000                                                             
     3  0  0.50     -3234.7234   2.0000                                                             
     3  1  1.50     -2699.2216   6.0000                                                             
     3  2  2.50     -2119.5714  10.0000                                                             
     4  0  0.50      -695.1528   2.0000                                                             
     4  1  1.50      -519.6034   6.0000                                                             
     4  2  2.50      -306.6786  10.0000                                                             
     4  3  3.50       -70.1041  14.0000                                                             
     5  0  0.50      -101.7747   2.0000                                                             
     5  1  1.50       -55.9873   6.0000                                                             
     6  1  1.50        -6.8029   0.0000                                                             
     5  2  2.50        -6.1423   9.0000                                                             
     6  0  0.50        -5.6573   1.0000                                                             
     5  3  2.50        -1.3606   0.0000                                                             
   Description                                                                                      
     l       E           TYP  RCUT    TYP  RCUT                                                     
     1    -55.9873477     23  2.000                                                                 
     1     27.2116520     23  2.000                                                                 
     2     -6.1423404     23  2.200                                                                 
     2     -4.6754623     23  2.200                                                                 
     0     -5.6573207     23  2.200                                                                 
     0     47.6203910     23  2.200                                                                 
     3      6.8029130     23  2.200                                                                 
  local pseudopotential read in
  partial core-charges read in
  partial kinetic energy density read in
  atomic valenz-charges read in
  non local Contribution for L=           1  read in
    real space projection operators read in
  non local Contribution for L=           1  read in
    real space projection operators read in
  non local Contribution for L=           2  read in
    real space projection operators read in
  non local Contribution for L=           2  read in
    real space projection operators read in
  non local Contribution for L=           0  read in
    real space projection operators read in
  non local Contribution for L=           0  read in
    real space projection operators read in
    PAW grid and wavefunctions read in
 
   number of l-projection  operators is LMAX  =           6
   number of lm-projection operators is LMMAX =          18
 
  PAW_PBE Pt_pv 12Dec2005               :
 energy of atom  1       EATOM=-2428.2504
 kinetic energy error for atom=    0.0554 (will be added to EATOM!!)
 
 
 POSCAR: Pt
  positions in cartesian coordinates
  No initial velocities read in
 exchange correlation table for  LEXCH =        8
   RHO(1)=    0.500       N(1)  =     2000
   RHO(2)=  100.500       N(2)  =     4000
 


--------------------------------------------------------------------------------------------------------


 ion  position               nearest neighbor table
   1  0.000  0.000  0.000-
 
  LATTYP: Found a face centered cubic cell.
 ALAT       =     3.9576972589
  
  Lattice vectors:
  
 A1 = (   0.0000000000,   1.9788486294,   1.9788486294)
 A2 = (   1.9788486294,   0.0000000000,   1.9788486294)
 A3 = (   1.9788486294,   1.9788486294,   0.0000000000)


Analysis of symmetry for initial positions (statically):
=====================================================================
 Subroutine PRICEL returns:
 Original cell was already a primitive cell.
 

 Routine SETGRP: Setting up the symmetry group for a 
 face centered cubic supercell.


 Subroutine GETGRP returns: Found 48 space group operations
 (whereof 48 operations were pure point group operations)
 out of a pool of 48 trial point group operations.


The static configuration has the point symmetry O_h .


Analysis of symmetry for dynamics (positions and initial velocities):
=====================================================================
 Subroutine PRICEL returns:
 Original cell was already a primitive cell.
 

 Routine SETGRP: Setting up the symmetry group for a 
 face centered cubic supercell.


 Subroutine GETGRP returns: Found 48 space group operations
 (whereof 48 operations were pure point group operations)
 out of a pool of 48 trial point group operations.


The dynamic configuration has the point symmetry O_h .


 Subroutine INISYM returns: Found 48 space group operations
 (whereof 48 operations are pure point group operations),
 and found     1 'primitive' translations


----------------------------------------------------------------------------------------

                                     Primitive cell                                     

  volume of cell :      15.4977

  direct lattice vectors                    reciprocal lattice vectors
     0.000000000  1.978848629  1.978848629    -0.252672181  0.252672181  0.252672181
     1.978848629  0.000000000  1.978848629     0.252672181 -0.252672181  0.252672181
     1.978848629  1.978848629  0.000000000     0.252672181  0.252672181 -0.252672181

  length of vectors
     2.798514570  2.798514570  2.798514570     0.437641056  0.437641056  0.437641056

  position of ions in fractional coordinates (direct lattice)
     0.000000000  0.000000000  0.000000000

  ion indices of the primitive-cell ions
   primitive index   ion index
                 1           1

----------------------------------------------------------------------------------------

 
 
 KPOINTS: Automatic mesh                          

Automatic generation of k-mesh.
 Grid dimensions read from file:
 generate k-points for:   10   10   10

 Generating k-lattice:

  Cartesian coordinates                     Fractional coordinates (reciprocal lattice)
    -0.025267218  0.025267218  0.025267218     0.100000000  0.000000000  0.000000000
     0.025267218 -0.025267218  0.025267218     0.000000000  0.100000000  0.000000000
     0.025267218  0.025267218 -0.025267218     0.000000000  0.000000000  0.100000000

  Length of vectors
     0.043764106  0.043764106  0.043764106

  Shift w.r.t. Gamma in fractional coordinates (k-lattice)
     0.500000000  0.500000000  0.500000000

 
 Subroutine IBZKPT returns following result:
 ===========================================
 
 Found    110 irreducible k-points:
 
 Following reciprocal coordinates:
            Coordinates               Weight
  0.050000  0.050000  0.050000      8.000000
  0.150000  0.050000  0.050000     24.000000
  0.250000  0.050000  0.050000     24.000000
  0.350000  0.050000  0.050000     24.000000
  0.450000  0.050000  0.050000     24.000000
 -0.450000  0.050000  0.050000     24.000000
 -0.350000  0.050000  0.050000     24.000000
 -0.250000  0.050000  0.050000     24.000000
 -0.150000  0.050000  0.050000     24.000000
 -0.050000  0.050000  0.050000     24.000000
  0.150000  0.150000  0.050000     24.000000
  0.250000  0.150000  0.050000     48.000000
  0.350000  0.150000  0.050000     48.000000
  0.450000  0.150000  0.050000     48.000000
 -0.450000  0.150000  0.050000     48.000000
 -0.350000  0.150000  0.050000     48.000000
 -0.250000  0.150000  0.050000     48.000000
 -0.150000  0.150000  0.050000     48.000000
 -0.050000  0.150000  0.050000     48.000000
  0.250000  0.250000  0.050000     24.000000
  0.350000  0.250000  0.050000     48.000000
  0.450000  0.250000  0.050000     48.000000
 -0.450000  0.250000  0.050000     48.000000
 -0.350000  0.250000  0.050000     48.000000
 -0.250000  0.250000  0.050000     48.000000
 -0.150000  0.250000  0.050000     48.000000
 -0.050000  0.250000  0.050000     48.000000
  0.350000  0.350000  0.050000     24.000000
  0.450000  0.350000  0.050000     48.000000
 -0.450000  0.350000  0.050000     48.000000
 -0.350000  0.350000  0.050000     48.000000
 -0.250000  0.350000  0.050000     48.000000
 -0.150000  0.350000  0.050000     48.000000
 -0.050000  0.350000  0.050000     48.000000
  0.450000  0.450000  0.050000     24.000000
 -0.450000  0.450000  0.050000     48.000000
 -0.350000  0.450000  0.050000     48.000000
 -0.250000  0.450000  0.050000     48.000000
 -0.150000  0.450000  0.050000     48.000000
 -0.050000  0.450000  0.050000     48.000000
 -0.450000 -0.450000  0.050000     24.000000
 -0.350000 -0.450000  0.050000     48.000000
 -0.250000 -0.450000  0.050000     48.000000
 -0.150000 -0.450000  0.050000     48.000000
 -0.350000 -0.350000  0.050000     24.000000
 -0.250000 -0.350000  0.050000     48.000000
 -0.150000 -0.350000  0.050000     48.000000
 -0.250000 -0.250000  0.050000     24.000000
 -0.150000 -0.250000  0.050000     48.000000
 -0.150000 -0.150000  0.050000     24.000000
  0.150000  0.150000  0.150000      8.000000
  0.250000  0.150000  0.150000     24.000000
  0.350000  0.150000  0.150000     24.000000
  0.450000  0.150000  0.150000     24.000000
 -0.450000  0.150000  0.150000     24.000000
 -0.350000  0.150000  0.150000     24.000000
 -0.250000  0.150000  0.150000     24.000000
 -0.150000  0.150000  0.150000     24.000000
  0.250000  0.250000  0.150000     24.000000
  0.350000  0.250000  0.150000     48.000000
  0.450000  0.250000  0.150000     48.000000
 -0.450000  0.250000  0.150000     48.000000
 -0.350000  0.250000  0.150000     48.000000
 -0.250000  0.250000  0.150000     48.000000
 -0.150000  0.250000  0.150000     48.000000
  0.350000  0.350000  0.150000     24.000000
  0.450000  0.350000  0.150000     48.000000
 -0.450000  0.350000  0.150000     48.000000
 -0.350000  0.350000  0.150000     48.000000
 -0.250000  0.350000  0.150000     48.000000
 -0.150000  0.350000  0.150000     48.000000
  0.450000  0.450000  0.150000     24.000000
 -0.450000  0.450000  0.150000     48.000000
 -0.350000  0.450000  0.150000     48.000000
 -0.250000  0.450000  0.150000     48.000000
 -0.150000  0.450000  0.150000     48.000000
 -0.450000 -0.450000  0.150000     24.000000
 -0.350000 -0.450000  0.150000     48.000000
 -0.250000 -0.450000  0.150000     48.000000
 -0.350000 -0.350000  0.150000     24.000000
 -0.250000 -0.350000  0.150000     48.000000
 -0.250000 -0.250000  0.150000     24.000000
  0.250000  0.250000  0.250000      8.000000
  0.350000  0.250000  0.250000     24.000000
  0.450000  0.250000  0.250000     24.000000
 -0.450000  0.250000  0.250000     24.000000
 -0.350000  0.250000  0.250000     24.000000
 -0.250000  0.250000  0.250000     24.000000
  0.350000  0.350000  0.250000     24.000000
  0.450000  0.350000  0.250000     48.000000
 -0.450000  0.350000  0.250000     48.000000
 -0.350000  0.350000  0.250000     48.000000
 -0.250000  0.350000  0.250000     48.000000
  0.450000  0.450000  0.250000     24.000000
 -0.450000  0.450000  0.250000     48.000000
 -0.350000  0.450000  0.250000     48.000000
 -0.250000  0.450000  0.250000     48.000000
 -0.450000 -0.450000  0.250000     24.000000
 -0.350000 -0.450000  0.250000     48.000000
 -0.350000 -0.350000  0.250000     24.000000
  0.350000  0.350000  0.350000      8.000000
  0.450000  0.350000  0.350000     24.000000
 -0.450000  0.350000  0.350000     24.000000
 -0.350000  0.350000  0.350000     24.000000
  0.450000  0.450000  0.350000     24.000000
 -0.450000  0.450000  0.350000     48.000000
 -0.350000  0.450000  0.350000     48.000000
 -0.450000 -0.450000  0.350000     24.000000
  0.450000  0.450000  0.450000      8.000000
 -0.450000  0.450000  0.450000     24.000000
 
 Following cartesian coordinates:
            Coordinates               Weight
  0.012634  0.012634  0.012634      8.000000
 -0.012634  0.037901  0.037901     24.000000
 -0.037901  0.063168  0.063168     24.000000
 -0.063168  0.088435  0.088435     24.000000
 -0.088435  0.113702  0.113702     24.000000
  0.138970 -0.113702 -0.113702     24.000000
  0.113702 -0.088435 -0.088435     24.000000
  0.088435 -0.063168 -0.063168     24.000000
  0.063168 -0.037901 -0.037901     24.000000
  0.037901 -0.012634 -0.012634     24.000000
  0.012634  0.012634  0.063168     24.000000
 -0.012634  0.037901  0.088435     48.000000
 -0.037901  0.063168  0.113702     48.000000
 -0.063168  0.088435  0.138970     48.000000
  0.164237 -0.138970 -0.088435     48.000000
  0.138970 -0.113702 -0.063168     48.000000
  0.113702 -0.088435 -0.037901     48.000000
  0.088435 -0.063168 -0.012634     48.000000
  0.063168 -0.037901  0.012634     48.000000
  0.012634  0.012634  0.113702     24.000000
 -0.012634  0.037901  0.138970     48.000000
 -0.037901  0.063168  0.164237     48.000000
  0.189504 -0.164237 -0.063168     48.000000
  0.164237 -0.138970 -0.037901     48.000000
  0.138970 -0.113702 -0.012634     48.000000
  0.113702 -0.088435  0.012634     48.000000
  0.088435 -0.063168  0.037901     48.000000
  0.012634  0.012634  0.164237     24.000000
 -0.012634  0.037901  0.189504     48.000000
  0.214771 -0.189504 -0.037901     48.000000
  0.189504 -0.164237 -0.012634     48.000000
  0.164237 -0.138970  0.012634     48.000000
  0.138970 -0.113702  0.037901     48.000000
  0.113702 -0.088435  0.063168     48.000000
  0.012634  0.012634  0.214771     24.000000
  0.240039 -0.214771 -0.012634     48.000000
  0.214771 -0.189504  0.012634     48.000000
  0.189504 -0.164237  0.037901     48.000000
  0.164237 -0.138970  0.063168     48.000000
  0.138970 -0.113702  0.088435     48.000000
  0.012634  0.012634 -0.240039     24.000000
 -0.012634  0.037901 -0.214771     48.000000
 -0.037901  0.063168 -0.189504     48.000000
 -0.063168  0.088435 -0.164237     48.000000
  0.012634  0.012634 -0.189504     24.000000
 -0.012634  0.037901 -0.164237     48.000000
 -0.037901  0.063168 -0.138970     48.000000
  0.012634  0.012634 -0.138970     24.000000
 -0.012634  0.037901 -0.113702     48.000000
  0.012634  0.012634 -0.088435     24.000000
  0.037901  0.037901  0.037901      8.000000
  0.012634  0.063168  0.063168     24.000000
 -0.012634  0.088435  0.088435     24.000000
 -0.037901  0.113702  0.113702     24.000000
  0.189504 -0.113702 -0.113702     24.000000
  0.164237 -0.088435 -0.088435     24.000000
  0.138970 -0.063168 -0.063168     24.000000
  0.113702 -0.037901 -0.037901     24.000000
  0.037901  0.037901  0.088435     24.000000
  0.012634  0.063168  0.113702     48.000000
 -0.012634  0.088435  0.138970     48.000000
  0.214771 -0.138970 -0.088435     48.000000
  0.189504 -0.113702 -0.063168     48.000000
  0.164237 -0.088435 -0.037901     48.000000
  0.138970 -0.063168 -0.012634     48.000000
  0.037901  0.037901  0.138970     24.000000
  0.012634  0.063168  0.164237     48.000000
  0.240039 -0.164237 -0.063168     48.000000
  0.214771 -0.138970 -0.037901     48.000000
  0.189504 -0.113702 -0.012634     48.000000
  0.164237 -0.088435  0.012634     48.000000
  0.037901  0.037901  0.189504     24.000000
  0.265306 -0.189504 -0.037901     48.000000
  0.240039 -0.164237 -0.012634     48.000000
  0.214771 -0.138970  0.012634     48.000000
  0.189504 -0.113702  0.037901     48.000000
  0.037901  0.037901 -0.265306     24.000000
  0.012634  0.063168 -0.240039     48.000000
 -0.012634  0.088435 -0.214771     48.000000
  0.037901  0.037901 -0.214771     24.000000
  0.012634  0.063168 -0.189504     48.000000
  0.037901  0.037901 -0.164237     24.000000
  0.063168  0.063168  0.063168      8.000000
  0.037901  0.088435  0.088435     24.000000
  0.012634  0.113702  0.113702     24.000000
  0.240039 -0.113702 -0.113702     24.000000
  0.214771 -0.088435 -0.088435     24.000000
  0.189504 -0.063168 -0.063168     24.000000
  0.063168  0.063168  0.113702     24.000000
  0.037901  0.088435  0.138970     48.000000
  0.265306 -0.138970 -0.088435     48.000000
  0.240039 -0.113702 -0.063168     48.000000
  0.214771 -0.088435 -0.037901     48.000000
  0.063168  0.063168  0.164237     24.000000
  0.290573 -0.164237 -0.063168     48.000000
  0.265306 -0.138970 -0.037901     48.000000
  0.240039 -0.113702 -0.012634     48.000000
  0.063168  0.063168 -0.290573     24.000000
  0.037901  0.088435 -0.265306     48.000000
  0.063168  0.063168 -0.240039     24.000000
  0.088435  0.088435  0.088435      8.000000
  0.063168  0.113702  0.113702     24.000000
  0.290573 -0.113702 -0.113702     24.000000
  0.265306 -0.088435 -0.088435     24.000000
  0.088435  0.088435  0.138970     24.000000
  0.315840 -0.138970 -0.088435     48.000000
  0.290573 -0.113702 -0.063168     48.000000
  0.088435  0.088435 -0.315840     24.000000
  0.113702  0.113702  0.113702      8.000000
  0.341107 -0.113702 -0.113702     24.000000
 


--------------------------------------------------------------------------------------------------------




 Dimension of arrays:
   k-points           NKPTS =    110   k-points in BZ     NKDIM =    110   number of bands    NBANDS=     24
   number of dos      NEDOS =    301   number of ions     NIONS =      1
   non local maximal  LDIM  =      6   non local SUM 2l+1 LMDIM =     18
   total plane-waves  NPLWV =   8000
   max r-space proj   IRMAX =      1   max aug-charges    IRDMAX=  17773
   dimension x,y,z NGX =    20 NGY =   20 NGZ =   20
   dimension x,y,z NGXF=    40 NGYF=   40 NGZF=   40
   support grid    NGXF=    40 NGYF=   40 NGZF=   40
   ions per type =               1
   NGX,Y,Z   is equivalent  to a cutoff of  11.88, 11.88, 11.88 a.u.
   NGXF,Y,Z  is equivalent  to a cutoff of  23.76, 23.76, 23.76 a.u.

 SYSTEM =  Pt-fcc                                  
 POSCAR =  Pt                                      

 Startparameter for this run:
   NWRITE =      2    write-flag & timer
   PREC   = accura    normal or accurate (medium, high low for compatibility)
   ISTART =      0    job   : 0-new  1-cont  2-samecut
   ICHARG =      2    charge: 1-file 2-atom 10-const
   ISPIN  =      1    spin polarized calculation?
   LNONCOLLINEAR =      F non collinear calculations
   LSORBIT =      F    spin-orbit coupling
   INIWAV =      1    electr: 0-lowe 1-rand  2-diag
   LASPH  =      F    aspherical Exc in radial PAW
 Electronic Relaxation 1
   ENCUT  =  425.0 eV  31.24 Ry    5.59 a.u.   4.70  4.70  4.70*2*pi/ulx,y,z
   ENINI  =  425.0     initial cutoff
   ENAUG  =  527.0 eV  augmentation charge cutoff
   NELM   =    100;   NELMIN=  2; NELMDL= -5     # of ELM steps 
   EDIFF  = 0.1E-05   stopping-criterion for ELM
   LREAL  =      F    real-space projection
   NLSPLINE    = F    spline interpolate recip. space projectors
   LCOMPAT=      F    compatible to vasp.4.4
   GGA_COMPAT  = T    GGA compatible to vasp.4.4-vasp.4.6
   LMAXPAW     = -100 max onsite density
   LMAXMIX     =    2 max onsite mixed and CHGCAR
   VOSKOWN=      0    Vosko Wilk Nusair interpolation
   ROPT   =    0.00000
 Ionic relaxation
   EDIFFG = -.2E-01   stopping-criterion for IOM
   NSW    =    100    number of steps for IOM
   NBLOCK =      1;   KBLOCK =    100    inner block; outer block 
   IBRION =      2    ionic relax: 0-MD 1-quasi-New 2-CG
   NFREE  =      1    steps in history (QN), initial steepest desc. (CG)
   ISIF   =      2    stress and relaxation
   IWAVPR =     11    prediction:  0-non 1-charg 2-wave 3-comb
   ISYM   =      1    0-nonsym 1-usesym 2-fastsym
   LCORR  =      T    Harris-Foulkes like correction to forces

   POTIM  = 0.5000    time-step for ionic-motion
   TEIN   =    0.0    initial temperature
   TEBEG  =    0.0;   TEEND  =   0.0 temperature during run
   SMASS  =  -3.00    Nose mass-parameter (am)
   estimated Nose-frequenzy (Omega)   =  0.10E-29 period in steps = 0.13E+47 mass=  -0.179E-27a.u.
   SCALEE = 1.0000    scale energy and forces
   NPACO  =    256;   APACO  = 10.0  distance and # of slots for P.C.
   PSTRESS=    0.0 pullay stress

  Mass of Ions in am
   POMASS = 195.08
  Ionic Valenz
   ZVAL   =  16.00
  Atomic Wigner-Seitz radii
   RWIGS  =  -1.00
  virtual crystal weights 
   VCA    =   1.00
   NELECT =      16.0000    total number of electrons
   NUPDOWN=      -1.0000    fix difference up-down

 DOS related values:
   EMIN   =  10.00;   EMAX   =-10.00  energy-range for DOS
   EFERMI =   0.00
   ISMEAR =     0;   SIGMA  =   0.05  broadening in eV -4-tet -1-fermi 0-gaus

 Electronic relaxation 2 (details)
   IALGO  =     38    algorithm
   LDIAG  =      T    sub-space diagonalisation (order eigenvalues)
   LSUBROT=      F    optimize rotation matrix (better conditioning)
   TURBO    =      0    0=normal 1=particle mesh
   IRESTART =      0    0=no restart 2=restart with 2 vectors
   NREBOOT  =      0    no. of reboots
   NMIN     =      0    reboot dimension
   EREF     =   0.00    reference energy to select bands
   IMIX   =      4    mixing-type and parameters
     AMIX     =   0.40;   BMIX     =  1.00
     AMIX_MAG =   1.60;   BMIX_MAG =  1.00
     AMIN     =   0.10
     WC   =   100.;   INIMIX=   1;  MIXPRE=   1;  MAXMIX= -45

 Intra band minimization:
   WEIMIN = 0.0010     energy-eigenvalue tresh-hold
   EBREAK =  0.10E-07  absolut break condition
   DEPER  =   0.30     relativ break condition  

   TIME   =   0.40     timestep for ELM

  volume/ion in A,a.u.               =      15.50       104.58
  Fermi-wavevector in a.u.,A,eV,Ry     =   1.654597  3.126735 37.248554  2.737691
  Thomas-Fermi vector in A             =   2.742837
 
 Write flags
   LWAVE        =      T    write WAVECAR
   LDOWNSAMPLE  =      F    k-point downsampling of WAVECAR
   LCHARG       =      T    write CHGCAR
   LVTOT        =      F    write LOCPOT, total local potential
   LVHAR        =      F    write LOCPOT, Hartree potential only
   LELF         =      F    write electronic localiz. function (ELF)
   LORBIT       =     11    0 simple, 1 ext, 2 COOP (PROOUT), +10 PAW based schemes


 Dipole corrections
   LMONO  =      F    monopole corrections only (constant potential shift)
   LDIPOL =      F    correct potential (dipole corrections)
   IDIPOL =      0    1-x, 2-y, 3-z, 4-all directions 
   EPSILON=  1.0000000 bulk dielectric constant

 Exchange correlation treatment:
   GGA     =    --    GGA type
   LEXCH   =     8    internal setting for exchange type
   LIBXC   =     F    Libxc                    
   VOSKOWN =     0    Vosko Wilk Nusair interpolation
   LHFCALC =     F    Hartree Fock is set to
   LHFONE  =     F    Hartree Fock one center treatment
   AEXX    =    0.0000 exact exchange contribution

 Linear response parameters
   LEPSILON=     F    determine dielectric tensor
   LRPA    =     F    only Hartree local field effects (RPA)
   LNABLA  =     F    use nabla operator in PAW spheres
   LVEL    =     F    velocity operator in full k-point grid
   CSHIFT  =0.1000    complex shift for real part using Kramers Kronig
   OMEGAMAX=  -1.0    maximum frequency
   DEG_THRESHOLD= 0.2000000E-02 threshold for treating states as degnerate
   RTIME   =   -0.100 relaxation time in fs
  (WPLASMAI=    0.000 imaginary part of plasma frequency in eV, 0.658/RTIME)
   DFIELD  = 0.0000000 0.0000000 0.0000000 field for delta impulse in time
 
  Optional k-point grid parameters
   LKPOINTS_OPT  =     F    use optional k-point grid
   KPOINTS_OPT_MODE=     1    mode for optional k-point grid
 
 Orbital magnetization related:
   ORBITALMAG=     F  switch on orbital magnetization
   LCHIMAG   =     F  perturbation theory with respect to B field
   DQ        =  0.001000  dq finite difference perturbation B field
   LLRAUG    =     F  two centre corrections for induced B field



--------------------------------------------------------------------------------------------------------


 conjugate gradient relaxation of ions
 charge density and potential will be updated during run
 non-spin polarized calculation
 Variant of blocked Davidson
 Davidson routine will perform the subspace rotation
 perform sub-space diagonalisation
    after iterative eigenvector-optimisation
 modified Broyden-mixing scheme, WC =      100.0
 initial mixing is a Kerker type mixing with AMIX =  0.4000 and BMIX =      1.0000
 Hartree-type preconditioning will be used
 using additional bands           16
 reciprocal scheme for non local part
 use partial core corrections
 calculate Harris-corrections to forces 
   (improved forces if not selfconsistent)
 use gradient corrections 
 use of overlap-Matrix (Vanderbilt PP)
 Gauss-broadening in eV      SIGMA  =   0.05


--------------------------------------------------------------------------------------------------------


  energy-cutoff  :      425.00
  volume of cell :       15.50
      direct lattice vectors                 reciprocal lattice vectors
     0.000000000  1.978848629  1.978848629    -0.252672181  0.252672181  0.252672181
     1.978848629  0.000000000  1.978848629     0.252672181 -0.252672181  0.252672181
     1.978848629  1.978848629  0.000000000     0.252672181  0.252672181 -0.252672181

  length of vectors
     2.798514570  2.798514570  2.798514570     0.437641056  0.437641056  0.437641056


 
 k-points in units of 2pi/SCALE and weight: Automatic mesh                          
   0.01263361  0.01263361  0.01263361       0.002
  -0.01263361  0.03790083  0.03790083       0.006
  -0.03790083  0.06316805  0.06316805       0.006
  -0.06316805  0.08843526  0.08843526       0.006
  -0.08843526  0.11370248  0.11370248       0.006
   0.13896970 -0.11370248 -0.11370248       0.006
   0.11370248 -0.08843526 -0.08843526       0.006
   0.08843526 -0.06316805 -0.06316805       0.006
   0.06316805 -0.03790083 -0.03790083       0.006
   0.03790083 -0.01263361 -0.01263361       0.006
   0.01263361  0.01263361  0.06316805       0.006
  -0.01263361  0.03790083  0.08843526       0.012
  -0.03790083  0.06316805  0.11370248       0.012
  -0.06316805  0.08843526  0.13896970       0.012
   0.16423692 -0.13896970 -0.08843526       0.012
   0.13896970 -0.11370248 -0.06316805       0.012
   0.11370248 -0.08843526 -0.03790083       0.012
   0.08843526 -0.06316805 -0.01263361       0.012
   0.06316805 -0.03790083  0.01263361       0.012
   0.01263361  0.01263361  0.11370248       0.006
  -0.01263361  0.03790083  0.13896970       0.012
  -0.03790083  0.06316805  0.16423692       0.012
   0.18950414 -0.16423692 -0.06316805       0.012
   0.16423692 -0.13896970 -0.03790083       0.012
   0.13896970 -0.11370248 -0.01263361       0.012
   0.11370248 -0.08843526  0.01263361       0.012
   0.08843526 -0.06316805  0.03790083       0.012
   0.01263361  0.01263361  0.16423692       0.006
  -0.01263361  0.03790083  0.18950414       0.012
   0.21477135 -0.18950414 -0.03790083       0.012
   0.18950414 -0.16423692 -0.01263361       0.012
   0.16423692 -0.13896970  0.01263361       0.012
   0.13896970 -0.11370248  0.03790083       0.012
   0.11370248 -0.08843526  0.06316805       0.012
   0.01263361  0.01263361  0.21477135       0.006
   0.24003857 -0.21477135 -0.01263361       0.012
   0.21477135 -0.18950414  0.01263361       0.012
   0.18950414 -0.16423692  0.03790083       0.012
   0.16423692 -0.13896970  0.06316805       0.012
   0.13896970 -0.11370248  0.08843526       0.012
   0.01263361  0.01263361 -0.24003857       0.006
  -0.01263361  0.03790083 -0.21477135       0.012
  -0.03790083  0.06316805 -0.18950414       0.012
  -0.06316805  0.08843526 -0.16423692       0.012
   0.01263361  0.01263361 -0.18950414       0.006
  -0.01263361  0.03790083 -0.16423692       0.012
  -0.03790083  0.06316805 -0.13896970       0.012
   0.01263361  0.01263361 -0.13896970       0.006
  -0.01263361  0.03790083 -0.11370248       0.012
   0.01263361  0.01263361 -0.08843526       0.006
   0.03790083  0.03790083  0.03790083       0.002
   0.01263361  0.06316805  0.06316805       0.006
  -0.01263361  0.08843526  0.08843526       0.006
  -0.03790083  0.11370248  0.11370248       0.006
   0.18950414 -0.11370248 -0.11370248       0.006
   0.16423692 -0.08843526 -0.08843526       0.006
   0.13896970 -0.06316805 -0.06316805       0.006
   0.11370248 -0.03790083 -0.03790083       0.006
   0.03790083  0.03790083  0.08843526       0.006
   0.01263361  0.06316805  0.11370248       0.012
  -0.01263361  0.08843526  0.13896970       0.012
   0.21477135 -0.13896970 -0.08843526       0.012
   0.18950414 -0.11370248 -0.06316805       0.012
   0.16423692 -0.08843526 -0.03790083       0.012
   0.13896970 -0.06316805 -0.01263361       0.012
   0.03790083  0.03790083  0.13896970       0.006
   0.01263361  0.06316805  0.16423692       0.012
   0.24003857 -0.16423692 -0.06316805       0.012
   0.21477135 -0.13896970 -0.03790083       0.012
   0.18950414 -0.11370248 -0.01263361       0.012
   0.16423692 -0.08843526  0.01263361       0.012
   0.03790083  0.03790083  0.18950414       0.006
   0.26530579 -0.18950414 -0.03790083       0.012
   0.24003857 -0.16423692 -0.01263361       0.012
   0.21477135 -0.13896970  0.01263361       0.012
   0.18950414 -0.11370248  0.03790083       0.012
   0.03790083  0.03790083 -0.26530579       0.006
   0.01263361  0.06316805 -0.24003857       0.012
  -0.01263361  0.08843526 -0.21477135       0.012
   0.03790083  0.03790083 -0.21477135       0.006
   0.01263361  0.06316805 -0.18950414       0.012
   0.03790083  0.03790083 -0.16423692       0.006
   0.06316805  0.06316805  0.06316805       0.002
   0.03790083  0.08843526  0.08843526       0.006
   0.01263361  0.11370248  0.11370248       0.006
   0.24003857 -0.11370248 -0.11370248       0.006
   0.21477135 -0.08843526 -0.08843526       0.006
   0.18950414 -0.06316805 -0.06316805       0.006
   0.06316805  0.06316805  0.11370248       0.006
   0.03790083  0.08843526  0.13896970       0.012
   0.26530579 -0.13896970 -0.08843526       0.012
   0.24003857 -0.11370248 -0.06316805       0.012
   0.21477135 -0.08843526 -0.03790083       0.012
   0.06316805  0.06316805  0.16423692       0.006
   0.29057301 -0.16423692 -0.06316805       0.012
   0.26530579 -0.13896970 -0.03790083       0.012
   0.24003857 -0.11370248 -0.01263361       0.012
   0.06316805  0.06316805 -0.29057301       0.006
   0.03790083  0.08843526 -0.26530579       0.012
   0.06316805  0.06316805 -0.24003857       0.006
   0.08843526  0.08843526  0.08843526       0.002
   0.06316805  0.11370248  0.11370248       0.006
   0.29057301 -0.11370248 -0.11370248       0.006
   0.26530579 -0.08843526 -0.08843526       0.006
   0.08843526  0.08843526  0.13896970       0.006
   0.31584023 -0.13896970 -0.08843526       0.012
   0.29057301 -0.11370248 -0.06316805       0.012
   0.08843526  0.08843526 -0.31584023       0.006
   0.11370248  0.11370248  0.11370248       0.002
   0.34110744 -0.11370248 -0.11370248       0.006
 
 k-points in reciprocal lattice and weights: Automatic mesh                          
   0.05000000  0.05000000  0.05000000       0.002
   0.15000000  0.05000000  0.05000000       0.006
   0.25000000  0.05000000  0.05000000       0.006
   0.35000000  0.05000000  0.05000000       0.006
   0.45000000  0.05000000  0.05000000       0.006
  -0.45000000  0.05000000  0.05000000       0.006
  -0.35000000  0.05000000  0.05000000       0.006
  -0.25000000  0.05000000  0.05000000       0.006
  -0.15000000  0.05000000  0.05000000       0.006
  -0.05000000  0.05000000  0.05000000       0.006
   0.15000000  0.15000000  0.05000000       0.006
   0.25000000  0.15000000  0.05000000       0.012
   0.35000000  0.15000000  0.05000000       0.012
   0.45000000  0.15000000  0.05000000       0.012
  -0.45000000  0.15000000  0.05000000       0.012
  -0.35000000  0.15000000  0.05000000       0.012
  -0.25000000  0.15000000  0.05000000       0.012
  -0.15000000  0.15000000  0.05000000       0.012
  -0.05000000  0.15000000  0.05000000       0.012
   0.25000000  0.25000000  0.05000000       0.006
   0.35000000  0.25000000  0.05000000       0.012
   0.45000000  0.25000000  0.05000000       0.012
  -0.45000000  0.25000000  0.05000000       0.012
  -0.35000000  0.25000000  0.05000000       0.012
  -0.25000000  0.25000000  0.05000000       0.012
  -0.15000000  0.25000000  0.05000000       0.012
  -0.05000000  0.25000000  0.05000000       0.012
   0.35000000  0.35000000  0.05000000       0.006
   0.45000000  0.35000000  0.05000000       0.012
  -0.45000000  0.35000000  0.05000000       0.012
  -0.35000000  0.35000000  0.05000000       0.012
  -0.25000000  0.35000000  0.05000000       0.012
  -0.15000000  0.35000000  0.05000000       0.012
  -0.05000000  0.35000000  0.05000000       0.012
   0.45000000  0.45000000  0.05000000       0.006
  -0.45000000  0.45000000  0.05000000       0.012
  -0.35000000  0.45000000  0.05000000       0.012
  -0.25000000  0.45000000  0.05000000       0.012
  -0.15000000  0.45000000  0.05000000       0.012
  -0.05000000  0.45000000  0.05000000       0.012
  -0.45000000 -0.45000000  0.05000000       0.006
  -0.35000000 -0.45000000  0.05000000       0.012
  -0.25000000 -0.45000000  0.05000000       0.012
  -0.15000000 -0.45000000  0.05000000       0.012
  -0.35000000 -0.35000000  0.05000000       0.006
  -0.25000000 -0.35000000  0.05000000       0.012
  -0.15000000 -0.35000000  0.05000000       0.012
  -0.25000000 -0.25000000  0.05000000       0.006
  -0.15000000 -0.25000000  0.05000000       0.012
  -0.15000000 -0.15000000  0.05000000       0.006
   0.15000000  0.15000000  0.15000000       0.002
   0.25000000  0.15000000  0.15000000       0.006
   0.35000000  0.15000000  0.15000000       0.006
   0.45000000  0.15000000  0.15000000       0.006
  -0.45000000  0.15000000  0.15000000       0.006
  -0.35000000  0.15000000  0.15000000       0.006
  -0.25000000  0.15000000  0.15000000       0.006
  -0.15000000  0.15000000  0.15000000       0.006
   0.25000000  0.25000000  0.15000000       0.006
   0.35000000  0.25000000  0.15000000       0.012
   0.45000000  0.25000000  0.15000000       0.012
  -0.45000000  0.25000000  0.15000000       0.012
  -0.35000000  0.25000000  0.15000000       0.012
  -0.25000000  0.25000000  0.15000000       0.012
  -0.15000000  0.25000000  0.15000000       0.012
   0.35000000  0.35000000  0.15000000       0.006
   0.45000000  0.35000000  0.15000000       0.012
  -0.45000000  0.35000000  0.15000000       0.012
  -0.35000000  0.35000000  0.15000000       0.012
  -0.25000000  0.35000000  0.15000000       0.012
  -0.15000000  0.35000000  0.15000000       0.012
   0.45000000  0.45000000  0.15000000       0.006
  -0.45000000  0.45000000  0.15000000       0.012
  -0.35000000  0.45000000  0.15000000       0.012
  -0.25000000  0.45000000  0.15000000       0.012
  -0.15000000  0.45000000  0.15000000       0.012
  -0.45000000 -0.45000000  0.15000000       0.006
  -0.35000000 -0.45000000  0.15000000       0.012
  -0.25000000 -0.45000000  0.15000000       0.012
  -0.35000000 -0.35000000  0.15000000       0.006
  -0.25000000 -0.35000000  0.15000000       0.012
  -0.25000000 -0.25000000  0.15000000       0.006
   0.25000000  0.25000000  0.25000000       0.002
   0.35000000  0.25000000  0.25000000       0.006
   0.45000000  0.25000000  0.25000000       0.006
  -0.45000000  0.25000000  0.25000000       0.006
  -0.35000000  0.25000000  0.25000000       0.006
  -0.25000000  0.25000000  0.25000000       0.006
   0.35000000  0.35000000  0.25000000       0.006
   0.45000000  0.35000000  0.25000000       0.012
  -0.45000000  0.35000000  0.25000000       0.012
  -0.35000000  0.35000000  0.25000000       0.012
  -0.25000000  0.35000000  0.25000000       0.012
   0.45000000  0.45000000  0.25000000       0.006
  -0.45000000  0.45000000  0.25000000       0.012
  -0.35000000  0.45000000  0.25000000       0.012
  -0.25000000  0.45000000  0.25000000       0.012
  -0.45000000 -0.45000000  0.25000000       0.006
  -0.35000000 -0.45000000  0.25000000       0.012
  -0.35000000 -0.35000000  0.25000000       0.006
   0.35000000  0.35000000  0.35000000       0.002
   0.45000000  0.35000000  0.35000000       0.006
  -0.45000000  0.35000000  0.35000000       0.006
  -0.35000000  0.35000000  0.35000000       0.006
   0.45000000  0.45000000  0.35000000       0.006
  -0.45000000  0.45000000  0.35000000       0.012
  -0.35000000  0.45000000  0.35000000       0.012
  -0.45000000 -0.45000000  0.35000000       0.006
   0.45000000  0.45000000  0.45000000       0.002
  -0.45000000  0.45000000  0.45000000       0.006
 
 position of ions in fractional coordinates (direct lattice) 
   0.00000000  0.00000000  0.00000000
 
 position of ions in cartesian coordinates  (Angst):
   0.00000000  0.00000000  0.00000000
 


--------------------------------------------------------------------------------------------------------


 k-point   1 :   0.0500 0.0500 0.0500  plane waves:     322
 k-point   2 :   0.1500 0.0500 0.0500  plane waves:     313
 k-point   3 :   0.2500 0.0500 0.0500  plane waves:     310
 k-point   4 :   0.3500 0.0500 0.0500  plane waves:     305
 k-point   5 :   0.4500 0.0500 0.0500  plane waves:     308
 k-point   6 :  -0.4500 0.0500 0.0500  plane waves:     309
 k-point   7 :  -0.3500 0.0500 0.0500  plane waves:     309
 k-point   8 :  -0.2500 0.0500 0.0500  plane waves:     305
 k-point   9 :  -0.1500 0.0500 0.0500  plane waves:     313
 k-point  10 :  -0.0500 0.0500 0.0500  plane waves:     318
 k-point  11 :   0.1500 0.1500 0.0500  plane waves:     309
 k-point  12 :   0.2500 0.1500 0.0500  plane waves:     309
 k-point  13 :   0.3500 0.1500 0.0500  plane waves:     308
 k-point  14 :   0.4500 0.1500 0.0500  plane waves:     309
 k-point  15 :  -0.4500 0.1500 0.0500  plane waves:     307
 k-point  16 :  -0.3500 0.1500 0.0500  plane waves:     307
 k-point  17 :  -0.2500 0.1500 0.0500  plane waves:     309
 k-point  18 :  -0.1500 0.1500 0.0500  plane waves:     309
 k-point  19 :  -0.0500 0.1500 0.0500  plane waves:     311
 k-point  20 :   0.2500 0.2500 0.0500  plane waves:     304
 k-point  21 :   0.3500 0.2500 0.0500  plane waves:     309
 k-point  22 :   0.4500 0.2500 0.0500  plane waves:     311
 k-point  23 :  -0.4500 0.2500 0.0500  plane waves:     309
 k-point  24 :  -0.3500 0.2500 0.0500  plane waves:     304
 k-point  25 :  -0.2500 0.2500 0.0500  plane waves:     308
 k-point  26 :  -0.1500 0.2500 0.0500  plane waves:     308
 k-point  27 :  -0.0500 0.2500 0.0500  plane waves:     307
 k-point  28 :   0.3500 0.3500 0.0500  plane waves:     313
 k-point  29 :   0.4500 0.3500 0.0500  plane waves:     316
 k-point  30 :  -0.4500 0.3500 0.0500  plane waves:     308
 k-point  31 :  -0.3500 0.3500 0.0500  plane waves:     303
 k-point  32 :  -0.2500 0.3500 0.0500  plane waves:     304
 k-point  33 :  -0.1500 0.3500 0.0500  plane waves:     309
 k-point  34 :  -0.0500 0.3500 0.0500  plane waves:     307
 k-point  35 :   0.4500 0.4500 0.0500  plane waves:     316
 k-point  36 :  -0.4500 0.4500 0.0500  plane waves:     309
 k-point  37 :  -0.3500 0.4500 0.0500  plane waves:     307
 k-point  38 :  -0.2500 0.4500 0.0500  plane waves:     306
 k-point  39 :  -0.1500 0.4500 0.0500  plane waves:     306
 k-point  40 :  -0.0500 0.4500 0.0500  plane waves:     308
 k-point  41 :  -0.4500-0.4500 0.0500  plane waves:     306
 k-point  42 :  -0.3500-0.4500 0.0500  plane waves:     313
 k-point  43 :  -0.2500-0.4500 0.0500  plane waves:     308
 k-point  44 :  -0.1500-0.4500 0.0500  plane waves:     308
 k-point  45 :  -0.3500-0.3500 0.0500  plane waves:     318
 k-point  46 :  -0.2500-0.3500 0.0500  plane waves:     314
 k-point  47 :  -0.1500-0.3500 0.0500  plane waves:     312
 k-point  48 :  -0.2500-0.2500 0.0500  plane waves:     310
 k-point  49 :  -0.1500-0.2500 0.0500  plane waves:     306
 k-point  50 :  -0.1500-0.1500 0.0500  plane waves:     305
 k-point  51 :   0.1500 0.1500 0.1500  plane waves:     310
 k-point  52 :   0.2500 0.1500 0.1500  plane waves:     312
 k-point  53 :   0.3500 0.1500 0.1500  plane waves:     308
 k-point  54 :   0.4500 0.1500 0.1500  plane waves:     309
 k-point  55 :  -0.4500 0.1500 0.1500  plane waves:     305
 k-point  56 :  -0.3500 0.1500 0.1500  plane waves:     307
 k-point  57 :  -0.2500 0.1500 0.1500  plane waves:     313
 k-point  58 :  -0.1500 0.1500 0.1500  plane waves:     306
 k-point  59 :   0.2500 0.2500 0.1500  plane waves:     308
 k-point  60 :   0.3500 0.2500 0.1500  plane waves:     308
 k-point  61 :   0.4500 0.2500 0.1500  plane waves:     311
 k-point  62 :  -0.4500 0.2500 0.1500  plane waves:     307
 k-point  63 :  -0.3500 0.2500 0.1500  plane waves:     306
 k-point  64 :  -0.2500 0.2500 0.1500  plane waves:     310
 k-point  65 :  -0.1500 0.2500 0.1500  plane waves:     311
 k-point  66 :   0.3500 0.3500 0.1500  plane waves:     312
 k-point  67 :   0.4500 0.3500 0.1500  plane waves:     310
 k-point  68 :  -0.4500 0.3500 0.1500  plane waves:     307
 k-point  69 :  -0.3500 0.3500 0.1500  plane waves:     307
 k-point  70 :  -0.2500 0.3500 0.1500  plane waves:     309
 k-point  71 :  -0.1500 0.3500 0.1500  plane waves:     310
 k-point  72 :   0.4500 0.4500 0.1500  plane waves:     309
 k-point  73 :  -0.4500 0.4500 0.1500  plane waves:     308
 k-point  74 :  -0.3500 0.4500 0.1500  plane waves:     304
 k-point  75 :  -0.2500 0.4500 0.1500  plane waves:     308
 k-point  76 :  -0.1500 0.4500 0.1500  plane waves:     304
 k-point  77 :  -0.4500-0.4500 0.1500  plane waves:     314
 k-point  78 :  -0.3500-0.4500 0.1500  plane waves:     310
 k-point  79 :  -0.2500-0.4500 0.1500  plane waves:     305
 k-point  80 :  -0.3500-0.3500 0.1500  plane waves:     311
 k-point  81 :  -0.2500-0.3500 0.1500  plane waves:     311
 k-point  82 :  -0.2500-0.2500 0.1500  plane waves:     311
 k-point  83 :   0.2500 0.2500 0.2500  plane waves:     311
 k-point  84 :   0.3500 0.2500 0.2500  plane waves:     308
 k-point  85 :   0.4500 0.2500 0.2500  plane waves:     311
 k-point  86 :  -0.4500 0.2500 0.2500  plane waves:     305
 k-point  87 :  -0.3500 0.2500 0.2500  plane waves:     303
 k-point  88 :  -0.2500 0.2500 0.2500  plane waves:     311
 k-point  89 :   0.3500 0.3500 0.2500  plane waves:     303
 k-point  90 :   0.4500 0.3500 0.2500  plane waves:     312
 k-point  91 :  -0.4500 0.3500 0.2500  plane waves:     308
 k-point  92 :  -0.3500 0.3500 0.2500  plane waves:     304
 k-point  93 :  -0.2500 0.3500 0.2500  plane waves:     305
 k-point  94 :   0.4500 0.4500 0.2500  plane waves:     311
 k-point  95 :  -0.4500 0.4500 0.2500  plane waves:     305
 k-point  96 :  -0.3500 0.4500 0.2500  plane waves:     307
 k-point  97 :  -0.2500 0.4500 0.2500  plane waves:     307
 k-point  98 :  -0.4500-0.4500 0.2500  plane waves:     307
 k-point  99 :  -0.3500-0.4500 0.2500  plane waves:     303
 k-point 100 :  -0.3500-0.3500 0.2500  plane waves:     302
 k-point 101 :   0.3500 0.3500 0.3500  plane waves:     308
 k-point 102 :   0.4500 0.3500 0.3500  plane waves:     310
 k-point 103 :  -0.4500 0.3500 0.3500  plane waves:     303
 k-point 104 :  -0.3500 0.3500 0.3500  plane waves:     309
 k-point 105 :   0.4500 0.4500 0.3500  plane waves:     311
 k-point 106 :  -0.4500 0.4500 0.3500  plane waves:     304
 k-point 107 :  -0.3500 0.4500 0.3500  plane waves:     308
 k-point 108 :  -0.4500-0.4500 0.3500  plane waves:     305
 k-point 109 :   0.4500 0.4500 0.4500  plane waves:     314
 k-point 110 :  -0.4500 0.4500 0.4500  plane waves:     309

 maximum and minimum number of plane-waves per node :       322      302

 maximum number of plane-waves:       322
 maximum index in each direction: 
   IXMAX=    5   IYMAX=    5   IZMAX=    4
   IXMIN=   -5   IYMIN=   -5   IZMIN=   -5


 serial   3D FFT for wavefunctions
 parallel 3D FFT for charge:
    minimum data exchange during FFTs selected (reduces bandwidth)


 total amount of memory used by VASP MPI-rank0    36607. kBytes
=======================================================================

   base      :      30000. kBytes
   nonl-proj :       5327. kBytes
   fftplans  :        147. kBytes
   grid      :        485. kBytes
   one-center:         15. kBytes
   wavefun   :        633. kBytes
 
     INWAV:  cpu time      0.0000: real time      0.0001
 Broyden mixing: mesh for mixing (old mesh)
   NGX =  9   NGY =  9   NGZ =  9
  (NGX  = 40   NGY  = 40   NGZ  = 40)
  gives a total of    729 points

 initial charge density was supplied:
 charge density of overlapping atoms calculated
 number of electron      16.0000000 magnetization 
 keeping initial charge density in first step


--------------------------------------------------------------------------------------------------------


 Maximum index for augmentation-charges          859 (set IRDMAX)


--------------------------------------------------------------------------------------------------------


 First call to EWALD:  gamma=   0.711
 Maximum number of real-space cells 3x 3x 3
 Maximum number of reciprocal cells 3x 3x 3

    FEWALD:  cpu time      0.0015: real time      0.0015


--------------------------------------- Iteration      1(   1)  ---------------------------------------


    POTLOK:  cpu time      0.0032: real time      0.0033
    SETDIJ:  cpu time      0.0022: real time      0.0022
     EDDAV:  cpu time      0.5382: real time      0.5414
       DOS:  cpu time      0.0010: real time      0.0010
    --------------------------------------------
      LOOP:  cpu time      0.5446: real time      0.5479

 eigenvalue-minimisations  :  6072
 total energy-change (2. order) : 0.1463985E+02  (-0.1165558E+04)
 number of electron      16.0000000 magnetization 
 augmentation part       16.0000000 magnetization 

 Free energy of the ion-electron system (eV)
  ---------------------------------------------------
  alpha Z        PSCENC =       154.81755146
  Ewald energy   TEWEN  =     -2135.25500241
  -Hartree energ DENC   =      -402.26996810
  -exchange      EXHF   =         0.00000000
  -V(xc)+E(xc)   XCENC  =        63.74909182
  PAW double counting   =      2065.75261637    -2030.83594803
  entropy T*S    EENTRO =        -0.00068076
  eigenvalues    EBANDS =      -129.51281933
  atomic energy  EATOM  =      2428.19501064
  Solvation  Ediel_sol  =         0.00000000
  ---------------------------------------------------
  free energy    TOTEN  =        14.63985167 eV

  energy without entropy =       14.64053243  energy(sigma->0) =       14.64019205


--------------------------------------------------------------------------------------------------------




--------------------------------------- Iteration      1(   2)  ---------------------------------------


     EDDAV:  cpu time      0.6651: real time      0.6690
       DOS:  cpu time      0.0005: real time      0.0005
    --------------------------------------------
      LOOP:  cpu time      0.6656: real time      0.6695

 eigenvalue-minimisations  :  6936
 total energy-change (2. order) :-0.2104576E+02  (-0.2068163E+02)
 number of electron      16.0000000 magnetization 
 augmentation part       16.0000000 magnetization 

 Free energy of the ion-electron system (eV)
  ---------------------------------------------------
  alpha Z        PSCENC =       154.81755146
  Ewald energy   TEWEN  =     -2135.25500241
  -Hartree energ DENC   =      -402.26996810
  -exchange      EXHF   =         0.00000000
  -V(xc)+E(xc)   XCENC  =        63.74909182
  PAW double counting   =      2065.75261637    -2030.83594803
  entropy T*S    EENTRO =        -0.00179101
  eigenvalues    EBANDS =      -150.55747378
  atomic energy  EATOM  =      2428.19501064
  Solvation  Ediel_sol  =         0.00000000
  ---------------------------------------------------
  free energy    TOTEN  =        -6.40591302 eV

  energy without entropy =       -6.40412202  energy(sigma->0) =       -6.40501752


--------------------------------------------------------------------------------------------------------




--------------------------------------- Iteration      1(   3)  ---------------------------------------


     EDDAV:  cpu time      0.7095: real time      0.7133
       DOS:  cpu time      0.0005: real time      0.0005
    --------------------------------------------
      LOOP:  cpu time      0.7100: real time      0.7138

 eigenvalue-minimisations  :  6960
 total energy-change (2. order) :-0.3141785E-01  (-0.3141675E-01)
 number of electron      16.0000000 magnetization 
 augmentation part       16.0000000 magnetization 

 Free energy of the ion-electron system (eV)
  ---------------------------------------------------
  alpha Z        PSCENC =       154.81755146
  Ewald energy   TEWEN  =     -2135.25500241
  -Hartree energ DENC   =      -402.26996810
  -exchange      EXHF   =         0.00000000
  -V(xc)+E(xc)   XCENC  =        63.74909182
  PAW double counting   =      2065.75261637    -2030.83594803
  entropy T*S    EENTRO =        -0.00178469
  eigenvalues    EBANDS =      -150.58889794
  atomic energy  EATOM  =      2428.19501064
  Solvation  Ediel_sol  =         0.00000000
  ---------------------------------------------------
  free energy    TOTEN  =        -6.43733087 eV

  energy without entropy =       -6.43554618  energy(sigma->0) =       -6.43643853


--------------------------------------------------------------------------------------------------------




--------------------------------------- Iteration      1(   4)  ---------------------------------------


     EDDAV:  cpu time      0.9376: real time      0.9424
       DOS:  cpu time      0.0005: real time      0.0005
    --------------------------------------------
      LOOP:  cpu time      0.9381: real time      0.9429

 eigenvalue-minimisations  :  8280
 total energy-change (2. order) :-0.2566306E-04  (-0.2566154E-04)
 number of electron      16.0000000 magnetization 
 augmentation part       16.0000000 magnetization 

 Free energy of the ion-electron system (eV)
  ---------------------------------------------------
  alpha Z        PSCENC =       154.81755146
  Ewald energy   TEWEN  =     -2135.25500241
  -Hartree energ DENC   =      -402.26996810
  -exchange      EXHF   =         0.00000000
  -V(xc)+E(xc)   XCENC  =        63.74909182
  PAW double counting   =      2065.75261637    -2030.83594803
  entropy T*S    EENTRO =        -0.00178470
  eigenvalues    EBANDS =      -150.58892360
  atomic energy  EATOM  =      2428.19501064
  Solvation  Ediel_sol  =         0.00000000
  ---------------------------------------------------
  free energy    TOTEN  =        -6.43735654 eV

  energy without entropy =       -6.43557184  energy(sigma->0) =       -6.43646419


--------------------------------------------------------------------------------------------------------




--------------------------------------- Iteration      1(   5)  ---------------------------------------


     EDDAV:  cpu time      0.7239: real time      0.7277
       DOS:  cpu time      0.0005: real time      0.0005
    CHARGE:  cpu time      0.0183: real time      0.0184
    MIXING:  cpu time      0.0003: real time      0.0003
    --------------------------------------------
      LOOP:  cpu time      0.7431: real time      0.7469

 eigenvalue-minimisations  :  7008
 total energy-change (2. order) : 0.5215952E-09  (-0.7800204E-09)
 number of electron      16.0000007 magnetization 
 augmentation part        3.9759697 magnetization 

 Broyden mixing:
  rms(total) = 0.14458E+01    rms(broyden)= 0.14456E+01
  rms(prec ) = 0.20178E+01
  weight for this iteration     100.00

 Free energy of the ion-electron system (eV)
  ---------------------------------------------------
  alpha Z        PSCENC =       154.81755146
  Ewald energy   TEWEN  =     -2135.25500241
  -Hartree energ DENC   =      -402.26996810
  -exchange      EXHF   =         0.00000000
  -V(xc)+E(xc)   XCENC  =        63.74909182
  PAW double counting   =      2065.75261637    -2030.83594803
  entropy T*S    EENTRO =        -0.00178470
  eigenvalues    EBANDS =      -150.58892360
  atomic energy  EATOM  =      2428.19501064
  Solvation  Ediel_sol  =         0.00000000
  ---------------------------------------------------
  free energy    TOTEN  =        -6.43735654 eV

  energy without entropy =       -6.43557184  energy(sigma->0) =       -6.43646419


--------------------------------------------------------------------------------------------------------




--------------------------------------- Iteration      1(   6)  ---------------------------------------


    POTLOK:  cpu time      0.0026: real time      0.0028
    SETDIJ:  cpu time      0.0021: real time      0.0021
     EDDAV:  cpu time      0.5362: real time      0.5391
       DOS:  cpu time      0.0005: real time      0.0005
    CHARGE:  cpu time      0.0179: real time      0.0180
    MIXING:  cpu time      0.0003: real time      0.0003
    --------------------------------------------
      LOOP:  cpu time      0.5597: real time      0.5628

 eigenvalue-minimisations  :  6000
 total energy-change (2. order) : 0.3371020E+00  (-0.1267718E+00)
 number of electron      16.0000007 magnetization 
 augmentation part        4.0904470 magnetization 

 Broyden mixing:
  rms(total) = 0.45259E+00    rms(broyden)= 0.45258E+00
  rms(prec ) = 0.56394E+00
  weight for this iteration     100.00

 eigenvalues of (default mixing * dielectric matrix)
  average eigenvalue GAMMA=   1.4299
  1.4299

 Free energy of the ion-electron system (eV)
  ---------------------------------------------------
  alpha Z        PSCENC =       154.81755146
  Ewald energy   TEWEN  =     -2135.25500241
  -Hartree energ DENC   =      -386.81901398
  -exchange      EXHF   =         0.00000000
  -V(xc)+E(xc)   XCENC  =        63.08391313
  PAW double counting   =      2227.84286365    -2194.97717534
  entropy T*S    EENTRO =        -0.00244912
  eigenvalues    EBANDS =      -162.98595258
  atomic energy  EATOM  =      2428.19501064
  Solvation  Ediel_sol  =         0.00000000
  ---------------------------------------------------
  free energy    TOTEN  =        -6.10025454 eV

  energy without entropy =       -6.09780542  energy(sigma->0) =       -6.09902998


--------------------------------------------------------------------------------------------------------




--------------------------------------- Iteration      1(   7)  ---------------------------------------


    POTLOK:  cpu time      0.0023: real time      0.0025
    SETDIJ:  cpu time      0.0019: real time      0.0019
     EDDAV:  cpu time      0.8229: real time      0.8271
       DOS:  cpu time      0.0005: real time      0.0005
    CHARGE:  cpu time      0.0175: real time      0.0176
    MIXING:  cpu time      0.0002: real time      0.0002
    --------------------------------------------
      LOOP:  cpu time      0.8454: real time      0.8499

 eigenvalue-minimisations  :  7896
 total energy-change (2. order) : 0.1775797E-01  (-0.7234154E-02)
 number of electron      16.0000007 magnetization 
 augmentation part        4.1162240 magnetization 

 Broyden mixing:
  rms(total) = 0.14417E+00    rms(broyden)= 0.14417E+00
  rms(prec ) = 0.17711E+00
  weight for this iteration     100.00

 eigenvalues of (default mixing * dielectric matrix)
  average eigenvalue GAMMA=   1.9515
  1.1875  2.7155

 Free energy of the ion-electron system (eV)
  ---------------------------------------------------
  alpha Z        PSCENC =       154.81755146
  Ewald energy   TEWEN  =     -2135.25500241
  -Hartree energ DENC   =      -382.95410030
  -exchange      EXHF   =         0.00000000
  -V(xc)+E(xc)   XCENC  =        62.90746149
  PAW double counting   =      2293.67386083    -2261.35475993
  entropy T*S    EENTRO =        -0.00248279
  eigenvalues    EBANDS =      -166.11003556
  atomic energy  EATOM  =      2428.19501064
  Solvation  Ediel_sol  =         0.00000000
  ---------------------------------------------------
  free energy    TOTEN  =        -6.08249656 eV

  energy without entropy =       -6.08001377  energy(sigma->0) =       -6.08125517


--------------------------------------------------------------------------------------------------------




--------------------------------------- Iteration      1(   8)  ---------------------------------------


    POTLOK:  cpu time      0.0022: real time      0.0024
    SETDIJ:  cpu time      0.0020: real time      0.0020
     EDDAV:  cpu time      0.5414: real time      0.5440
       DOS:  cpu time      0.0005: real time      0.0005
    CHARGE:  cpu time      0.0175: real time      0.0176
    MIXING:  cpu time      0.0003: real time      0.0003
    --------------------------------------------
      LOOP:  cpu time      0.5639: real time      0.5668

 eigenvalue-minimisations  :  6024
 total energy-change (2. order) : 0.1504909E-02  (-0.4040551E-03)
 number of electron      16.0000007 magnetization 
 augmentation part        4.1121664 magnetization 

 Broyden mixing:
  rms(total) = 0.13128E-01    rms(broyden)= 0.13118E-01
  rms(prec ) = 0.17134E-01
  weight for this iteration     100.00

 eigenvalues of (default mixing * dielectric matrix)
  average eigenvalue GAMMA=   1.5699
  1.0783  1.1965  2.4349

 Free energy of the ion-electron system (eV)
  ---------------------------------------------------
  alpha Z        PSCENC =       154.81755146
  Ewald energy   TEWEN  =     -2135.25500241
  -Hartree energ DENC   =      -382.84925627
  -exchange      EXHF   =         0.00000000
  -V(xc)+E(xc)   XCENC  =        62.88968134
  PAW double counting   =      2333.64007452    -2301.35275433
  entropy T*S    EENTRO =        -0.00250761
  eigenvalues    EBANDS =      -166.16378900
  atomic energy  EATOM  =      2428.19501064
  Solvation  Ediel_sol  =         0.00000000
  ---------------------------------------------------
  free energy    TOTEN  =        -6.08099166 eV

  energy without entropy =       -6.07848404  energy(sigma->0) =       -6.07973785


--------------------------------------------------------------------------------------------------------




--------------------------------------- Iteration      1(   9)  ---------------------------------------


    POTLOK:  cpu time      0.0023: real time      0.0024
    SETDIJ:  cpu time      0.0018: real time      0.0018
     EDDAV:  cpu time      0.7970: real time      0.8010
       DOS:  cpu time      0.0005: real time      0.0005
    CHARGE:  cpu time      0.0179: real time      0.0180
    MIXING:  cpu time      0.0004: real time      0.0004
    --------------------------------------------
      LOOP:  cpu time      0.8200: real time      0.8242

 eigenvalue-minimisations  :  7488
 total energy-change (2. order) : 0.6345322E-04  (-0.4901581E-05)
 number of electron      16.0000007 magnetization 
 augmentation part        4.1126117 magnetization 

 Broyden mixing:
  rms(total) = 0.16146E-02    rms(broyden)= 0.16130E-02
  rms(prec ) = 0.32100E-02
  weight for this iteration     100.00

 eigenvalues of (default mixing * dielectric matrix)
  average eigenvalue GAMMA=   1.8293
  1.0143  1.1855  2.7495  2.3678

 Free energy of the ion-electron system (eV)
  ---------------------------------------------------
  alpha Z        PSCENC =       154.81755146
  Ewald energy   TEWEN  =     -2135.25500241
  -Hartree energ DENC   =      -382.87557006
  -exchange      EXHF   =         0.00000000
  -V(xc)+E(xc)   XCENC  =        62.89193387
  PAW double counting   =      2331.16431192    -2298.85547617
  entropy T*S    EENTRO =        -0.00250396
  eigenvalues    EBANDS =      -166.16118349
  atomic energy  EATOM  =      2428.19501064
  Solvation  Ediel_sol  =         0.00000000
  ---------------------------------------------------
  free energy    TOTEN  =        -6.08092820 eV

  energy without entropy =       -6.07842424  energy(sigma->0) =       -6.07967622


--------------------------------------------------------------------------------------------------------




--------------------------------------- Iteration      1(  10)  ---------------------------------------


    POTLOK:  cpu time      0.0023: real time      0.0025
    SETDIJ:  cpu time      0.0021: real time      0.0021
     EDDAV:  cpu time      0.7218: real time      0.7255
       DOS:  cpu time      0.0005: real time      0.0005
    CHARGE:  cpu time      0.0178: real time      0.0179
    MIXING:  cpu time      0.0003: real time      0.0003
    --------------------------------------------
      LOOP:  cpu time      0.7448: real time      0.7487

 eigenvalue-minimisations  :  7200
 total energy-change (2. order) :-0.5754644E-05  (-0.5244220E-06)
 number of electron      16.0000007 magnetization 
 augmentation part        4.1126464 magnetization 

 Broyden mixing:
  rms(total) = 0.56521E-03    rms(broyden)= 0.56497E-03
  rms(prec ) = 0.57840E-03
  weight for this iteration     100.00

 eigenvalues of (default mixing * dielectric matrix)
  average eigenvalue GAMMA=   1.7429
  2.6785  2.3426  0.9886  1.5116  1.1930

 Free energy of the ion-electron system (eV)
  ---------------------------------------------------
  alpha Z        PSCENC =       154.81755146
  Ewald energy   TEWEN  =     -2135.25500241
  -Hartree energ DENC   =      -382.90557948
  -exchange      EXHF   =         0.00000000
  -V(xc)+E(xc)   XCENC  =        62.89308578
  PAW double counting   =      2332.84734566    -2300.51109150
  entropy T*S    EENTRO =        -0.00250276
  eigenvalues    EBANDS =      -166.15975135
  atomic energy  EATOM  =      2428.19501064
  Solvation  Ediel_sol  =         0.00000000
  ---------------------------------------------------
  free energy    TOTEN  =        -6.08093396 eV

  energy without entropy =       -6.07843119  energy(sigma->0) =       -6.07968257


--------------------------------------------------------------------------------------------------------




--------------------------------------- Iteration      1(  11)  ---------------------------------------


    POTLOK:  cpu time      0.0023: real time      0.0025
    SETDIJ:  cpu time      0.0019: real time      0.0019
     EDDAV:  cpu time      0.3466: real time      0.3483
       DOS:  cpu time      0.0005: real time      0.0005
    --------------------------------------------
      LOOP:  cpu time      0.3512: real time      0.3531

 eigenvalue-minimisations  :  3840
 total energy-change (2. order) : 0.6726896E-07  (-0.3936148E-09)
 number of electron      16.0000007 magnetization 
 augmentation part        4.1126464 magnetization 

 Free energy of the ion-electron system (eV)
  ---------------------------------------------------
  alpha Z        PSCENC =       154.81755146
  Ewald energy   TEWEN  =     -2135.25500241
  -Hartree energ DENC   =      -382.90485045
  -exchange      EXHF   =         0.00000000
  -V(xc)+E(xc)   XCENC  =        62.89305330
  PAW double counting   =      2332.67938764    -2300.34363028
  entropy T*S    EENTRO =        -0.00250277
  eigenvalues    EBANDS =      -166.15995103
  atomic energy  EATOM  =      2428.19501064
  Solvation  Ediel_sol  =         0.00000000
  ---------------------------------------------------
  free energy    TOTEN  =        -6.08093389 eV

  energy without entropy =       -6.07843112  energy(sigma->0) =       -6.07968250


--------------------------------------------------------------------------------------------------------




 average (electrostatic) potential at core
  the test charge radii are     0.9952
  (the norm of the test charge is              1.0000)
       1 -89.1801
 
 
 
 E-fermi :  11.5513     XC(G=0): -13.8281     alpha+bet :-16.9269

 Fermi energy:        11.5512634015

 k-point     1 :       0.0500    0.0500    0.0500
  band No.  band energies     occupation 
      1     -40.9298      2.00000
      2     -40.9210      2.00000
      3     -40.9210      2.00000
      4       1.6824      2.00000
      5       7.8538      2.00000
      6       7.9366      2.00000
      7       7.9366      2.00000
      8       9.9489      2.00000
      9       9.9489      2.00000
     10      26.3615      0.00000
     11      30.4730      0.00000
     12      31.1714      0.00000
     13      31.1714      0.00000
     14      36.8847      0.00000
     15      41.5304      0.00000
     16      42.2656      0.00000
     17      42.2656      0.00000
     18      45.4105      0.00000
     19      45.4105      0.00000
     20      46.3245      0.00000
     21      52.2004      0.00000
     22      52.2004      0.00000
     23      52.2902      0.00000
     24      59.1575      0.00000

 k-point     2 :       0.1500    0.0500    0.0500
  band No.  band energies     occupation 
      1     -40.9793      2.00000
      2     -40.9352      2.00000
      3     -40.9251      2.00000
      4       2.1925      2.00000
      5       7.6325      2.00000
      6       8.1118      2.00000
      7       8.1501      2.00000
      8       9.7337      2.00000
      9      10.0053      2.00000
     10      27.0798      0.00000
     11      28.7645      0.00000
     12      31.2625      0.00000
     13      32.2660      0.00000
     14      37.3195      0.00000
     15      39.7141      0.00000
     16      40.2217      0.00000
     17      41.3426      0.00000
     18      43.7904      0.00000
     19      46.8263      0.00000
     20      49.0506      0.00000
     21      51.0696      0.00000
     22      52.2980      0.00000
     23      53.3710      0.00000
     24      60.2698      0.00000

 k-point     3 :       0.2500    0.0500    0.0500
  band No.  band energies     occupation 
      1     -41.0915      2.00000
      2     -40.9550      2.00000
      3     -40.9394      2.00000
      4       3.2873      2.00000
      5       7.4180      2.00000
      6       8.2959      2.00000
      7       8.3337      2.00000
      8       9.7206      2.00000
      9      10.2625      2.00000
     10      25.8296      0.00000
     11      27.9905      0.00000
     12      32.2757      0.00000
     13      34.1893      0.00000
     14      34.2897      0.00000
     15      37.4773      0.00000
     16      37.5265      0.00000
     17      44.0954      0.00000
     18      44.2431      0.00000
     19      47.4720      0.00000
     20      49.5586      0.00000
     21      52.1754      0.00000
     22      52.3032      0.00000
     23      54.0435      0.00000
     24      60.5721      0.00000

 k-point     4 :       0.3500    0.0500    0.0500
  band No.  band energies     occupation 
      1     -41.2183      2.00000
      2     -40.9744      2.00000
      3     -40.9587      2.00000
      4       4.2746      2.00000
      5       7.9697      2.00000
      6       8.1511      2.00000
      7       8.1811      2.00000
      8      10.3595      2.00000
      9      10.9839      2.00000
     10      22.3074      0.00000
     11      27.2258      0.00000
     12      31.6110      0.00000
     13      33.8201      0.00000
     14      35.1152      0.00000
     15      36.8725      0.00000
     16      37.5036      0.00000
     17      44.6996      0.00000
     18      46.8575      0.00000
     19      49.0291      0.00000
     20      50.3464      0.00000
     21      52.3087      0.00000
     22      52.9404      0.00000
     23      54.7551      0.00000
     24      59.5377      0.00000

 k-point     5 :       0.4500    0.0500    0.0500
  band No.  band energies     occupation 
      1     -41.3126      2.00000
      2     -40.9870      2.00000
      3     -40.9755      2.00000
      4       4.5370      2.00000
      5       7.8662      2.00000
      6       7.9623      2.00000
      7       9.7052      2.00000
      8      11.1752      2.00000
      9      11.8434      0.00000
     10      18.6997      0.00000
     11      26.1986      0.00000
     12      30.2067      0.00000
     13      31.2360      0.00000
     14      37.9310      0.00000
     15      38.9155      0.00000
     16      39.5659      0.00000
     17      45.3984      0.00000
     18      46.7200      0.00000
     19      48.1021      0.00000
     20      52.3096      0.00000
     21      52.5799      0.00000
     22      55.3513      0.00000
     23      55.5721      0.00000
     24      56.6499      0.00000

 k-point     6 :      -0.4500    0.0500    0.0500
  band No.  band energies     occupation 
      1     -41.3389      2.00000
      2     -40.9876      2.00000
      3     -40.9830      2.00000
      4       4.5448      2.00000
      5       7.7790      2.00000
      6       7.9112      2.00000
      7      10.4114      2.00000
      8      11.5755      0.49363
      9      12.2925      0.00000
     10      17.2006      0.00000
     11      25.9224      0.00000
     12      30.1138      0.00000
     13      30.1677      0.00000
     14      39.1378      0.00000
     15      39.3466      0.00000
     16      40.8329      0.00000
     17      45.6803      0.00000
     18      46.6675      0.00000
     19      46.7228      0.00000
     20      52.3100      0.00000
     21      53.6880      0.00000
     22      54.3107      0.00000
     23      56.1538      0.00000
     24      57.0731      0.00000

 k-point     7 :      -0.3500    0.0500    0.0500
  band No.  band energies     occupation 
      1     -41.2883      2.00000
      2     -40.9788      2.00000
      3     -40.9755      2.00000
      4       4.5036      2.00000
      5       7.9060      2.00000
      6       8.0547      2.00000
      7       9.0612      2.00000
      8      11.2387      2.00000
      9      11.2927      2.00000
     10      19.8217      0.00000
     11      26.4740      0.00000
     12      30.8066      0.00000
     13      31.6382      0.00000
     14      37.6830      0.00000
     15      37.8518      0.00000
     16      38.7447      0.00000
     17      44.6321      0.00000
     18      47.7164      0.00000
     19      48.4151      0.00000
     20      52.3076      0.00000
     21      52.4381      0.00000
     22      53.7267      0.00000
     23      55.4869      0.00000
     24      57.3046      0.00000

 k-point     8 :      -0.2500    0.0500    0.0500
  band No.  band energies     occupation 
      1     -41.1775      2.00000
      2     -40.9639      2.00000
      3     -40.9566      2.00000
      4       4.0206      2.00000
      5       7.6377      2.00000
      6       8.1831      2.00000
      7       8.2805      2.00000
      8      10.2134      2.00000
      9      10.6097      2.00000
     10      23.5427      0.00000
     11      27.6420      0.00000
     12      32.3132      0.00000
     13      33.7450      0.00000
     14      35.3340      0.00000
     15      36.2345      0.00000
     16      36.8778      0.00000
     17      44.2131      0.00000
     18      47.3780      0.00000
     19      47.8698      0.00000
     20      50.2520      0.00000
     21      51.7135      0.00000
     22      52.3087      0.00000
     23      55.0601      0.00000
     24      60.4881      0.00000

 k-point     9 :      -0.1500    0.0500    0.0500
  band No.  band energies     occupation 
      1     -41.0496      2.00000
      2     -40.9449      2.00000
      3     -40.9378      2.00000
      4       2.8860      2.00000
      5       7.4323      2.00000
      6       8.2891      2.00000
      7       8.3102      2.00000
      8       9.6650      2.00000
      9      10.1127      2.00000
     10      26.8877      0.00000
     11      27.8376      0.00000
     12      32.0886      0.00000
     13      33.0570      0.00000
     14      35.5346      0.00000
     15      37.5901      0.00000
     16      38.9832      0.00000
     17      42.6736      0.00000
     18      44.0334      0.00000
     19      47.7863      0.00000
     20      49.4617      0.00000
     21      51.0759      0.00000
     22      52.2969      0.00000
     23      54.1691      0.00000
     24      60.5067      0.00000

 k-point    10 :      -0.0500    0.0500    0.0500
  band No.  band energies     occupation 
      1     -40.9519      2.00000
      2     -40.9287      2.00000
      3     -40.9262      2.00000
      4       1.9422      2.00000
      5       7.7033      2.00000
      6       8.0558      2.00000
      7       8.0633      2.00000
      8       9.7702      2.00000
      9      10.0232      2.00000
     10      26.7479      0.00000
     11      29.7090      0.00000
     12      31.1921      0.00000
     13      31.4505      0.00000
     14      38.0352      0.00000
     15      40.0737      0.00000
     16      40.3389      0.00000
     17      42.3121      0.00000
     18      43.4649      0.00000
     19      47.3703      0.00000
     20      47.8332      0.00000
     21      50.9597      0.00000
     22      52.2928      0.00000
     23      53.2125      0.00000
     24      60.1810      0.00000

 k-point    11 :       0.1500    0.1500    0.0500
  band No.  band energies     occupation 
      1     -40.9902      2.00000
      2     -40.9424      2.00000
      3     -40.9398      2.00000
      4       2.4450      2.00000
      5       7.4085      2.00000
      6       8.3074      2.00000
      7       8.3141      2.00000
      8       9.4563      2.00000
      9      10.1674      2.00000
     10      27.4737      0.00000
     11      28.9931      0.00000
     12      31.0648      0.00000
     13      31.4478      0.00000
     14      37.7777      0.00000
     15      38.6556      0.00000
     16      40.3621      0.00000
     17      40.8462      0.00000
     18      42.9602      0.00000
     19      48.7056      0.00000
     20      49.4592      0.00000
     21      49.7436      0.00000
     22      52.3022      0.00000
     23      53.9831      0.00000
     24      61.2296      0.00000

 k-point    12 :       0.2500    0.1500    0.0500
  band No.  band energies     occupation 
      1     -41.0684      2.00000
      2     -40.9709      2.00000
      3     -40.9512      2.00000
      4       3.3550      2.00000
      5       7.0665      2.00000
      6       8.4191      2.00000
      7       8.6669      2.00000
      8       9.3521      2.00000
      9      10.4431      2.00000
     10      27.1813      0.00000
     11      28.4173      0.00000
     12      30.6424      0.00000
     13      31.9247      0.00000
     14      35.5024      0.00000
     15      37.8225      0.00000
     16      38.7585      0.00000
     17      42.3949      0.00000
     18      44.2273      0.00000
     19      47.7841      0.00000
     20      48.9490      0.00000
     21      52.2875      0.00000
     22      52.3178      0.00000
     23      55.3472      0.00000
     24      60.9521      0.00000

 k-point    13 :       0.3500    0.1500    0.0500
  band No.  band energies     occupation 
      1     -41.1803      2.00000
      2     -40.9965      2.00000
      3     -40.9695      2.00000
      4       4.4796      2.00000
      5       7.1025      2.00000
      6       8.0102      2.00000
      7       8.6773      2.00000
      8      10.1737      2.00000
      9      11.1510      2.00000
     10      23.7962      0.00000
     11      28.0567      0.00000
     12      29.9264      0.00000
     13      32.1002      0.00000
     14      36.0623      0.00000
     15      36.9823      0.00000
     16      38.9451      0.00000
     17      41.7467      0.00000
     18      47.4240      0.00000
     19      48.8136      0.00000
     20      49.4567      0.00000
     21      52.3037      0.00000
     22      52.5814      0.00000
     23      56.9610      0.00000
     24      58.8882      0.00000

[...]
     13      32.5896      0.00000
     14      37.3305      0.00000
     15      38.1739      0.00000
     16      41.7299      0.00000
     17      45.3273      0.00000
     18      46.7803      0.00000
     19      49.7596      0.00000
     20      51.5182      0.00000
     21      52.3161      0.00000
     22      53.4458      0.00000
     23      56.6569      0.00000
     24      57.5334      0.00000

 k-point   100 :      -0.3500   -0.3500    0.2500
  band No.  band energies     occupation 
      1     -41.2550      2.00000
      2     -41.1632      2.00000
      3     -41.0464      2.00000
      4       5.5248      2.00000
      5       6.2987      2.00000
      6       8.7619      2.00000
      7      10.2217      2.00000
      8      11.4020      1.99998
      9      17.1810      0.00000
     10      17.8578      0.00000
     11      21.7318      0.00000
     12      26.0431      0.00000
     13      31.1816      0.00000
     14      37.7498      0.00000
     15      38.7944      0.00000
     16      40.1305      0.00000
     17      47.4796      0.00000
     18      48.5092      0.00000
     19      48.7058      0.00000
     20      51.2844      0.00000
     21      52.3172      0.00000
     22      52.5970      0.00000
     23      55.5760      0.00000
     24      57.1993      0.00000

 k-point   101 :       0.3500    0.3500    0.3500
  band No.  band energies     occupation 
      1     -41.2576      2.00000
      2     -40.9680      2.00000
      3     -40.9680      2.00000
      4       4.3434      2.00000
      5       8.0511      2.00000
      6       8.0511      2.00000
      7       8.6763      2.00000
      8      10.8734      2.00000
      9      10.8734      2.00000
     10      21.0209      0.00000
     11      26.7127      0.00000
     12      32.1966      0.00000
     13      32.1966      0.00000
     14      36.8118      0.00000
     15      37.2206      0.00000
     16      37.2206      0.00000
     17      46.4095      0.00000
     18      46.4095      0.00000
     19      48.1844      0.00000
     20      52.3055      0.00000
     21      52.3810      0.00000
     22      53.7275      0.00000
     23      53.7275      0.00000
     24      59.5818      0.00000

 k-point   102 :       0.4500    0.3500    0.3500
  band No.  band energies     occupation 
      1     -41.2808      2.00000
      2     -41.0084      2.00000
      3     -40.9724      2.00000
      4       4.7527      2.00000
      5       7.7914      2.00000
      6       8.1887      2.00000
      7       8.6653      2.00000
      8      10.7175      2.00000
      9      12.2329      0.00000
     10      19.9222      0.00000
     11      26.7457      0.00000
     12      29.2894      0.00000
     13      32.1690      0.00000
     14      36.2069      0.00000
     15      38.8530      0.00000
     16      40.0921      0.00000
     17      44.0799      0.00000
     18      46.6787      0.00000
     19      49.6335      0.00000
     20      50.4934      0.00000
     21      52.3049      0.00000
     22      54.9321      0.00000
     23      55.5490      0.00000
     24      56.9408      0.00000

 k-point   103 :      -0.4500    0.3500    0.3500
  band No.  band energies     occupation 
      1     -41.2704      2.00000
      2     -41.0883      2.00000
      3     -40.9921      2.00000
      4       5.6056      2.00000
      5       7.2480      2.00000
      6       8.1102      2.00000
      7       8.7680      2.00000
      8      10.6818      2.00000
      9      14.0452      0.00000
     10      19.3215      0.00000
     11      25.1800      0.00000
     12      28.5386      0.00000
     13      30.7830      0.00000
     14      36.1979      0.00000
     15      38.9014      0.00000
     16      42.5087      0.00000
     17      45.4117      0.00000
     18      46.8638      0.00000
     19      48.2795      0.00000
     20      49.5926      0.00000
     21      52.3147      0.00000
     22      53.1438      0.00000
     23      57.0632      0.00000
     24      57.7950      0.00000

 k-point   104 :      -0.3500    0.3500    0.3500
  band No.  band energies     occupation 
      1     -41.2300      2.00000
      2     -41.1794      2.00000
      3     -41.0209      2.00000
      4       5.9550      2.00000
      5       6.9282      2.00000
      6       7.8890      2.00000
      7       9.5752      2.00000
      8      10.8800      2.00000
      9      15.5485      0.00000
     10      19.6935      0.00000
     11      21.8570      0.00000
     12      28.4177      0.00000
     13      29.9498      0.00000
     14      37.5391      0.00000
     15      38.5750      0.00000
     16      40.7521      0.00000
     17      47.5480      0.00000
     18      48.5519      0.00000
     19      48.5544      0.00000
     20      51.3717      0.00000
     21      51.6878      0.00000
     22      52.3091      0.00000
     23      53.6503      0.00000
     24      58.9560      0.00000

 k-point   105 :       0.4500    0.4500    0.3500
  band No.  band energies     occupation 
      1     -41.3057      2.00000
      2     -40.9979      2.00000
      3     -40.9907      2.00000
      4       4.7585      2.00000
      5       7.6669      2.00000
      6       8.1903      2.00000
      7       8.9731      2.00000
      8      11.5552      0.91045
      9      12.3048      0.00000
     10      18.6951      0.00000
     11      26.5366      0.00000
     12      29.7392      0.00000
     13      30.4175      0.00000
     14      38.1424      0.00000
     15      39.2819      0.00000
     16      40.1013      0.00000
     17      43.1020      0.00000
     18      48.3100      0.00000
     19      48.6210      0.00000
     20      51.1451      0.00000
     21      52.3043      0.00000
     22      54.8707      0.00000
     23      55.7061      0.00000
     24      56.6059      0.00000

 k-point   106 :      -0.4500    0.4500    0.3500
  band No.  band energies     occupation 
      1     -41.2978      2.00000
      2     -41.0560      2.00000
      3     -41.0018      2.00000
      4       5.3214      2.00000
      5       7.2351      2.00000
      6       8.4398      2.00000
      7       8.6809      2.00000
      8      11.3303      2.00000
      9      14.2593      0.00000
     10      17.8291      0.00000
     11      26.6708      0.00000
     12      27.4247      0.00000
     13      30.3062      0.00000
     14      37.5265      0.00000
     15      39.6309      0.00000
     16      42.4316      0.00000
     17      43.2768      0.00000
     18      47.1494      0.00000
     19      49.0104      0.00000
     20      49.9325      0.00000
     21      52.3132      0.00000
     22      53.2711      0.00000
     23      56.8534      0.00000
     24      58.2722      0.00000

 k-point   107 :      -0.3500    0.4500    0.3500
  band No.  band energies     occupation 
      1     -41.2613      2.00000
      2     -41.1346      2.00000
      3     -41.0285      2.00000
      4       6.0547      2.00000
      5       6.7425      2.00000
      6       7.8678      2.00000
      7       9.3599      2.00000
      8      11.2619      2.00000
      9      16.1997      0.00000
     10      17.7257      0.00000
     11      23.9080      0.00000
     12      26.5592      0.00000
     13      31.1729      0.00000
     14      36.9005      0.00000
     15      40.2253      0.00000
     16      41.6123      0.00000
     17      44.2213      0.00000
     18      46.1709      0.00000
     19      50.8833      0.00000
     20      51.5019      0.00000
     21      52.0266      0.00000
     22      52.3079      0.00000
     23      55.3022      0.00000
     24      57.8079      0.00000

 k-point   108 :      -0.4500   -0.4500    0.3500
  band No.  band energies     occupation 
      1     -41.2950      2.00000
      2     -41.0781      2.00000
      3     -41.0105      2.00000
      4       5.4627      2.00000
      5       7.0924      2.00000
      6       8.4086      2.00000
      7       8.8089      2.00000
      8      11.4754      1.96822
      9      15.3860      0.00000
     10      16.9123      0.00000
     11      25.7632      0.00000
     12      28.6246      0.00000
     13      28.8575      0.00000
     14      38.6452      0.00000
     15      38.9169      0.00000
     16      41.6636      0.00000
     17      44.1908      0.00000
     18      47.5782      0.00000
     19      49.1313      0.00000
     20      50.1213      0.00000
     21      52.3111      0.00000
     22      52.7686      0.00000
     23      56.1802      0.00000
     24      58.8439      0.00000

 k-point   109 :       0.4500    0.4500    0.4500
  band No.  band energies     occupation 
      1     -41.3339      2.00000
      2     -40.9795      2.00000
      3     -40.9795      2.00000
      4       4.4646      2.00000
      5       7.8679      2.00000
      6       7.8679      2.00000
      7      10.6898      2.00000
      8      11.4791      1.95869
      9      11.4791      1.95869
     10      17.7718      0.00000
     11      25.8815      0.00000
     12      30.5333      0.00000
     13      30.5333      0.00000
     14      39.0369      0.00000
     15      39.0369      0.00000
     16      39.9779      0.00000
     17      46.3231      0.00000
     18      46.3231      0.00000
     19      46.9487      0.00000
     20      52.3031      0.00000
     21      54.7089      0.00000
     22      54.7089      0.00000
     23      56.0126      0.00000
     24      56.6702      0.00000

 k-point   110 :      -0.4500    0.4500    0.4500
  band No.  band energies     occupation 
      1     -41.3290      2.00000
      2     -41.0104      2.00000
      3     -40.9872      2.00000
      4       4.7742      2.00000
      5       7.6128      2.00000
      6       8.0881      2.00000
      7       9.6726      2.00000
      8      11.4452      1.99731
      9      13.3228      0.00000
     10      17.1511      0.00000
     11      26.2646      0.00000
     12      29.1389      0.00000
     13      30.1531      0.00000
     14      38.7909      0.00000
     15      39.1586      0.00000
     16      41.5565      0.00000
     17      45.7846      0.00000
     18      46.5751      0.00000
     19      46.7560      0.00000
     20      52.3080      0.00000
     21      52.3551      0.00000
     22      52.9756      0.00000
     23      56.8978      0.00000
     24      57.4404      0.00000


--------------------------------------------------------------------------------------------------------


 soft charge-density along one line, spin component           1
         0         1         2         3         4         5         6         7         8         9
 total charge-density along one line
 
 pseudopotential strength for first ion, spin component:           1
-31.553  -0.000  -0.000  10.607   0.000   0.000  -0.000  -0.000
 -0.000 -31.553  -0.000   0.000  10.607   0.000  -0.000  -0.000
 -0.000  -0.000 -31.553   0.000   0.000  10.607  -0.000   0.000
 10.607   0.000   0.000  16.299  -0.000  -0.000   0.000   0.000
  0.000  10.607   0.000  -0.000  16.299  -0.000   0.000   0.000
  0.000   0.000  10.607  -0.000  -0.000  16.299   0.000   0.000
 -0.000  -0.000  -0.000   0.000   0.000   0.000  -3.633   0.000
 -0.000  -0.000   0.000   0.000   0.000   0.000   0.000  -3.633
  0.000   0.000   0.000  -0.000   0.000  -0.000   0.000  -0.000
  0.000  -0.000  -0.000   0.000   0.000   0.000   0.000   0.000
  0.000   0.000  -0.000  -0.000  -0.000   0.000   0.000   0.000
 -0.000  -0.000  -0.000   0.000   0.000   0.000  -3.853   0.000
 -0.000  -0.000   0.000   0.000   0.000   0.000   0.000  -3.853
  0.000  -0.000   0.000  -0.000  -0.000  -0.000   0.000  -0.000
  0.000  -0.000  -0.000   0.000   0.000   0.000   0.000   0.000
  0.000   0.000  -0.000  -0.000  -0.000   0.000   0.000   0.000
  0.000   0.000   0.000   0.000   0.000   0.000   0.000   0.000
 -0.000  -0.000  -0.000  -0.000  -0.000  -0.000  -0.000  -0.000
 total augmentation occupancy for first ion, spin component:           1
  2.002   0.000   0.000  -0.021   0.000   0.000   0.000   0.000   0.000   0.000   0.000   0.000   0.000   0.000   0.000   0.000
  0.000   2.002  -0.000   0.000  -0.021   0.000   0.000   0.000   0.000   0.000   0.000   0.000   0.000   0.000   0.000   0.000
  0.000  -0.000   2.002  -0.000   0.000  -0.021   0.000   0.000   0.000   0.000   0.000   0.000   0.000   0.000   0.000   0.000
 -0.021  -0.000   0.000   0.049   0.000   0.000   0.000   0.000   0.000   0.000   0.000   0.000   0.000   0.000   0.000   0.000
  0.000  -0.021  -0.000   0.000   0.049  -0.000   0.000   0.000   0.000   0.000   0.000   0.000   0.000   0.000   0.000   0.000
 -0.000  -0.000  -0.021   0.000  -0.000   0.049   0.000   0.000   0.000   0.000   0.000   0.000   0.000   0.000   0.000   0.000
  0.000   0.000   0.000   0.000   0.000   0.000   5.225  -0.000   0.000   0.000  -0.000  -2.924  -0.000   0.000  -0.000  -0.000
  0.000   0.000   0.000   0.000   0.000   0.000  -0.000   5.225   0.000   0.000   0.000  -0.000  -2.924   0.000   0.000   0.000
  0.000   0.000   0.000   0.000   0.000   0.000   0.000   0.000   4.307   0.000  -0.000   0.000   0.000  -2.323   0.000   0.000
  0.000   0.000   0.000   0.000   0.000   0.000   0.000   0.000   0.000   5.225  -0.000   0.000  -0.000  -0.000  -2.924   0.000
  0.000   0.000   0.000   0.000   0.000   0.000  -0.000   0.000   0.000   0.000   4.307   0.000   0.000   0.000   0.000  -2.323
  0.000   0.000   0.000   0.000   0.000   0.000  -2.924   0.000  -0.000   0.000   0.000   2.357   0.000   0.000   0.000  -0.000
  0.000   0.000   0.000   0.000   0.000   0.000   0.000  -2.924   0.000   0.000   0.000   0.000   2.357  -0.000  -0.000  -0.000
  0.000   0.000   0.000   0.000   0.000   0.000   0.000   0.000  -2.323   0.000   0.000   0.000  -0.000   2.189  -0.000   0.000
  0.000   0.000   0.000   0.000   0.000   0.000   0.000  -0.000   0.000  -2.924   0.000   0.000  -0.000  -0.000   2.357  -0.000
  0.000   0.000   0.000   0.000   0.000   0.000   0.000   0.000   0.000  -0.000  -2.323  -0.000  -0.000   0.000   0.000   2.189
  0.000   0.000   0.000   0.000   0.000   0.000   0.000   0.000  -0.000   0.000   0.000   0.000   0.000   0.000   0.000   0.000
  0.000   0.000   0.000   0.000   0.000   0.000   0.000   0.000  -0.000  -0.000   0.000   0.000  -0.000  -0.000  -0.000  -0.000


------------------------ aborting loop because EDIFF is reached ----------------------------------------





 total charge

# of ion       s       p       d       tot
------------------------------------------
    1        0.339   6.080   7.063  13.483
 
    CHARGE:  cpu time      0.0174: real time      0.0174
    FORLOC:  cpu time      0.0001: real time      0.0001
    FORNL :  cpu time      0.0063: real time      0.0063
    STRESS:  cpu time      0.1207: real time      0.1214
    FORCOR:  cpu time      0.0020: real time      0.0020
    FORHAR:  cpu time      0.0004: real time      0.0004
    MIXING:  cpu time      0.0002: real time      0.0002
    OFIELD:  cpu time      0.0000: real time      0.0000

  FORCE on cell =-STRESS in cart. coord.  units (eV):
  Direction    XX          YY          ZZ          XY          YZ          ZX
  --------------------------------------------------------------------------------------
  Alpha Z   154.81755   154.81755   154.81755
  Ewald    -711.75169  -711.75169  -711.75169     0.00000    -0.00000    -0.00000
  Hartree   127.63412   127.63412   127.63412     0.00000     0.00000     0.00000
  E(xc)     -85.47644   -85.47644   -85.47644     0.00000     0.00000     0.00000
  Local     122.52157   122.52157   122.52157     0.00000     0.00000     0.00000
  n-local   -30.21456   -27.57577   -32.95796     3.27888    -3.06553     0.17432
  augment    73.33152    73.33152    73.33152     0.00000     0.00000     0.00000
  Kinetic   348.35451   353.52287   345.64189     4.44115    -3.75996    -0.54666
  Fock        0.00000     0.00000     0.00000     0.00000     0.00000     0.00000
  -------------------------------------------------------------------------------------
  Total       0.00028     0.00028     0.00028     0.00000     0.00000    -0.00000
  in kB       0.02914     0.02914     0.02914     0.00000     0.00000    -0.00000
  external pressure =        0.03 kB  Pullay stress =        0.00 kB


 VOLUME and BASIS-vectors are now :
 -----------------------------------------------------------------------------
  energy-cutoff  :      425.00
  volume of cell :       15.50
      direct lattice vectors                 reciprocal lattice vectors
     0.000000000  1.978848629  1.978848629    -0.252672181  0.252672181  0.252672181
     1.978848629  0.000000000  1.978848629     0.252672181 -0.252672181  0.252672181
     1.978848629  1.978848629  0.000000000     0.252672181  0.252672181 -0.252672181

  length of vectors
     2.798514570  2.798514570  2.798514570     0.437641056  0.437641056  0.437641056


 FORCES acting on ions
    electron-ion (+dipol)            ewald-force                    non-local-force                 convergence-correction
 -----------------------------------------------------------------------------------------------
   -.764E-14 -.825E-14 -.639E-15   -.767E-15 0.414E-14 0.264E-14   0.129E-25 0.000E+00 0.000E+00   -.122E-13 -.109E-12 -.365E-13
 -----------------------------------------------------------------------------------------------
   -.764E-14 -.825E-14 -.639E-15   -.767E-15 0.414E-14 0.264E-14   0.129E-25 0.000E+00 0.000E+00   -.122E-13 -.109E-12 -.365E-13
 
 
 POSITION                                       TOTAL-FORCE (eV/Angst)
 -----------------------------------------------------------------------------------
      0.00000      0.00000      0.00000         0.000000     -0.000000     -0.000000
 -----------------------------------------------------------------------------------
    total drift:                               -0.000000     -0.000000     -0.000000


--------------------------------------------------------------------------------------------------------



  FREE ENERGIE OF THE ION-ELECTRON SYSTEM (eV)
  ---------------------------------------------------
  free  energy   TOTEN  =        -6.08093389 eV

  energy  without entropy=       -6.07843112  energy(sigma->0) =       -6.07968250
 


--------------------------------------------------------------------------------------------------------


    POTLOK:  cpu time      0.0046: real time      0.0047


--------------------------------------------------------------------------------------------------------




--------------------------------------------------------------------------------------------------------


  
 reached required accuracy - stopping structural energy minimisation
 writing wavefunctions
     LOOP+:  cpu time      7.7334: real time      8.2926
    4ORBIT:  cpu time      0.0000: real time      0.0000



 total charge

# of ion       s       p       d       tot
------------------------------------------
    1        0.339   6.080   7.063  13.483
 

 total amount of memory used by VASP MPI-rank0    36607. kBytes
=======================================================================

   base      :      30000. kBytes
   nonl-proj :       5327. kBytes
   fftplans  :        147. kBytes
   grid      :        485. kBytes
   one-center:         15. kBytes
   wavefun   :        633. kBytes
 
  
  
 General timing and accounting informations for this job:
 ========================================================
  
                  Total CPU time used (sec):        8.885
                            User time (sec):        8.372
                          System time (sec):        0.513
                         Elapsed time (sec):       11.327
  
                   Maximum memory used (kb):      222912.
                   Average memory used (kb):          N/A
  
                          Minor page faults:        26791
                          Major page faults:           69
                 Voluntary context switches:         2202
