PROCAR lm decomposed
# of k-points:  110         # of bands:   24         # of ions:    1

 k-point     1 :    0.05000000 0.05000000 0.05000000     weight = 0.00200000

band     1 # energy  -40.92982928 # occ.  2.00000000
 
ion      s     py     pz     px    dxy    dyz    dz2    dxz  x2-y2    tot
    1  0.000  0.332  0.332  0.332  0.000  0.000  0.000  0.000  0.000  0.996
 
band     2 # energy  -40.92101764 # occ.  2.00000000
 
ion      s     py     pz     px    dxy    dyz    dz2    dxz  x2-y2    tot
    1  0.000  0.387  0.203  0.406  0.000  0.000  0.000  0.000  0.000  0.996
 
band     3 # energy  -40.92101764 # occ.  2.00000000
 
ion      s     py     pz     px    dxy    dyz    dz2    dxz  x2-y2    tot
    1  0.000  0.277  0.461  0.258  0.000  0.000  0.000  0.000  0.000  0.996
 
band     4 # energy    1.68241073 # occ.  2.00000000
 
ion      s     py     pz     px    dxy    dyz    dz2    dxz  x2-y2    tot
    1  0.389  0.000  0.000  0.000  0.000  0.000  0.000  0.000  0.000  0.391
 
band     5 # energy    7.85379947 # occ.  2.00000000
 
ion      s     py     pz     px    dxy    dyz    dz2    dxz  x2-y2    tot
    1  0.000  0.000  0.000  0.000  0.280  0.280  0.000  0.280  0.000  0.841
 
band     6 # energy    7.93655940 # occ.  2.00000000
 
ion      s     py     pz     px    dxy    dyz    dz2    dxz  x2-y2    tot
    1  0.000  0.000  0.000  0.000  0.563  0.140  0.000  0.141  0.000  0.845
 
band     7 # energy    7.93655940 # occ.  2.00000000
 
ion      s     py     pz     px    dxy    dyz    dz2    dxz  x2-y2    tot
    1  0.000  0.000  0.000  0.000  0.000  0.423  0.000  0.422  0.000  0.845
 
band     8 # energy    9.94893886 # occ.  2.00000000
 
ion      s     py     pz     px    dxy    dyz    dz2    dxz  x2-y2    tot
    1  0.000  0.000  0.000  0.000  0.000  0.000  0.908  0.000  0.000  0.909
 
band     9 # energy    9.94893886 # occ.  2.00000000
 
ion      s     py     pz     px    dxy    dyz    dz2    dxz  x2-y2    tot
    1  0.000  0.000  0.000  0.000  0.000  0.000  0.000  0.000  0.908  0.909
 
band    10 # energy   26.36145391 # occ.  0.00000000
 
ion      s     py     pz     px    dxy    dyz    dz2    dxz  x2-y2    tot
    1  0.000  0.000  0.000  0.000  0.002  0.002  0.000  0.002  0.000  0.007
 
band    11 # energy   30.47303010 # occ.  0.00000000
 
ion      s     py     pz     px    dxy    dyz    dz2    dxz  x2-y2    tot
    1  0.009  0.022  0.022  0.022  0.002  0.002  0.000  0.002  0.000  0.081
 
band    12 # energy   31.17143353 # occ.  0.00000000
 
ion      s     py     pz     px    dxy    dyz    dz2    dxz  x2-y2    tot
    1  0.000  0.011  0.048  0.014  0.001  0.000  0.003  0.000  0.000  0.077
 
band    13 # energy   31.17143353 # occ.  0.00000000
 
ion      s     py     pz     px    dxy    dyz    dz2    dxz  x2-y2    tot
    1  0.000  0.037  0.000  0.034  0.000  0.001  0.000  0.001  0.003  0.077
 
band    14 # energy   36.88465113 # occ.  0.00000000
 
ion      s     py     pz     px    dxy    dyz    dz2    dxz  x2-y2    tot
    1  0.046  0.005  0.005  0.005  0.001  0.001  0.000  0.001  0.000  0.065
 
band    15 # energy   41.53040454 # occ.  0.00000000
 
ion      s     py     pz     px    dxy    dyz    dz2    dxz  x2-y2    tot
    1  0.009  0.054  0.054  0.054  0.101  0.101  0.000  0.101  0.000  0.473
 
band    16 # energy   42.26561759 # occ.  0.00000000
 
ion      s     py     pz     px    dxy    dyz    dz2    dxz  x2-y2    tot
    1  0.000  0.016  0.058  0.014  0.260  0.061  0.002  0.071  0.000  0.481
 
band    17 # energy   42.26561759 # occ.  0.00000000
 
ion      s     py     pz     px    dxy    dyz    dz2    dxz  x2-y2    tot
    1  0.000  0.043  0.000  0.045  0.001  0.200  0.000  0.190  0.002  0.481
 
band    18 # energy   45.41048900 # occ.  0.00000000
 
ion      s     py     pz     px    dxy    dyz    dz2    dxz  x2-y2    tot
    1  0.000  0.082  0.355  0.096  0.057  0.016  0.016  0.013  0.000  0.635
 
band    19 # energy   45.41048900 # occ.  0.00000000
 
ion      s     py     pz     px    dxy    dyz    dz2    dxz  x2-y2    tot
    1  0.000  0.273  0.001  0.259  0.000  0.042  0.000  0.044  0.016  0.635
 
band    20 # energy   46.32448889 # occ.  0.00000000
 
ion      s     py     pz     px    dxy    dyz    dz2    dxz  x2-y2    tot
    1  0.026  0.144  0.144  0.144  0.060  0.060  0.000  0.060  0.000  0.638
 
band    21 # energy   52.20039004 # occ.  0.00000000
 
ion      s     py     pz     px    dxy    dyz    dz2    dxz  x2-y2    tot
    1  0.000  0.007  0.005  0.012  0.000  0.000  0.131  0.000  0.315  0.470
 
band    22 # energy   52.20039004 # occ.  0.00000000
 
ion      s     py     pz     px    dxy    dyz    dz2    dxz  x2-y2    tot
    1  0.000  0.009  0.011  0.004  0.000  0.000  0.315  0.000  0.131  0.470
 
band    23 # energy   52.29016471 # occ.  0.00000000
 
ion      s     py     pz     px    dxy    dyz    dz2    dxz  x2-y2    tot
    1  6.294  0.000  0.000  0.000  0.000  0.000  0.000  0.000  0.000  6.294
 
band    24 # energy   59.15752147 # occ.  0.00000000
 
ion      s     py     pz     px    dxy    dyz    dz2    dxz  x2-y2    tot
    1  0.450  0.016  0.016  0.016  0.000  0.000  0.000  0.000  0.000  0.498
 

 k-point     2 :    0.15000000 0.05000000 0.05000000     weight = 0.00600000

band     1 # energy  -40.97927299 # occ.  2.00000000
 
ion      s     py     pz     px    dxy    dyz    dz2    dxz  x2-y2    tot
    1  0.000  0.454  0.454  0.087  0.000  0.000  0.000  0.000  0.000  0.994
 
band     2 # energy  -40.93519337 # occ.  2.00000000
 
ion      s     py     pz     px    dxy    dyz    dz2    dxz  x2-y2    tot
    1  0.000  0.044  0.044  0.909  0.000  0.000  0.000  0.000  0.000  0.996
 
band     3 # energy  -40.92509337 # occ.  2.00000000
 
ion      s     py     pz     px    dxy    dyz    dz2    dxz  x2-y2    tot
    1  0.000  0.498  0.498  0.000  0.000  0.000  0.000  0.000  0.000  0.996
 
band     4 # energy    2.19251320 # occ.  2.00000000
 
ion      s     py     pz     px    dxy    dyz    dz2    dxz  x2-y2    tot
    1  0.378  0.004  0.004  0.000  0.000  0.002  0.000  0.000  0.000  0.388
 
band     5 # energy    7.63249394 # occ.  2.00000000
 
ion      s     py     pz     px    dxy    dyz    dz2    dxz  x2-y2    tot
    1  0.000  0.000  0.000  0.002  0.394  0.029  0.000  0.394  0.000  0.820
 
band     6 # energy    8.11184039 # occ.  2.00000000
 
ion      s     py     pz     px    dxy    dyz    dz2    dxz  x2-y2    tot
    1  0.000  0.000  0.000  0.000  0.422  0.000  0.003  0.422  0.001  0.849
 
band     7 # energy    8.15007049 # occ.  2.00000000
 
ion      s     py     pz     px    dxy    dyz    dz2    dxz  x2-y2    tot
    1  0.000  0.001  0.001  0.000  0.015  0.788  0.006  0.015  0.018  0.844
 
band     8 # energy    9.73367518 # occ.  2.00000000
 
ion      s     py     pz     px    dxy    dyz    dz2    dxz  x2-y2    tot
    1  0.000  0.000  0.000  0.000  0.002  0.000  0.668  0.002  0.223  0.895
 
band     9 # energy   10.00527630 # occ.  2.00000000
 
ion      s     py     pz     px    dxy    dyz    dz2    dxz  x2-y2    tot
    1  0.000  0.000  0.000  0.000  0.001  0.024  0.220  0.001  0.661  0.906
 
band    10 # energy   27.07977124 # occ.  0.00000000
 
ion      s     py     pz     px    dxy    dyz    dz2    dxz  x2-y2    tot
    1  0.000  0.000  0.000  0.001  0.021  0.003  0.000  0.021  0.000  0.046
 
band    11 # energy   28.76451305 # occ.  0.00000000
 
ion      s     py     pz     px    dxy    dyz    dz2    dxz  x2-y2    tot
    1  0.034  0.027  0.027  0.008  0.003  0.017  0.001  0.003  0.004  0.122
 
band    12 # energy   31.26252507 # occ.  0.00000000
 
ion      s     py     pz     px    dxy    dyz    dz2    dxz  x2-y2    tot
    1  0.000  0.003  0.003  0.092  0.011  0.003  0.001  0.011  0.004  0.128
 
band    13 # energy   32.26595635 # occ.  0.00000000
 
ion      s     py     pz     px    dxy    dyz    dz2    dxz  x2-y2    tot
    1  0.000  0.034  0.034  0.000  0.001  0.000  0.021  0.001  0.007  0.098
 
band    14 # energy   37.31946247 # occ.  0.00000000
 
ion      s     py     pz     px    dxy    dyz    dz2    dxz  x2-y2    tot
    1  0.004  0.102  0.102  0.008  0.005  0.111  0.000  0.005  0.001  0.340
 
band    15 # energy   39.71414868 # occ.  0.00000000
 
ion      s     py     pz     px    dxy    dyz    dz2    dxz  x2-y2    tot
    1  0.008  0.006  0.006  0.141  0.068  0.041  0.002  0.068  0.007  0.347
 
band    16 # energy   40.22171673 # occ.  0.00000000
 
ion      s     py     pz     px    dxy    dyz    dz2    dxz  x2-y2    tot
    1  0.060  0.003  0.003  0.034  0.022  0.009  0.001  0.022  0.002  0.156
 
band    17 # energy   41.34256899 # occ.  0.00000000
 
ion      s     py     pz     px    dxy    dyz    dz2    dxz  x2-y2    tot
    1  0.000  0.081  0.081  0.000  0.136  0.000  0.016  0.136  0.005  0.457
 
band    18 # energy   43.79040681 # occ.  0.00000000
 
ion      s     py     pz     px    dxy    dyz    dz2    dxz  x2-y2    tot
    1  0.000  0.182  0.182  0.000  0.078  0.000  0.042  0.078  0.014  0.575
 
band    19 # energy   46.82632057 # occ.  0.00000000
 
ion      s     py     pz     px    dxy    dyz    dz2    dxz  x2-y2    tot
    1  0.075  0.113  0.113  0.029  0.000  0.254  0.006  0.000  0.018  0.610
 
band    20 # energy   49.05062042 # occ.  0.00000000
 
ion      s     py     pz     px    dxy    dyz    dz2    dxz  x2-y2    tot
    1  0.033  0.004  0.004  0.327  0.127  0.003  0.007  0.127  0.020  0.652
 
band    21 # energy   51.06960263 # occ.  0.00000000
 
ion      s     py     pz     px    dxy    dyz    dz2    dxz  x2-y2    tot
    1  0.006  0.007  0.007  0.062  0.005  0.009  0.068  0.005  0.204  0.372
 
band    22 # energy   52.29795955 # occ.  0.00000000
 
ion      s     py     pz     px    dxy    dyz    dz2    dxz  x2-y2    tot
    1  6.288  0.000  0.000  0.000  0.000  0.000  0.000  0.000  0.000  6.288
 
band    23 # energy   53.37098219 # occ.  0.00000000
 
ion      s     py     pz     px    dxy    dyz    dz2    dxz  x2-y2    tot
    1  0.000  0.057  0.057  0.000  0.001  0.000  0.235  0.001  0.078  0.427
 
band    24 # energy   60.26978358 # occ.  0.00000000
 
ion      s     py     pz     px    dxy    dyz    dz2    dxz  x2-y2    tot
    1  0.000  0.000  0.000  0.000  0.006  0.000  0.030  0.006  0.010  0.052
 

 k-point     3 :    0.25000000 0.05000000 0.05000000     weight = 0.00600000

band     1 # energy  -41.09145160 # occ.  2.00000000
 
ion      s     py     pz     px    dxy    dyz    dz2    dxz  x2-y2    tot
    1  0.000  0.390  0.390  0.211  0.000  0.000  0.000  0.000  0.000  0.990
 
band     2 # energy  -40.95495673 # occ.  2.00000000
 
ion      s     py     pz     px    dxy    dyz    dz2    dxz  x2-y2    tot
    1  0.000  0.106  0.106  0.783  0.000  0.000  0.000  0.000  0.000  0.995
 
band     3 # energy  -40.93943804 # occ.  2.00000000
 
ion      s     py     pz     px    dxy    dyz    dz2    dxz  x2-y2    tot
    1  0.000  0.498  0.498  0.000  0.000  0.000  0.000  0.000  0.000  0.996
 
band     4 # energy    3.28731764 # occ.  2.00000000
 
ion      s     py     pz     px    dxy    dyz    dz2    dxz  x2-y2    tot
    1  0.339  0.008  0.008  0.002  0.011  0.021  0.000  0.011  0.001  0.402
 
band     5 # energy    7.41803019 # occ.  2.00000000
 
ion      s     py     pz     px    dxy    dyz    dz2    dxz  x2-y2    tot
    1  0.009  0.003  0.003  0.006  0.337  0.064  0.000  0.337  0.000  0.760
 
band     6 # energy    8.29589433 # occ.  2.00000000
 
ion      s     py     pz     px    dxy    dyz    dz2    dxz  x2-y2    tot
    1  0.001  0.001  0.001  0.000  0.034  0.572  0.049  0.034  0.146  0.840
 
band     7 # energy    8.33369273 # occ.  2.00000000
 
ion      s     py     pz     px    dxy    dyz    dz2    dxz  x2-y2    tot
    1  0.000  0.000  0.000  0.000  0.346  0.000  0.118  0.346  0.039  0.851
 
band     8 # energy    9.72058252 # occ.  2.00000000
 
ion      s     py     pz     px    dxy    dyz    dz2    dxz  x2-y2    tot
    1  0.000  0.000  0.000  0.000  0.082  0.000  0.540  0.082  0.180  0.885
 
band     9 # energy   10.26248208 # occ.  2.00000000
 
ion      s     py     pz     px    dxy    dyz    dz2    dxz  x2-y2    tot
    1  0.002  0.001  0.001  0.000  0.011  0.180  0.174  0.011  0.522  0.902
 
band    10 # energy   25.82957284 # occ.  0.00000000
 
ion      s     py     pz     px    dxy    dyz    dz2    dxz  x2-y2    tot
    1  0.084  0.030  0.030  0.027  0.029  0.044  0.001  0.029  0.003  0.278
 
band    11 # energy   27.99054545 # occ.  0.00000000
 
ion      s     py     pz     px    dxy    dyz    dz2    dxz  x2-y2    tot
    1  0.000  0.001  0.001  0.008  0.044  0.010  0.000  0.044  0.001  0.110
 
band    12 # energy   32.27571946 # occ.  0.00000000
 
ion      s     py     pz     px    dxy    dyz    dz2    dxz  x2-y2    tot
    1  0.001  0.015  0.015  0.126  0.017  0.030  0.005  0.017  0.016  0.242
 
band    13 # energy   34.18930094 # occ.  0.00000000
 
ion      s     py     pz     px    dxy    dyz    dz2    dxz  x2-y2    tot
    1  0.036  0.077  0.077  0.003  0.000  0.036  0.002  0.000  0.007  0.240
 
band    14 # energy   34.28965172 # occ.  0.00000000
 
ion      s     py     pz     px    dxy    dyz    dz2    dxz  x2-y2    tot
    1  0.000  0.038  0.038  0.000  0.009  0.000  0.052  0.009  0.017  0.164
 
band    15 # energy   37.47727607 # occ.  0.00000000
 
ion      s     py     pz     px    dxy    dyz    dz2    dxz  x2-y2    tot
    1  0.000  0.106  0.106  0.000  0.055  0.000  0.036  0.055  0.012  0.368
 
band    16 # energy   37.52648036 # occ.  0.00000000
 
ion      s     py     pz     px    dxy    dyz    dz2    dxz  x2-y2    tot
    1  0.003  0.000  0.000  0.110  0.021  0.013  0.008  0.021  0.024  0.200
 
band    17 # energy   44.09543700 # occ.  0.00000000
 
ion      s     py     pz     px    dxy    dyz    dz2    dxz  x2-y2    tot
    1  0.086  0.000  0.000  0.000  0.000  0.010  0.003  0.000  0.008  0.107
 
band    18 # energy   44.24312140 # occ.  0.00000000
 
ion      s     py     pz     px    dxy    dyz    dz2    dxz  x2-y2    tot
    1  0.000  0.121  0.121  0.000  0.115  0.000  0.045  0.115  0.015  0.531
 
band    19 # energy   47.47202318 # occ.  0.00000000
 
ion      s     py     pz     px    dxy    dyz    dz2    dxz  x2-y2    tot
    1  0.052  0.062  0.062  0.086  0.001  0.238  0.014  0.001  0.041  0.557
 
band    20 # energy   49.55860251 # occ.  0.00000000
 
ion      s     py     pz     px    dxy    dyz    dz2    dxz  x2-y2    tot
    1  0.106  0.005  0.005  0.022  0.100  0.000  0.028  0.100  0.083  0.450
 
band    21 # energy   52.17539637 # occ.  0.00000000
 
ion      s     py     pz     px    dxy    dyz    dz2    dxz  x2-y2    tot
    1  0.191  0.012  0.012  0.225  0.050  0.035  0.012  0.050  0.035  0.622
 
band    22 # energy   52.30322640 # occ.  0.00000000
 
ion      s     py     pz     px    dxy    dyz    dz2    dxz  x2-y2    tot
    1  6.109  0.000  0.000  0.006  0.002  0.001  0.000  0.002  0.001  6.120
 
band    23 # energy   54.04350027 # occ.  0.00000000
 
ion      s     py     pz     px    dxy    dyz    dz2    dxz  x2-y2    tot
    1  0.000  0.080  0.080  0.000  0.007  0.000  0.123  0.007  0.041  0.338
 
band    24 # energy   60.57207520 # occ.  0.00000000
 
ion      s     py     pz     px    dxy    dyz    dz2    dxz  x2-y2    tot
    1  0.000  0.000  0.000  0.000  0.001  0.000  0.040  0.001  0.013  0.055
 

 k-point     4 :    0.35000000 0.05000000 0.05000000     weight = 0.00600000

band     1 # energy  -41.21833777 # occ.  2.00000000
 
ion      s     py     pz     px    dxy    dyz    dz2    dxz  x2-y2    tot
    1  0.000  0.359  0.359  0.267  0.000  0.000  0.000  0.000  0.000  0.986
 
band     2 # energy  -40.97435338 # occ.  2.00000000
 
ion      s     py     pz     px    dxy    dyz    dz2    dxz  x2-y2    tot
    1  0.000  0.135  0.135  0.725  0.000  0.000  0.000  0.000  0.000  0.995
 
band     3 # energy  -40.95870659 # occ.  2.00000000
 
ion      s     py     pz     px    dxy    dyz    dz2    dxz  x2-y2    tot
    1  0.000  0.498  0.498  0.000  0.000  0.000  0.000  0.000  0.000  0.995
 
band     4 # energy    4.27455707 # occ.  2.00000000
 
ion      s     py     pz     px    dxy    dyz    dz2    dxz  x2-y2    tot
    1  0.238  0.007  0.007  0.002  0.080  0.092  0.000  0.080  0.001  0.507
 
band     5 # energy    7.96965172 # occ.  2.00000000
 
ion      s     py     pz     px    dxy    dyz    dz2    dxz  x2-y2    tot
    1  0.042  0.010  0.010  0.016  0.267  0.009  0.011  0.267  0.032  0.664
 
band     6 # energy    8.15109170 # occ.  2.00000000
 
ion      s     py     pz     px    dxy    dyz    dz2    dxz  x2-y2    tot
    1  0.014  0.007  0.007  0.003  0.000  0.367  0.090  0.000  0.269  0.758
 
band     7 # energy    8.18113811 # occ.  2.00000000
 
ion      s     py     pz     px    dxy    dyz    dz2    dxz  x2-y2    tot
    1  0.000  0.000  0.000  0.000  0.217  0.000  0.306  0.217  0.102  0.842
 
band     8 # energy   10.35949464 # occ.  2.00000000
 
ion      s     py     pz     px    dxy    dyz    dz2    dxz  x2-y2    tot
    1  0.000  0.001  0.001  0.000  0.221  0.000  0.344  0.221  0.115  0.901
 
band     9 # energy   10.98385066 # occ.  2.00000000
 
ion      s     py     pz     px    dxy    dyz    dz2    dxz  x2-y2    tot
    1  0.007  0.002  0.002  0.000  0.027  0.364  0.119  0.027  0.358  0.906
 
band    10 # energy   22.30743609 # occ.  0.00000000
 
ion      s     py     pz     px    dxy    dyz    dz2    dxz  x2-y2    tot
    1  0.172  0.032  0.032  0.034  0.065  0.070  0.001  0.065  0.002  0.474
 
band    11 # energy   27.22575299 # occ.  0.00000000
 
ion      s     py     pz     px    dxy    dyz    dz2    dxz  x2-y2    tot
    1  0.003  0.005  0.005  0.011  0.028  0.005  0.001  0.028  0.003  0.089
 
band    12 # energy   31.61101504 # occ.  0.00000000
 
ion      s     py     pz     px    dxy    dyz    dz2    dxz  x2-y2    tot
    1  0.010  0.049  0.049  0.137  0.027  0.032  0.000  0.027  0.001  0.331
 
band    13 # energy   33.82010976 # occ.  0.00000000
 
ion      s     py     pz     px    dxy    dyz    dz2    dxz  x2-y2    tot
    1  0.000  0.120  0.120  0.000  0.030  0.000  0.015  0.030  0.005  0.319
 
band    14 # energy   35.11522458 # occ.  0.00000000
 
ion      s     py     pz     px    dxy    dyz    dz2    dxz  x2-y2    tot
    1  0.018  0.006  0.006  0.039  0.001  0.017  0.014  0.001  0.041  0.144
 
band    15 # energy   36.87249943 # occ.  0.00000000
 
ion      s     py     pz     px    dxy    dyz    dz2    dxz  x2-y2    tot
    1  0.000  0.011  0.011  0.000  0.016  0.000  0.127  0.016  0.042  0.225
 
band    16 # energy   37.50358165 # occ.  0.00000000
 
ion      s     py     pz     px    dxy    dyz    dz2    dxz  x2-y2    tot
    1  0.023  0.006  0.006  0.024  0.004  0.000  0.017  0.004  0.052  0.136
 
band    17 # energy   44.69957407 # occ.  0.00000000
 
ion      s     py     pz     px    dxy    dyz    dz2    dxz  x2-y2    tot
    1  0.000  0.125  0.125  0.000  0.088  0.000  0.034  0.088  0.011  0.472
 
band    18 # energy   46.85747702 # occ.  0.00000000
 
ion      s     py     pz     px    dxy    dyz    dz2    dxz  x2-y2    tot
    1  0.144  0.013  0.013  0.075  0.000  0.181  0.015  0.000  0.046  0.487
 
band    19 # energy   49.02906028 # occ.  0.00000000
 
ion      s     py     pz     px    dxy    dyz    dz2    dxz  x2-y2    tot
    1  0.077  0.030  0.030  0.056  0.067  0.010  0.014  0.067  0.041  0.391
 
band    20 # energy   50.34635779 # occ.  0.00000000
 
ion      s     py     pz     px    dxy    dyz    dz2    dxz  x2-y2    tot
    1  0.024  0.018  0.018  0.021  0.035  0.003  0.006  0.035  0.018  0.178
 
band    21 # energy   52.30872999 # occ.  0.00000000
 
ion      s     py     pz     px    dxy    dyz    dz2    dxz  x2-y2    tot
    1  6.283  0.000  0.000  0.000  0.000  0.000  0.000  0.000  0.000  6.283
 
band    22 # energy   52.94036499 # occ.  0.00000000
 
ion      s     py     pz     px    dxy    dyz    dz2    dxz  x2-y2    tot
    1  0.009  0.025  0.025  0.122  0.019  0.073  0.002  0.019  0.007  0.302
 
band    23 # energy   54.75505996 # occ.  0.00000000
 
ion      s     py     pz     px    dxy    dyz    dz2    dxz  x2-y2    tot
    1  0.000  0.087  0.087  0.000  0.014  0.000  0.059  0.014  0.020  0.280
 
band    24 # energy   59.53769384 # occ.  0.00000000
 
ion      s     py     pz     px    dxy    dyz    dz2    dxz  x2-y2    tot
    1  0.000  0.002  0.002  0.000  0.043  0.000  0.068  0.043  0.023  0.180
 

 k-point     5 :    0.45000000 0.05000000 0.05000000     weight = 0.00600000

band     1 # energy  -41.31261915 # occ.  2.00000000
 
ion      s     py     pz     px    dxy    dyz    dz2    dxz  x2-y2    tot
    1  0.000  0.340  0.340  0.303  0.000  0.000  0.000  0.000  0.000  0.983
 
band     2 # energy  -40.98695042 # occ.  2.00000000
 
ion      s     py     pz     px    dxy    dyz    dz2    dxz  x2-y2    tot
    1  0.000  0.153  0.153  0.688  0.000  0.000  0.000  0.000  0.000  0.994
 
band     3 # energy  -40.97548586 # occ.  2.00000000
 
ion      s     py     pz     px    dxy    dyz    dz2    dxz  x2-y2    tot
    1  0.000  0.497  0.497  0.000  0.000  0.000  0.000  0.000  0.000  0.995
 
band     4 # energy    4.53695205 # occ.  2.00000000
 
ion      s     py     pz     px    dxy    dyz    dz2    dxz  x2-y2    tot
    1  0.150  0.002  0.002  0.000  0.151  0.156  0.000  0.151  0.000  0.612
 
band     5 # energy    7.86615232 # occ.  2.00000000
 
ion      s     py     pz     px    dxy    dyz    dz2    dxz  x2-y2    tot
    1  0.000  0.000  0.000  0.000  0.055  0.246  0.117  0.055  0.352  0.826
 
band     6 # energy    7.96228181 # occ.  2.00000000
 
ion      s     py     pz     px    dxy    dyz    dz2    dxz  x2-y2    tot
    1  0.000  0.000  0.000  0.000  0.173  0.000  0.365  0.173  0.122  0.833
 
band     7 # energy    9.70522813 # occ.  2.00000000
 
ion      s     py     pz     px    dxy    dyz    dz2    dxz  x2-y2    tot
    1  0.046  0.034  0.034  0.035  0.110  0.008  0.016  0.110  0.048  0.441
 
band     8 # energy   11.17521796 # occ.  2.00000000
 
ion      s     py     pz     px    dxy    dyz    dz2    dxz  x2-y2    tot
    1  0.000  0.000  0.000  0.000  0.275  0.000  0.284  0.275  0.095  0.930
 
band     9 # energy   11.84338360 # occ.  0.00000000
 
ion      s     py     pz     px    dxy    dyz    dz2    dxz  x2-y2    tot
    1  0.019  0.010  0.010  0.006  0.025  0.407  0.085  0.025  0.254  0.839
 
band    10 # energy   18.69967379 # occ.  0.00000000
 
ion      s     py     pz     px    dxy    dyz    dz2    dxz  x2-y2    tot
    1  0.288  0.016  0.016  0.020  0.110  0.096  0.001  0.110  0.002  0.657
 
band    11 # energy   26.19855716 # occ.  0.00000000
 
ion      s     py     pz     px    dxy    dyz    dz2    dxz  x2-y2    tot
    1  0.001  0.004  0.004  0.006  0.007  0.000  0.001  0.007  0.003  0.033
 
band    12 # energy   30.20667397 # occ.  0.00000000
 
ion      s     py     pz     px    dxy    dyz    dz2    dxz  x2-y2    tot
    1  0.005  0.039  0.039  0.144  0.014  0.003  0.000  0.014  0.001  0.261
 
band    13 # energy   31.23595102 # occ.  0.00000000
 
ion      s     py     pz     px    dxy    dyz    dz2    dxz  x2-y2    tot
    1  0.000  0.110  0.110  0.000  0.006  0.000  0.012  0.006  0.004  0.248
 
band    14 # energy   37.93096334 # occ.  0.00000000
 
ion      s     py     pz     px    dxy    dyz    dz2    dxz  x2-y2    tot
    1  0.009  0.000  0.000  0.019  0.000  0.070  0.040  0.000  0.121  0.260
 
band    15 # energy   38.91552328 # occ.  0.00000000
 
ion      s     py     pz     px    dxy    dyz    dz2    dxz  x2-y2    tot
    1  0.000  0.003  0.003  0.000  0.049  0.000  0.191  0.049  0.064  0.358
 
band    16 # energy   39.56588139 # occ.  0.00000000
 
ion      s     py     pz     px    dxy    dyz    dz2    dxz  x2-y2    tot
    1  0.073  0.007  0.007  0.010  0.051  0.008  0.010  0.051  0.031  0.249
 
band    17 # energy   45.39843168 # occ.  0.00000000
 
ion      s     py     pz     px    dxy    dyz    dz2    dxz  x2-y2    tot
    1  0.000  0.152  0.152  0.000  0.029  0.000  0.004  0.029  0.001  0.367
 
band    18 # energy   46.71997772 # occ.  0.00000000
 
ion      s     py     pz     px    dxy    dyz    dz2    dxz  x2-y2    tot
    1  0.083  0.010  0.010  0.158  0.001  0.103  0.013  0.001  0.038  0.415
 
band    19 # energy   48.10206099 # occ.  0.00000000
 
ion      s     py     pz     px    dxy    dyz    dz2    dxz  x2-y2    tot
    1  0.036  0.063  0.063  0.025  0.041  0.006  0.005  0.041  0.015  0.294
 
band    20 # energy   52.30958370 # occ.  0.00000000
 
ion      s     py     pz     px    dxy    dyz    dz2    dxz  x2-y2    tot
    1  6.292  0.000  0.000  0.000  0.000  0.000  0.000  0.000  0.000  6.292
 
band    21 # energy   52.57990037 # occ.  0.00000000
 
ion      s     py     pz     px    dxy    dyz    dz2    dxz  x2-y2    tot
    1  0.007  0.030  0.030  0.064  0.011  0.063  0.002  0.011  0.005  0.223
 
band    22 # energy   55.35132443 # occ.  0.00000000
 
ion      s     py     pz     px    dxy    dyz    dz2    dxz  x2-y2    tot
    1  0.000  0.069  0.069  0.000  0.001  0.000  0.024  0.001  0.008  0.170
 
band    23 # energy   55.57213596 # occ.  0.00000000
 
ion      s     py     pz     px    dxy    dyz    dz2    dxz  x2-y2    tot
    1  0.059  0.001  0.001  0.002  0.001  0.001  0.000  0.001  0.000  0.068
 
band    24 # energy   56.64987876 # occ.  0.00000000
 
ion      s     py     pz     px    dxy    dyz    dz2    dxz  x2-y2    tot
    1  0.000  0.012  0.012  0.000  0.114  0.000  0.006  0.114  0.002  0.262
 

 k-point     6 :   -0.45000000 0.05000000 0.05000000     weight = 0.00600000

band     1 # energy  -41.33887850 # occ.  2.00000000
 
ion      s     py     pz     px    dxy    dyz    dz2    dxz  x2-y2    tot
    1  0.000  0.324  0.324  0.334  0.000  0.000  0.000  0.000  0.000  0.982
 
band     2 # energy  -40.98762179 # occ.  2.00000000
 
ion      s     py     pz     px    dxy    dyz    dz2    dxz  x2-y2    tot
    1  0.000  0.169  0.169  0.656  0.000  0.000  0.000  0.000  0.000  0.994
 
band     3 # energy  -40.98303191 # occ.  2.00000000
 
ion      s     py     pz     px    dxy    dyz    dz2    dxz  x2-y2    tot
    1  0.000  0.497  0.497  0.000  0.000  0.000  0.000  0.000  0.000  0.994
 
band     4 # energy    4.54483679 # occ.  2.00000000
 
ion      s     py     pz     px    dxy    dyz    dz2    dxz  x2-y2    tot
    1  0.132  0.000  0.000  0.001  0.163  0.173  0.000  0.163  0.000  0.633
 
band     5 # energy    7.77903556 # occ.  2.00000000
 
ion      s     py     pz     px    dxy    dyz    dz2    dxz  x2-y2    tot
    1  0.000  0.000  0.000  0.000  0.058  0.208  0.124  0.058  0.373  0.823
 
band     6 # energy    7.91122027 # occ.  2.00000000
 
ion      s     py     pz     px    dxy    dyz    dz2    dxz  x2-y2    tot
    1  0.000  0.000  0.000  0.000  0.170  0.000  0.368  0.170  0.123  0.831
 
band     7 # energy   10.41138179 # occ.  2.00000000
 
ion      s     py     pz     px    dxy    dyz    dz2    dxz  x2-y2    tot
    1  0.002  0.034  0.034  0.033  0.031  0.210  0.033  0.031  0.098  0.504
 
band     8 # energy   11.57546563 # occ.  0.49363280
 
ion      s     py     pz     px    dxy    dyz    dz2    dxz  x2-y2    tot
    1  0.000  0.000  0.000  0.000  0.284  0.000  0.285  0.284  0.095  0.948
 
band     9 # energy   12.29245570 # occ.  0.00000000
 
ion      s     py     pz     px    dxy    dyz    dz2    dxz  x2-y2    tot
    1  0.002  0.025  0.025  0.029  0.071  0.174  0.060  0.071  0.179  0.638
 
band    10 # energy   17.20060063 # occ.  0.00000000
 
ion      s     py     pz     px    dxy    dyz    dz2    dxz  x2-y2    tot
    1  0.372  0.002  0.002  0.000  0.135  0.140  0.000  0.135  0.000  0.785
 
band    11 # energy   25.92238106 # occ.  0.00000000
 
ion      s     py     pz     px    dxy    dyz    dz2    dxz  x2-y2    tot
    1  0.000  0.003  0.003  0.005  0.000  0.004  0.001  0.000  0.004  0.021
 
band    12 # energy   30.11383848 # occ.  0.00000000
 
ion      s     py     pz     px    dxy    dyz    dz2    dxz  x2-y2    tot
    1  0.005  0.036  0.036  0.143  0.003  0.005  0.002  0.003  0.006  0.240
 
band    13 # energy   30.16772051 # occ.  0.00000000
 
ion      s     py     pz     px    dxy    dyz    dz2    dxz  x2-y2    tot
    1  0.000  0.110  0.110  0.000  0.001  0.000  0.004  0.001  0.001  0.227
 
band    14 # energy   39.13784765 # occ.  0.00000000
 
ion      s     py     pz     px    dxy    dyz    dz2    dxz  x2-y2    tot
    1  0.000  0.001  0.001  0.000  0.052  0.000  0.193  0.052  0.064  0.364
 
band    15 # energy   39.34663284 # occ.  0.00000000
 
ion      s     py     pz     px    dxy    dyz    dz2    dxz  x2-y2    tot
    1  0.000  0.000  0.000  0.001  0.014  0.081  0.067  0.014  0.202  0.379
 
band    16 # energy   40.83291396 # occ.  0.00000000
 
ion      s     py     pz     px    dxy    dyz    dz2    dxz  x2-y2    tot
    1  0.127  0.002  0.002  0.000  0.071  0.067  0.000  0.071  0.000  0.341
 
band    17 # energy   45.68027904 # occ.  0.00000000
 
ion      s     py     pz     px    dxy    dyz    dz2    dxz  x2-y2    tot
    1  0.023  0.076  0.076  0.126  0.003  0.001  0.001  0.003  0.002  0.311
 
band    18 # energy   46.66746028 # occ.  0.00000000
 
ion      s     py     pz     px    dxy    dyz    dz2    dxz  x2-y2    tot
    1  0.001  0.007  0.007  0.111  0.006  0.000  0.001  0.006  0.004  0.142
 
band    19 # energy   46.72284285 # occ.  0.00000000
 
ion      s     py     pz     px    dxy    dyz    dz2    dxz  x2-y2    tot
    1  0.000  0.164  0.164  0.000  0.002  0.000  0.017  0.002  0.006  0.354
 
band    20 # energy   52.30996445 # occ.  0.00000000
 
ion      s     py     pz     px    dxy    dyz    dz2    dxz  x2-y2    tot
    1  6.301  0.000  0.000  0.000  0.000  0.000  0.000  0.000  0.000  6.301
 
band    21 # energy   53.68801845 # occ.  0.00000000
 
ion      s     py     pz     px    dxy    dyz    dz2    dxz  x2-y2    tot
    1  0.000  0.040  0.040  0.000  0.052  0.000  0.000  0.052  0.000  0.185
 
band    22 # energy   54.31065694 # occ.  0.00000000
 
ion      s     py     pz     px    dxy    dyz    dz2    dxz  x2-y2    tot
    1  0.007  0.010  0.010  0.041  0.009  0.049  0.001  0.009  0.002  0.139
 