Co-fcc                                  
   1.00000000000000     
     0.000000    1.744467    1.744467
     1.744467    0.000000    1.744467
     1.744467    1.744467    0.000000
   Co
     1
Direct
  0.000000  0.000000  0.000000
 
   32   32   32
 0.10060824395E+03 0.98406033164E+02 0.92099296847E+02 0.82508465121E+02 0.70771800501E+02
 0.58103724766E+02 0.45599757268E+02 0.34130759298E+02 0.24314103495E+02 0.16518169715E+02
 0.10864245320E+02 0.72223277189E+01 0.52251075508E+01 0.43264767106E+01 0.39169914333E+01
 0.36767493229E+01 0.35965794761E+01 0.36767493229E+01 0.39169914333E+01 0.43264767106E+01
 0.52251075508E+01 0.72223277189E+01 0.10864245320E+02 0.16518169715E+02 0.24314103495E+02
 0.34130759298E+02 0.45599757268E+02 0.58103724766E+02 0.70771800501E+02 0.82508465121E+02
 0.92099296847E+02 0.98406033164E+02 0.98406033164E+02 0.94152947248E+02 0.86214181430E+02
 0.75578952979E+02 0.63430069856E+02 0.50922159256E+02 0.39032446291E+02 0.28497784089E+02
 0.19806353821E+02 0.13201396180E+02 0.86772351482E+01 0.59805756699E+01 0.46453829466E+01
 0.40776978991E+01 0.37626453946E+01 0.36040639563E+01 0.36040638093E+01 0.37626450431E+01
 0.40776975551E+01 0.46453828011E+01 0.59805757685E+01 0.86772353592E+01 0.13201396297E+02
 0.19806353723E+02 0.28497783878E+02 0.39032446283E+02 0.50922159836E+02 0.63430071243E+02
 0.75578955042E+02 0.86214183684E+02 0.94152949002E+02 0.98406033827E+02 0.92099296847E+02
 0.86214181430E+02 0.77253627952E+02 0.66270812992E+02 0.54397091463E+02 0.42663379029E+02
 0.31899629077E+02 0.22701369728E+02 0.15425542797E+02 0.10185963313E+02 0.68479349901E+01
 0.50451344894E+01 0.42415248182E+01 0.38550256667E+01 0.36250807780E+01 0.35486098065E+01
 0.36250803817E+01 0.38550251330E+01 0.42415244908E+01 0.50451345644E+01 0.68479353795E+01
 0.10185963698E+02 0.15425542856E+02 0.22701369397E+02 0.31899628675E+02 0.42663379135E+02
 0.54397092614E+02 0.66270815328E+02 0.77253631040E+02 0.86214184371E+02 0.92099298642E+02
 0.94152949002E+02 0.82508465121E+02 0.75578952979E+02 0.66270812992E+02 0.55605573081E+02
 0.44597100436E+02 0.34122614593E+02 0.24859309924E+02 0.17262587584E+02 0.11555419288E+02
 0.77180092108E+01 0.54919766173E+01 0.44220931040E+01 0.39457252222E+01 0.36556973808E+01
 0.35112002409E+01 0.35112000586E+01 0.36556969658E+01 0.39457248816E+01 0.44220931105E+01
 0.54919770150E+01 0.77180097655E+01 0.11555419628E+02 0.17262587447E+02 0.24859309363E+02
 0.34122614008E+02 0.44597100381E+02 0.55605573953E+02 0.66270814764E+02 0.75578955146E+02
 0.82508466902E+02 0.86214184371E+02 0.86214183684E+02 0.70771800501E+02 0.63430069856E+02
 0.54397091463E+02 0.44597100436E+02 0.34895735218E+02 0.26011878089E+02 0.18473775075E+02
 0.12596106532E+02 0.84629504272E+01 0.59223516397E+01 0.46116176731E+01 0.40268867557E+01
 0.36904860194E+01 0.34897815334E+01 0.34236583529E+01 0.34897813952E+01 0.36904858607E+01
 0.40268867332E+01 0.46116178745E+01 0.59223520098E+01 0.84629507799E+01 0.12596106642E+02
 0.18473774800E+02 0.26011877456E+02 0.34895734409E+02 0.44597099710E+02 0.54397091011E+02
 0.63430069721E+02 0.70771800577E+02 0.75578955146E+02 0.77253631040E+02 0.75578955042E+02
 0.58103724766E+02 0.50922159256E+02 0.42663379029E+02 0.34122614593E+02 0.26011878089E+02
 0.18896689791E+02 0.13157852336E+02 0.89650877949E+01 0.62629658837E+01 0.47829484300E+01
 0.40954265786E+01 0.37237938692E+01 0.34804068921E+01 0.33612790066E+01 0.33612790486E+01
 0.34804069830E+01 0.37237939327E+01 0.40954265530E+01 0.47829483220E+01 0.62629657601E+01
 0.89650877288E+01 0.13157852317E+02 0.18896689683E+02 0.26011877657E+02 0.34122613612E+02
 0.42663377433E+02 0.50922157228E+02 0.58103722727E+02 0.63430069721E+02 0.66270814764E+02
 0.66270815328E+02 0.63430071243E+02 0.45599757268E+02 0.39032446291E+02 0.31899629077E+02
 0.24859309924E+02 0.18473775075E+02 0.13157852336E+02 0.91422710485E+01 0.64511658415E+01
 0.49031661971E+01 0.41481774820E+01 0.37508356337E+01 0.34784582511E+01 0.33202724990E+01
 0.32688335625E+01 0.33202727433E+01 0.34784585095E+01 0.37508356107E+01 0.41481770319E+01
 0.49031654534E+01 0.64511651514E+01 0.91422707587E+01 0.13157852531E+02 0.18473775461E+02
 0.24859309941E+02 0.31899628183E+02 0.39032444313E+02 0.45599754569E+02 0.50922157228E+02
 0.54397091011E+02 0.55605573953E+02 0.54397092614E+02 0.50922159836E+02 0.34130759298E+02
 0.28497784089E+02 0.22701369728E+02 0.17262587584E+02 0.12596106532E+02 0.89650877949E+01
 0.64511658415E+01 0.49464639945E+01 0.41774723090E+01 0.37682777527E+01 0.34797326209E+01
 0.32957578906E+01 0.32075765677E+01 0.32075767676E+01 0.32957583178E+01 0.34797328685E+01
 0.37682774642E+01 0.41774714319E+01 0.49464628640E+01 0.64511649980E+01 0.89650876686E+01
 0.12596107154E+02 0.17262588515E+02 0.22701370285E+02 0.28497783710E+02 0.34130757887E+02
 0.39032444313E+02 0.42663377433E+02 0.44597099710E+02 0.44597100381E+02 0.42663379135E+02
 0.39032446283E+02 0.24314103495E+02 0.19806353821E+02 0.15425542797E+02 0.11555419288E+02
 0.84629504272E+01 0.62629658837E+01 0.49031661971E+01 0.41774723090E+01 0.37742815839E+01
 0.34811630537E+01 0.32831753639E+01 0.31713593395E+01 0.31354984832E+01 0.31713597307E+01
 0.32831758607E+01 0.34811632602E+01 0.37742812510E+01 0.41774714993E+01 0.49031652810E+01
 0.62629653388E+01 0.84629505749E+01 0.11555420116E+02 0.15425543944E+02 0.19806354794E+02
 0.24314103924E+02 0.28497783710E+02 0.31899628183E+02 0.34122613612E+02 0.34895734409E+02
 0.34122614008E+02 0.31899628675E+02 0.28497783878E+02 0.16518169715E+02 0.13201396180E+02
 0.10185963313E+02 0.77180092108E+01 0.59223516397E+01 0.47829484300E+01 0.41481774820E+01
 0.37682777527E+01 0.34811630537E+01 0.32793570801E+01 0.31547987100E+01 0.30962439411E+01
 0.30962441083E+01 0.31547991295E+01 0.32793575601E+01 0.34811633749E+01 0.37682777901E+01
 0.41481772527E+01 0.47829480975E+01 0.59223514345E+01 0.77180093230E+01 0.10185963835E+02
 0.13201397058E+02 0.16518170789E+02 0.19806354794E+02 0.22701370285E+02 0.24859309941E+02
 0.26011877657E+02 0.26011877456E+02 0.24859309363E+02 0.22701369397E+02 0.19806353723E+02
 0.10864245320E+02 0.86772351482E+01 0.68479349901E+01 0.54919766173E+01 0.46116176731E+01
 0.40954265786E+01 0.37508356337E+01 0.34797326209E+01 0.32831753639E+01 0.31547987100E+01
 0.30838891422E+01 0.30614049239E+01 0.30838892319E+01 0.31547989318E+01 0.32831757552E+01
 0.34797331485E+01 0.37508361748E+01 0.40954269622E+01 0.46116177643E+01 0.54919764324E+01
 0.68479346901E+01 0.86772350129E+01 0.10864245594E+02 0.13201397058E+02 0.15425543944E+02
 0.17262588515E+02 0.18473775461E+02 0.18896689683E+02 0.18473774800E+02 0.17262587447E+02
 0.15425542856E+02 0.13201396297E+02 0.72223277189E+01 0.59805756699E+01 0.50451344894E+01
 0.44220931040E+01 0.40268867557E+01 0.37237938692E+01 0.34784582511E+01 0.32957578906E+01
 0.31713593395E+01 0.30962439411E+01 0.30614049239E+01 0.30614048062E+01 0.30962436935E+01
 0.31713591967E+01 0.32957580721E+01 0.34784587969E+01 0.37237945922E+01 0.40268873352E+01
 0.44220932418E+01 0.50451341130E+01 0.59805749578E+01 0.72223270196E+01 0.86772350129E+01
 0.10185963835E+02 0.11555420116E+02 0.12596107154E+02 0.13157852531E+02 0.13157852317E+02
 0.12596106642E+02 0.11555419628E+02 0.10185963698E+02 0.86772353592E+01 0.52251075508E+01
 0.46453829466E+01 0.42415248182E+01 0.39457252222E+01 0.36904860194E+01 0.34804068921E+01
 0.33202724990E+01 0.32075765677E+01 0.31354984832E+01 0.30962441083E+01 0.30838892319E+01
 0.30962436935E+01 0.31354978634E+01 0.32075760522E+01 0.33202723255E+01 0.34804071127E+01
 0.36904864573E+01 0.39457256009E+01 0.42415248696E+01 0.46453825688E+01 0.52251068482E+01
 0.59805749578E+01 0.68479346901E+01 0.77180093230E+01 0.84629505749E+01 0.89650876686E+01
 0.91422707587E+01 0.89650877288E+01 0.84629507799E+01 0.77180097655E+01 0.68479353795E+01
 0.59805757685E+01 0.43264767106E+01 0.40776978991E+01 0.38550256667E+01 0.36556973808E+01
 0.34897815334E+01 0.33612790066E+01 0.32688335625E+01 0.32075767676E+01 0.31713597307E+01
 0.31547991295E+01 0.31547989318E+01 0.31713591967E+01 0.32075760522E+01 0.32688328634E+01
 0.33612784893E+01 0.34897812920E+01 0.36556973901E+01 0.38550258193E+01 0.40776980521E+01
 0.43264767087E+01 0.46453825688E+01 0.50451341130E+01 0.54919764324E+01 0.59223514345E+01
 0.62629653388E+01 0.64511649980E+01 0.64511651514E+01 0.62629657601E+01 0.59223520098E+01
 0.54919770150E+01 0.50451345644E+01 0.46453828011E+01 0.39169914333E+01 0.37626453946E+01
 0.36250807780E+01 0.35112002409E+01 0.34236583529E+01 0.33612790486E+01 0.33202727433E+01
 0.32957583178E+01 0.32831758607E+01 0.32793575601E+01 0.32831757552E+01 0.32957580721E+01
 0.33202723255E+01 0.33612784893E+01 0.34236577563E+01 0.35111997749E+01 0.36250805923E+01
 0.37626455372E+01 0.39169918384E+01 0.40776980521E+01 0.42415248696E+01 0.44220932418E+01
 0.46116177643E+01 0.47829480975E+01 0.49031652810E+01 0.49464628640E+01 0.49031654534E+01
 0.47829483220E+01 0.46116178745E+01 0.44220931105E+01 0.42415244908E+01 0.40776975551E+01
 0.36767493229E+01 0.36040639563E+01 0.35486098065E+01 0.35112000586E+01 0.34897813952E+01
 0.34804069830E+01 0.34784585095E+01 0.34797328685E+01 0.34811632602E+01 0.34811633749E+01
 0.34797331485E+01 0.34784587969E+01 0.34804071127E+01 0.34897812920E+01 0.35111997749E+01
 0.35486095070E+01 0.36040638408E+01 0.36767495147E+01 0.37626455372E+01 0.38550258193E+01
 0.39457256009E+01 0.40268873352E+01 0.40954269622E+01 0.41481772527E+01 0.41774714993E+01
 0.41774714319E+01 0.41481770319E+01 0.40954265530E+01 0.40268867332E+01 0.39457248816E+01
 0.38550251330E+01 0.37626450431E+01 0.35965794761E+01 0.36040638093E+01 0.36250803817E+01
 0.36556969658E+01 0.36904858607E+01 0.37237939327E+01 0.37508356107E+01 0.37682774642E+01
 0.37742812510E+01 0.37682777901E+01 0.37508361748E+01 0.37237945922E+01 0.36904864573E+01
 0.36556973901E+01 0.36250805923E+01 0.36040638408E+01 0.35965794375E+01 0.36040638408E+01
 0.36250805923E+01 0.36556973901E+01 0.36904864573E+01 0.37237945922E+01 0.37508361748E+01
 0.37682777901E+01 0.37742812510E+01 0.37682774642E+01 0.37508356107E+01 0.37237939327E+01
 0.36904858607E+01 0.36556969658E+01 0.36250803817E+01 0.36040638093E+01 0.36767493229E+01
 0.37626450431E+01 0.38550251330E+01 0.39457248816E+01 0.40268867332E+01 0.40954265530E+01
 0.41481770319E+01 0.41774714319E+01 0.41774714993E+01 0.41481772527E+01 0.40954269622E+01
 0.40268873352E+01 0.39457256009E+01 0.38550258193E+01 0.37626455372E+01 0.36767495147E+01
 0.36040638408E+01 0.35486095070E+01 0.35111997749E+01 0.34897812920E+01 0.34804071127E+01
 0.34784587969E+01 0.34797331485E+01 0.34811633749E+01 0.34811632602E+01 0.34797328685E+01
 0.34784585095E+01 0.34804069830E+01 0.34897813952E+01 0.35112000586E+01 0.35486098065E+01
 0.36040639563E+01 0.39169914333E+01 0.40776975551E+01 0.42415244908E+01 0.44220931105E+01
 0.46116178745E+01 0.47829483220E+01 0.49031654534E+01 0.49464628640E+01 0.49031652810E+01
 0.47829480975E+01 0.46116177643E+01 0.44220932418E+01 0.42415248696E+01 0.40776980521E+01
 0.39169918384E+01 0.37626455372E+01 0.36250805923E+01 0.35111997749E+01 0.34236577563E+01
 0.33612784893E+01 0.33202723255E+01 0.32957580721E+01 0.32831757552E+01 0.32793575601E+01
 0.32831758607E+01 0.32957583178E+01 0.33202727433E+01 0.33612790486E+01 0.34236583529E+01
 0.35112002409E+01 0.36250807780E+01 0.37626453946E+01 0.43264767106E+01 0.46453828011E+01
 0.50451345644E+01 0.54919770150E+01 0.59223520098E+01 0.62629657601E+01 0.64511651514E+01
 0.64511649980E+01 0.62629653388E+01 0.59223514345E+01 0.54919764324E+01 0.50451341130E+01
 0.46453825688E+01 0.43264767087E+01 0.40776980521E+01 0.38550258193E+01 0.36556973901E+01
 0.34897812920E+01 0.33612784893E+01 0.32688328634E+01 0.32075760522E+01 0.31713591967E+01
 0.31547989318E+01 0.31547991295E+01 0.31713597307E+01 0.32075767676E+01 0.32688335625E+01
 0.33612790066E+01 0.34897815334E+01 0.36556973808E+01 0.38550256667E+01 0.40776978991E+01
 0.52251075508E+01 0.59805757685E+01 0.68479353795E+01 0.77180097655E+01 0.84629507799E+01
 0.89650877288E+01 0.91422707587E+01 0.89650876686E+01 0.84629505749E+01 0.77180093230E+01
 0.68479346901E+01 0.59805749578E+01 0.52251068482E+01 0.46453825688E+01 0.42415248696E+01
 0.39457256009E+01 0.36904864573E+01 0.34804071127E+01 0.33202723255E+01 0.32075760522E+01
 0.31354978634E+01 0.30962436935E+01 0.30838892319E+01 0.30962441083E+01 0.31354984832E+01
 0.32075765677E+01 0.33202724990E+01 0.34804068921E+01 0.36904860194E+01 0.39457252222E+01
 0.42415248182E+01 0.46453829466E+01 0.72223277189E+01 0.86772353592E+01 0.10185963698E+02
 0.11555419628E+02 0.12596106642E+02 0.13157852317E+02 0.13157852531E+02 0.12596107154E+02
 0.11555420116E+02 0.10185963835E+02 0.86772350129E+01 0.72223270196E+01 0.59805749578E+01
 0.50451341130E+01 0.44220932418E+01 0.40268873352E+01 0.37237945922E+01 0.34784587969E+01
 0.32957580721E+01 0.31713591967E+01 0.30962436935E+01 0.30614048062E+01 0.30614049239E+01
 0.30962439411E+01 0.31713593395E+01 0.32957578906E+01 0.34784582511E+01 0.37237938692E+01
 0.40268867557E+01 0.44220931040E+01 0.50451344894E+01 0.59805756699E+01 0.10864245320E+02
 0.13201396297E+02 0.15425542856E+02 0.17262587447E+02 0.18473774800E+02 0.18896689683E+02
 0.18473775461E+02 0.17262588515E+02 0.15425543944E+02 0.13201397058E+02 0.10864245594E+02
 0.86772350129E+01 0.68479346901E+01 0.54919764324E+01 0.46116177643E+01 0.40954269622E+01
 0.37508361748E+01 0.34797331485E+01 0.32831757552E+01 0.31547989318E+01 0.30838892319E+01
 0.30614049239E+01 0.30838891422E+01 0.31547987100E+01 0.32831753639E+01 0.34797326209E+01
 0.37508356337E+01 0.40954265786E+01 0.46116176731E+01 0.54919766173E+01 0.68479349901E+01
 0.86772351482E+01 0.16518169715E+02 0.19806353723E+02 0.22701369397E+02 0.24859309363E+02
 0.26011877456E+02 0.26011877657E+02 0.24859309941E+02 0.22701370285E+02 0.19806354794E+02
 0.16518170789E+02 0.13201397058E+02 0.10185963835E+02 0.77180093230E+01 0.59223514345E+01
 0.47829480975E+01 0.41481772527E+01 0.37682777901E+01 0.34811633749E+01 0.32793575601E+01
 0.31547991295E+01 0.30962441083E+01 0.30962439411E+01 0.31547987100E+01 0.32793570801E+01
 0.34811630537E+01 0.37682777527E+01 0.41481774820E+01 0.47829484300E+01 0.59223516397E+01
 0.77180092108E+01 0.10185963313E+02 0.13201396180E+02 0.24314103495E+02 0.28497783878E+02
 0.31899628675E+02 0.34122614008E+02 0.34895734409E+02 0.34122613612E+02 0.31899628183E+02
 0.28497783710E+02 0.24314103924E+02 0.19806354794E+02 0.15425543944E+02 0.11555420116E+02
 0.84629505749E+01 0.62629653388E+01 0.49031652810E+01 0.41774714993E+01 0.37742812510E+01
 0.34811632602E+01 0.32831758607E+01 0.31713597307E+01 0.31354984832E+01 0.31713593395E+01
 0.32831753639E+01 0.34811630537E+01 0.37742815839E+01 0.41774723090E+01 0.49031661971E+01
 0.62629658837E+01 0.84629504272E+01 0.11555419288E+02 0.15425542797E+02 0.19806353821E+02
 0.34130759298E+02 0.39032446283E+02 0.42663379135E+02 0.44597100381E+02 0.44597099710E+02
 0.42663377433E+02 0.39032444313E+02 0.34130757887E+02 0.28497783710E+02 0.22701370285E+02
 0.17262588515E+02 0.12596107154E+02 0.89650876686E+01 0.64511649980E+01 0.49464628640E+01
 0.41774714319E+01 0.37682774642E+01 0.34797328685E+01 0.32957583178E+01 0.32075767676E+01
 0.32075765677E+01 0.32957578906E+01 0.34797326209E+01 0.37682777527E+01 0.41774723090E+01
 0.49464639945E+01 0.64511658415E+01 0.89650877949E+01 0.12596106532E+02 0.17262587584E+02
 0.22701369728E+02 0.28497784089E+02 0.45599757268E+02 0.50922159836E+02 0.54397092614E+02
 0.55605573953E+02 0.54397091011E+02 0.50922157228E+02 0.45599754569E+02 0.39032444313E+02
 0.31899628183E+02 0.24859309941E+02 0.18473775461E+02 0.13157852531E+02 0.91422707587E+01
 0.64511651514E+01 0.49031654534E+01 0.41481770319E+01 0.37508356107E+01 0.34784585095E+01
 0.33202727433E+01 0.32688335625E+01 0.33202724990E+01 0.34784582511E+01 0.37508356337E+01
 0.41481774820E+01 0.49031661971E+01 0.64511658415E+01 0.91422710485E+01 0.13157852336E+02
 0.18473775075E+02 0.24859309924E+02 0.31899629077E+02 0.39032446291E+02 0.58103724766E+02
 0.63430071243E+02 0.66270815328E+02 0.66270814764E+02 0.63430069721E+02 0.58103722727E+02
 0.50922157228E+02 0.42663377433E+02 0.34122613612E+02 0.26011877657E+02 0.18896689683E+02
 0.13157852317E+02 0.89650877288E+01 0.62629657601E+01 0.47829483220E+01 0.40954265530E+01
 0.37237939327E+01 0.34804069830E+01 0.33612790486E+01 0.33612790066E+01 0.34804068921E+01
 0.37237938692E+01 0.40954265786E+01 0.47829484300E+01 0.62629658837E+01 0.89650877949E+01
 0.13157852336E+02 0.18896689791E+02 0.26011878089E+02 0.34122614593E+02 0.42663379029E+02
 0.50922159256E+02 0.70771800501E+02 0.75578955042E+02 0.77253631040E+02 0.75578955146E+02
 0.70771800577E+02 0.63430069721E+02 0.54397091011E+02 0.44597099710E+02 0.34895734409E+02
 0.26011877456E+02 0.18473774800E+02 0.12596106642E+02 0.84629507799E+01 0.59223520098E+01
 0.46116178745E+01 0.40268867332E+01 0.36904858607E+01 0.34897813952E+01 0.34236583529E+01
 0.34897815334E+01 0.36904860194E+01 0.40268867557E+01 0.46116176731E+01 0.59223516397E+01
 0.84629504272E+01 0.12596106532E+02 0.18473775075E+02 0.26011878089E+02 0.34895735218E+02
 0.44597100436E+02 0.54397091463E+02 0.63430069856E+02 0.82508465121E+02 0.86214183684E+02
 0.86214184371E+02 0.82508466902E+02 0.75578955146E+02 0.66270814764E+02 0.55605573953E+02
 0.44597100381E+02 0.34122614008E+02 0.24859309363E+02 0.17262587447E+02 0.11555419628E+02
 0.77180097655E+01 0.54919770150E+01 0.44220931105E+01 0.39457248816E+01 0.36556969658E+01
 0.35112000586E+01 0.35112002409E+01 0.36556973808E+01 0.39457252222E+01 0.44220931040E+01
 0.54919766173E+01 0.77180092108E+01 0.11555419288E+02 0.17262587584E+02 0.24859309924E+02
 0.34122614593E+02 0.44597100436E+02 0.55605573081E+02 0.66270812992E+02 0.75578952979E+02
 0.92099296847E+02 0.94152949002E+02 0.92099298642E+02 0.86214184371E+02 0.77253631040E+02
 0.66270815328E+02 0.54397092614E+02 0.42663379135E+02 0.31899628675E+02 0.22701369397E+02
 0.15425542856E+02 0.10185963698E+02 0.68479353795E+01 0.50451345644E+01 0.42415244908E+01
 0.38550251330E+01 0.36250803817E+01 0.35486098065E+01 0.36250807780E+01 0.38550256667E+01
 0.42415248182E+01 0.50451344894E+01 0.68479349901E+01 0.10185963313E+02 0.15425542797E+02
 0.22701369728E+02 0.31899629077E+02 0.42663379029E+02 0.54397091463E+02 0.66270812992E+02
 0.77253627952E+02 0.86214181430E+02 0.98406033164E+02 0.98406033827E+02 0.94152949002E+02
 0.86214183684E+02 0.75578955042E+02 0.63430071243E+02 0.50922159836E+02 0.39032446283E+02
 0.28497783878E+02 0.19806353723E+02 0.13201396297E+02 0.86772353592E+01 0.59805757685E+01
 0.46453828011E+01 0.40776975551E+01 0.37626450431E+01 0.36040638093E+01 0.36040639563E+01
 0.37626453946E+01 0.40776978991E+01 0.46453829466E+01 0.59805756699E+01 0.86772351482E+01
 0.13201396180E+02 0.19806353821E+02 0.28497784089E+02 0.39032446291E+02 0.50922159256E+02
 0.63430069856E+02 0.75578952979E+02 0.86214181430E+02 0.94152947248E+02 0.98406033164E+02
 0.94152947248E+02 0.86214181430E+02 0.75578952979E+02 0.63430069856E+02 0.50922159256E+02
 0.39032446291E+02 0.28497784089E+02 0.19806353821E+02 0.13201396180E+02 0.86772351482E+01
 0.59805756699E+01 0.46453829466E+01 0.40776978991E+01 0.37626453946E+01 0.36040639563E+01
 0.36040638093E+01 0.37626450431E+01 0.40776975551E+01 0.46453828011E+01 0.59805757685E+01
 0.86772353592E+01 0.13201396297E+02 0.19806353723E+02 0.28497783878E+02 0.39032446283E+02
 0.50922159836E+02 0.63430071243E+02 0.75578955042E+02 0.86214183684E+02 0.94152949002E+02
 0.98406033827E+02 0.94152947248E+02 0.88138642477E+02 0.78983427807E+02 0.67764924219E+02
 0.55638756747E+02 0.43655477839E+02 0.32658652437E+02 0.23252564106E+02 0.15800086954E+02
 0.10419379663E+02 0.69783063200E+01 0.51102589936E+01 0.42752622282E+01 0.38810785249E+01
 0.36474501705E+01 0.35696692578E+01 0.36474496758E+01 0.38810778428E+01 0.42752617690E+01
 0.51102589931E+01 0.69783066767E+01 0.10419380008E+02 0.15800086922E+02 0.23252563638E+02
 0.32658651931E+02 0.43655477992E+02 0.55638758200E+02 0.67764927121E+02 0.78983431616E+02
 0.88138646093E+02 0.94152949450E+02 0.96251944441E+02 0.86214181430E+02 0.78983427807E+02
 0.69274613048E+02 0.58154116486E+02 0.46676190318E+02 0.35748830274E+02 0.26070460659E+02
 0.18111185430E+02 0.12104898684E+02 0.80393958439E+01 0.56589066460E+01 0.45038950182E+01
 0.39996312308E+01 0.37006817718E+01 0.35512596724E+01 0.35512593613E+01 0.37006810424E+01
 0.39996305597E+01 0.45038948313E+01 0.56589070240E+01 0.80393964495E+01 0.12104898978E+02
 0.18111185056E+02 0.26070459751E+02 0.35748829490E+02 0.46676190523E+02 0.58154118267E+02
 0.69274616295E+02 0.78983431634E+02 0.86214184518E+02 0.90082185597E+02 0.90082184413E+02
 0.75578952979E+02 0.67764924219E+02 0.58154116486E+02 0.47726999948E+02 0.37396714431E+02
 0.27917948161E+02 0.19845158850E+02 0.13513000360E+02 0.90205041043E+01 0.62239219971E+01
 0.47591289740E+01 0.41098054895E+01 0.37577772882E+01 0.35469799870E+01 0.34773286931E+01
 0.35469795007E+01 0.37577766507E+01 0.41098051483E+01 0.47591291847E+01 0.62239226352E+01
 0.90205047155E+01 0.13513000435E+02 0.19845158167E+02 0.27917946969E+02 0.37396713376E+02
 0.47726999725E+02 0.58154117448E+02 0.67764926126E+02 0.75578955070E+02 0.80697369525E+02
 0.82480916464E+02 0.80697368171E+02 0.63430069856E+02 0.55638756747E+02 0.46676190318E+02
 0.37396714431E+02 0.28561453101E+02 0.20774669587E+02 0.14448000236E+02 0.97754078596E+01
 0.67173941268E+01 0.50094887926E+01 0.42118243712E+01 0.38121398847E+01 0.35528683177E+01
 0.34252738630E+01 0.34252736934E+01 0.35528679192E+01 0.38121395193E+01 0.42118242914E+01
 0.50094890772E+01 0.67173946163E+01 0.97754082295E+01 0.14448000164E+02 0.20774668930E+02
 0.28561451971E+02 0.37396713142E+02 0.46676189220E+02 0.55638756060E+02 0.63430069584E+02
 0.69209439249E+02 0.72292474178E+02 0.72292474159E+02 0.69209439277E+02 0.50922159256E+02
 0.43655477839E+02 0.35748830274E+02 0.27917948161E+02 0.20774669587E+02 0.14775592068E+02
 0.10185812173E+02 0.70543574099E+01 0.52111761778E+01 0.43005064175E+01 0.38578452077E+01
 0.35640099732E+01 0.33919549437E+01 0.33357838977E+01 0.33919548340E+01 0.35640097716E+01
 0.38578449586E+01 0.43005061953E+01 0.52111760685E+01 0.70543574617E+01 0.10185812346E+02
 0.14775592202E+02 0.20774669437E+02 0.27917947484E+02 0.35748828949E+02 0.43655475966E+02
 0.50922157174E+02 0.56806795966E+02 0.60647913632E+02 0.61983705051E+02 0.60647914683E+02
 0.56806797772E+02 0.39032446291E+02 0.32658652437E+02 0.26070460659E+02 0.19845158850E+02
 0.14448000236E+02 0.10185812173E+02 0.71740122987E+01 0.53239050661E+01 0.43623243825E+01
 0.38904901960E+01 0.35756881433E+01 0.33728012971E+01 0.32749495257E+01 0.32749495770E+01
 0.33728013646E+01 0.35756880381E+01 0.38904897862E+01 0.43623237321E+01 0.53239044478E+01
 0.71740120472E+01 0.10185812469E+02 0.14448000934E+02 0.19845159491E+02 0.26070460678E+02
 0.32658651462E+02 0.39032444391E+02 0.44564117243E+02 0.48655922061E+02 0.50833673222E+02
 0.50833673933E+02 0.48655923913E+02 0.44564119524E+02 0.28497784089E+02 0.23252564106E+02
 0.18111185430E+02 0.13513000360E+02 0.97754078596E+01 0.70543574099E+01 0.53239050661E+01
 0.43846102563E+01 0.39074056983E+01 0.35842095746E+01 0.33631527370E+01 0.32373067995E+01
 0.31967860139E+01 0.32373070348E+01 0.33631529589E+01 0.35842094635E+01 0.39074051079E+01
 0.43846093556E+01 0.53239042939E+01 0.70543572291E+01 0.97754084848E+01 0.13513001585E+02
 0.18111186697E+02 0.23252564795E+02 0.28497783843E+02 0.33338134741E+02 0.37259798315E+02
 0.39817218100E+02 0.40705834300E+02 0.39817219007E+02 0.37259799648E+02 0.33338135804E+02
 0.19806353821E+02 0.15800086954E+02 0.12104898684E+02 0.90205041043E+01 0.67173941268E+01
 0.52111761778E+01 0.43623243825E+01 0.39074056983E+01 0.35873023013E+01 0.33593303388E+01
 0.32173783500E+01 0.31502986991E+01 0.31502988692E+01 0.32173787354E+01 0.33593306474E+01
 0.35873022577E+01 0.39074052380E+01 0.43623237106E+01 0.52111756889E+01 0.67173941811E+01
 0.90205048405E+01 0.12104899931E+02 0.15800088309E+02 0.19806354870E+02 0.23737503166E+02
 0.27174385492E+02 0.29724778274E+02 0.31083600830E+02 0.31083600931E+02 0.29724778454E+02
 0.27174385456E+02 0.23737502653E+02 0.13201396180E+02 0.10419379663E+02 0.80393958439E+01
 0.62239219971E+01 0.50094887926E+01 0.43005064175E+01 0.38904901960E+01 0.35842095746E+01
 0.33593303388E+01 0.32112127419E+01 0.31289626581E+01 0.31028135728E+01 0.31289628949E+01
 0.32112131070E+01 0.33593306732E+01 0.35842097434E+01 0.38904901661E+01 0.43005062610E+01
 0.50094886704E+01 0.62239220711E+01 0.80393962088E+01 0.10419380324E+02 0.13201397036E+02
 0.16124980010E+02 0.18873897149E+02 0.21125772361E+02 0.22602913568E+02 0.23117440265E+02
 0.22602913260E+02 0.21125771774E+02 0.18873896349E+02 0.16124979107E+02 0.86772351482E+01
 0.69783063200E+01 0.56589066460E+01 0.47591289740E+01 0.42118243712E+01 0.38578452077E+01
 0.35756881433E+01 0.33631527370E+01 0.32173783500E+01 0.31289626581E+01 0.30878550911E+01
 0.30878550951E+01 0.31289626997E+01 0.32173784799E+01 0.33631529954E+01 0.35756884934E+01
 0.38578455547E+01 0.42118245829E+01 0.47591289668E+01 0.56589064422E+01 0.69783060322E+01
 0.86772349530E+01 0.10617814387E+02 0.12591800872E+02 0.14358998228E+02 0.15689629911E+02
 0.16404113703E+02 0.16404113558E+02 0.15689629541E+02 0.14358997809E+02 0.12591800592E+02
 0.10617814356E+02 0.59805756699E+01 0.51102589936E+01 0.45038950182E+01 0.41098054895E+01
 0.38121398847E+01 0.35640099732E+01 0.33728012971E+01 0.32373067995E+01 0.31502986991E+01
 0.31028135728E+01 0.30878550951E+01 0.31028133259E+01 0.31502983516E+01 0.32373065558E+01
 0.33728013082E+01 0.35640102389E+01 0.38121402522E+01 0.41098057322E+01 0.45038949315E+01
 0.51102585344E+01 0.59805749316E+01 0.70835983933E+01 0.83156009765E+01 0.95249612214E+01
 0.10544508401E+02 0.11225022313E+02 0.11464005490E+02 0.11225022400E+02 0.10544508641E+02
 0.95249616892E+01 0.83156016749E+01 0.70835992112E+01 0.46453829466E+01 0.42752622282E+01
 0.39996312308E+01 0.37577772882E+01 0.35528683177E+01 0.33919549437E+01 0.32749495257E+01
 0.31967860139E+01 0.31502988692E+01 0.31289628949E+01 0.31289626997E+01 0.31502983516E+01
 0.31967853588E+01 0.32749489456E+01 0.33919545975E+01 0.35528682441E+01 0.37577773893E+01
 0.39996313459E+01 0.42752621650E+01 0.46453825864E+01 0.51553150026E+01 0.57895628285E+01
 0.64813053713E+01 0.71326231786E+01 0.76396680088E+01 0.79171034310E+01 0.79171036303E+01
 0.76396685732E+01 0.71326240085E+01 0.64813063124E+01 0.57895637075E+01 0.51553156632E+01
 0.40776978991E+01 0.38810785249E+01 0.37006817718E+01 0.35469799870E+01 0.34252738630E+01
 0.33357838977E+01 0.32749495770E+01 0.32373070348E+01 0.32173787354E+01 0.32112131070E+01
 0.32173784799E+01 0.32373065558E+01 0.32749489456E+01 0.33357832231E+01 0.34252732735E+01
 0.35469796053E+01 0.37006816417E+01 0.38810786096E+01 0.40776980773E+01 0.42907456289E+01
 0.45517730313E+01 0.48627678034E+01 0.51908436310E+01 0.54833711608E+01 0.56858843480E+01
 0.57582793539E+01 0.56858846987E+01 0.54833717282E+01 0.51908442104E+01 0.48627682109E+01
 0.45517731754E+01 0.42907455427E+01 0.37626453946E+01 0.36474501705E+01 0.35512596724E+01
 0.34773286931E+01 0.34252736934E+01 0.33919548340E+01 0.33728013646E+01 0.33631529589E+01
 0.33593306474E+01 0.33593306732E+01 0.33631529954E+01 0.33728013082E+01 0.33919545975E+01
 0.34252732735E+01 0.34773281895E+01 0.35512592619E+01 0.36474500126E+01 0.37626455460E+01
 0.38899265370E+01 0.40197215679E+01 0.41452514450E+01 0.42730173572E+01 0.43968920063E+01
 0.44977152485E+01 0.45546543922E+01 0.45546544095E+01 0.44977152577E+01 0.43968919164E+01
 0.42730170879E+01 0.41452509960E+01 0.40197210503E+01 0.38899261291E+01 0.36040639563E+01
 0.35696692578E+01 0.35512593613E+01 0.35469795007E+01 0.35528679192E+01 0.35640097716E+01
 0.35756880381E+01 0.35842094635E+01 0.35873022577E+01 0.35842097434E+01 0.35756884934E+01
 0.35640102389E+01 0.35528682441E+01 0.35469796053E+01 0.35512592619E+01 0.35696690687E+01
 0.36040638371E+01 0.36534356160E+01 0.37138631191E+01 0.37792474350E+01 0.38426295544E+01
 0.38976372792E+01 0.39396400595E+01 0.39664999411E+01 0.39758914511E+01 0.39664996334E+01
 0.39396395023E+01 0.38976365786E+01 0.38426288514E+01 0.37792468715E+01 0.37138627854E+01
 0.36534355351E+01 0.36040638093E+01 0.36474496758E+01 0.37006810424E+01 0.37577766507E+01
 0.38121395193E+01 0.38578449586E+01 0.38904897862E+01 0.39074051079E+01 0.39074052380E+01
 0.38904901661E+01 0.38578455547E+01 0.38121402522E+01 0.37577773893E+01 0.37006816417E+01
 0.36474500126E+01 0.36040638371E+01 0.35746062060E+01 0.35604352378E+01 0.35600783519E+01
 0.35698499825E+01 0.35849496625E+01 0.36006433817E+01 0.36131402893E+01 0.36199722492E+01
 0.36199720557E+01 0.36131397918E+01 0.36006427813E+01 0.35849491904E+01 0.35698497862E+01
 0.35600784371E+01 0.35604354814E+01 0.35746064059E+01 0.37626450431E+01 0.38810778428E+01
 0.39996305597E+01 0.41098051483E+01 0.42118242914E+01 0.43005061953E+01 0.43623237321E+01
 0.43846093556E+01 0.43623237106E+01 0.43005062610E+01 0.42118245829E+01 0.41098057322E+01
 0.39996313459E+01 0.38810786096E+01 0.37626455460E+01 0.36534356160E+01 0.35604352378E+01
 0.34874230175E+01 0.34347806590E+01 0.34001371829E+01 0.33795181225E+01 0.33685855247E+01
 0.33636435241E+01 0.33622741507E+01 0.33636434033E+01 0.33685854090E+01 0.33795181850E+01
 0.34001375210E+01 0.34347812184E+01 0.34874235979E+01 0.35604355771E+01 0.36534355351E+01
 0.40776975551E+01 0.42752617690E+01 0.45038948313E+01 0.47591291847E+01 0.50094890772E+01
 0.52111760685E+01 0.53239044478E+01 0.53239042939E+01 0.52111756889E+01 0.50094886704E+01
 0.47591289668E+01 0.45038949315E+01 0.42752621650E+01 0.40776980773E+01 0.38899265370E+01
 0.37138631191E+01 0.35600783519E+01 0.34347806590E+01 0.33395290085E+01 0.32721018322E+01
 0.32280273295E+01 0.32022463292E+01 0.31905401369E+01 0.31905402542E+01 0.32022466771E+01
 0.32280278889E+01 0.32721025325E+01 0.33395297227E+01 0.34347812179E+01 0.35600786004E+01