    1    1  100    2
  0.1061740E+02  0.2467049E-09  0.2467049E-09  0.2467049E-09  0.5000000E-15
  1.000000000000000E-004
  CAR 
 Co-fcc                                  
      9     60     12
 
  0.6250000E-01  0.6250000E-01  0.6250000E-01  0.3906250E-02
      1          1.684884        1.689743   1.000000   1.000000
      2          7.879403        9.416304   1.000000   1.000000
      3          7.963436        9.516839   1.000000   1.000000
      4          7.963436        9.516839   1.000000   1.000000
      5          9.029748       10.900018   1.000000   0.000000
      6          9.029748       10.900018   1.000000   0.000000
      7         33.558471       33.326729   0.000000   0.000000
      8         36.629066       36.726806   0.000000   0.000000
      9         38.146669       38.317691   0.000000   0.000000
     10         38.146669       38.317691   0.000000   0.000000
     11         42.122571       42.371513   0.000000   0.000000
     12         42.122602       42.372204   0.000000   0.000000
 
  0.1875000E+00  0.6250000E-01  0.6250000E-01  0.1171875E-01
      1          2.497768        2.510002   1.000000   1.000000
      2          7.658567        9.134201   1.000000   1.000000
      3          8.127170        9.698311   1.000000   1.000000
      4          8.132254        9.706785   1.000000   1.000000
      5          8.868612       10.705832   1.000000   0.025668
      6          9.121850       10.980222   1.000000   0.000000
      7         30.808502       30.995730   0.000000   0.000000
      8         33.460753       33.528454   0.000000   0.000000
      9         37.005511       37.054953   0.000000   0.000000
     10         39.176690       39.349720   0.000000   0.000000
     11         40.939978       40.922606   0.000000   0.000000
     12         42.238803       42.456318   0.000000   0.000000
 
  0.3125000E+00  0.6250000E-01  0.6250000E-01  0.1171875E-01
      1          4.196606        4.311398   1.000000   1.000000
      2          7.542619        8.805292   1.000000   1.000000
      3          8.071174        9.680632   1.000000   1.000000
      4          8.148445        9.786348   1.000000   1.000000
      5          9.086903       10.868982   1.000000   0.000000
      6          9.536251       11.344550   1.000000   0.000000
      7         24.690094       25.132587   0.000000   0.000000
      8         32.347748       32.400835   0.000000   0.000000
      9         35.952364       36.021311   0.000000   0.000000
     10         38.785878       39.097051   0.000000   0.000000
     11         39.958393       40.207387   0.000000   0.000000
     12         40.930735       40.990075   0.000000   0.000000
 
  0.4375000E+00  0.6250000E-01  0.6250000E-01  0.1171875E-01
      1          5.327323        5.992665   1.000000   1.000000
      2          7.833384        9.263987   1.000000   1.000000
      3          7.935681        9.478184   1.000000   1.000000
      4          8.632929        9.574706   1.000000   1.000000
      5          9.660232       11.474685   1.000000   0.000000
      6         10.342658       11.963857   1.000000   0.000000
      7         19.294540       20.015050   0.000000   0.000000
      8         31.817541       31.751000   0.000000   0.000000
      9         34.726384       34.882597   0.000000   0.000000
     10         36.620093       36.936902   0.000000   0.000000
     11         39.095590       39.366417   0.000000   0.000000
     12         40.676757       40.871175   0.000000   0.000000
 
 -0.4375000E+00  0.6250000E-01  0.6250000E-01  0.1171875E-01
      1          5.448299        6.339288   1.000000   1.000000
      2          7.734211        9.308926   1.000000   1.000000
      3          7.880653        9.511804   1.000000   1.000000
      4          9.225317        9.963838   1.000000   1.000000
      5          9.952501       11.803323   1.000000   0.000000
      6         11.126131       12.244090   0.000000   0.000000
      7         17.128055       18.087325   0.000000   0.000000
      8         31.890861       31.708194   0.000000   0.000000
      9         34.732231       35.039255   0.000000   0.000000
     10         34.902796       35.171674   0.000000   0.000000
     11         39.931798       40.166504   0.000000   0.000000
     12         39.952265       40.188604   0.000000   0.000000
 
 -0.3125000E+00  0.6250000E-01  0.6250000E-01  0.1171875E-01
      1          5.115297        5.565314   1.000000   1.000000
      2          7.871581        8.951442   1.000000   1.000000
      3          8.027902        9.514118   1.000000   1.000000
      4          8.093684        9.661728   1.000000   1.000000
      5          9.739215       11.472202   1.000000   0.000000
      6          9.796345       11.582001   1.000000   0.000000
      7         20.928199       21.538353   0.000000   0.000000
      8         32.621019       32.433953   0.000000   0.000000
      9         34.190145       34.521506   0.000000   0.000000
     10         36.654107       36.986084   0.000000   0.000000
     11         39.757300       39.936500   0.000000   0.000000
     12         41.658191       41.858529   0.000000   0.000000
 
 -0.1875000E+00  0.6250000E-01  0.6250000E-01  0.1171875E-01
      1          3.588335        3.640796   1.000000   1.000000
      2          7.493479        8.860224   1.000000   1.000000
      3          8.137187        9.752787   1.000000   1.000000
      4          8.197676        9.807330   1.000000   1.000000
      5          9.014191       10.782419   1.000000   0.000019
      6          9.284730       11.129804   1.000000   0.000000
      7         26.713843       27.082588   0.000000   0.000000
      8         33.722214       33.582910   0.000000   0.000000
      9         34.742240       35.074103   0.000000   0.000000
     10         39.286166       39.400409   0.000000   0.000000
     11         39.571573       39.813176   0.000000   0.000000
     12         43.904113       43.996501   0.000000   0.000000
 
 -0.6250000E-01  0.6250000E-01  0.6250000E-01  0.1171875E-01
      1          2.098315        2.105705   1.000000   1.000000
      2          7.730961        9.238263   1.000000   1.000000
      3          8.077026        9.638755   1.000000   1.000000
      4          8.081488        9.644120   1.000000   1.000000
      5          8.889251       10.731888   1.000000   0.003619
      6          9.098656       10.974373   1.000000   0.000000
      7         32.573394       32.565652   0.000000   0.000000
      8         35.034333       35.039700   0.000000   0.000000
      9         36.134864       36.409941   0.000000   0.000000
     10         37.971991       38.049442   0.000000   0.000000
     11         42.052536       42.234760   0.000000   0.000000
     12         43.866274       43.962590   0.000000   0.000000
 
  0.1875000E+00  0.1875000E+00  0.6250000E-01  0.1171875E-01
      1          2.885473        2.904773   1.000000   1.000000
      2          7.444382        8.901083   1.000000   1.000000
      3          8.279667        9.870036   1.000000   1.000000
      4          8.310806        9.893297   1.000000   1.000000
      5          8.697305       10.466174   1.000000   0.999999
      6          9.226953       11.112226   1.000000   0.000000
      7         31.121089       31.315561   0.000000   0.000000
      8         33.586388       33.568017   0.000000   0.000000
      9         33.824033       34.141132   0.000000   0.000000
     10         36.013470       36.078056   0.000000   0.000000
     11         41.843500       42.495593   0.000000   0.000000
     12         44.389753       44.500981   0.000000   0.000000
 
  0.3125000E+00  0.1875000E+00  0.6250000E-01  0.2343750E-01
      1          4.256900        4.347086   1.000000   1.000000
      2          7.132265        8.505454   1.000000   1.000000
      3          8.056730        9.671958   1.000000   1.000000
      4          8.578990       10.213441   1.000000   1.000000
      5          8.974177       10.655469   1.000000   0.300077
      6          9.618255       11.445160   1.000000   0.000000
      7         27.267469       27.620172   0.000000   0.000000
      8         29.889363       30.135759   0.000000   0.000000
      9         33.681812       33.813799   0.000000   0.000000
     10         35.712594       35.858194   0.000000   0.000000
     11         40.679140       41.213264   0.000000   0.000000
     12         44.141276       44.192734   0.000000   0.000000
 
  0.4375000E+00  0.1875000E+00  0.6250000E-01  0.2343750E-01
      1          5.633662        6.147938   1.000000   1.000000
      2          7.257362        8.413143   1.000000   1.000000
      3          7.738919        9.233062   1.000000   1.000000
      4          8.417145       10.081937   1.000000   1.000000
      5          9.704859       11.481635   1.000000   0.000000
      6         10.842059       12.327813   0.000000   0.000000
      7         21.436051       21.988500   0.000000   0.000000
      8         29.259892       29.477620   0.000000   0.000000
      9         31.301166       31.567742   0.000000   0.000000
     10         35.373965       35.571516   0.000000   0.000000
     11         42.128333       42.253272   0.000000   0.000000
     12         44.651775       44.928255   0.000000   0.000000
 
 -0.4375000E+00  0.1875000E+00  0.6250000E-01  0.2343750E-01
      1          5.933544        6.893954   1.000000   1.000000
      2          7.293709        8.603974   1.000000   1.000000
      3          8.190249        9.348643   1.000000   1.000000
      4          8.260925        9.916224   1.000000   1.000000
      5          9.913981       11.746965   1.000000   0.000000
      6         13.021194       13.912790   0.000000   0.000000
      7         17.313402       18.186308   0.000000   0.000000
      8         28.654655       28.861617   0.000000   0.000000
      9         30.597159       30.925050   0.000000   0.000000
     10         35.144803       35.254428   0.000000   0.000000
     11         41.269669       41.477624   0.000000   0.000000
     12         44.941960       45.045239   0.000000   0.000000
 
 -0.3125000E+00  0.1875000E+00  0.6250000E-01  0.2343750E-01
      1          5.869563        6.585065   1.000000   1.000000
      2          7.446915        8.658285   1.000000   1.000000
      3          7.808973        9.118437   1.000000   1.000000
      4          8.301804        9.970284   1.000000   1.000000
      5          9.581825       11.356305   1.000000   0.000000
      6         11.706218       13.036278   0.000000   0.000000
      7         19.761136       20.414572   0.000000   0.000000
      8         27.853877       28.133682   0.000000   0.000000
      9         32.151876       32.377460   0.000000   0.000000
     10         36.261873       36.382893   0.000000   0.000000
     11         40.627269       40.822963   0.000000   0.000000
     12         44.327700       44.444332   0.000000   0.000000
 
 -0.1875000E+00  0.1875000E+00  0.6250000E-01  0.2343750E-01
      1          4.845060        4.991625   1.000000   1.000000
      2          7.209376        8.536776   1.000000   1.000000
      3          7.875832        9.456466   1.000000   1.000000
      4          8.510812       10.191355   1.000000   1.000000
      5          8.903537       10.610901   1.000000   0.769248
      6         10.133265       11.871686   1.000000   0.000000
      7         25.257395       25.679863   0.000000   0.000000
      8         28.011356       28.308555   0.000000   0.000000
      9         34.686662       34.811509   0.000000   0.000000
     10         38.222339       38.318046   0.000000   0.000000
     11         40.081914       40.204348   0.000000   0.000000
     12         43.187911       43.495919   0.000000   0.000000
 
 -0.6250000E-01  0.1875000E+00  0.6250000E-01  0.2343750E-01
      1          3.255572        3.285266   1.000000   1.000000
      2          7.442189        8.870267   1.000000   1.000000
      3          8.173911        9.771075   1.000000   1.000000
      4          8.313919        9.911145   1.000000   1.000000
      5          8.778043       10.555980   1.000000   0.988983
      6          9.317317       11.166874   1.000000   0.000000
      7         28.973334       29.264776   0.000000   0.000000
      8         31.627662       31.796280   0.000000   0.000000
      9         36.076121       36.140980   0.000000   0.000000
     10         37.885659       37.924784   0.000000   0.000000
     11         41.522213       41.771945   0.000000   0.000000
     12         42.941782       43.181544   0.000000   0.000000
 
  0.3125000E+00  0.3125000E+00  0.6250000E-01  0.1171875E-01
      1          4.928325        5.196364   1.000000   1.000000
      2          6.700071        8.037453   1.000000   1.000000
      3          8.390607        9.817368   1.000000   1.000000
      4          9.020200       10.688085   1.000000   0.073989
      5          9.365427       10.949599   1.000000   0.000000
      6          9.591030       11.493268   1.000000   0.000000
      7         27.854576       28.158626   0.000000   0.000000
      8         29.572042       29.843607   0.000000   0.000000
      9         29.608958       29.863877   0.000000   0.000000
     10         32.467179       32.700262   0.000000   0.000000
     11         37.226624       37.741752   0.000000   0.000000
     12         47.596262       49.594157   0.000000   0.000000
 
  0.4375000E+00  0.3125000E+00  0.6250000E-01  0.2343750E-01
      1          5.659879        6.369263   1.000000   1.000000
      2          6.487338        7.763831   1.000000   1.000000
      3          8.328707        9.600349   1.000000   1.000000
      4          9.273850       11.009959   1.000000   0.000000
      5          9.754516       11.542514   1.000000   0.000000
      6         11.103916       12.437165   0.000000   0.000000
      7         24.413867       24.791804   0.000000   0.000000
      8         26.374351       26.733008   0.000000   0.000000
      9         27.399980       27.736930   0.000000   0.000000
     10         33.729277       33.957167   0.000000   0.000000
     11         38.344510       38.741004   0.000000   0.000000
     12         47.291715       48.150237   0.000000   0.000000
 
 -0.4375000E+00  0.3125000E+00  0.6250000E-01  0.2343750E-01
      1          6.151854        7.268753   1.000000   1.000000
      2          6.626550        7.797558   1.000000   1.000000
      3          8.016065        9.251152   1.000000   1.000000
      4          8.983521       10.746210   1.000000   0.000998
      5          9.979799       11.796749   1.000000   0.000000
      6         14.313856       15.158697   0.000000   0.000000
      7         19.273871       19.834765   0.000000   0.000000
      8         24.192896       24.667667   0.000000   0.000000
      9         27.576050       27.885796   0.000000   0.000000
     10         34.181096       34.382255   0.000000   0.000000
     11         43.242861       43.532007   0.000000   0.000000
     12         45.980580       46.377132   0.000000   0.000000
 
 -0.3125000E+00  0.3125000E+00  0.6250000E-01  0.2343750E-01
      1          6.646700        7.648631   1.000000   1.000000
      2          6.802550        8.065369   1.000000   1.000000
      3          7.546888        8.779387   1.000000   1.000000
      4          8.778349       10.550120   1.000000   0.992966
      5          9.652273       11.398079   1.000000   0.000000
      6         14.636754       15.521351   0.000000   0.000000
      7         19.114463       19.720604   0.000000   0.000000
      8         22.870975       23.370788   0.000000   0.000000
      9         29.320343       29.635867   0.000000   0.000000
     10         35.054308       35.201203   0.000000   0.000000
     11         43.855566       43.918913   0.000000   0.000000
     12         47.108281       48.751193   0.000000   0.000000
 
 -0.1875000E+00  0.3125000E+00  0.6250000E-01  0.2343750E-01
      1          6.172732        6.693056   1.000000   1.000000
      2          7.226030        8.446467   1.000000   1.000000
      3          7.386691        8.869756   1.000000   1.000000
      4          8.595154       10.324684   1.000000   1.000000
      5          9.264492       10.972940   1.000000   0.000000
      6         11.809743       13.205412   0.000000   0.000000
      7         21.970323       22.501856   0.000000   0.000000
      8         25.001218       25.390227   0.000000   0.000000
      9         31.911432       32.156004   0.000000   0.000000
     10         36.826683       36.961146   0.000000   0.000000
     11         41.077230       41.138058   0.000000   0.000000
     12         45.792209       45.935991   0.000000   0.000000
 
 -0.6250000E-01  0.3125000E+00  0.6250000E-01  0.2343750E-01
      1          4.948288        5.203381   1.000000   1.000000
      2          7.497651        8.663370   1.000000   1.000000
      3          7.892393        9.496855   1.000000   1.000000
      4          8.216576        9.864477   1.000000   1.000000
      5          9.325879       11.066705   1.000000   0.000000
      6          9.996914       11.739929   1.000000   0.000000
      7         22.932738       23.439980   0.000000   0.000000
      8         30.762461       30.921114   0.000000   0.000000
      9         34.335455       34.432948   0.000000   0.000000
     10         37.050158       37.324298   0.000000   0.000000
     11         40.717703       40.878682   0.000000   0.000000
     12         42.283662       42.434193   0.000000   0.000000
 
  0.4375000E+00  0.4375000E+00  0.6250000E-01  0.1171875E-01
      1          5.426190        6.418118   1.000000   1.000000
      2          6.108987        7.362286   1.000000   1.000000
      3          9.623214       10.968683   1.000000   0.000000
      4          9.674113       11.532733   1.000000   0.000000
      5         10.004114       11.846029   1.000000   0.000000
      6         11.754222       12.526650   0.000000   0.000000
      7         23.103141       23.693683   0.000000   0.000000
      8         25.499755       25.756222   0.000000   0.000000
      9         26.680636       26.879252   0.000000   0.000000
     10         31.607231       31.955457   0.000000   0.000000
     11         35.761383       36.188085   0.000000   0.000000
     12         47.667928       51.209291   0.000000   0.000000
 
 -0.4375000E+00  0.4375000E+00  0.6250000E-01  0.2343750E-01
      1          5.574472        6.702347   1.000000   1.000000
      2          6.134639        7.363854   1.000000   1.000000
      3          9.191388       10.526508   1.000000   0.999106
      4          9.620592       11.519196   1.000000   0.000000
      5         10.147661       11.943635   1.000000   0.000000
      6         14.327348       14.844817   0.000000   0.000000
      7         20.947169       21.701827   0.000000   0.000000
      8         23.055887       23.383951   0.000000   0.000000
      9         25.531706       25.773450   0.000000   0.000000
     10         33.090596       33.372959   0.000000   0.000000
     11         37.666811       38.055043   0.000000   0.000000
     12         47.633376       50.959769   0.000000   0.000000
 
 -0.3125000E+00  0.4375000E+00  0.6250000E-01  0.2343750E-01
      1          6.098481        7.312479   1.000000   1.000000
      2          6.530111        7.690345   1.000000   1.000000
      3          8.194376        9.429982   1.000000   1.000000
      4          9.168960       10.995568   1.000000   0.000000
      5          9.967375       11.746818   1.000000   0.000000
      6         16.371047       16.985153   0.000000   0.000000
      7         18.601865       19.153177   0.000000   0.000000
      8         21.706008       22.332890   0.000000   0.000000
      9         27.092522       27.394530   0.000000   0.000000
     10         34.017856       34.235475   0.000000   0.000000
     11         43.222822       43.588121   0.000000   0.000000
     12         47.101323       47.323453   0.000000   0.000000
 
 -0.1875000E+00  0.4375000E+00  0.6250000E-01  0.2343750E-01
      1          6.315190        7.342091   1.000000   1.000000
      2          6.981423        8.216120   1.000000   1.000000
      3          7.856613        9.072815   1.000000   1.000000
      4          8.527780       10.243317   1.000000   1.000000
      5          9.810978       11.611038   1.000000   0.000000
      6         14.286560       15.106910   0.000000   0.000000
      7         17.559097       18.352995   0.000000   0.000000
      8         25.636869       26.012784   0.000000   0.000000
      9         29.694250       30.002638   0.000000   0.000000
     10         35.062756       35.186886   0.000000   0.000000
     11         42.606259       42.753811   0.000000   0.000000
     12         46.987432       47.195863   0.000000   0.000000
 
 -0.6250000E-01  0.4375000E+00  0.6250000E-01  0.2343750E-01
      1          5.597201        6.437512   1.000000   1.000000
      2          7.616919        9.049927   1.000000   1.000000
      3          8.025424        9.493145   1.000000   1.000000
      4          8.540722        9.677895   1.000000   1.000000
      5          9.855654       11.681024   1.000000   0.000000
      6         11.459677       12.663549   0.000000   0.000000
      7         18.054547       18.873551   0.000000   0.000000
      8         30.614112       30.663081   0.000000   0.000000
      9         32.858353       33.129901   0.000000   0.000000
     10         35.456615       35.633186   0.000000   0.000000
     11         40.194903       40.439409   0.000000   0.000000
     12         42.359715       42.516089   0.000000   0.000000
 
 -0.4375000E+00 -0.4375000E+00  0.6250000E-01  0.1171875E-01
      1          5.358030        6.460466   1.000000   1.000000
      2          5.975137        7.210503   1.000000   1.000000
      3          9.797057       11.462535   1.000000   0.000000
      4          9.920974       11.736896   1.000000   0.000000
      5         10.160649       11.962254   1.000000   0.000000
      6         13.296964       13.605204   0.000000   0.000000
      7         20.867696       21.665736   0.000000   0.000000
      8         24.893974       25.112958   0.000000   0.000000
      9         26.034863       26.200163   0.000000   0.000000
     10         31.470674       31.845088   0.000000   0.000000
     11         35.580466       36.004768   0.000000   0.000000
     12         47.733536       51.291218   0.000000   0.000000
 
 -0.3125000E+00 -0.4375000E+00  0.6250000E-01  0.2343750E-01
      1          5.656434        6.677762   1.000000   1.000000
      2          6.256586        7.501973   1.000000   1.000000
      3          8.843564       10.104799   1.000000   1.000000
      4          9.540148       11.363871   1.000000   0.000000
      5          9.992982       11.799932   1.000000   0.000000
      6         12.709780       13.591870   0.000000   0.000000
      7         23.069476       23.547007   0.000000   0.000000
      8         23.805607       24.239001   0.000000   0.000000
      9         26.109934       26.378374   0.000000   0.000000
     10         33.292081       33.554721   0.000000   0.000000
     11         37.864770       38.251349   0.000000   0.000000
     12         47.539579       49.804064   0.000000   0.000000
 
 -0.1875000E+00 -0.4375000E+00  0.6250000E-01  0.2343750E-01
      1          6.050203        6.902917   1.000000   1.000000
      2          6.892485        8.080307   1.000000   1.000000
      3          7.806292        9.123746   1.000000   1.000000
      4          8.699264       10.401835   1.000000   1.000000
      5          9.918607       11.746591   1.000000   0.000000
      6         12.330133       13.466275   0.000000   0.000000
      7         20.206968       20.776604   0.000000   0.000000
      8         27.238811       27.547955   0.000000   0.000000
      9         28.659265       28.999482   0.000000   0.000000
     10         34.575870       34.758621   0.000000   0.000000
     11         43.016082       43.172869   0.000000   0.000000
     12         45.112641       45.613334   0.000000   0.000000
 
 -0.3125000E+00 -0.3125000E+00  0.6250000E-01  0.1171875E-01
      1          5.404717        6.087264   1.000000   1.000000
      2          6.361002        7.649130   1.000000   1.000000
      3          9.015079       10.178432   1.000000   1.000000
      4          9.399618       11.146242   1.000000   0.000000
      5          9.793775       11.598935   1.000000   0.000000
      6         10.232563       11.683980   1.000000   0.000000
      7         26.009263       26.372164   0.000000   0.000000
      8         26.776502       27.118191   0.000000   0.000000
      9         27.897295       28.144720   0.000000   0.000000
     10         31.907295       32.205217   0.000000   0.000000
     11         36.235102       36.682920   0.000000   0.000000
     12         47.603623       51.086203   0.000000   0.000000
 
 -0.1875000E+00 -0.3125000E+00  0.6250000E-01  0.2343750E-01
      1          5.210707        5.503000   1.000000   1.000000
      2          6.795312        8.115287   1.000000   1.000000
      3          7.991991        9.480271   1.000000   1.000000
      4          8.913328       10.589955   1.000000   0.908046
      5          9.400405       11.089696   1.000000   0.000000
      6         10.102720       11.802499   1.000000   0.000000
      7         25.734425       26.114491   0.000000   0.000000
      8         28.250064       28.532758   0.000000   0.000000
      9         30.358526       30.635155   0.000000   0.000000
     10         34.477624       34.665938   0.000000   0.000000
     11         39.240590       39.680862   0.000000   0.000000
     12         46.090364       46.270600   0.000000   0.000000
 
 -0.1875000E+00 -0.1875000E+00  0.6250000E-01  0.1171875E-01
      1          3.931153        4.001908   1.000000   1.000000
      2          7.080255        8.476560   1.000000   1.000000
      3          8.286938        9.922127   1.000000   1.000000
      4          8.635356       10.251433   1.000000   1.000000
      5          8.852534       10.479571   1.000000   0.999996
      6          9.397560       11.293589   1.000000   0.000000
      7         29.490529       29.776720   0.000000   0.000000
      8         31.586730       31.905071   0.000000   0.000000
      9         32.159097       32.204372   0.000000   0.000000
     10         33.756022       33.914340   0.000000   0.000000
     11         39.065077       39.689256   0.000000   0.000000
     12         46.871618       46.860043   0.000000   0.000000
 
  0.1875000E+00  0.1875000E+00  0.1875000E+00  0.3906250E-02
      1          2.876370        2.898531   1.000000   1.000000
      2          7.629324        9.058252   1.000000   1.000000
      3          8.135525        9.724783   1.000000   1.000000
      4          8.135525        9.724783   1.000000   1.000000
      5          9.031617       10.868661   1.000000   0.000000
      6          9.031617       10.868661   1.000000   0.000000
      7         28.685978       28.978700   0.000000   0.000000
      8         34.687653       34.462377   0.000000   0.000000
      9         37.096416       37.391748   0.000000   0.000000
     10         37.096416       37.391748   0.000000   0.000000
     11         42.515897       42.427856   0.000000   0.000000
     12         42.992069       43.100865   0.000000   0.000000
 
  0.3125000E+00  0.1875000E+00  0.1875000E+00  0.1171875E-01
      1          3.948859        4.010066   1.000000   1.000000
      2          7.374710        8.754391   1.000000   1.000000
      3          8.079820        9.666434   1.000000   1.000000
      4          8.377108       10.011983   1.000000   1.000000
      5          8.733023       10.504428   1.000000   0.999911
      6          9.643075       11.445560   1.000000   0.000000
      7         27.002824       27.367323   0.000000   0.000000
      8         29.709922       29.949354   0.000000   0.000000
      9         37.346392       37.311193   0.000000   0.000000
     10         39.316593       39.276282   0.000000   0.000000
     11         39.510545       39.686063   0.000000   0.000000
     12         41.578314       41.937953   0.000000   0.000000
 
  0.4375000E+00  0.1875000E+00  0.1875000E+00  0.1171875E-01
      1          5.551023        5.831060   1.000000   1.000000
      2          7.260490        8.528960   1.000000   1.000000
      3          7.696145        9.223277   1.000000   1.000000
      4          8.439553       10.169783   1.000000   1.000000
      5          8.987121       10.683031   1.000000   0.096159
      6         10.824586       12.446489   0.000000   0.000000
      7         23.492150       23.978260   0.000000   0.000000
      8         26.362612       26.709659   0.000000   0.000000
      9         35.381368       35.379434   0.000000   0.000000
     10         36.038560       36.367096   0.000000   0.000000
     11         41.282821       41.225809   0.000000   0.000000
     12         43.151539       43.382536   0.000000   0.000000
 
 -0.4375000E+00  0.1875000E+00  0.1875000E+00  0.1171875E-01
      1          6.085925        6.979358   1.000000   1.000000
      2          7.286168        8.583937   1.000000   1.000000
      3          7.955420        9.118441   1.000000   1.000000
      4          8.319027       10.013896   1.000000   1.000000
      5          9.646312       11.433940   1.000000   0.000000
      6         12.857392       13.927831   0.000000   0.000000
      7         18.430461       19.174070   0.000000   0.000000
      8         26.602134       26.933046   0.000000   0.000000
      9         32.910905       33.239967   0.000000   0.000000
     10         33.745465       33.799635   0.000000   0.000000