Pt-fcc                                  
   1.00000000000000     
     0.000000    1.989782    1.989782
     1.989782    0.000000    1.989782
     1.989782    1.989782    0.000000
   Pt
     1
Direct
  0.000000  0.000000  0.000000
 
   40   40   40
  137.89      137.77      137.07      134.90      130.16      121.99      110.16      95.234      78.522      61.703    
  46.394      33.746      24.222      17.610      13.218      10.216      8.1839      6.8748      6.0828      5.6632    
  5.5323      5.6632      6.0828      6.8748      8.1839      10.216      13.218      17.610      24.222      33.746    
  46.394      61.703      78.522      95.234      110.16      121.99      130.16      134.90      137.07      137.77    
  137.77      137.36      135.90      132.40      125.85      115.70      102.15      86.159      69.270      53.163    
  39.235      28.276      20.383      15.062      11.493      9.0353      7.4118      6.3941      5.8084      5.5426    
  5.5426      5.8084      6.3941      7.4118      9.0353      11.493      15.062      20.383      28.276      39.235    
  53.163      69.270      86.159      102.15      115.70      125.85      132.40      135.90      137.36      137.77    
  137.07      135.90      133.08      127.65      118.90      106.74      91.788      75.342      59.010      44.297    
  32.242      23.221      16.976      12.808      9.9343      7.9899      6.7359      5.9759      5.5725      5.4467    
  5.5726      5.9759      6.7359      7.9899      9.9343      12.808      16.976      23.221      32.242      44.297    
  59.010      75.342      91.788      106.74      118.90      127.64      133.08      135.90      137.07      137.36    
  134.90      132.40      127.65      119.94      109.01      95.211      79.560      63.493      48.508      35.779    
  25.904      18.853      14.092      10.836      8.5852      7.0966      6.1606      5.6200      5.3738      5.3738    
  5.6200      6.1606      7.0966      8.5852      10.836      14.092      18.853      25.904      35.779      48.508    
  63.493      79.560      95.211      109.01      119.94      127.64      132.40      134.90      135.90      135.90    
  130.16      125.85      118.90      109.01      96.357      81.713      66.303      51.519      38.566      28.189    
  20.547      15.278      11.686      9.1655      7.4592      6.3543      5.6809      5.3215      5.2089      5.3215    
  5.6809      6.3543      7.4592      9.1655      11.686      15.278      20.547      28.189      38.566      51.519    
  66.303      81.713      96.357      109.01      118.90      125.85      130.16      132.40      133.08      132.40    
  121.99      115.70      106.74      95.211      81.713      67.259      53.085      40.348      29.854      21.901    
  16.283      12.425      9.6938      7.8024      6.5461      5.7502      5.2864      5.0739      5.0739      5.2864    
  5.7502      6.5461      7.8024      9.6938      12.425      16.283      21.901      29.854      40.348      53.085    
  67.259      81.713      95.211      106.74      115.70      121.99      125.85      127.64      127.64      125.85    
  110.16      102.15      91.788      79.560      66.303      53.085      40.960      30.731      22.776      17.015    
  13.000      10.132      8.1026      6.7229      5.8212      5.2651      4.9651      4.8705      4.9651      5.2651    
  5.8212      6.7229      8.1026      10.132      13.000      17.015      22.776      30.731      40.960      53.085    
  66.303      79.560      91.788      102.15      110.16      115.70      118.90      119.94      118.90      115.70    
  95.234      86.159      75.342      63.493      51.519      40.348      30.731      23.078      17.402      13.366    
  10.446      8.3371      6.8711      5.8868      5.2538      4.8794      4.7058      4.7058      4.8794      5.2538    
  5.8868      6.8711      8.3371      10.446      13.366      17.402      23.078      30.731      40.348      51.519    
  63.493      75.343      86.159      95.234      102.15      106.74      109.01      109.01      106.74      102.15    
  78.522      69.270      59.010      48.508      38.566      29.854      22.776      17.402      13.491      10.610    
  8.4864      6.9780      5.9399      5.2492      4.8147      4.5762      4.5003      4.5762      4.8147      5.2492    
  5.9399      6.9780      8.4864      10.610      13.491      17.402      22.776      29.853      38.566      48.508    
  59.010      69.270      78.522      86.159      91.788      95.211      96.357      95.211      91.788      86.159    
  61.703      53.163      44.297      35.779      28.189      21.901      17.015      13.366      10.610      8.5376    
  7.0342      5.9745      5.2480      4.7694      4.4797      4.3431      4.3431      4.4797      4.7694      5.2480    
  5.9745      7.0342      8.5377      10.610      13.366      17.015      21.901      28.189      35.779      44.297    
  53.163      61.703      69.270      75.343      79.560      81.713      81.713      79.560      75.342      69.270    
  46.394      39.235      32.242      25.904      20.547      16.283      13.000      10.446      8.4864      7.0342    
  5.9865      5.2481      4.7426      4.4154      4.2316      4.1722      4.2316      4.4154      4.7426      5.2481    
  5.9865      7.0342      8.4864      10.446      13.000      16.283      20.547      25.904      32.242      39.235    
  46.394      53.163      59.010      63.493      66.303      67.259      66.303      63.493      59.010      53.163    
  33.746      28.276      23.221      18.853      15.278      12.425      10.132      8.3371      6.9780      5.9745    
  5.2481      4.7338      4.3833      4.1647      4.0596      4.0596      4.1647      4.3833      4.7337      5.2481    
  5.9745      6.9780      8.3371      10.132      12.425      15.278      18.853      23.221      28.276      33.746    
  39.235      44.297      48.508      51.519      53.085      53.085      51.519      48.508      44.297      39.235    
  24.222      20.383      16.976      14.092      11.686      9.6938      8.1026      6.8711      5.9399      5.2480    
  4.7426      4.3833      4.1424      4.0035      3.9581      4.0035      4.1424      4.3833      4.7426      5.2480    
  5.9399      6.8711      8.1027      9.6938      11.686      14.092      16.976      20.383      24.222      28.276    
  32.242      35.779      38.566      40.348      40.960      40.348      38.566      35.779      32.242      28.276    
  17.610      15.062      12.808      10.836      9.1655      7.8024      6.7229      5.8868      5.2492      4.7694    
  4.4154      4.1647      4.0035      3.9245      3.9245      4.0035      4.1647      4.4154      4.7694      5.2492    
  5.8868      6.7229      7.8024      9.1655      10.836      12.808      15.062      17.610      20.383      23.221    
  25.904      28.189      29.853      30.731      30.731      29.854      28.189      25.904      23.221      20.383    
  13.218      11.493      9.9343      8.5852      7.4592      6.5461      5.8212      5.2538      4.8147      4.4797    
  4.2316      4.0596      3.9581      3.9245      3.9581      4.0596      4.2316      4.4797      4.8147      5.2538    
  5.8212      6.5461      7.4592      8.5852      9.9343      11.493      13.218      15.062      16.976      18.853    
  20.547      21.901      22.776      23.078      22.776      21.901      20.547      18.853      16.976      15.062    
  10.216      9.0353      7.9899      7.0966      6.3543      5.7502      5.2651      4.8794      4.5762      4.3431    
  4.1722      4.0596      4.0035      4.0035      4.0596      4.1723      4.3431      4.5762      4.8794      5.2651    
  5.7502      6.3543      7.0966      7.9899      9.0353      10.216      11.493      12.808      14.092      15.278    
  16.283      17.015      17.402      17.402      17.015      16.283      15.278      14.092      12.808      11.493    
  8.1839      7.4118      6.7359      6.1606      5.6809      5.2864      4.9651      4.7058      4.5003      4.3431    
  4.2316      4.1647      4.1424      4.1647      4.2316      4.3431      4.5003      4.7058      4.9651      5.2864    
  5.6809      6.1606      6.7359      7.4118      8.1839      9.0353      9.9343      10.836      11.686      12.425    
  13.000      13.366      13.491      13.366      13.000      12.425      11.686      10.836      9.9343      9.0353    
  6.8748      6.3941      5.9759      5.6200      5.3215      5.0739      4.8705      4.7058      4.5762      4.4797    
  4.4154      4.3833      4.3833      4.4154      4.4797      4.5762      4.7058      4.8705      5.0739      5.3215    
  5.6200      5.9759      6.3941      6.8748      7.4118      7.9899      8.5852      9.1655      9.6938      10.132    
  10.446      10.610      10.610      10.446      10.132      9.6938      9.1655      8.5852      7.9899      7.4118    
  6.0828      5.8084      5.5725      5.3738      5.2089      5.0739      4.9651      4.8794      4.8147      4.7694    
  4.7426      4.7337      4.7426      4.7694      4.8147      4.8794      4.9651      5.0739      5.2089      5.3738    
  5.5725      5.8084      6.0828      6.3941      6.7359      7.0966      7.4592      7.8024      8.1027      8.3371    
  8.4864      8.5377      8.4864      8.3371      8.1026      7.8024      7.4592      7.0966      6.7359      6.3941    
  5.6632      5.5426      5.4467      5.3738      5.3215      5.2864      5.2651      5.2538      5.2492      5.2480    
  5.2481      5.2481      5.2480      5.2492      5.2538      5.2651      5.2864      5.3215      5.3738      5.4466    
  5.5426      5.6632      5.8084      5.9759      6.1606      6.3543      6.5461      6.7229      6.8711      6.9780    
  7.0342      7.0342      6.9780      6.8711      6.7229      6.5461      6.3543      6.1606      5.9759      5.8084    
  5.5323      5.5426      5.5726      5.6200      5.6809      5.7502      5.8212      5.8868      5.9399      5.9745    
  5.9865      5.9745      5.9399      5.8868      5.8212      5.7502      5.6809      5.6200      5.5725      5.5426    
  5.5323      5.5426      5.5725      5.6200      5.6809      5.7502      5.8212      5.8868      5.9399      5.9745    
  5.9865      5.9745      5.9399      5.8868      5.8212      5.7502      5.6809      5.6200      5.5726      5.5426    
  5.6632      5.8084      5.9759      6.1606      6.3543      6.5461      6.7229      6.8711      6.9780      7.0342    
  7.0342      6.9780      6.8711      6.7229      6.5461      6.3543      6.1606      5.9759      5.8084      5.6632    
  5.5426      5.4466      5.3738      5.3215      5.2864      5.2651      5.2538      5.2492      5.2480      5.2481    
  5.2481      5.2480      5.2492      5.2538      5.2651      5.2864      5.3215      5.3738      5.4467      5.5426    
  6.0828      6.3941      6.7359      7.0966      7.4592      7.8024      8.1026      8.3371      8.4864      8.5377    
  8.4864      8.3371      8.1027      7.8024      7.4592      7.0966      6.7359      6.3941      6.0828      5.8084    
  5.5725      5.3738      5.2089      5.0739      4.9651      4.8794      4.8147      4.7694      4.7426      4.7337    
  4.7426      4.7694      4.8147      4.8794      4.9651      5.0739      5.2089      5.3738      5.5725      5.8084    
  6.8748      7.4118      7.9899      8.5852      9.1655      9.6938      10.132      10.446      10.610      10.610    
  10.446      10.132      9.6938      9.1655      8.5852      7.9899      7.4118      6.8748      6.3941      5.9759    
  5.6200      5.3215      5.0739      4.8705      4.7058      4.5762      4.4797      4.4154      4.3833      4.3833    
  4.4154      4.4797      4.5762      4.7058      4.8705      5.0739      5.3215      5.6200      5.9759      6.3941    
  8.1839      9.0353      9.9343      10.836      11.686      12.425      13.000      13.366      13.491      13.366    
  13.000      12.425      11.686      10.836      9.9343      9.0353      8.1839      7.4118      6.7359      6.1606    
  5.6809      5.2864      4.9651      4.7058      4.5003      4.3431      4.2316      4.1647      4.1424      4.1647    
  4.2316      4.3431      4.5003      4.7058      4.9651      5.2864      5.6809      6.1606      6.7359      7.4118    
  10.216      11.493      12.808      14.092      15.278      16.283      17.015      17.402      17.402      17.015    
  16.283      15.278      14.092      12.808      11.493      10.216      9.0353      7.9899      7.0966      6.3543    
  5.7502      5.2651      4.8794      4.5762      4.3431      4.1723      4.0596      4.0035      4.0035      4.0596    
  4.1722      4.3431      4.5762      4.8794      5.2651      5.7502      6.3543      7.0966      7.9899      9.0353    
  13.218      15.062      16.976      18.853      20.547      21.901      22.776      23.078      22.776      21.901    
  20.547      18.853      16.976      15.062      13.218      11.493      9.9343      8.5852      7.4592      6.5461    
  5.8212      5.2538      4.8147      4.4797      4.2316      4.0596      3.9581      3.9245      3.9581      4.0596    
  4.2316      4.4797      4.8147      5.2538      5.8212      6.5461      7.4592      8.5852      9.9343      11.493    
  17.610      20.383      23.221      25.904      28.189      29.854      30.731      30.731      29.853      28.189    
  25.904      23.221      20.383      17.610      15.062      12.808      10.836      9.1655      7.8024      6.7229    
  5.8868      5.2492      4.7694      4.4154      4.1647      4.0035      3.9245      3.9245      4.0035      4.1647    
  4.4154      4.7694      5.2492      5.8868      6.7229      7.8024      9.1655      10.836      12.808      15.062    
  24.222      28.276      32.242      35.779      38.566      40.348      40.960      40.348      38.566      35.779    
  32.242      28.276      24.222      20.383      16.976      14.092      11.686      9.6938      8.1027      6.8711    
  5.9399      5.2480      4.7426      4.3833      4.1424      4.0035      3.9581      4.0035      4.1424      4.3833    
  4.7426      5.2480      5.9399      6.8711      8.1026      9.6938      11.686      14.092      16.976      20.383    
  33.746      39.235      44.297      48.508      51.519      53.085      53.085      51.519      48.508      44.297    
  39.235      33.746      28.276      23.221      18.853      15.278      12.425      10.132      8.3371      6.9780    
  5.9745      5.2481      4.7337      4.3833      4.1647      4.0596      4.0596      4.1647      4.3833      4.7338    
  5.2481      5.9745      6.9780      8.3371      10.132      12.425      15.278      18.853      23.221      28.276    
  46.394      53.163      59.010      63.493      66.303      67.259      66.303      63.493      59.010      53.163    
  46.394      39.235      32.242      25.904      20.547      16.283      13.000      10.446      8.4864      7.0342    
  5.9865      5.2481      4.7426      4.4154      4.2316      4.1722      4.2316      4.4154      4.7426      5.2481    
  5.9865      7.0342      8.4864      10.446      13.000      16.283      20.547      25.904      32.242      39.235    
  61.703      69.270      75.342      79.560      81.713      81.713      79.560      75.343      69.270      61.703    
  53.163      44.297      35.779      28.189      21.901      17.015      13.366      10.610      8.5377      7.0342    
  5.9745      5.2480      4.7694      4.4797      4.3431      4.3431      4.4797      4.7694      5.2480      5.9745    
  7.0342      8.5376      10.610      13.366      17.015      21.901      28.189      35.779      44.297      53.163    
  78.522      86.159      91.788      95.211      96.357      95.211      91.788      86.159      78.522      69.270    
  59.010      48.508      38.566      29.853      22.776      17.402      13.491      10.610      8.4864      6.9780    
  5.9399      5.2492      4.8147      4.5762      4.5003      4.5762      4.8147      5.2492      5.9399      6.9780    
  8.4864      10.610      13.491      17.402      22.776      29.854      38.566      48.508      59.010      69.270    
  95.234      102.15      106.74      109.01      109.01      106.74      102.15      95.234      86.159      75.343    
  63.493      51.519      40.348      30.731      23.078      17.402      13.366      10.446      8.3371      6.8711    
  5.8868      5.2538      4.8794      4.7058      4.7058      4.8794      5.2538      5.8868      6.8711      8.3371    
  10.446      13.366      17.402      23.078      30.731      40.348      51.519      63.493      75.342      86.159    
  110.16      115.70      118.90      119.94      118.90      115.70      110.16      102.15      91.788      79.560    
  66.303      53.085      40.960      30.731      22.776      17.015      13.000      10.132      8.1026      6.7229    
  5.8212      5.2651      4.9651      4.8705      4.9651      5.2651      5.8212      6.7229      8.1026      10.132    
  13.000      17.015      22.776      30.731      40.960      53.085      66.303      79.560      91.788      102.15    
  121.99      125.85      127.64      127.64      125.85      121.99      115.70      106.74      95.211      81.713    
  67.259      53.085      40.348      29.854      21.901      16.283      12.425      9.6938      7.8024      6.5461    
  5.7502      5.2864      5.0739      5.0739      5.2864      5.7502      6.5461      7.8024      9.6938      12.425    
  16.283      21.901      29.854      40.348      53.085      67.259      81.713      95.211      106.74      115.70    
  130.16      132.40      133.08      132.40      130.16      125.85      118.90      109.01      96.357      81.713    
  66.303      51.519      38.566      28.189      20.547      15.278      11.686      9.1655      7.4592      6.3543    
  5.6809      5.3215      5.2089      5.3215      5.6809      6.3543      7.4592      9.1655      11.686      15.278    
  20.547      28.189      38.566      51.519      66.303      81.713      96.357      109.01      118.90      125.85    
  134.90      135.90      135.90      134.90      132.40      127.64      119.94      109.01      95.211      79.560    
  63.493      48.508      35.779      25.904      18.853      14.092      10.836      8.5852      7.0966      6.1606    
  5.6200      5.3738      5.3738      5.6200      6.1606      7.0966      8.5852      10.836      14.092      18.853    
  25.904      35.779      48.508      63.493      79.560      95.211      109.01      119.94      127.65      132.40    
  137.07      137.36      137.07      135.90      133.08      127.64      118.90      106.74      91.788      75.342    
  59.010      44.297      32.242      23.221      16.976      12.808      9.9343      7.9899      6.7359      5.9759    
  5.5726      5.4467      5.5725      5.9759      6.7359      7.9899      9.9343      12.808      16.976      23.221    
  32.242      44.297      59.010      75.342      91.788      106.74      118.90      127.65      133.08      135.90    
  137.77      137.77      137.36      135.90      132.40      125.85      115.70      102.15      86.159      69.270    
  53.163      39.235      28.276      20.383      15.062      11.493      9.0353      7.4118      6.3941      5.8084    
  5.5426      5.5426      5.8084      6.3941      7.4118      9.0353      11.493      15.062      20.383      28.276    
  39.235      53.163      69.270      86.159      102.15      115.70      125.85      132.40      135.90      137.36    
  137.77      137.36      135.90      132.40      125.85      115.70      102.15      86.159      69.270      53.163    
  39.235      28.276      20.383      15.062      11.493      9.0353      7.4118      6.3941      5.8084      5.5426    
  5.5426      5.8084      6.3941      7.4118      9.0353      11.493      15.062      20.383      28.276      39.235    
  53.163      69.270      86.159      102.15      115.70      125.85      132.40      135.90      137.36      137.77    
  137.36      136.29      133.61      128.33      119.72      107.64      92.708      76.203      59.752      44.886    
  32.672      23.512      17.163      12.931      10.021      8.0515      6.7817      6.0125      5.6044      5.4771    
  5.6045      6.0125      6.7817      8.0515      10.021      12.931      17.163      23.512      32.672      44.886    
  59.752      76.203      92.708      107.64      119.72      128.33      133.61      136.29      137.36      137.61    
  135.90      133.61      129.10      121.63      110.85      97.096      81.351      65.073      49.797      36.748    
  26.578      19.293      14.375      11.033      8.7238      7.1971      6.2381      5.6847      5.4331      5.4331    
  5.6847      6.2381      7.1971      8.7238      11.033      14.375      19.293      26.578      36.748      49.797    
  65.073      81.351      97.096      110.85      121.63      129.10      133.61      135.90      136.80      136.80    
  132.40      128.33      121.63      111.90      99.282      84.499      68.787      53.580      40.153      29.320    
  21.300      15.762      12.014      9.3959      7.6233      6.4770      5.7796      5.4081      5.2918      5.4081    
  5.7796      6.4770      7.6233      9.3959      12.014      15.762      21.300      29.320      40.153      53.580    
  68.787      84.499      99.282      111.90      121.63      128.33      132.40      134.46      135.08      134.46    
  125.85      119.72      110.85      99.282      85.556      70.689      55.959      42.595      31.487      23.008    
  17.000      12.902      10.028      8.0378      6.7178      5.8837      5.3990      5.1774      5.1774      5.3990    
  5.8837      6.7179      8.0378      10.028      12.902      17.000      23.008      31.487      42.595      55.959    
  70.689      85.556      99.282      110.85      119.72      125.85      129.54      131.24      131.24      129.54    
  115.70      107.64      97.096      84.499      70.689      56.769      43.868      32.875      24.254      17.983    
  13.636      10.577      8.4144      6.9461      5.9896      5.4020      5.0862      4.9868      5.0862      5.4020    
  5.9896      6.9461      8.4144      10.577      13.636      17.983      24.254      32.875      43.868      56.769    
  70.689      84.499      97.096      107.64      115.70      121.21      124.37      125.39      124.37      121.21    
  102.15      92.708      81.351      68.787      55.959      43.868      33.352      24.910      18.617      14.165    
  11.004      8.7265      7.1461      6.0892      5.4130      5.0150      4.8312      4.8312      5.0150      5.4130    
  6.0892      7.1461      8.7265      11.004      14.165      18.617      24.910      33.352      43.868      55.959    
  68.787      81.351      92.708      102.15      109.27      113.97      116.29      116.29      113.97      109.27    
  86.159      76.203      65.073      53.580      42.595      32.875      24.910      18.836      14.442      11.274    
  8.9499      7.3024      6.1736      5.4274      4.9612      4.7068      4.6260      4.7068      4.9612      5.4274    
  6.1736      7.3024      8.9499      11.274      14.442      18.836      24.910      32.875      42.595      53.580    
  65.073      76.203      86.159      94.319      100.30      103.92      105.13      103.92      100.30      94.319    
  69.270      59.752      49.797      40.153      31.487      24.254      18.617      14.442      11.367      9.0665    
  7.4019      6.2351      5.4413      4.9227      4.6112      4.4651      4.4651      4.6112      4.9227      5.4413    
  6.2351      7.4019      9.0665      11.367      14.442      18.617      24.254      31.487      40.153      49.797    
  59.752      69.270      77.653      84.347      88.979      91.340      91.340      88.979      84.347      77.653    
  53.163      44.886      36.748      29.320      23.008      17.983      14.165      11.274      9.0665      7.4361    
  6.2675      5.4512      4.8979      4.5432      4.3454      4.2819      4.3454      4.5432      4.8979      5.4512    
  6.2675      7.4361      9.0665      11.274      14.165      17.983      23.008      29.320      36.748      44.886    
  53.163      60.945      67.635      72.748      75.946      77.033      75.946      72.748      67.635      60.945    
  39.235      32.672      26.578      21.300      17.000      13.636      11.004      8.9499      7.4019      6.2675    
  5.4547      4.8857      4.5024      4.2657      4.1526      4.1526      4.2657      4.5024      4.8857      5.4547    
  6.2675      7.4019      8.9499      11.004      13.636      17.000      21.300      26.578      32.672      39.235    
  45.788      51.806      56.796      60.355      62.205      62.205      60.355      56.796      51.806      45.788    
  28.276      23.512      19.293      15.762      12.902      10.577      8.7265      7.3024      6.2351      5.4512    
  4.8857      4.4888      4.2258      4.0753      4.0263      4.0753      4.2258      4.4888      4.8857      5.4512    
  6.2351      7.3024      8.7265      10.577      12.902      15.762      19.293      23.512      28.276      33.300    
  38.199      42.556      45.982      48.170      48.921      48.170      45.982      42.556      38.199      33.300    
  20.383      17.163      14.375      12.014      10.028      8.4144      7.1461      6.1736      5.4413      4.8979    
  4.5024      4.2258      4.0496      3.9637      3.9637      4.0496      4.2258      4.5024      4.8979      5.4413    
  6.1736      7.1461      8.4145      10.028      12.014      14.375      17.163      20.383      23.919      27.549    
  30.980      33.899      36.024      37.143      37.143      36.024      33.899      30.980      27.549      23.919    
  15.062      12.931      11.033      9.3959      8.0378      6.9461      6.0892      5.4274      4.9227      4.5432    
  4.2657      4.0753      3.9637      3.9269      3.9637      4.0753      4.2657      4.5432      4.9227      5.4274    
  6.0892      6.9461      8.0378      9.3959      11.033      12.931      15.062      17.416      19.906      22.372    
  24.608      26.398      27.555      27.956      27.555      26.398      24.608      22.372      19.906      17.416    
  11.493      10.021      8.7238      7.6233      6.7178      5.9896      5.4130      4.9612      4.6112      4.3454    
  4.1526      4.0263      3.9637      3.9637      4.0263      4.1526      4.3454      4.6112      4.9612      5.4130    
  5.9896      6.7179      7.6233      8.7238      10.021      11.493      13.091      14.757      16.432      18.012    
  19.365      20.357      20.883      20.883      20.357      19.365      18.012      16.432      14.757      13.091    
  9.0353      8.0515      7.1971      6.4770      5.8837      5.4020      5.0150      4.7068      4.4651      4.2819    
  4.1526      4.0753      4.0496      4.0753      4.1526      4.2819      4.4651      4.7068      5.0150      5.4020    
  5.8837      6.4770      7.1971      8.0515      9.0353      10.126      11.283      12.446      13.546      14.516    
  15.284      15.778      15.949      15.778      15.284      14.516      13.546      12.446      11.283      10.126    
  7.4118      6.7817      6.2381      5.7796      5.3990      5.0862      4.8312      4.6260      4.4651      4.3454    
  4.2657      4.2258      4.2258      4.2657      4.3454      4.4651      4.6260      4.8312      5.0862      5.3990    
  5.7796      6.2381      6.7817      7.4118      8.1203      8.8874      9.6803      10.456      11.163      11.750    
  12.170      12.390      12.390      12.170      11.750      11.163      10.456      9.6803      8.8873      8.1203    
  6.3941      6.0125      5.6847      5.4081      5.1774      4.9868      4.8312      4.7068      4.6112      4.5432    
  4.5024      4.4888      4.5024      4.5432      4.6112      4.7068      4.8312      4.9868      5.1774      5.4081    
  5.6847      6.0125      6.3941      6.8276      7.3047      7.8092      8.3172      8.7987      9.2204      9.5497    
  9.7596      9.8316      9.7596      9.5497      9.2204      8.7987      8.3172      7.8092      7.3047      6.8276    
  5.8084      5.6044      5.4331      5.2918      5.1774      5.0862      5.0150      4.9612      4.9227      4.8979    
  4.8857      4.8857      4.8979      4.9227      4.9612      5.0150      5.0862      5.1774      5.2918      5.4331    
  5.6044      5.8084      6.0451      6.3119      6.6014      6.9019      7.1974      7.4685      7.6950      7.8581    
  7.9436      7.9436      7.8581      7.6950      7.4685      7.1974      6.9019      6.6014      6.3119      6.0451    
  5.5426      5.4771      5.4331      5.4081      5.3990      5.4020      5.4130      5.4274      5.4413      5.4512    
  5.4547      5.4512      5.4413      5.4274      5.4130      5.4020      5.3990      5.4081      5.4331      5.4771    
  5.5426      5.6304      5.7399      5.8683      6.0103      6.1581      6.3018      6.4300      6.5316      6.5969    
  6.6195      6.5969      6.5316      6.4300      6.3018      6.1581      6.0103      5.8683      5.7399      5.6304    
  5.5426      5.6045      5.6847      5.7796      5.8837      5.9896      6.0892      6.1736      6.2351      6.2675    
  6.2675      6.2351      6.1736      6.0892      5.9896      5.8837      5.7796      5.6847      5.6044      5.5426    
  5.5010      5.4801      5.4785      5.4940      5.5225      5.5595      5.5991      5.6356      5.6636      5.6787    
  5.6787      5.6636      5.6356      5.5991      5.5595      5.5225      5.4940      5.4786      5.4801      5.5010    
  5.8084      6.0125      6.2381      6.4770      6.7179      6.9461      7.1461      7.3024      7.4019      7.4361    