Pt-fcc                                  
   1.00000000000000     
     0.000000    1.989782    1.989782
     1.989782    0.000000    1.989782
     1.989782    1.989782    0.000000
   Pt
     1
Direct
  0.000000  0.000000  0.000000
 
   40   40   40
 0.13788904479E+03 0.13776869155E+03 0.13706789074E+03 0.13489611289E+03 0.13015607970E+03
 0.12198763716E+03 0.11015521262E+03 0.95234347435E+02 0.78522214401E+02 0.61702779005E+02
 0.46394062135E+02 0.33745848306E+02 0.24221594562E+02 0.17609939217E+02 0.13218288630E+02
 0.10215818403E+02 0.81839281473E+01 0.68748201497E+01 0.60827977707E+01 0.56631591618E+01
 0.55323206520E+01 0.56631591618E+01 0.60827977707E+01 0.68748201497E+01 0.81839281473E+01
 0.10215818403E+02 0.13218288630E+02 0.17609939217E+02 0.24221594562E+02 0.33745848306E+02
 0.46394062135E+02 0.61702779005E+02 0.78522214401E+02 0.95234347435E+02 0.11015521262E+03
 0.12198763716E+03 0.13015607970E+03 0.13489611289E+03 0.13706789074E+03 0.13776869155E+03
 0.13776869155E+03 0.13735588105E+03 0.13590293969E+03 0.13239747174E+03 0.12584586551E+03
 0.11569922368E+03 0.10214616976E+03 0.86158907885E+02 0.69270033554E+02 0.53163479724E+02
 0.39234611571E+02 0.28276420280E+02 0.20382579667E+02 0.15062326889E+02 0.11493162982E+02
 0.90352875286E+01 0.74117557103E+01 0.63940623350E+01 0.58083725655E+01 0.55425693531E+01
 0.55425700279E+01 0.58083742571E+01 0.63940641845E+01 0.74117567547E+01 0.90352871514E+01
 0.11493161253E+02 0.15062324556E+02 0.20382577850E+02 0.28276419899E+02 0.39234612821E+02
 0.53163481737E+02 0.69270034535E+02 0.86158905606E+02 0.10214616238E+03 0.11569921055E+03
 0.12584584759E+03 0.13239745173E+03 0.13590292129E+03 0.13735586807E+03 0.13776868686E+03
 0.13706789074E+03 0.13590293969E+03 0.13307766803E+03 0.12764500778E+03 0.11890156386E+03
 0.10673644326E+03 0.91787961515E+02 0.75342498440E+02 0.59009726109E+02 0.44297227672E+02
 0.32242066372E+02 0.23220889199E+02 0.16975880261E+02 0.12807870122E+02 0.99343350294E+01
 0.79898954003E+01 0.67358676303E+01 0.59758940865E+01 0.55725491297E+01 0.54466564657E+01
 0.55725513895E+01 0.59758974764E+01 0.67358704170E+01 0.79898960733E+01 0.99343330458E+01
 0.12807866238E+02 0.16975876253E+02 0.23220887061E+02 0.32242067272E+02 0.44297231161E+02
 0.59009729871E+02 0.75342498862E+02 0.91787954840E+02 0.10673642707E+03 0.11890153825E+03
 0.12764497581E+03 0.13307763525E+03 0.13590291274E+03 0.13706787553E+03 0.13735586807E+03
 0.13489611289E+03 0.13239747174E+03 0.12764500778E+03 0.11994224287E+03 0.10900987733E+03
 0.95211434033E+02 0.79559600401E+02 0.63493447903E+02 0.48508490607E+02 0.35778651540E+02
 0.25903720463E+02 0.18853002863E+02 0.14091646175E+02 0.10836110962E+02 0.85851590530E+01
 0.70965609213E+01 0.61606044849E+01 0.56199522100E+01 0.53738440452E+01 0.53738455330E+01
 0.56199559373E+01 0.61606085855E+01 0.70965632645E+01 0.85851582675E+01 0.10836107142E+02
 0.14091640947E+02 0.18852998718E+02 0.25903719613E+02 0.35778654723E+02 0.48508496385E+02
 0.63493452785E+02 0.79559599874E+02 0.95211424149E+02 0.10900985635E+03 0.11994221231E+03
 0.12764497244E+03 0.13239743863E+03 0.13489608930E+03 0.13590291274E+03 0.13590292129E+03
 0.13015607970E+03 0.12584586551E+03 0.11890156386E+03 0.10900987733E+03 0.96357438586E+02
 0.81713222889E+02 0.66303216739E+02 0.51518554524E+02 0.38565993918E+02 0.28188661187E+02
 0.20547087424E+02 0.15278360372E+02 0.11685948929E+02 0.91655015315E+01 0.74591513766E+01
 0.63543367674E+01 0.56809295492E+01 0.53215145923E+01 0.52089418426E+01 0.53215173549E+01
 0.56809337245E+01 0.63543402708E+01 0.74591523522E+01 0.91654992502E+01 0.11685944219E+02
 0.15278355361E+02 0.20547084655E+02 0.28188662455E+02 0.38565999288E+02 0.51518561960E+02
 0.66303222577E+02 0.81713223011E+02 0.96357429981E+02 0.10900985936E+03 0.11890153889E+03
 0.12584583850E+03 0.13015605683E+03 0.13239743863E+03 0.13307763525E+03 0.13239745173E+03
 0.12198763716E+03 0.11569922368E+03 0.10673644326E+03 0.95211434033E+02 0.81713222889E+02
 0.67259163093E+02 0.53084883504E+02 0.40347756653E+02 0.29853500260E+02 0.21900623021E+02
 0.16282819529E+02 0.12425474305E+02 0.96937755850E+01 0.78023543374E+01 0.65461029950E+01
 0.57501736056E+01 0.52864443733E+01 0.50739144943E+01 0.50739156841E+01 0.52864473899E+01
 0.57501770149E+01 0.65461051363E+01 0.78023540615E+01 0.96937728361E+01 0.12425470221E+02
 0.16282816070E+02 0.21900622165E+02 0.29853503175E+02 0.40347763080E+02 0.53084891695E+02
 0.67259170325E+02 0.81713226371E+02 0.95211431987E+02 0.10673643561E+03 0.11569921223E+03
 0.12198762510E+03 0.12584583850E+03 0.12764497244E+03 0.12764497581E+03 0.12584584759E+03
 0.11015521262E+03 0.10214616976E+03 0.91787961515E+02 0.79559600401E+02 0.66303216739E+02
 0.53084883504E+02 0.40960341165E+02 0.30730680421E+02 0.22775524807E+02 0.17015283962E+02
 0.13000053357E+02 0.10131926344E+02 0.81026499529E+01 0.67228987822E+01 0.58211812859E+01
 0.52650977376E+01 0.49650755891E+01 0.48704883263E+01 0.49650769544E+01 0.52650998885E+01
 0.58211832963E+01 0.67228997623E+01 0.81026494262E+01 0.10131924486E+02 0.13000050982E+02
 0.17015282282E+02 0.22775525031E+02 0.30730683345E+02 0.40960346894E+02 0.53084891399E+02
 0.66303225664E+02 0.79559609018E+02 0.91787968739E+02 0.10214617502E+03 0.11015521590E+03
 0.11569921223E+03 0.11890153889E+03 0.11994221231E+03 0.11890153825E+03 0.11569921055E+03
 0.95234347435E+02 0.86158907885E+02 0.75342498440E+02 0.63493447903E+02 0.51518554524E+02
 0.40347756653E+02 0.30730680421E+02 0.23078173514E+02 0.17402135122E+02 0.13365693500E+02
 0.10445788940E+02 0.83370902438E+01 0.68710660173E+01 0.58867737578E+01 0.52538438583E+01
 0.48794151690E+01 0.47058151203E+01 0.47058152992E+01 0.48794156725E+01 0.52538446101E+01
 0.58867745961E+01 0.68710667263E+01 0.83370905700E+01 0.10445788717E+02 0.13365692733E+02
 0.17402134131E+02 0.23078172943E+02 0.30730681191E+02 0.40347759777E+02 0.51518560789E+02
 0.63493457639E+02 0.75342511237E+02 0.86158922542E+02 0.95234362143E+02 0.10214617502E+03
 0.10673643561E+03 0.10900985936E+03 0.10900985635E+03 0.10673642707E+03 0.10214616238E+03
 0.78522214401E+02 0.69270033554E+02 0.59009726109E+02 0.48508490607E+02 0.38565993918E+02
 0.29853500260E+02 0.22775524807E+02 0.17402135122E+02 0.13491379091E+02 0.10609626824E+02
 0.84863794417E+01 0.69780379263E+01 0.59398772302E+01 0.52491839566E+01 0.48147099690E+01
 0.45762227657E+01 0.45002717768E+01 0.45762221593E+01 0.48147091612E+01 0.52491835401E+01
 0.59398776509E+01 0.69780391979E+01 0.84863810430E+01 0.10609627882E+02 0.13491378763E+02
 0.17402133067E+02 0.22775521537E+02 0.29853497144E+02 0.38565992936E+02 0.48508493637E+02
 0.59009734317E+02 0.69270046781E+02 0.78522230941E+02 0.86158922542E+02 0.91787968739E+02
 0.95211431987E+02 0.96357429981E+02 0.95211424149E+02 0.91787954840E+02 0.86158905606E+02
 0.61702779005E+02 0.53163479724E+02 0.44297227672E+02 0.35778651540E+02 0.28188661187E+02
 0.21900623021E+02 0.17015283962E+02 0.13365693500E+02 0.10609626824E+02 0.85376487325E+01
 0.70341521015E+01 0.59744652979E+01 0.52480408268E+01 0.47694377438E+01 0.44796948351E+01
 0.43430990122E+01 0.43430982994E+01 0.44796930808E+01 0.47694358819E+01 0.52480399184E+01
 0.59744659532E+01 0.70341541451E+01 0.85376511299E+01 0.10609628074E+02 0.13365692231E+02
 0.17015279593E+02 0.21900616196E+02 0.28188653673E+02 0.35778645843E+02 0.44297226096E+02
 0.53163483565E+02 0.61702788017E+02 0.69270046781E+02 0.75342511237E+02 0.79559609018E+02
 0.81713226371E+02 0.81713223011E+02 0.79559599874E+02 0.75342498862E+02 0.69270034535E+02
 0.46394062135E+02 0.39234611571E+02 0.32242066372E+02 0.25903720463E+02 0.20547087424E+02
 0.16282819529E+02 0.13000053357E+02 0.10445788940E+02 0.84863794417E+01 0.70341521015E+01
 0.59864733905E+01 0.52480954913E+01 0.47426303291E+01 0.44154247712E+01 0.42315743837E+01
 0.41722493035E+01 0.42315726963E+01 0.44154221915E+01 0.47426280924E+01 0.52480946998E+01
 0.59864744726E+01 0.70341545235E+01 0.84863818300E+01 0.10445789531E+02 0.13000050725E+02
 0.16282813105E+02 0.20547077955E+02 0.25903709689E+02 0.32242056645E+02 0.39234605013E+02
 0.46394059874E+02 0.53163483565E+02 0.59009734317E+02 0.63493457639E+02 0.66303225664E+02
 0.67259170325E+02 0.66303222577E+02 0.63493452785E+02 0.59009729871E+02 0.53163481737E+02
 0.33745848306E+02 0.28276420280E+02 0.23220889199E+02 0.18853002863E+02 0.15278360372E+02
 0.12425474305E+02 0.10131926344E+02 0.83370902438E+01 0.69780379263E+01 0.59744652979E+01
 0.52480954913E+01 0.47337518143E+01 0.43832640792E+01 0.41647312980E+01 0.40596141052E+01
 0.40596132344E+01 0.41647290523E+01 0.43832614166E+01 0.47337498731E+01 0.52480951136E+01
 0.59744666293E+01 0.69780402777E+01 0.83370922896E+01 0.10131926506E+02 0.12425471381E+02
 0.15278353836E+02 0.18852993209E+02 0.23220877698E+02 0.28276408580E+02 0.33745838038E+02
 0.39234605013E+02 0.44297226096E+02 0.48508493637E+02 0.51518560789E+02 0.53084891399E+02
 0.53084891695E+02 0.51518561960E+02 0.48508496385E+02 0.44297231161E+02 0.39234612821E+02
 0.24221594562E+02 0.20382579667E+02 0.16975880261E+02 0.14091646175E+02 0.11685948929E+02
 0.96937755850E+01 0.81026499529E+01 0.68710660173E+01 0.59398772302E+01 0.52480408268E+01
 0.47426303291E+01 0.43832640792E+01 0.41424382008E+01 0.40035340184E+01 0.39580798594E+01
 0.40035327842E+01 0.41424361982E+01 0.43832620680E+01 0.47426291046E+01 0.52480409069E+01
 0.59398786825E+01 0.68710683365E+01 0.81026522540E+01 0.96937767127E+01 0.11685947915E+02
 0.14091642351E+02 0.16975873496E+02 0.20382570460E+02 0.24221583730E+02 0.28276408580E+02
 0.32242056645E+02 0.35778645843E+02 0.38565992936E+02 0.40347759777E+02 0.40960346894E+02
 0.40347763080E+02 0.38565999288E+02 0.35778654723E+02 0.32242067272E+02 0.28276419899E+02
 0.17609939217E+02 0.15062326889E+02 0.12807870122E+02 0.10836110962E+02 0.91655015315E+01
 0.78023543374E+01 0.67228987822E+01 0.58867737578E+01 0.52491839566E+01 0.47694377438E+01
 0.44154247712E+01 0.41647312980E+01 0.40035340184E+01 0.39244580604E+01 0.39244577767E+01
 0.40035332381E+01 0.41647302583E+01 0.44154238201E+01 0.47694373107E+01 0.52491844271E+01
 0.58867754053E+01 0.67229015854E+01 0.78023579842E+01 0.91655053173E+01 0.10836113930E+02
 0.12807871308E+02 0.15062325368E+02 0.17609934640E+02 0.20382570460E+02 0.23220877698E+02
 0.25903709689E+02 0.28188653673E+02 0.29853497144E+02 0.30730681191E+02 0.30730683345E+02
 0.29853503175E+02 0.28188662455E+02 0.25903719613E+02 0.23220887061E+02 0.20382577850E+02
 0.13218288630E+02 0.11493162982E+02 0.99343350294E+01 0.85851590530E+01 0.74591513766E+01
 0.65461029950E+01 0.58211812859E+01 0.52538438583E+01 0.48147099690E+01 0.44796948351E+01
 0.42315743837E+01 0.40596141052E+01 0.39580798594E+01 0.39244577767E+01 0.39580800710E+01
 0.40596143836E+01 0.42315745489E+01 0.44796948410E+01 0.48147100479E+01 0.52538445179E+01
 0.58211832028E+01 0.65461067099E+01 0.74591570468E+01 0.85851662534E+01 0.99343426585E+01
 0.11493169646E+02 0.13218292896E+02 0.15062325368E+02 0.16975873496E+02 0.18852993209E+02
 0.20547077955E+02 0.21900616196E+02 0.22775521537E+02 0.23078172943E+02 0.22775525031E+02
 0.21900622165E+02 0.20547084655E+02 0.18852998718E+02 0.16975876253E+02 0.15062324556E+02
 0.10215818403E+02 0.90352875286E+01 0.79898954003E+01 0.70965609213E+01 0.63543367674E+01
 0.57501736056E+01 0.52650977376E+01 0.48794151690E+01 0.45762227657E+01 0.43430990122E+01
 0.41722493035E+01 0.40596132344E+01 0.40035327842E+01 0.40035332381E+01 0.40596143836E+01
 0.41722506185E+01 0.43430999366E+01 0.45762230336E+01 0.48794150486E+01 0.52650980105E+01
 0.57501753726E+01 0.63543409983E+01 0.70965680389E+01 0.79899050491E+01 0.90352984856E+01
 0.10215828921E+02 0.11493169646E+02 0.12807871308E+02 0.14091642351E+02 0.15278353836E+02
 0.16282813105E+02 0.17015279593E+02 0.17402133067E+02 0.17402134131E+02 0.17015282282E+02
 0.16282816070E+02 0.15278355361E+02 0.14091640947E+02 0.12807866238E+02 0.11493161253E+02
 0.81839281473E+01 0.74117557103E+01 0.67358676303E+01 0.61606044849E+01 0.56809295492E+01
 0.52864443733E+01 0.49650755891E+01 0.47058151203E+01 0.45002717768E+01 0.43430982994E+01
 0.42315726963E+01 0.41647290523E+01 0.41424361982E+01 0.41647302583E+01 0.42315745489E+01
 0.43430999366E+01 0.45002724451E+01 0.47058145507E+01 0.49650742316E+01 0.52864432858E+01
 0.56809300992E+01 0.61606078493E+01 0.67358743060E+01 0.74117653318E+01 0.81839394969E+01
 0.90352984856E+01 0.99343426585E+01 0.10836113930E+02 0.11685947915E+02 0.12425471381E+02
 0.13000050725E+02 0.13365692231E+02 0.13491378763E+02 0.13365692733E+02 0.13000050982E+02
 0.12425470221E+02 0.11685944219E+02 0.10836107142E+02 0.99343330458E+01 0.90352871514E+01
 0.68748201497E+01 0.63940623350E+01 0.59758940865E+01 0.56199522100E+01 0.53215145923E+01
 0.50739144943E+01 0.48704883263E+01 0.47058152992E+01 0.45762221593E+01 0.44796930808E+01
 0.44154221915E+01 0.43832614166E+01 0.43832620680E+01 0.44154238201E+01 0.44796948410E+01
 0.45762230336E+01 0.47058145507E+01 0.48704858265E+01 0.50739108790E+01 0.53215110767E+01
 0.56199502136E+01 0.59758947908E+01 0.63940662282E+01 0.68748269009E+01 0.74117653318E+01
 0.79899050491E+01 0.85851662534E+01 0.91655053173E+01 0.96937767127E+01 0.10131926506E+02
 0.10445789531E+02 0.10609628074E+02 0.10609627882E+02 0.10445788717E+02 0.10131924486E+02
 0.96937728361E+01 0.91654992502E+01 0.85851582675E+01 0.79898960733E+01 0.74117567547E+01
 0.60827977707E+01 0.58083725655E+01 0.55725491297E+01 0.53738440452E+01 0.52089418426E+01
 0.50739156841E+01 0.49650769544E+01 0.48794156725E+01 0.48147091612E+01 0.47694358819E+01
 0.47426280924E+01 0.47337498731E+01 0.47426291046E+01 0.47694373107E+01 0.48147100479E+01
 0.48794150486E+01 0.49650742316E+01 0.50739108790E+01 0.52089356501E+01 0.53738376412E+01
 0.55725438081E+01 0.58083693997E+01 0.60827972842E+01 0.63940662282E+01 0.67358743060E+01
 0.70965680389E+01 0.74591570468E+01 0.78023579842E+01 0.81026522540E+01 0.83370922896E+01
 0.84863818300E+01 0.85376511299E+01 0.84863810430E+01 0.83370905700E+01 0.81026494262E+01
 0.78023540615E+01 0.74591523522E+01 0.70965632645E+01 0.67358704170E+01 0.63940641845E+01
 0.56631591618E+01 0.55425693531E+01 0.54466564657E+01 0.53738455330E+01 0.53215173549E+01
 0.52864473899E+01 0.52650998885E+01 0.52538446101E+01 0.52491835401E+01 0.52480399184E+01
 0.52480946998E+01 0.52480951136E+01 0.52480409069E+01 0.52491844271E+01 0.52538445179E+01
 0.52650980105E+01 0.52864432858E+01 0.53215110767E+01 0.53738376412E+01 0.54466479083E+01
 0.55425611860E+01 0.56631523317E+01 0.58083693997E+01 0.59758947908E+01 0.61606078493E+01
 0.63543409983E+01 0.65461067099E+01 0.67229015854E+01 0.68710683365E+01 0.69780402777E+01
 0.70341545235E+01 0.70341541451E+01 0.69780391979E+01 0.68710667263E+01 0.67228997623E+01
 0.65461051363E+01 0.63543402708E+01 0.61606085855E+01 0.59758974764E+01 0.58083742571E+01
 0.55323206520E+01 0.55425700279E+01 0.55725513895E+01 0.56199559373E+01 0.56809337245E+01
 0.57501770149E+01 0.58211832963E+01 0.58867745961E+01 0.59398776509E+01 0.59744659532E+01
 0.59864744726E+01 0.59744666293E+01 0.59398786825E+01 0.58867754053E+01 0.58211832028E+01
 0.57501753726E+01 0.56809300992E+01 0.56199502136E+01 0.55725438081E+01 0.55425611860E+01
 0.55323113673E+01 0.55425611860E+01 0.55725438081E+01 0.56199502136E+01 0.56809300992E+01
 0.57501753726E+01 0.58211832028E+01 0.58867754053E+01 0.59398786825E+01 0.59744666293E+01
 0.59864744726E+01 0.59744659532E+01 0.59398776509E+01 0.58867745961E+01 0.58211832963E+01
 0.57501770149E+01 0.56809337245E+01 0.56199559373E+01 0.55725513895E+01 0.55425700279E+01
 0.56631591618E+01 0.58083742571E+01 0.59758974764E+01 0.61606085855E+01 0.63543402708E+01
 0.65461051363E+01 0.67228997623E+01 0.68710667263E+01 0.69780391979E+01 0.70341541451E+01
 0.70341545235E+01 0.69780402777E+01 0.68710683365E+01 0.67229015854E+01 0.65461067099E+01
 0.63543409983E+01 0.61606078493E+01 0.59758947908E+01 0.58083693997E+01 0.56631523317E+01
 0.55425611860E+01 0.54466479083E+01 0.53738376412E+01 0.53215110767E+01 0.52864432858E+01
 0.52650980105E+01 0.52538445179E+01 0.52491844271E+01 0.52480409069E+01 0.52480951136E+01
 0.52480946998E+01 0.52480399184E+01 0.52491835401E+01 0.52538446101E+01 0.52650998885E+01
 0.52864473899E+01 0.53215173549E+01 0.53738455330E+01 0.54466564657E+01 0.55425693531E+01
 0.60827977707E+01 0.63940641845E+01 0.67358704170E+01 0.70965632645E+01 0.74591523522E+01
 0.78023540615E+01 0.81026494262E+01 0.83370905700E+01 0.84863810430E+01 0.85376511299E+01
 0.84863818300E+01 0.83370922896E+01 0.81026522540E+01 0.78023579842E+01 0.74591570468E+01
 0.70965680389E+01 0.67358743060E+01 0.63940662282E+01 0.60827972842E+01 0.58083693997E+01
 0.55725438081E+01 0.53738376412E+01 0.52089356501E+01 0.50739108790E+01 0.49650742316E+01
 0.48794150486E+01 0.48147100479E+01 0.47694373107E+01 0.47426291046E+01 0.47337498731E+01
 0.47426280924E+01 0.47694358819E+01 0.48147091612E+01 0.48794156725E+01 0.49650769544E+01
 0.50739156841E+01 0.52089418426E+01 0.53738440452E+01 0.55725491297E+01 0.58083725655E+01
 0.68748201497E+01 0.74117567547E+01 0.79898960733E+01 0.85851582675E+01 0.91654992502E+01
 0.96937728361E+01 0.10131924486E+02 0.10445788717E+02 0.10609627882E+02 0.10609628074E+02
 0.10445789531E+02 0.10131926506E+02 0.96937767127E+01 0.91655053173E+01 0.85851662534E+01
 0.79899050491E+01 0.74117653318E+01 0.68748269009E+01 0.63940662282E+01 0.59758947908E+01
 0.56199502136E+01 0.53215110767E+01 0.50739108790E+01 0.48704858265E+01 0.47058145507E+01
 0.45762230336E+01 0.44796948410E+01 0.44154238201E+01 0.43832620680E+01 0.43832614166E+01
 0.44154221915E+01 0.44796930808E+01 0.45762221593E+01 0.47058152992E+01 0.48704883263E+01
 0.50739144943E+01 0.53215145923E+01 0.56199522100E+01 0.59758940865E+01 0.63940623350E+01
 0.81839281473E+01 0.90352871514E+01 0.99343330458E+01 0.10836107142E+02 0.11685944219E+02
 0.12425470221E+02 0.13000050982E+02 0.13365692733E+02 0.13491378763E+02 0.13365692231E+02
 0.13000050725E+02 0.12425471381E+02 0.11685947915E+02 0.10836113930E+02 0.99343426585E+01
 0.90352984856E+01 0.81839394969E+01 0.74117653318E+01 0.67358743060E+01 0.61606078493E+01
 0.56809300992E+01 0.52864432858E+01 0.49650742316E+01 0.47058145507E+01 0.45002724451E+01
 0.43430999366E+01 0.42315745489E+01 0.41647302583E+01 0.41424361982E+01 0.41647290523E+01
 0.42315726963E+01 0.43430982994E+01 0.45002717768E+01 0.47058151203E+01 0.49650755891E+01
 0.52864443733E+01 0.56809295492E+01 0.61606044849E+01 0.67358676303E+01 0.74117557103E+01
 0.10215818403E+02 0.11493161253E+02 0.12807866238E+02 0.14091640947E+02 0.15278355361E+02
 0.16282816070E+02 0.17015282282E+02 0.17402134131E+02 0.17402133067E+02 0.17015279593E+02
 0.16282813105E+02 0.15278353836E+02 0.14091642351E+02 0.12807871308E+02 0.11493169646E+02
 0.10215828921E+02 0.90352984856E+01 0.79899050491E+01 0.70965680389E+01 0.63543409983E+01
 0.57501753726E+01 0.52650980105E+01 0.48794150486E+01 0.45762230336E+01 0.43430999366E+01
 0.41722506185E+01 0.40596143836E+01 0.40035332381E+01 0.40035327842E+01 0.40596132344E+01
 0.41722493035E+01 0.43430990122E+01 0.45762227657E+01 0.48794151690E+01 0.52650977376E+01
 0.57501736056E+01 0.63543367674E+01 0.70965609213E+01 0.79898954003E+01 0.90352875286E+01
 0.13218288630E+02 0.15062324556E+02 0.16975876253E+02 0.18852998718E+02 0.20547084655E+02
 0.21900622165E+02 0.22775525031E+02 0.23078172943E+02 0.22775521537E+02 0.21900616196E+02
 0.20547077955E+02 0.18852993209E+02 0.16975873496E+02 0.15062325368E+02 0.13218292896E+02
 0.11493169646E+02 0.99343426585E+01 0.85851662534E+01 0.74591570468E+01 0.65461067099E+01
 0.58211832028E+01 0.52538445179E+01 0.48147100479E+01 0.44796948410E+01 0.42315745489E+01
 0.40596143836E+01 0.39580800710E+01 0.39244577767E+01 0.39580798594E+01 0.40596141052E+01
 0.42315743837E+01 0.44796948351E+01 0.48147099690E+01 0.52538438583E+01 0.58211812859E+01
 0.65461029950E+01 0.74591513766E+01 0.85851590530E+01 0.99343350294E+01 0.11493162982E+02
 0.17609939217E+02 0.20382577850E+02 0.23220887061E+02 0.25903719613E+02 0.28188662455E+02
 0.29853503175E+02 0.30730683345E+02 0.30730681191E+02 0.29853497144E+02 0.28188653673E+02
 0.25903709689E+02 0.23220877698E+02 0.20382570460E+02 0.17609934640E+02 0.15062325368E+02
 0.12807871308E+02 0.10836113930E+02 0.91655053173E+01 0.78023579842E+01 0.67229015854E+01
 0.58867754053E+01 0.52491844271E+01 0.47694373107E+01 0.44154238201E+01 0.41647302583E+01
 0.40035332381E+01 0.39244577767E+01 0.39244580604E+01 0.40035340184E+01 0.41647312980E+01
 0.44154247712E+01 0.47694377438E+01 0.52491839566E+01 0.58867737578E+01 0.67228987822E+01
 0.78023543374E+01 0.91655015315E+01 0.10836110962E+02 0.12807870122E+02 0.15062326889E+02
 0.24221594562E+02 0.28276419899E+02 0.32242067272E+02 0.35778654723E+02 0.38565999288E+02
 0.40347763080E+02 0.40960346894E+02 0.40347759777E+02 0.38565992936E+02 0.35778645843E+02
 0.32242056645E+02 0.28276408580E+02 0.24221583730E+02 0.20382570460E+02 0.16975873496E+02
 0.14091642351E+02 0.11685947915E+02 0.96937767127E+01 0.81026522540E+01 0.68710683365E+01
 0.59398786825E+01 0.52480409069E+01 0.47426291046E+01 0.43832620680E+01 0.41424361982E+01
 0.40035327842E+01 0.39580798594E+01 0.40035340184E+01 0.41424382008E+01 0.43832640792E+01
 0.47426303291E+01 0.52480408268E+01 0.59398772302E+01 0.68710660173E+01 0.81026499529E+01
 0.96937755850E+01 0.11685948929E+02 0.14091646175E+02 0.16975880261E+02 0.20382579667E+02
 0.33745848306E+02 0.39234612821E+02 0.44297231161E+02 0.48508496385E+02 0.51518561960E+02
 0.53084891695E+02 0.53084891399E+02 0.51518560789E+02 0.48508493637E+02 0.44297226096E+02
 0.39234605013E+02 0.33745838038E+02 0.28276408580E+02 0.23220877698E+02 0.18852993209E+02
 0.15278353836E+02 0.12425471381E+02 0.10131926506E+02 0.83370922896E+01 0.69780402777E+01
 0.59744666293E+01 0.52480951136E+01 0.47337498731E+01 0.43832614166E+01 0.41647290523E+01
 0.40596132344E+01 0.40596141052E+01 0.41647312980E+01 0.43832640792E+01 0.47337518143E+01
 0.52480954913E+01 0.59744652979E+01 0.69780379263E+01 0.83370902438E+01 0.10131926344E+02
 0.12425474305E+02 0.15278360372E+02 0.18853002863E+02 0.23220889199E+02 0.28276420280E+02
 0.46394062135E+02 0.53163481737E+02 0.59009729871E+02 0.63493452785E+02 0.66303222577E+02
 0.67259170325E+02 0.66303225664E+02 0.63493457639E+02 0.59009734317E+02 0.53163483565E+02
 0.46394059874E+02 0.39234605013E+02 0.32242056645E+02 0.25903709689E+02 0.20547077955E+02
 0.16282813105E+02 0.13000050725E+02 0.10445789531E+02 0.84863818300E+01 0.70341545235E+01
 0.59864744726E+01 0.52480946998E+01 0.47426280924E+01 0.44154221915E+01 0.42315726963E+01
 0.41722493035E+01 0.42315743837E+01 0.44154247712E+01 0.47426303291E+01 0.52480954913E+01
 0.59864733905E+01 0.70341521015E+01 0.84863794417E+01 0.10445788940E+02 0.13000053357E+02
 0.16282819529E+02 0.20547087424E+02 0.25903720463E+02 0.32242066372E+02 0.39234611571E+02
 0.61702779005E+02 0.69270034535E+02 0.75342498862E+02 0.79559599874E+02 0.81713223011E+02
 0.81713226371E+02 0.79559609018E+02 0.75342511237E+02 0.69270046781E+02 0.61702788017E+02
 0.53163483565E+02 0.44297226096E+02 0.35778645843E+02 0.28188653673E+02 0.21900616196E+02
 0.17015279593E+02 0.13365692231E+02 0.10609628074E+02 0.85376511299E+01 0.70341541451E+01
 0.59744659532E+01 0.52480399184E+01 0.47694358819E+01 0.44796930808E+01 0.43430982994E+01
 0.43430990122E+01 0.44796948351E+01 0.47694377438E+01 0.52480408268E+01 0.59744652979E+01
 0.70341521015E+01 0.85376487325E+01 0.10609626824E+02 0.13365693500E+02 0.17015283962E+02
 0.21900623021E+02 0.28188661187E+02 0.35778651540E+02 0.44297227672E+02 0.53163479724E+02
 0.78522214401E+02 0.86158905606E+02 0.91787954840E+02 0.95211424149E+02 0.96357429981E+02
 0.95211431987E+02 0.91787968739E+02 0.86158922542E+02 0.78522230941E+02 0.69270046781E+02
 0.59009734317E+02 0.48508493637E+02 0.38565992936E+02 0.29853497144E+02 0.22775521537E+02
 0.17402133067E+02 0.13491378763E+02 0.10609627882E+02 0.84863810430E+01 0.69780391979E+01
 0.59398776509E+01 0.52491835401E+01 0.48147091612E+01 0.45762221593E+01 0.45002717768E+01
 0.45762227657E+01 0.48147099690E+01 0.52491839566E+01 0.59398772302E+01 0.69780379263E+01
 0.84863794417E+01 0.10609626824E+02 0.13491379091E+02 0.17402135122E+02 0.22775524807E+02
 0.29853500260E+02 0.38565993918E+02 0.48508490607E+02 0.59009726109E+02 0.69270033554E+02
 0.95234347435E+02 0.10214616238E+03 0.10673642707E+03 0.10900985635E+03 0.10900985936E+03
 0.10673643561E+03 0.10214617502E+03 0.95234362143E+02 0.86158922542E+02 0.75342511237E+02
 0.63493457639E+02 0.51518560789E+02 0.40347759777E+02 0.30730681191E+02 0.23078172943E+02
 0.17402134131E+02 0.13365692733E+02 0.10445788717E+02 0.83370905700E+01 0.68710667263E+01
 0.58867745961E+01 0.52538446101E+01 0.48794156725E+01 0.47058152992E+01 0.47058151203E+01
 0.48794151690E+01 0.52538438583E+01 0.58867737578E+01 0.68710660173E+01 0.83370902438E+01
 0.10445788940E+02 0.13365693500E+02 0.17402135122E+02 0.23078173514E+02 0.30730680421E+02
 0.40347756653E+02 0.51518554524E+02 0.63493447903E+02 0.75342498440E+02 0.86158907885E+02
 0.11015521262E+03 0.11569921055E+03 0.11890153825E+03 0.11994221231E+03 0.11890153889E+03
 0.11569921223E+03 0.11015521590E+03 0.10214617502E+03 0.91787968739E+02 0.79559609018E+02
 0.66303225664E+02 0.53084891399E+02 0.40960346894E+02 0.30730683345E+02 0.22775525031E+02
 0.17015282282E+02 0.13000050982E+02 0.10131924486E+02 0.81026494262E+01 0.67228997623E+01
 0.58211832963E+01 0.52650998885E+01 0.49650769544E+01 0.48704883263E+01 0.49650755891E+01
 0.52650977376E+01 0.58211812859E+01 0.67228987822E+01 0.81026499529E+01 0.10131926344E+02
 0.13000053357E+02 0.17015283962E+02 0.22775524807E+02 0.30730680421E+02 0.40960341165E+02
 0.53084883504E+02 0.66303216739E+02 0.79559600401E+02 0.91787961515E+02 0.10214616976E+03
 0.12198763716E+03 0.12584584759E+03 0.12764497581E+03 0.12764497244E+03 0.12584583850E+03
 0.12198762510E+03 0.11569921223E+03 0.10673643561E+03 0.95211431987E+02 0.81713226371E+02
 0.67259170325E+02 0.53084891695E+02 0.40347763080E+02 0.29853503175E+02 0.21900622165E+02
 0.16282816070E+02 0.12425470221E+02 0.96937728361E+01 0.78023540615E+01 0.65461051363E+01
 0.57501770149E+01 0.52864473899E+01 0.50739156841E+01 0.50739144943E+01 0.52864443733E+01
 0.57501736056E+01 0.65461029950E+01 0.78023543374E+01 0.96937755850E+01 0.12425474305E+02
 0.16282819529E+02 0.21900623021E+02 0.29853500260E+02 0.40347756653E+02 0.53084883504E+02
 0.67259163093E+02 0.81713222889E+02 0.95211434033E+02 0.10673644326E+03 0.11569922368E+03
 0.13015607970E+03 0.13239745173E+03 0.13307763525E+03 0.13239743863E+03 0.13015605683E+03
 0.12584583850E+03 0.11890153889E+03 0.10900985936E+03 0.96357429981E+02 0.81713223011E+02
 0.66303222577E+02 0.51518561960E+02 0.38565999288E+02 0.28188662455E+02 0.20547084655E+02
 0.15278355361E+02 0.11685944219E+02 0.91654992502E+01 0.74591523522E+01 0.63543402708E+01
 0.56809337245E+01 0.53215173549E+01 0.52089418426E+01 0.53215145923E+01 0.56809295492E+01
 0.63543367674E+01 0.74591513766E+01 0.91655015315E+01 0.11685948929E+02 0.15278360372E+02
 0.20547087424E+02 0.28188661187E+02 0.38565993918E+02 0.51518554524E+02 0.66303216739E+02
 0.81713222889E+02 0.96357438586E+02 0.10900987733E+03 0.11890156386E+03 0.12584586551E+03
 0.13489611289E+03 0.13590292129E+03 0.13590291274E+03 0.13489608930E+03 0.13239743863E+03
 0.12764497244E+03 0.11994221231E+03 0.10900985635E+03 0.95211424149E+02 0.79559599874E+02
 0.63493452785E+02 0.48508496385E+02 0.35778654723E+02 0.25903719613E+02 0.18852998718E+02
 0.14091640947E+02 0.10836107142E+02 0.85851582675E+01 0.70965632645E+01 0.61606085855E+01
 0.56199559373E+01 0.53738455330E+01 0.53738440452E+01 0.56199522100E+01 0.61606044849E+01
 0.70965609213E+01 0.85851590530E+01 0.10836110962E+02 0.14091646175E+02 0.18853002863E+02
 0.25903720463E+02 0.35778651540E+02 0.48508490607E+02 0.63493447903E+02 0.79559600401E+02
 0.95211434033E+02 0.10900987733E+03 0.11994224287E+03 0.12764500778E+03 0.13239747174E+03
 0.13706789074E+03 0.13735586807E+03 0.13706787553E+03 0.13590291274E+03 0.13307763525E+03
 0.12764497581E+03 0.11890153825E+03 0.10673642707E+03 0.91787954840E+02 0.75342498862E+02
 0.59009729871E+02 0.44297231161E+02 0.32242067272E+02 0.23220887061E+02 0.16975876253E+02
 0.12807866238E+02 0.99343330458E+01 0.79898960733E+01 0.67358704170E+01 0.59758974764E+01
 0.55725513895E+01 0.54466564657E+01 0.55725491297E+01 0.59758940865E+01 0.67358676303E+01
 0.79898954003E+01 0.99343350294E+01 0.12807870122E+02 0.16975880261E+02 0.23220889199E+02
 0.32242066372E+02 0.44297227672E+02 0.59009726109E+02 0.75342498440E+02 0.91787961515E+02
 0.10673644326E+03 0.11890156386E+03 0.12764500778E+03 0.13307766803E+03 0.13590293969E+03
 0.13776869155E+03 0.13776868686E+03 0.13735586807E+03 0.13590292129E+03 0.13239745173E+03
 0.12584584759E+03 0.11569921055E+03 0.10214616238E+03 0.86158905606E+02 0.69270034535E+02
 0.53163481737E+02 0.39234612821E+02 0.28276419899E+02 0.20382577850E+02 0.15062324556E+02
 0.11493161253E+02 0.90352871514E+01 0.74117567547E+01 0.63940641845E+01 0.58083742571E+01
 0.55425700279E+01 0.55425693531E+01 0.58083725655E+01 0.63940623350E+01 0.74117557103E+01
 0.90352875286E+01 0.11493162982E+02 0.15062326889E+02 0.20382579667E+02 0.28276420280E+02
 0.39234611571E+02 0.53163479724E+02 0.69270033554E+02 0.86158907885E+02 0.10214616976E+03
 0.11569922368E+03 0.12584586551E+03 0.13239747174E+03 0.13590293969E+03 0.13735588105E+03
 0.13776869155E+03 0.13735588105E+03 0.13590293969E+03 0.13239747174E+03 0.12584586551E+03
 0.11569922368E+03 0.10214616976E+03 0.86158907885E+02 0.69270033554E+02 0.53163479724E+02
 0.39234611571E+02 0.28276420280E+02 0.20382579667E+02 0.15062326889E+02 0.11493162982E+02
 0.90352875286E+01 0.74117557103E+01 0.63940623350E+01 0.58083725655E+01 0.55425693531E+01
 0.55425700279E+01 0.58083742571E+01 0.63940641845E+01 0.74117567547E+01 0.90352871514E+01
 0.11493161253E+02 0.15062324556E+02 0.20382577850E+02 0.28276419899E+02 0.39234612821E+02