       N       E                     dE             d eps       ncg     rms          rms(c)
DAV:   1     0.167307701060E+02    0.16731E+02   -0.11703E+04  5928   0.589E+02
DAV:   2    -0.640526906658E+01   -0.23136E+02   -0.22964E+02  6984   0.901E+01
DAV:   3    -0.644078247315E+01   -0.35513E-01   -0.35510E-01  7032   0.396E+00
DAV:   4    -0.644080748866E+01   -0.25016E-04   -0.25017E-04  8208   0.731E-02
DAV:   5    -0.644080748988E+01   -0.12210E-08   -0.89177E-09  6936   0.330E-04    0.139E+01
DAV:   6    -0.610026055349E+01    0.34055E+00   -0.13096E+00  5952   0.507E+00    0.421E+00
DAV:   7    -0.608352594576E+01    0.16735E-01   -0.67119E-02  7800   0.950E-01    0.138E+00
DAV:   8    -0.608206736924E+01    0.14586E-02   -0.39363E-03  6216   0.477E-01    0.117E-01
DAV:   9    -0.608201058253E+01    0.56787E-04   -0.42406E-05  7224   0.476E-02    0.161E-02
DAV:  10    -0.608201662682E+01   -0.60443E-05   -0.54989E-06  7464   0.132E-02    0.569E-03
DAV:  11    -0.608201655454E+01    0.72285E-07   -0.42554E-09  3408   0.429E-04
   1 F= -.60820166E+01 E0= -.60807293E+01  d E =-.608202E+01
