PROCAR lm decomposed
# of k-points:  110         # of bands:   24         # of ions:    1

 k-point     1 :    0.05000000 0.05000000 0.05000000     weight = 0.00200000

band     1 # energy  -41.19512493 # occ.  2.00000000
 
ion      s     py     pz     px    dxy    dyz    dz2    dxz  x2-y2    tot
    1  0.000  0.332  0.332  0.332  0.000  0.000  0.000  0.000  0.000  0.996
 
band     2 # energy  -41.18701311 # occ.  2.00000000
 
ion      s     py     pz     px    dxy    dyz    dz2    dxz  x2-y2    tot
    1  0.000  0.062  0.430  0.504  0.000  0.000  0.000  0.000  0.000  0.996
 
band     3 # energy  -41.18701311 # occ.  2.00000000
 
ion      s     py     pz     px    dxy    dyz    dz2    dxz  x2-y2    tot
    1  0.000  0.602  0.234  0.160  0.000  0.000  0.000  0.000  0.000  0.996
 
band     4 # energy    1.54512006 # occ.  2.00000000
 
ion      s     py     pz     px    dxy    dyz    dz2    dxz  x2-y2    tot
    1  0.384  0.000  0.000  0.000  0.000  0.000  0.000  0.000  0.000  0.385
 
band     5 # energy    7.63649401 # occ.  2.00000000
 
ion      s     py     pz     px    dxy    dyz    dz2    dxz  x2-y2    tot
    1  0.000  0.000  0.000  0.000  0.279  0.279  0.000  0.279  0.000  0.839
 
band     6 # energy    7.71658430 # occ.  2.00000000
 
ion      s     py     pz     px    dxy    dyz    dz2    dxz  x2-y2    tot
    1  0.000  0.000  0.000  0.000  0.000  0.422  0.000  0.422  0.000  0.844
 
band     7 # energy    7.71658430 # occ.  2.00000000
 
ion      s     py     pz     px    dxy    dyz    dz2    dxz  x2-y2    tot
    1  0.000  0.000  0.000  0.000  0.562  0.141  0.000  0.141  0.000  0.844
 
band     8 # energy    9.67498366 # occ.  2.00000000
 
ion      s     py     pz     px    dxy    dyz    dz2    dxz  x2-y2    tot
    1  0.000  0.000  0.000  0.000  0.000  0.000  0.000  0.000  0.907  0.907
 
band     9 # energy    9.67498366 # occ.  2.00000000
 
ion      s     py     pz     px    dxy    dyz    dz2    dxz  x2-y2    tot
    1  0.000  0.000  0.000  0.000  0.000  0.000  0.907  0.000  0.000  0.907
 
band    10 # energy   26.07910895 # occ.  0.00000000
 
ion      s     py     pz     px    dxy    dyz    dz2    dxz  x2-y2    tot
    1  0.000  0.000  0.000  0.000  0.002  0.002  0.000  0.002  0.000  0.007
 
band    11 # energy   30.10403186 # occ.  0.00000000
 
ion      s     py     pz     px    dxy    dyz    dz2    dxz  x2-y2    tot
    1  0.009  0.023  0.023  0.023  0.002  0.002  0.000  0.002  0.000  0.083
 
band    12 # energy   30.79749630 # occ.  0.00000000
 
ion      s     py     pz     px    dxy    dyz    dz2    dxz  x2-y2    tot
    1  0.000  0.041  0.001  0.032  0.000  0.001  0.000  0.001  0.003  0.078
 
band    13 # energy   30.79749630 # occ.  0.00000000
 
ion      s     py     pz     px    dxy    dyz    dz2    dxz  x2-y2    tot
    1  0.000  0.008  0.048  0.017  0.001  0.000  0.003  0.000  0.000  0.078
 
band    14 # energy   36.44593747 # occ.  0.00000000
 
ion      s     py     pz     px    dxy    dyz    dz2    dxz  x2-y2    tot
    1  0.047  0.006  0.006  0.006  0.001  0.001  0.000  0.001  0.000  0.066
 
band    15 # energy   40.88339578 # occ.  0.00000000
 
ion      s     py     pz     px    dxy    dyz    dz2    dxz  x2-y2    tot
    1  0.009  0.053  0.053  0.053  0.098  0.098  0.000  0.098  0.000  0.462
 
band    16 # energy   41.61162585 # occ.  0.00000000
 
ion      s     py     pz     px    dxy    dyz    dz2    dxz  x2-y2    tot
    1  0.000  0.049  0.001  0.040  0.002  0.171  0.000  0.208  0.002  0.472
 
band    17 # energy   41.61162585 # occ.  0.00000000
 
ion      s     py     pz     px    dxy    dyz    dz2    dxz  x2-y2    tot
    1  0.000  0.011  0.059  0.019  0.252  0.083  0.002  0.046  0.000  0.472
 
band    18 # energy   44.65540529 # occ.  0.00000000
 
ion      s     py     pz     px    dxy    dyz    dz2    dxz  x2-y2    tot
    1  0.000  0.260  0.000  0.258  0.000  0.043  0.000  0.044  0.015  0.621
 
band    19 # energy   44.65540529 # occ.  0.00000000
 
ion      s     py     pz     px    dxy    dyz    dz2    dxz  x2-y2    tot
    1  0.000  0.085  0.346  0.088  0.058  0.015  0.015  0.014  0.000  0.621
 
band    20 # energy   45.55948624 # occ.  0.00000000
 
ion      s     py     pz     px    dxy    dyz    dz2    dxz  x2-y2    tot
    1  0.026  0.140  0.140  0.140  0.059  0.059  0.000  0.059  0.000  0.625
 
band    21 # energy   51.47399980 # occ.  0.00000000
 
ion      s     py     pz     px    dxy    dyz    dz2    dxz  x2-y2    tot
    1  0.000  0.014  0.001  0.008  0.000  0.000  0.037  0.000  0.402  0.462
 
band    22 # energy   51.47399980 # occ.  0.00000000
 
ion      s     py     pz     px    dxy    dyz    dz2    dxz  x2-y2    tot
    1  0.000  0.001  0.014  0.008  0.000  0.000  0.402  0.000  0.037  0.462
 
band    23 # energy   52.03029199 # occ.  0.00000000
 
ion      s     py     pz     px    dxy    dyz    dz2    dxz  x2-y2    tot
    1  6.293  0.000  0.000  0.000  0.000  0.000  0.000  0.000  0.000  6.293
 
band    24 # energy   58.16466791 # occ.  0.00000000
 
ion      s     py     pz     px    dxy    dyz    dz2    dxz  x2-y2    tot
    1  0.451  0.015  0.015  0.015  0.000  0.000  0.000  0.000  0.000  0.498
 

 k-point     2 :    0.15000000 0.05000000 0.05000000     weight = 0.00600000

band     1 # energy  -41.24111178 # occ.  2.00000000
 
ion      s     py     pz     px    dxy    dyz    dz2    dxz  x2-y2    tot
    1  0.000  0.454  0.454  0.087  0.000  0.000  0.000  0.000  0.000  0.994
 
band     2 # energy  -41.20049353 # occ.  2.00000000
 
ion      s     py     pz     px    dxy    dyz    dz2    dxz  x2-y2    tot
    1  0.000  0.044  0.044  0.909  0.000  0.000  0.000  0.000  0.000  0.996
 
band     3 # energy  -41.19041766 # occ.  2.00000000
 
ion      s     py     pz     px    dxy    dyz    dz2    dxz  x2-y2    tot
    1  0.000  0.498  0.498  0.000  0.000  0.000  0.000  0.000  0.000  0.996
 
band     4 # energy    2.04724546 # occ.  2.00000000
 
ion      s     py     pz     px    dxy    dyz    dz2    dxz  x2-y2    tot
    1  0.372  0.004  0.004  0.000  0.000  0.002  0.000  0.000  0.000  0.383
 
band     5 # energy    7.42160725 # occ.  2.00000000
 
ion      s     py     pz     px    dxy    dyz    dz2    dxz  x2-y2    tot
    1  0.000  0.000  0.000  0.002  0.394  0.029  0.000  0.394  0.000  0.819
 
band     6 # energy    7.88784795 # occ.  2.00000000
 
ion      s     py     pz     px    dxy    dyz    dz2    dxz  x2-y2    tot
    1  0.000  0.000  0.000  0.000  0.421  0.000  0.003  0.421  0.001  0.847
 
band     7 # energy    7.92515653 # occ.  2.00000000
 
ion      s     py     pz     px    dxy    dyz    dz2    dxz  x2-y2    tot
    1  0.000  0.001  0.001  0.000  0.015  0.787  0.006  0.015  0.018  0.843
 
band     8 # energy    9.46728952 # occ.  2.00000000
 
ion      s     py     pz     px    dxy    dyz    dz2    dxz  x2-y2    tot
    1  0.000  0.000  0.000  0.000  0.002  0.000  0.667  0.002  0.222  0.894
 
band     9 # energy    9.73041483 # occ.  2.00000000
 
ion      s     py     pz     px    dxy    dyz    dz2    dxz  x2-y2    tot
    1  0.000  0.000  0.000  0.000  0.001  0.024  0.220  0.001  0.660  0.905
 
band    10 # energy   26.77284407 # occ.  0.00000000
 
ion      s     py     pz     px    dxy    dyz    dz2    dxz  x2-y2    tot
    1  0.000  0.000  0.000  0.001  0.021  0.003  0.000  0.021  0.000  0.047
 
band    11 # energy   28.39481564 # occ.  0.00000000
 
ion      s     py     pz     px    dxy    dyz    dz2    dxz  x2-y2    tot
    1  0.034  0.027  0.027  0.008  0.003  0.017  0.001  0.003  0.004  0.125
 
band    12 # energy   30.86276303 # occ.  0.00000000
 
ion      s     py     pz     px    dxy    dyz    dz2    dxz  x2-y2    tot
    1  0.000  0.003  0.003  0.094  0.012  0.003  0.001  0.012  0.004  0.131
 
band    13 # energy   31.87189739 # occ.  0.00000000
 
ion      s     py     pz     px    dxy    dyz    dz2    dxz  x2-y2    tot
    1  0.000  0.035  0.035  0.000  0.001  0.000  0.021  0.001  0.007  0.099
 
band    14 # energy   36.76118296 # occ.  0.00000000
 
ion      s     py     pz     px    dxy    dyz    dz2    dxz  x2-y2    tot
    1  0.004  0.102  0.102  0.008  0.005  0.110  0.000  0.005  0.001  0.337
 
band    15 # energy   39.13409884 # occ.  0.00000000
 
ion      s     py     pz     px    dxy    dyz    dz2    dxz  x2-y2    tot
    1  0.006  0.005  0.005  0.146  0.071  0.036  0.002  0.071  0.006  0.348
 
band    16 # energy   39.71594983 # occ.  0.00000000
 
ion      s     py     pz     px    dxy    dyz    dz2    dxz  x2-y2    tot
    1  0.063  0.003  0.003  0.024  0.017  0.010  0.001  0.017  0.002  0.139
 
band    17 # energy   40.70423305 # occ.  0.00000000
 
ion      s     py     pz     px    dxy    dyz    dz2    dxz  x2-y2    tot
    1  0.000  0.083  0.083  0.000  0.131  0.000  0.016  0.131  0.005  0.450
 
band    18 # energy   43.07796880 # occ.  0.00000000
 
ion      s     py     pz     px    dxy    dyz    dz2    dxz  x2-y2    tot
    1  0.000  0.175  0.175  0.000  0.080  0.000  0.040  0.080  0.013  0.562
 
band    19 # energy   46.06593092 # occ.  0.00000000
 
ion      s     py     pz     px    dxy    dyz    dz2    dxz  x2-y2    tot
    1  0.075  0.110  0.110  0.029  0.000  0.251  0.006  0.000  0.018  0.598
 
band    20 # energy   48.25988060 # occ.  0.00000000
 
ion      s     py     pz     px    dxy    dyz    dz2    dxz  x2-y2    tot
    1  0.032  0.004  0.004  0.324  0.125  0.003  0.006  0.125  0.018  0.642
 
band    21 # energy   50.38402869 # occ.  0.00000000
 
ion      s     py     pz     px    dxy    dyz    dz2    dxz  x2-y2    tot
    1  0.007  0.006  0.006  0.056  0.004  0.008  0.068  0.004  0.204  0.364
 
band    22 # energy   52.04318162 # occ.  0.00000000
 
ion      s     py     pz     px    dxy    dyz    dz2    dxz  x2-y2    tot
    1  6.289  0.000  0.000  0.000  0.000  0.000  0.000  0.000  0.000  6.289
 
band    23 # energy   52.64333422 # occ.  0.00000000
 
ion      s     py     pz     px    dxy    dyz    dz2    dxz  x2-y2    tot
    1  0.000  0.055  0.055  0.000  0.001  0.000  0.233  0.001  0.078  0.421
 
band    24 # energy   59.58591242 # occ.  0.00000000
 
ion      s     py     pz     px    dxy    dyz    dz2    dxz  x2-y2    tot
    1  0.000  0.000  0.000  0.000  0.005  0.000  0.029  0.005  0.010  0.050
 

 k-point     3 :    0.25000000 0.05000000 0.05000000     weight = 0.00600000

band     1 # energy  -41.34637451 # occ.  2.00000000
 
ion      s     py     pz     px    dxy    dyz    dz2    dxz  x2-y2    tot
    1  0.000  0.389  0.389  0.212  0.000  0.000  0.000  0.000  0.000  0.991
 
band     2 # energy  -41.21894913 # occ.  2.00000000
 
ion      s     py     pz     px    dxy    dyz    dz2    dxz  x2-y2    tot
    1  0.000  0.106  0.106  0.783  0.000  0.000  0.000  0.000  0.000  0.995
 
band     3 # energy  -41.20396807 # occ.  2.00000000
 
ion      s     py     pz     px    dxy    dyz    dz2    dxz  x2-y2    tot
    1  0.000  0.498  0.498  0.000  0.000  0.000  0.000  0.000  0.000  0.996
 
band     4 # energy    3.12801930 # occ.  2.00000000
 
ion      s     py     pz     px    dxy    dyz    dz2    dxz  x2-y2    tot
    1  0.334  0.008  0.008  0.002  0.011  0.021  0.000  0.011  0.001  0.396
 
band     5 # energy    7.21303882 # occ.  2.00000000
 
ion      s     py     pz     px    dxy    dyz    dz2    dxz  x2-y2    tot
    1  0.009  0.003  0.003  0.006  0.337  0.064  0.000  0.337  0.000  0.759
 
band     6 # energy    8.06787639 # occ.  2.00000000
 
ion      s     py     pz     px    dxy    dyz    dz2    dxz  x2-y2    tot
    1  0.001  0.001  0.001  0.000  0.034  0.572  0.049  0.034  0.146  0.838
 
band     7 # energy    8.10463193 # occ.  2.00000000
 
ion      s     py     pz     px    dxy    dyz    dz2    dxz  x2-y2    tot
    1  0.000  0.000  0.000  0.000  0.346  0.000  0.118  0.346  0.039  0.849
 
band     8 # energy    9.45583626 # occ.  2.00000000
 
ion      s     py     pz     px    dxy    dyz    dz2    dxz  x2-y2    tot
    1  0.000  0.000  0.000  0.000  0.082  0.000  0.540  0.082  0.180  0.884
 
band     9 # energy    9.98196248 # occ.  2.00000000
 
ion      s     py     pz     px    dxy    dyz    dz2    dxz  x2-y2    tot
    1  0.002  0.001  0.001  0.000  0.011  0.180  0.174  0.011  0.522  0.901
 
band    10 # energy   25.42369334 # occ.  0.00000000
 
ion      s     py     pz     px    dxy    dyz    dz2    dxz  x2-y2    tot
    1  0.085  0.031  0.031  0.028  0.031  0.045  0.001  0.031  0.003  0.285
 
band    11 # energy   27.64603397 # occ.  0.00000000
 
ion      s     py     pz     px    dxy    dyz    dz2    dxz  x2-y2    tot
    1  0.000  0.001  0.001  0.008  0.042  0.009  0.000  0.042  0.001  0.105
 
band    12 # energy   31.81145806 # occ.  0.00000000
 
ion      s     py     pz     px    dxy    dyz    dz2    dxz  x2-y2    tot
    1  0.001  0.017  0.017  0.127  0.017  0.031  0.005  0.017  0.015  0.246
 
band    13 # energy   33.71134181 # occ.  0.00000000
 
ion      s     py     pz     px    dxy    dyz    dz2    dxz  x2-y2    tot
    1  0.035  0.074  0.074  0.004  0.000  0.033  0.002  0.000  0.007  0.230
 
band    14 # energy   33.84397105 # occ.  0.00000000
 
ion      s     py     pz     px    dxy    dyz    dz2    dxz  x2-y2    tot
    1  0.000  0.040  0.040  0.000  0.010  0.000  0.050  0.010  0.017  0.167
 
band    15 # energy   36.91118083 # occ.  0.00000000
 
ion      s     py     pz     px    dxy    dyz    dz2    dxz  x2-y2    tot
    1  0.000  0.104  0.104  0.000  0.052  0.000  0.037  0.052  0.012  0.361
 
band    16 # energy   37.03638863 # occ.  0.00000000
 
ion      s     py     pz     px    dxy    dyz    dz2    dxz  x2-y2    tot
    1  0.003  0.000  0.000  0.106  0.019  0.012  0.008  0.019  0.024  0.192
 
band    17 # energy   43.54828582 # occ.  0.00000000
 
ion      s     py     pz     px    dxy    dyz    dz2    dxz  x2-y2    tot
    1  0.000  0.117  0.117  0.000  0.114  0.000  0.043  0.114  0.014  0.520
 
band    18 # energy   43.55667497 # occ.  0.00000000
 
ion      s     py     pz     px    dxy    dyz    dz2    dxz  x2-y2    tot
    1  0.090  0.000  0.000  0.000  0.000  0.012  0.003  0.000  0.008  0.114
 
band    19 # energy   46.73302447 # occ.  0.00000000
 
ion      s     py     pz     px    dxy    dyz    dz2    dxz  x2-y2    tot
    1  0.049  0.060  0.060  0.084  0.001  0.232  0.013  0.001  0.039  0.541
 
band    20 # energy   48.83639904 # occ.  0.00000000
 
ion      s     py     pz     px    dxy    dyz    dz2    dxz  x2-y2    tot
    1  0.106  0.005  0.005  0.026  0.101  0.000  0.026  0.101  0.079  0.449
 
band    21 # energy   51.43721733 # occ.  0.00000000
 
ion      s     py     pz     px    dxy    dyz    dz2    dxz  x2-y2    tot
    1  0.027  0.012  0.012  0.220  0.047  0.035  0.013  0.047  0.039  0.451
 
band    22 # energy   52.04701143 # occ.  0.00000000
 
ion      s     py     pz     px    dxy    dyz    dz2    dxz  x2-y2    tot
    1  6.272  0.000  0.000  0.000  0.000  0.000  0.000  0.000  0.000  6.273
 
band    23 # energy   53.33616036 # occ.  0.00000000
 
ion      s     py     pz     px    dxy    dyz    dz2    dxz  x2-y2    tot
    1  0.000  0.078  0.078  0.000  0.006  0.000  0.123  0.006  0.041  0.331
 
band    24 # energy   59.88294130 # occ.  0.00000000
 
ion      s     py     pz     px    dxy    dyz    dz2    dxz  x2-y2    tot
    1  0.000  0.000  0.000  0.000  0.001  0.000  0.039  0.001  0.013  0.054
 

 k-point     4 :    0.35000000 0.05000000 0.05000000     weight = 0.00600000

band     1 # energy  -41.46593069 # occ.  2.00000000
 
ion      s     py     pz     px    dxy    dyz    dz2    dxz  x2-y2    tot
    1  0.000  0.359  0.359  0.269  0.000  0.000  0.000  0.000  0.000  0.986
 
band     2 # energy  -41.23721480 # occ.  2.00000000
 
ion      s     py     pz     px    dxy    dyz    dz2    dxz  x2-y2    tot
    1  0.000  0.135  0.135  0.724  0.000  0.000  0.000  0.000  0.000  0.995
 
band     3 # energy  -41.22199924 # occ.  2.00000000
 
ion      s     py     pz     px    dxy    dyz    dz2    dxz  x2-y2    tot
    1  0.000  0.498  0.498  0.000  0.000  0.000  0.000  0.000  0.000  0.995
 
band     4 # energy    4.11310285 # occ.  2.00000000
 
ion      s     py     pz     px    dxy    dyz    dz2    dxz  x2-y2    tot
    1  0.236  0.006  0.006  0.002  0.079  0.091  0.000  0.079  0.001  0.501
 
band     5 # energy    7.74985681 # occ.  2.00000000
 
ion      s     py     pz     px    dxy    dyz    dz2    dxz  x2-y2    tot
    1  0.041  0.010  0.010  0.015  0.268  0.009  0.011  0.268  0.033  0.665
 
band     6 # energy    7.92836923 # occ.  2.00000000
 
ion      s     py     pz     px    dxy    dyz    dz2    dxz  x2-y2    tot
    1  0.014  0.007  0.007  0.003  0.000  0.367  0.089  0.000  0.268  0.757
 
band     7 # energy    7.95701390 # occ.  2.00000000
 
ion      s     py     pz     px    dxy    dyz    dz2    dxz  x2-y2    tot
    1  0.000  0.000  0.000  0.000  0.216  0.000  0.306  0.216  0.102  0.840
 
band     8 # energy   10.07724002 # occ.  2.00000000
 
ion      s     py     pz     px    dxy    dyz    dz2    dxz  x2-y2    tot
    1  0.000  0.001  0.001  0.000  0.220  0.000  0.344  0.220  0.115  0.900
 
band     9 # energy   10.68374082 # occ.  2.00000000
 
ion      s     py     pz     px    dxy    dyz    dz2    dxz  x2-y2    tot
    1  0.007  0.002  0.002  0.000  0.026  0.364  0.119  0.026  0.357  0.905
 
band    10 # energy   21.87084545 # occ.  0.00000000
 
ion      s     py     pz     px    dxy    dyz    dz2    dxz  x2-y2    tot
    1  0.172  0.032  0.032  0.034  0.065  0.070  0.001  0.065  0.002  0.473
 
band    11 # energy   26.89592762 # occ.  0.00000000
 
ion      s     py     pz     px    dxy    dyz    dz2    dxz  x2-y2    tot
    1  0.002  0.005  0.005  0.011  0.027  0.005  0.001  0.027  0.003  0.084
 
band    12 # energy   31.11313315 # occ.  0.00000000
 
ion      s     py     pz     px    dxy    dyz    dz2    dxz  x2-y2    tot
    1  0.010  0.048  0.048  0.137  0.026  0.031  0.000  0.026  0.001  0.328
 
band    13 # energy   33.30755297 # occ.  0.00000000
 
ion      s     py     pz     px    dxy    dyz    dz2    dxz  x2-y2    tot
    1  0.000  0.121  0.121  0.000  0.029  0.000  0.014  0.029  0.005  0.318
 
band    14 # energy   34.67217858 # occ.  0.00000000
 
ion      s     py     pz     px    dxy    dyz    dz2    dxz  x2-y2    tot
    1  0.019  0.007  0.007  0.037  0.001  0.017  0.013  0.001  0.040  0.143
 
band    15 # energy   36.37674656 # occ.  0.00000000
 
ion      s     py     pz     px    dxy    dyz    dz2    dxz  x2-y2    tot
    1  0.000  0.010  0.010  0.000  0.016  0.000  0.127  0.016  0.042  0.222
 
band    16 # energy   37.04021061 # occ.  0.00000000
 
ion      s     py     pz     px    dxy    dyz    dz2    dxz  x2-y2    tot
    1  0.023  0.006  0.006  0.024  0.004  0.000  0.017  0.004  0.052  0.136
 
band    17 # energy   44.02416736 # occ.  0.00000000
 
ion      s     py     pz     px    dxy    dyz    dz2    dxz  x2-y2    tot
    1  0.000  0.122  0.122  0.000  0.087  0.000  0.032  0.087  0.011  0.461
 
band    18 # energy   46.13406769 # occ.  0.00000000
 
ion      s     py     pz     px    dxy    dyz    dz2    dxz  x2-y2    tot
    1  0.144  0.013  0.013  0.074  0.000  0.179  0.015  0.000  0.044  0.482
 
band    19 # energy   48.33037986 # occ.  0.00000000
 
ion      s     py     pz     px    dxy    dyz    dz2    dxz  x2-y2    tot
    1  0.081  0.029  0.029  0.055  0.069  0.009  0.013  0.069  0.039  0.394
 
band    20 # energy   49.73206601 # occ.  0.00000000
 
ion      s     py     pz     px    dxy    dyz    dz2    dxz  x2-y2    tot
    1  0.020  0.018  0.018  0.021  0.031  0.002  0.006  0.031  0.018  0.166
 
band    21 # energy   52.05411864 # occ.  0.00000000
 
ion      s     py     pz     px    dxy    dyz    dz2    dxz  x2-y2    tot
    1  6.269  0.000  0.000  0.000  0.000  0.000  0.000  0.000  0.000  6.270
 
band    22 # energy   52.25424119 # occ.  0.00000000
 
ion      s     py     pz     px    dxy    dyz    dz2    dxz  x2-y2    tot
    1  0.024  0.023  0.023  0.117  0.018  0.071  0.003  0.018  0.008  0.303
 
band    23 # energy   54.05850517 # occ.  0.00000000
 
ion      s     py     pz     px    dxy    dyz    dz2    dxz  x2-y2    tot
    1  0.000  0.084  0.084  0.000  0.014  0.000  0.058  0.014  0.019  0.272
 
band    24 # energy   58.82929112 # occ.  0.00000000
 
ion      s     py     pz     px    dxy    dyz    dz2    dxz  x2-y2    tot
    1  0.000  0.002  0.002  0.000  0.044  0.000  0.068  0.044  0.023  0.181
 

 k-point     5 :    0.45000000 0.05000000 0.05000000     weight = 0.00600000

band     1 # energy  -41.55513199 # occ.  2.00000000
 
ion      s     py     pz     px    dxy    dyz    dz2    dxz  x2-y2    tot
    1  0.000  0.340  0.340  0.304  0.000  0.000  0.000  0.000  0.000  0.983
 
band     2 # energy  -41.24885553 # occ.  2.00000000
 
ion      s     py     pz     px    dxy    dyz    dz2    dxz  x2-y2    tot
    1  0.000  0.154  0.154  0.687  0.000  0.000  0.000  0.000  0.000  0.994
 
band     3 # energy  -41.23834709 # occ.  2.00000000
 
ion      s     py     pz     px    dxy    dyz    dz2    dxz  x2-y2    tot
    1  0.000  0.497  0.497  0.000  0.000  0.000  0.000  0.000  0.000  0.995
 
band     4 # energy    4.38309709 # occ.  2.00000000
 
ion      s     py     pz     px    dxy    dyz    dz2    dxz  x2-y2    tot
    1  0.148  0.002  0.002  0.000  0.150  0.155  0.000  0.150  0.000  0.608
 
band     5 # energy    7.65046864 # occ.  2.00000000
 
ion      s     py     pz     px    dxy    dyz    dz2    dxz  x2-y2    tot
    1  0.000  0.000  0.000  0.000  0.055  0.245  0.117  0.055  0.351  0.825
 
band     6 # energy    7.74367343 # occ.  2.00000000
 
ion      s     py     pz     px    dxy    dyz    dz2    dxz  x2-y2    tot
    1  0.000  0.000  0.000  0.000  0.173  0.000  0.364  0.173  0.121  0.832
 
band     7 # energy    9.45802619 # occ.  2.00000000
 
ion      s     py     pz     px    dxy    dyz    dz2    dxz  x2-y2    tot
    1  0.045  0.033  0.033  0.034  0.112  0.008  0.016  0.112  0.049  0.442
 
band     8 # energy   10.86809384 # occ.  2.00000000
 
ion      s     py     pz     px    dxy    dyz    dz2    dxz  x2-y2    tot
    1  0.000  0.000  0.000  0.000  0.275  0.000  0.284  0.275  0.095  0.929
 
band     9 # energy   11.52583724 # occ.  0.00000000
 
ion      s     py     pz     px    dxy    dyz    dz2    dxz  x2-y2    tot
    1  0.019  0.010  0.010  0.006  0.024  0.407  0.084  0.024  0.252  0.835
 
band    10 # energy   18.26497560 # occ.  0.00000000
 
ion      s     py     pz     px    dxy    dyz    dz2    dxz  x2-y2    tot
    1  0.284  0.016  0.016  0.020  0.109  0.095  0.001  0.109  0.002  0.652
 
band    11 # energy   25.90210985 # occ.  0.00000000
 
ion      s     py     pz     px    dxy    dyz    dz2    dxz  x2-y2    tot
    1  0.001  0.003  0.003  0.006  0.007  0.000  0.001  0.007  0.003  0.032
 
band    12 # energy   29.75466557 # occ.  0.00000000
 
ion      s     py     pz     px    dxy    dyz    dz2    dxz  x2-y2    tot
    1  0.006  0.039  0.039  0.143  0.014  0.003  0.000  0.014  0.001  0.260
 
band    13 # energy   30.78034617 # occ.  0.00000000
 
ion      s     py     pz     px    dxy    dyz    dz2    dxz  x2-y2    tot
    1  0.000  0.110  0.110  0.000  0.006  0.000  0.011  0.006  0.004  0.248
 
band    14 # energy   37.40849257 # occ.  0.00000000
 
ion      s     py     pz     px    dxy    dyz    dz2    dxz  x2-y2    tot
    1  0.009  0.000  0.000  0.018  0.000  0.070  0.040  0.000  0.120  0.258
 
band    15 # energy   38.34206453 # occ.  0.00000000
 
ion      s     py     pz     px    dxy    dyz    dz2    dxz  x2-y2    tot
    1  0.000  0.003  0.003  0.000  0.048  0.000  0.188  0.048  0.063  0.353
 
band    16 # energy   39.02743486 # occ.  0.00000000
 
ion      s     py     pz     px    dxy    dyz    dz2    dxz  x2-y2    tot
    1  0.075  0.006  0.006  0.011  0.051  0.008  0.010  0.051  0.030  0.250
 
band    17 # energy   44.75572436 # occ.  0.00000000
 
ion      s     py     pz     px    dxy    dyz    dz2    dxz  x2-y2    tot
    1  0.000  0.149  0.149  0.000  0.028  0.000  0.003  0.028  0.001  0.359
 
band    18 # energy   46.03561574 # occ.  0.00000000
 
ion      s     py     pz     px    dxy    dyz    dz2    dxz  x2-y2    tot
    1  0.082  0.010  0.010  0.157  0.000  0.099  0.012  0.000  0.036  0.407
 
band    19 # energy   47.45840054 # occ.  0.00000000
 
ion      s     py     pz     px    dxy    dyz    dz2    dxz  x2-y2    tot
    1  0.038  0.062  0.062  0.024  0.040  0.006  0.005  0.040  0.014  0.290
 
band    20 # energy   51.92845326 # occ.  0.00000000
 
ion      s     py     pz     px    dxy    dyz    dz2    dxz  x2-y2    tot
    1  0.039  0.029  0.029  0.060  0.011  0.062  0.002  0.011  0.005  0.247
 
band    21 # energy   52.05059327 # occ.  0.00000000
 
ion      s     py     pz     px    dxy    dyz    dz2    dxz  x2-y2    tot
    1  6.258  0.000  0.000  0.000  0.000  0.000  0.000  0.000  0.000  6.259
 
band    22 # energy   54.68374684 # occ.  0.00000000
 
ion      s     py     pz     px    dxy    dyz    dz2    dxz  x2-y2    tot
    1  0.000  0.067  0.067  0.000  0.001  0.000  0.023  0.001  0.008  0.165
 
band    23 # energy   54.91789427 # occ.  0.00000000
 
ion      s     py     pz     px    dxy    dyz    dz2    dxz  x2-y2    tot
    1  0.061  0.001  0.001  0.002  0.001  0.001  0.000  0.001  0.000  0.070
 
band    24 # energy   55.95159471 # occ.  0.00000000
 
ion      s     py     pz     px    dxy    dyz    dz2    dxz  x2-y2    tot
    1  0.000  0.011  0.011  0.000  0.113  0.000  0.007  0.113  0.002  0.257
 

 k-point     6 :   -0.45000000 0.05000000 0.05000000     weight = 0.00600000

band     1 # energy  -41.57948907 # occ.  2.00000000
 
ion      s     py     pz     px    dxy    dyz    dz2    dxz  x2-y2    tot
    1  0.000  0.324  0.324  0.335  0.000  0.000  0.000  0.000  0.000  0.983
 
band     2 # energy  -41.24933446 # occ.  2.00000000
 
ion      s     py     pz     px    dxy    dyz    dz2    dxz  x2-y2    tot
    1  0.000  0.169  0.169  0.655  0.000  0.000  0.000  0.000  0.000  0.994
 
band     3 # energy  -41.24557122 # occ.  2.00000000
 
ion      s     py     pz     px    dxy    dyz    dz2    dxz  x2-y2    tot
    1  0.000  0.497  0.497  0.000  0.000  0.000  0.000  0.000  0.000  0.994
 
band     4 # energy    4.39326863 # occ.  2.00000000
 
ion      s     py     pz     px    dxy    dyz    dz2    dxz  x2-y2    tot
    1  0.131  0.000  0.000  0.001  0.162  0.173  0.000  0.162  0.000  0.629
 
band     5 # energy    7.56553076 # occ.  2.00000000
 
ion      s     py     pz     px    dxy    dyz    dz2    dxz  x2-y2    tot
    1  0.000  0.000  0.000  0.000  0.058  0.208  0.124  0.058  0.372  0.822
 
band     6 # energy    7.69393367 # occ.  2.00000000
 
ion      s     py     pz     px    dxy    dyz    dz2    dxz  x2-y2    tot
    1  0.000  0.000  0.000  0.000  0.170  0.000  0.367  0.170  0.122  0.829
 
band     7 # energy   10.15010429 # occ.  2.00000000
 
ion      s     py     pz     px    dxy    dyz    dz2    dxz  x2-y2    tot
    1  0.002  0.032  0.032  0.031  0.032  0.215  0.034  0.032  0.102  0.513
 
band     8 # energy   11.25598308 # occ.  0.53749559
 
ion      s     py     pz     px    dxy    dyz    dz2    dxz  x2-y2    tot
    1  0.000  0.000  0.000  0.000  0.283  0.000  0.285  0.283  0.095  0.947
 
band     9 # energy   11.98505904 # occ.  0.00000000
 
ion      s     py     pz     px    dxy    dyz    dz2    dxz  x2-y2    tot
    1  0.003  0.026  0.026  0.030  0.070  0.167  0.058  0.070  0.174  0.624
 
band    10 # energy   16.76460040 # occ.  0.00000000
 
ion      s     py     pz     px    dxy    dyz    dz2    dxz  x2-y2    tot
    1  0.368  0.002  0.002  0.000  0.134  0.140  0.000  0.134  0.000  0.781
 
band    11 # energy   25.63378441 # occ.  0.00000000
 
ion      s     py     pz     px    dxy    dyz    dz2    dxz  x2-y2    tot
    1  0.000  0.003  0.003  0.005  0.000  0.004  0.001  0.000  0.004  0.020
 
band    12 # energy   29.67264600 # occ.  0.00000000
 
ion      s     py     pz     px    dxy    dyz    dz2    dxz  x2-y2    tot
    1  0.005  0.036  0.036  0.143  0.003  0.005  0.002  0.003  0.006  0.239
 
band    13 # energy   29.73081050 # occ.  0.00000000
 
ion      s     py     pz     px    dxy    dyz    dz2    dxz  x2-y2    tot
    1  0.000  0.110  0.110  0.000  0.001  0.000  0.004  0.001  0.001  0.227
 
band    14 # energy   38.55994881 # occ.  0.00000000
 
ion      s     py     pz     px    dxy    dyz    dz2    dxz  x2-y2    tot
    1  0.000  0.001  0.001  0.000  0.052  0.000  0.190  0.052  0.063  0.358
 
band    15 # energy   38.76018595 # occ.  0.00000000
 
ion      s     py     pz     px    dxy    dyz    dz2    dxz  x2-y2    tot
    1  0.000  0.000  0.000  0.001  0.014  0.080  0.066  0.014  0.198  0.373
 
band    16 # energy   40.23712750 # occ.  0.00000000
 
ion      s     py     pz     px    dxy    dyz    dz2    dxz  x2-y2    tot
    1  0.129  0.002  0.002  0.000  0.071  0.065  0.000  0.071  0.000  0.342
 
band    17 # energy   45.05299891 # occ.  0.00000000
 
ion      s     py     pz     px    dxy    dyz    dz2    dxz  x2-y2    tot
    1  0.022  0.074  0.074  0.129  0.002  0.001  0.001  0.002  0.002  0.308
 
band    18 # energy   46.07102914 # occ.  0.00000000
 
ion      s     py     pz     px    dxy    dyz    dz2    dxz  x2-y2    tot
    1  0.000  0.161  0.161  0.000  0.002  0.000  0.016  0.002  0.005  0.348
 
band    19 # energy   46.10497076 # occ.  0.00000000
 
ion      s     py     pz     px    dxy    dyz    dz2    dxz  x2-y2    tot
    1  0.001  0.008  0.008  0.104  0.006  0.000  0.001  0.006  0.003  0.138
 
band    20 # energy   52.05229077 # occ.  0.00000000
 
ion      s     py     pz     px    dxy    dyz    dz2    dxz  x2-y2    tot
    1  6.300  0.000  0.000  0.000  0.000  0.000  0.000  0.000  0.000  6.300
 
band    21 # energy   53.03988784 # occ.  0.00000000
 
ion      s     py     pz     px    dxy    dyz    dz2    dxz  x2-y2    tot
    1  0.000  0.038  0.038  0.000  0.052  0.000  0.000  0.052  0.000  0.180
 
band    22 # energy   53.66903707 # occ.  0.00000000
 
ion      s     py     pz     px    dxy    dyz    dz2    dxz  x2-y2    tot
    1  0.006  0.010  0.010  0.038  0.009  0.049  0.001  0.009  0.002  0.135
 