Pt-fcc                                  
   1.00000000000000     
     0.000000    2.018426    2.018426
     2.018426    0.000000    2.018426
     2.018426    2.018426    0.000000
   Pt
     1
Direct
  0.000000  0.000000  0.000000
 
   40   40   40
 0.14394487164E+03 0.14381381877E+03 0.14304649979E+03 0.14066598757E+03 0.13548048317E+03
 0.12657980632E+03 0.11376065056E+03 0.97717070829E+02 0.79916667391E+02 0.62207244959E+02
 0.46307874365E+02 0.33377533917E+02 0.23805116851E+02 0.17257691990E+02 0.12919880272E+02
 0.99417016760E+01 0.79457477441E+01 0.66682448947E+01 0.58980283517E+01 0.54904180853E+01
 0.53633414637E+01 0.54904180853E+01 0.58980283517E+01 0.66682448947E+01 0.79457477441E+01
 0.99417016760E+01 0.12919880272E+02 0.17257691990E+02 0.23805116851E+02 0.33377533917E+02
 0.46307874365E+02 0.62207244959E+02 0.79916667391E+02 0.97717070829E+02 0.11376065056E+03
 0.12657980632E+03 0.13548048317E+03 0.14066598757E+03 0.14304649979E+03 0.14381381877E+03
 0.14381381877E+03 0.14336210670E+03 0.14176939256E+03 0.13793062364E+03 0.13077860426E+03
 0.11975654884E+03 0.10513220672E+03 0.88027644511E+02 0.70147332036E+02 0.53309404077E+02
 0.38962140057E+02 0.27860641079E+02 0.19994602907E+02 0.14746705155E+02 0.11204917641E+02
 0.87801454060E+01 0.71914371470E+01 0.62003944351E+01 0.56312190916E+01 0.53730090863E+01
 0.53730098638E+01 0.56312210416E+01 0.62003965707E+01 0.71914383632E+01 0.87801449991E+01
 0.11204915698E+02 0.14746702547E+02 0.19994600932E+02 0.27860640802E+02 0.38962141700E+02
 0.53309406639E+02 0.70147333434E+02 0.88027642174E+02 0.10513219850E+03 0.11975653398E+03
 0.13077858386E+03 0.13793060077E+03 0.14176937151E+03 0.14336209183E+03 0.14381381340E+03
 0.14304649979E+03 0.14176939256E+03 0.13867488652E+03 0.13273992846E+03 0.12322863476E+03
 0.11007338819E+03 0.94032112171E+02 0.76552958464E+02 0.59394705241E+02 0.44150703633E+02
 0.31856316077E+02 0.22809547827E+02 0.16633236544E+02 0.12511993250E+02 0.96647481790E+01
 0.77561107860E+01 0.65326626313E+01 0.57934307922E+01 0.54013855690E+01 0.52790007160E+01
 0.54013881668E+01 0.57934346927E+01 0.65326658489E+01 0.77561115935E+01 0.96647459639E+01
 0.12511988893E+02 0.16633232093E+02 0.22809545585E+02 0.31856317391E+02 0.44150707979E+02
 0.59394709949E+02 0.76552959362E+02 0.94032104929E+02 0.11007337000E+03 0.12322860571E+03
 0.13273989205E+03 0.13867484911E+03 0.14176936177E+03 0.14304648240E+03 0.14336209183E+03
 0.14066598757E+03 0.13793062364E+03 0.13273992846E+03 0.12435837431E+03 0.11252551028E+03
 0.97694260800E+02 0.81018117728E+02 0.64083846037E+02 0.48491282170E+02 0.35442093292E+02
 0.25484723291E+02 0.18484153440E+02 0.13788329816E+02 0.10555741476E+02 0.83392828200E+01
 0.68839754727E+01 0.59724702140E+01 0.54465362438E+01 0.52070543164E+01 0.52070560183E+01
 0.54465405076E+01 0.59724749131E+01 0.68839781773E+01 0.83392819730E+01 0.10555737193E+02
 0.13788323968E+02 0.18484148881E+02 0.25484722549E+02 0.35442097207E+02 0.48491289095E+02
 0.64083851970E+02 0.81018117493E+02 0.97694249869E+02 0.11252548664E+03 0.12435833969E+03
 0.13273988831E+03 0.13793058597E+03 0.14066596072E+03 0.14176936177E+03 0.14176937151E+03
 0.13548048317E+03 0.13077860426E+03 0.12322863476E+03 0.11252551028E+03 0.98921883990E+02
 0.83303500289E+02 0.67031518146E+02 0.51606336293E+02 0.38281866665E+02 0.27774225990E+02
 0.20158429428E+02 0.14961372340E+02 0.11398809909E+02 0.89097226494E+01 0.72380974142E+01
 0.61607625806E+01 0.55050965625E+01 0.51549766200E+01 0.50452189581E+01 0.51549797492E+01
 0.55051012944E+01 0.61607665572E+01 0.72380985395E+01 0.89097201038E+01 0.11398804635E+02
 0.14961366755E+02 0.20158426415E+02 0.27774227581E+02 0.38281872931E+02 0.51606344916E+02
 0.67031524969E+02 0.83303500637E+02 0.98921874436E+02 0.11252549011E+03 0.12322860663E+03
 0.13077857379E+03 0.13548045736E+03 0.13793058597E+03 0.13867484911E+03 0.13793060077E+03
 0.12657980632E+03 0.11975654884E+03 0.11007338819E+03 0.97694260800E+02 0.83303500289E+02
 0.68035937494E+02 0.53231217638E+02 0.40103045343E+02 0.29448579093E+02 0.21499746067E+02
 0.15951908478E+02 0.12135072778E+02 0.94306452021E+01 0.75742927035E+01 0.63478167150E+01
 0.55722050132E+01 0.51200017610E+01 0.49124194783E+01 0.49124208028E+01 0.51200051167E+01
 0.55722088040E+01 0.63478190889E+01 0.75742923844E+01 0.94306421308E+01 0.12135068231E+02
 0.15951904640E+02 0.21499745156E+02 0.29448582409E+02 0.40103052604E+02 0.53231226889E+02
 0.68035945700E+02 0.83303504333E+02 0.97694258680E+02 0.11007337982E+03 0.11975653622E+03
 0.12657979298E+03 0.13077857379E+03 0.13273988831E+03 0.13273989205E+03 0.13077858386E+03
 0.11376065056E+03 0.10513220672E+03 0.94032112171E+02 0.81018117728E+02 0.67031518146E+02
 0.53231217638E+02 0.40730201090E+02 0.30332796261E+02 0.22368624067E+02 0.16673848526E+02
 0.12708392282E+02 0.98638984860E+01 0.78693010468E+01 0.65209259718E+01 0.56416431974E+01
 0.50989344159E+01 0.48054222037E+01 0.47127064320E+01 0.48054236666E+01 0.50989367172E+01
 0.56416453406E+01 0.65209269971E+01 0.78693004413E+01 0.98638964395E+01 0.12708389680E+02
 0.16673846686E+02 0.22368624314E+02 0.30332799474E+02 0.40730207422E+02 0.53231226418E+02
 0.67031528158E+02 0.81018127529E+02 0.94032120545E+02 0.10513221300E+03 0.11376065464E+03
 0.11975653622E+03 0.12322860663E+03 0.12435833969E+03 0.12322860571E+03 0.11975653398E+03
 0.97717070829E+02 0.88027644511E+02 0.76552958464E+02 0.64083846037E+02 0.51606336293E+02
 0.40103045343E+02 0.30332796261E+02 0.22669541135E+02 0.17055184180E+02 0.13072640851E+02
 0.10174912699E+02 0.81001679304E+01 0.66665066317E+01 0.57063011178E+01 0.50882705606E+01
 0.47215059229E+01 0.45509015000E+01 0.45509016534E+01 0.47215063658E+01 0.50882712498E+01
 0.57063019288E+01 0.66665073646E+01 0.81001683169E+01 0.10174912528E+02 0.13072640090E+02
 0.17055183128E+02 0.22669540489E+02 0.30332797039E+02 0.40103048724E+02 0.51606343222E+02
 0.64083856935E+02 0.76552972927E+02 0.88027661187E+02 0.97717087640E+02 0.10513221300E+03
 0.11007337982E+03 0.11252549011E+03 0.11252548664E+03 0.11007337000E+03 0.10513219850E+03
 0.79916667391E+02 0.70147332036E+02 0.59394705241E+02 0.48491282170E+02 0.38281866665E+02
 0.29448579093E+02 0.22368624067E+02 0.17055184180E+02 0.13197625870E+02 0.10337479375E+02
 0.82474341628E+01 0.67718975744E+01 0.57589854139E+01 0.50844151899E+01 0.46585021822E+01
 0.44236529066E+01 0.43486318181E+01 0.44236521614E+01 0.46585011705E+01 0.50844146139E+01
 0.57589858148E+01 0.67718989929E+01 0.82474360245E+01 0.10337480677E+02 0.13197625640E+02
 0.17055181985E+02 0.22368620462E+02 0.29448575596E+02 0.38281865504E+02 0.48491285494E+02
 0.59394714365E+02 0.70147346822E+02 0.79916685936E+02 0.88027661187E+02 0.94032120545E+02
 0.97694258680E+02 0.98921874436E+02 0.97694249869E+02 0.94032104929E+02 0.88027642174E+02
 0.62207244959E+02 0.53309404077E+02 0.44150703633E+02 0.35442093292E+02 0.27774225990E+02
 0.21499746067E+02 0.16673848526E+02 0.13072640851E+02 0.10337479375E+02 0.82980537778E+01
 0.68272779727E+01 0.57934539541E+01 0.50840460774E+01 0.46147365220E+01 0.43290448640E+01
 0.41937280005E+01 0.41937272012E+01 0.43290428908E+01 0.46147344313E+01 0.50840450593E+01
 0.57934547093E+01 0.68272803068E+01 0.82980565521E+01 0.10337480899E+02 0.13072639596E+02
 0.16673843805E+02 0.21499738579E+02 0.27774217677E+02 0.35442086905E+02 0.44150701766E+02
 0.53309408164E+02 0.62207254753E+02 0.70147346822E+02 0.76552972927E+02 0.81018127529E+02
 0.83303504333E+02 0.83303500637E+02 0.81018117493E+02 0.76552959362E+02 0.70147333434E+02
 0.46307874365E+02 0.38962140057E+02 0.31856316077E+02 0.25484723291E+02 0.20158429428E+02
 0.15951908478E+02 0.12708392282E+02 0.10174912699E+02 0.82474341628E+01 0.68272779727E+01
 0.58054478718E+01 0.50845740632E+01 0.45889857509E+01 0.42661930103E+01 0.40837414912E+01
 0.40246544739E+01 0.40837396671E+01 0.42661902302E+01 0.45889833655E+01 0.50845732742E+01
 0.58054491529E+01 0.68272807309E+01 0.82474368985E+01 0.10174913460E+02 0.12708389499E+02
 0.15951901501E+02 0.20158419028E+02 0.25484711383E+02 0.31856305181E+02 0.38962132523E+02
 0.46307871449E+02 0.53309408164E+02 0.59394714365E+02 0.64083856935E+02 0.67031528158E+02
 0.68035945700E+02 0.67031524969E+02 0.64083851970E+02 0.59394709949E+02 0.53309406639E+02
 0.33377533917E+02 0.27860641079E+02 0.22809547827E+02 0.18484153440E+02 0.14961372340E+02
 0.12135072778E+02 0.98638984860E+01 0.81001679304E+01 0.67718975744E+01 0.57934539541E+01
 0.50845740632E+01 0.45804889281E+01 0.42347972416E+01 0.40178135245E+01 0.39129208090E+01
 0.39129198868E+01 0.40178111619E+01 0.42347944505E+01 0.45804869359E+01 0.50845737533E+01
 0.57934554919E+01 0.67719001993E+01 0.81001702214E+01 0.98638987206E+01 0.12135069634E+02
 0.14961365232E+02 0.18484142821E+02 0.22809535075E+02 0.27860627938E+02 0.33377522167E+02
 0.38962132523E+02 0.44150701766E+02 0.48491285494E+02 0.51606343222E+02 0.53231226418E+02
 0.53231226889E+02 0.51606344916E+02 0.48491289095E+02 0.44150707979E+02 0.38962141700E+02
 0.23805116851E+02 0.19994602907E+02 0.16633236544E+02 0.13788329816E+02 0.11398809909E+02
 0.94306452021E+01 0.78693010468E+01 0.66665066317E+01 0.57589854139E+01 0.50840460774E+01
 0.45889857509E+01 0.42347972416E+01 0.39958271891E+01 0.38572118962E+01 0.38117078722E+01
 0.38572106126E+01 0.39958251067E+01 0.42347951590E+01 0.45889845044E+01 0.50840462168E+01
 0.57589870136E+01 0.66665091650E+01 0.78693035601E+01 0.94306464726E+01 0.11398808827E+02
 0.13788325676E+02 0.16633229095E+02 0.19994592661E+02 0.23805104683E+02 0.27860627938E+02
 0.31856305181E+02 0.35442086905E+02 0.38281865504E+02 0.40103048724E+02 0.40730207422E+02
 0.40103052604E+02 0.38281872931E+02 0.35442097207E+02 0.31856317391E+02 0.27860640802E+02
 0.17257691990E+02 0.14746705155E+02 0.12511993250E+02 0.10555741476E+02 0.89097226494E+01
 0.75742927035E+01 0.65209259718E+01 0.57063011178E+01 0.50844151899E+01 0.46147365220E+01
 0.42661930103E+01 0.40178135245E+01 0.38572118962E+01 0.37781319539E+01 0.37781316554E+01
 0.38572110775E+01 0.40178124258E+01 0.42661919959E+01 0.46147360477E+01 0.50844156837E+01
 0.57063028877E+01 0.65209290306E+01 0.75742967055E+01 0.89097268629E+01 0.10555744799E+02
 0.12511994610E+02 0.14746703528E+02 0.17257686894E+02 0.19994592661E+02 0.22809535075E+02
 0.25484711383E+02 0.27774217677E+02 0.29448575596E+02 0.30332797039E+02 0.30332799474E+02
 0.29448582409E+02 0.27774227581E+02 0.25484722549E+02 0.22809545585E+02 0.19994600932E+02
 0.12919880272E+02 0.11204917641E+02 0.96647481790E+01 0.83392828200E+01 0.72380974142E+01
 0.63478167150E+01 0.56416431974E+01 0.50882705606E+01 0.46585021822E+01 0.43290448640E+01
 0.40837414912E+01 0.39129208090E+01 0.38117078722E+01 0.37781316554E+01 0.38117080743E+01
 0.39129210582E+01 0.40837415998E+01 0.43290447928E+01 0.46585022006E+01 0.50882712402E+01
 0.56416452882E+01 0.63478208271E+01 0.72381037044E+01 0.83392908266E+01 0.96647566908E+01
 0.11204925061E+02 0.12919885054E+02 0.14746703528E+02 0.16633229095E+02 0.18484142821E+02
 0.20158419028E+02 0.21499738579E+02 0.22368620462E+02 0.22669540489E+02 0.22368624314E+02
 0.21499745156E+02 0.20158426415E+02 0.18484148881E+02 0.16633232093E+02 0.14746702547E+02
 0.99417016760E+01 0.87801454060E+01 0.77561107860E+01 0.68839754727E+01 0.61607625806E+01
 0.55722050132E+01 0.50989344159E+01 0.47215059229E+01 0.44236529066E+01 0.41937280005E+01
 0.40246544739E+01 0.39129198868E+01 0.38572106126E+01 0.38572110775E+01 0.39129210582E+01
 0.40246557884E+01 0.41937288818E+01 0.44236530899E+01 0.47215057292E+01 0.50989347169E+01
 0.55722070097E+01 0.61607673376E+01 0.68839834276E+01 0.77561215267E+01 0.87801576034E+01
 0.99417133994E+01 0.11204925061E+02 0.12511994610E+02 0.13788325676E+02 0.14961365232E+02
 0.15951901501E+02 0.16673843805E+02 0.17055181985E+02 0.17055183128E+02 0.16673846686E+02
 0.15951904640E+02 0.14961366755E+02 0.13788323968E+02 0.12511988893E+02 0.11204915698E+02
 0.79457477441E+01 0.71914371470E+01 0.65326626313E+01 0.59724702140E+01 0.55050965625E+01
 0.51200017610E+01 0.48054222037E+01 0.45509015000E+01 0.43486318181E+01 0.41937272012E+01
 0.40837396671E+01 0.40178111619E+01 0.39958251067E+01 0.40178124258E+01 0.40837415998E+01
 0.41937288818E+01 0.43486324485E+01 0.45509008115E+01 0.48054207008E+01 0.51200006168E+01
 0.55050972573E+01 0.59724740385E+01 0.65326701164E+01 0.71914478642E+01 0.79457603530E+01
 0.87801576034E+01 0.96647566908E+01 0.10555744799E+02 0.11398808827E+02 0.12135069634E+02
 0.12708389499E+02 0.13072639596E+02 0.13197625640E+02 0.13072640090E+02 0.12708389680E+02
 0.12135068231E+02 0.11398804635E+02 0.10555737193E+02 0.96647459639E+01 0.87801449991E+01
 0.66682448947E+01 0.62003944351E+01 0.57934307922E+01 0.54465362438E+01 0.51549766200E+01
 0.49124194783E+01 0.47127064320E+01 0.45509016534E+01 0.44236521614E+01 0.43290428908E+01
 0.42661902302E+01 0.42347944505E+01 0.42347951590E+01 0.42661919959E+01 0.43290447928E+01
 0.44236530899E+01 0.45509008115E+01 0.47127036866E+01 0.49124155258E+01 0.51549728023E+01
 0.54465341067E+01 0.57934316253E+01 0.62003987874E+01 0.66682523944E+01 0.71914478642E+01
 0.77561215267E+01 0.83392908266E+01 0.89097268629E+01 0.94306464726E+01 0.98638987206E+01
 0.10174913460E+02 0.10337480899E+02 0.10337480677E+02 0.10174912528E+02 0.98638964395E+01
 0.94306421308E+01 0.89097201038E+01 0.83392819730E+01 0.77561115935E+01 0.71914383632E+01
 0.58980283517E+01 0.56312190916E+01 0.54013855690E+01 0.52070543164E+01 0.50452189581E+01
 0.49124208028E+01 0.48054236666E+01 0.47215063658E+01 0.46585011705E+01 0.46147344313E+01
 0.45889833655E+01 0.45804869359E+01 0.45889845044E+01 0.46147360477E+01 0.46585022006E+01
 0.47215057292E+01 0.48054207008E+01 0.49124155258E+01 0.50452121239E+01 0.52070472345E+01
 0.54013796710E+01 0.56312155559E+01 0.58980277642E+01 0.62003987874E+01 0.65326701164E+01
 0.68839834276E+01 0.72381037044E+01 0.75742967055E+01 0.78693035601E+01 0.81001702214E+01
 0.82474368985E+01 0.82980565521E+01 0.82474360245E+01 0.81001683169E+01 0.78693004413E+01
 0.75742923844E+01 0.72380985395E+01 0.68839781773E+01 0.65326658489E+01 0.62003965707E+01
 0.54904180853E+01 0.53730090863E+01 0.52790007160E+01 0.52070560183E+01 0.51549797492E+01
 0.51200051167E+01 0.50989367172E+01 0.50882712498E+01 0.50844146139E+01 0.50840450593E+01
 0.50845732742E+01 0.50845737533E+01 0.50840462168E+01 0.50844156837E+01 0.50882712402E+01
 0.50989347169E+01 0.51200006168E+01 0.51549728023E+01 0.52070472345E+01 0.52789911507E+01
 0.53729999363E+01 0.54904104127E+01 0.56312155559E+01 0.57934316253E+01 0.59724740385E+01
 0.61607673376E+01 0.63478208271E+01 0.65209290306E+01 0.66665091650E+01 0.67719001993E+01
 0.68272807309E+01 0.68272803068E+01 0.67718989929E+01 0.66665073646E+01 0.65209269971E+01
 0.63478190889E+01 0.61607665572E+01 0.59724749131E+01 0.57934346927E+01 0.56312210416E+01
 0.53633414637E+01 0.53730098638E+01 0.54013881668E+01 0.54465405076E+01 0.55051012944E+01
 0.55722088040E+01 0.56416453406E+01 0.57063019288E+01 0.57589858148E+01 0.57934547093E+01
 0.58054491529E+01 0.57934554919E+01 0.57589870136E+01 0.57063028877E+01 0.56416452882E+01
 0.55722070097E+01 0.55050972573E+01 0.54465341067E+01 0.54013796710E+01 0.53729999363E+01
 0.53633310290E+01 0.53729999363E+01 0.54013796710E+01 0.54465341067E+01 0.55050972573E+01
 0.55722070097E+01 0.56416452882E+01 0.57063028877E+01 0.57589870136E+01 0.57934554919E+01
 0.58054491529E+01 0.57934547093E+01 0.57589858148E+01 0.57063019288E+01 0.56416453406E+01
 0.55722088040E+01 0.55051012944E+01 0.54465405076E+01 0.54013881668E+01 0.53730098638E+01
 0.54904180853E+01 0.56312210416E+01 0.57934346927E+01 0.59724749131E+01 0.61607665572E+01
 0.63478190889E+01 0.65209269971E+01 0.66665073646E+01 0.67718989929E+01 0.68272803068E+01
 0.68272807309E+01 0.67719001993E+01 0.66665091650E+01 0.65209290306E+01 0.63478208271E+01
 0.61607673376E+01 0.59724740385E+01 0.57934316253E+01 0.56312155559E+01 0.54904104127E+01
 0.53729999363E+01 0.52789911507E+01 0.52070472345E+01 0.51549728023E+01 0.51200006168E+01
 0.50989347169E+01 0.50882712402E+01 0.50844156837E+01 0.50840462168E+01 0.50845737533E+01
 0.50845732742E+01 0.50840450593E+01 0.50844146139E+01 0.50882712498E+01 0.50989367172E+01
 0.51200051167E+01 0.51549797492E+01 0.52070560183E+01 0.52790007160E+01 0.53730090863E+01
 0.58980283517E+01 0.62003965707E+01 0.65326658489E+01 0.68839781773E+01 0.72380985395E+01
 0.75742923844E+01 0.78693004413E+01 0.81001683169E+01 0.82474360245E+01 0.82980565521E+01
 0.82474368985E+01 0.81001702214E+01 0.78693035601E+01 0.75742967055E+01 0.72381037044E+01
 0.68839834276E+01 0.65326701164E+01 0.62003987874E+01 0.58980277642E+01 0.56312155559E+01
 0.54013796710E+01 0.52070472345E+01 0.50452121239E+01 0.49124155258E+01 0.48054207008E+01
 0.47215057292E+01 0.46585022006E+01 0.46147360477E+01 0.45889845044E+01 0.45804869359E+01
 0.45889833655E+01 0.46147344313E+01 0.46585011705E+01 0.47215063658E+01 0.48054236666E+01
 0.49124208028E+01 0.50452189581E+01 0.52070543164E+01 0.54013855690E+01 0.56312190916E+01
 0.66682448947E+01 0.71914383632E+01 0.77561115935E+01 0.83392819730E+01 0.89097201038E+01
 0.94306421308E+01 0.98638964395E+01 0.10174912528E+02 0.10337480677E+02 0.10337480899E+02
 0.10174913460E+02 0.98638987206E+01 0.94306464726E+01 0.89097268629E+01 0.83392908266E+01
 0.77561215267E+01 0.71914478642E+01 0.66682523944E+01 0.62003987874E+01 0.57934316253E+01
 0.54465341067E+01 0.51549728023E+01 0.49124155258E+01 0.47127036866E+01 0.45509008115E+01
 0.44236530899E+01 0.43290447928E+01 0.42661919959E+01 0.42347951590E+01 0.42347944505E+01
 0.42661902302E+01 0.43290428908E+01 0.44236521614E+01 0.45509016534E+01 0.47127064320E+01
 0.49124194783E+01 0.51549766200E+01 0.54465362438E+01 0.57934307922E+01 0.62003944351E+01
 0.79457477441E+01 0.87801449991E+01 0.96647459639E+01 0.10555737193E+02 0.11398804635E+02
 0.12135068231E+02 0.12708389680E+02 0.13072640090E+02 0.13197625640E+02 0.13072639596E+02
 0.12708389499E+02 0.12135069634E+02 0.11398808827E+02 0.10555744799E+02 0.96647566908E+01
 0.87801576034E+01 0.79457603530E+01 0.71914478642E+01 0.65326701164E+01 0.59724740385E+01
 0.55050972573E+01 0.51200006168E+01 0.48054207008E+01 0.45509008115E+01 0.43486324485E+01
 0.41937288818E+01 0.40837415998E+01 0.40178124258E+01 0.39958251067E+01 0.40178111619E+01
 0.40837396671E+01 0.41937272012E+01 0.43486318181E+01 0.45509015000E+01 0.48054222037E+01
 0.51200017610E+01 0.55050965625E+01 0.59724702140E+01 0.65326626313E+01 0.71914371470E+01
 0.99417016760E+01 0.11204915698E+02 0.12511988893E+02 0.13788323968E+02 0.14961366755E+02
 0.15951904640E+02 0.16673846686E+02 0.17055183128E+02 0.17055181985E+02 0.16673843805E+02
 0.15951901501E+02 0.14961365232E+02 0.13788325676E+02 0.12511994610E+02 0.11204925061E+02
 0.99417133994E+01 0.87801576034E+01 0.77561215267E+01 0.68839834276E+01 0.61607673376E+01
 0.55722070097E+01 0.50989347169E+01 0.47215057292E+01 0.44236530899E+01 0.41937288818E+01
 0.40246557884E+01 0.39129210582E+01 0.38572110775E+01 0.38572106126E+01 0.39129198868E+01
 0.40246544739E+01 0.41937280005E+01 0.44236529066E+01 0.47215059229E+01 0.50989344159E+01
 0.55722050132E+01 0.61607625806E+01 0.68839754727E+01 0.77561107860E+01 0.87801454060E+01
 0.12919880272E+02 0.14746702547E+02 0.16633232093E+02 0.18484148881E+02 0.20158426415E+02
 0.21499745156E+02 0.22368624314E+02 0.22669540489E+02 0.22368620462E+02 0.21499738579E+02
 0.20158419028E+02 0.18484142821E+02 0.16633229095E+02 0.14746703528E+02 0.12919885054E+02
 0.11204925061E+02 0.96647566908E+01 0.83392908266E+01 0.72381037044E+01 0.63478208271E+01
 0.56416452882E+01 0.50882712402E+01 0.46585022006E+01 0.43290447928E+01 0.40837415998E+01
 0.39129210582E+01 0.38117080743E+01 0.37781316554E+01 0.38117078722E+01 0.39129208090E+01
 0.40837414912E+01 0.43290448640E+01 0.46585021822E+01 0.50882705606E+01 0.56416431974E+01
 0.63478167150E+01 0.72380974142E+01 0.83392828200E+01 0.96647481790E+01 0.11204917641E+02
 0.17257691990E+02 0.19994600932E+02 0.22809545585E+02 0.25484722549E+02 0.27774227581E+02
 0.29448582409E+02 0.30332799474E+02 0.30332797039E+02 0.29448575596E+02 0.27774217677E+02
 0.25484711383E+02 0.22809535075E+02 0.19994592661E+02 0.17257686894E+02 0.14746703528E+02
 0.12511994610E+02 0.10555744799E+02 0.89097268629E+01 0.75742967055E+01 0.65209290306E+01
 0.57063028877E+01 0.50844156837E+01 0.46147360477E+01 0.42661919959E+01 0.40178124258E+01
 0.38572110775E+01 0.37781316554E+01 0.37781319539E+01 0.38572118962E+01 0.40178135245E+01
 0.42661930103E+01 0.46147365220E+01 0.50844151899E+01 0.57063011178E+01 0.65209259718E+01
 0.75742927035E+01 0.89097226494E+01 0.10555741476E+02 0.12511993250E+02 0.14746705155E+02
 0.23805116851E+02 0.27860640802E+02 0.31856317391E+02 0.35442097207E+02 0.38281872931E+02
 0.40103052604E+02 0.40730207422E+02 0.40103048724E+02 0.38281865504E+02 0.35442086905E+02
 0.31856305181E+02 0.27860627938E+02 0.23805104683E+02 0.19994592661E+02 0.16633229095E+02
 0.13788325676E+02 0.11398808827E+02 0.94306464726E+01 0.78693035601E+01 0.66665091650E+01
 0.57589870136E+01 0.50840462168E+01 0.45889845044E+01 0.42347951590E+01 0.39958251067E+01
 0.38572106126E+01 0.38117078722E+01 0.38572118962E+01 0.39958271891E+01 0.42347972416E+01
 0.45889857509E+01 0.50840460774E+01 0.57589854139E+01 0.66665066317E+01 0.78693010468E+01
 0.94306452021E+01 0.11398809909E+02 0.13788329816E+02 0.16633236544E+02 0.19994602907E+02
 0.33377533917E+02 0.38962141700E+02 0.44150707979E+02 0.48491289095E+02 0.51606344916E+02
 0.53231226889E+02 0.53231226418E+02 0.51606343222E+02 0.48491285494E+02 0.44150701766E+02
 0.38962132523E+02 0.33377522167E+02 0.27860627938E+02 0.22809535075E+02 0.18484142821E+02
 0.14961365232E+02 0.12135069634E+02 0.98638987206E+01 0.81001702214E+01 0.67719001993E+01
 0.57934554919E+01 0.50845737533E+01 0.45804869359E+01 0.42347944505E+01 0.40178111619E+01
 0.39129198868E+01 0.39129208090E+01 0.40178135245E+01 0.42347972416E+01 0.45804889281E+01
 0.50845740632E+01 0.57934539541E+01 0.67718975744E+01 0.81001679304E+01 0.98638984860E+01
 0.12135072778E+02 0.14961372340E+02 0.18484153440E+02 0.22809547827E+02 0.27860641079E+02
 0.46307874365E+02 0.53309406639E+02 0.59394709949E+02 0.64083851970E+02 0.67031524969E+02
 0.68035945700E+02 0.67031528158E+02 0.64083856935E+02 0.59394714365E+02 0.53309408164E+02
 0.46307871449E+02 0.38962132523E+02 0.31856305181E+02 0.25484711383E+02 0.20158419028E+02
 0.15951901501E+02 0.12708389499E+02 0.10174913460E+02 0.82474368985E+01 0.68272807309E+01
 0.58054491529E+01 0.50845732742E+01 0.45889833655E+01 0.42661902302E+01 0.40837396671E+01
 0.40246544739E+01 0.40837414912E+01 0.42661930103E+01 0.45889857509E+01 0.50845740632E+01
 0.58054478718E+01 0.68272779727E+01 0.82474341628E+01 0.10174912699E+02 0.12708392282E+02
 0.15951908478E+02 0.20158429428E+02 0.25484723291E+02 0.31856316077E+02 0.38962140057E+02
 0.62207244959E+02 0.70147333434E+02 0.76552959362E+02 0.81018117493E+02 0.83303500637E+02
 0.83303504333E+02 0.81018127529E+02 0.76552972927E+02 0.70147346822E+02 0.62207254753E+02
 0.53309408164E+02 0.44150701766E+02 0.35442086905E+02 0.27774217677E+02 0.21499738579E+02
 0.16673843805E+02 0.13072639596E+02 0.10337480899E+02 0.82980565521E+01 0.68272803068E+01
 0.57934547093E+01 0.50840450593E+01 0.46147344313E+01 0.43290428908E+01 0.41937272012E+01
 0.41937280005E+01 0.43290448640E+01 0.46147365220E+01 0.50840460774E+01 0.57934539541E+01
 0.68272779727E+01 0.82980537778E+01 0.10337479375E+02 0.13072640851E+02 0.16673848526E+02
 0.21499746067E+02 0.27774225990E+02 0.35442093292E+02 0.44150703633E+02 0.53309404077E+02
 0.79916667391E+02 0.88027642174E+02 0.94032104929E+02 0.97694249869E+02 0.98921874436E+02
 0.97694258680E+02 0.94032120545E+02 0.88027661187E+02 0.79916685936E+02 0.70147346822E+02
 0.59394714365E+02 0.48491285494E+02 0.38281865504E+02 0.29448575596E+02 0.22368620462E+02
 0.17055181985E+02 0.13197625640E+02 0.10337480677E+02 0.82474360245E+01 0.67718989929E+01
 0.57589858148E+01 0.50844146139E+01 0.46585011705E+01 0.44236521614E+01 0.43486318181E+01
 0.44236529066E+01 0.46585021822E+01 0.50844151899E+01 0.57589854139E+01 0.67718975744E+01
 0.82474341628E+01 0.10337479375E+02 0.13197625870E+02 0.17055184180E+02 0.22368624067E+02
 0.29448579093E+02 0.38281866665E+02 0.48491282170E+02 0.59394705241E+02 0.70147332036E+02
 0.97717070829E+02 0.10513219850E+03 0.11007337000E+03 0.11252548664E+03 0.11252549011E+03
 0.11007337982E+03 0.10513221300E+03 0.97717087640E+02 0.88027661187E+02 0.76552972927E+02
 0.64083856935E+02 0.51606343222E+02 0.40103048724E+02 0.30332797039E+02 0.22669540489E+02
 0.17055183128E+02 0.13072640090E+02 0.10174912528E+02 0.81001683169E+01 0.66665073646E+01
 0.57063019288E+01 0.50882712498E+01 0.47215063658E+01 0.45509016534E+01 0.45509015000E+01
 0.47215059229E+01 0.50882705606E+01 0.57063011178E+01 0.66665066317E+01 0.81001679304E+01
 0.10174912699E+02 0.13072640851E+02 0.17055184180E+02 0.22669541135E+02 0.30332796261E+02
 0.40103045343E+02 0.51606336293E+02 0.64083846037E+02 0.76552958464E+02 0.88027644511E+02
 0.11376065056E+03 0.11975653398E+03 0.12322860571E+03 0.12435833969E+03 0.12322860663E+03
 0.11975653622E+03 0.11376065464E+03 0.10513221300E+03 0.94032120545E+02 0.81018127529E+02
 0.67031528158E+02 0.53231226418E+02 0.40730207422E+02 0.30332799474E+02 0.22368624314E+02
 0.16673846686E+02 0.12708389680E+02 0.98638964395E+01 0.78693004413E+01 0.65209269971E+01
 0.56416453406E+01 0.50989367172E+01 0.48054236666E+01 0.47127064320E+01 0.48054222037E+01
 0.50989344159E+01 0.56416431974E+01 0.65209259718E+01 0.78693010468E+01 0.98638984860E+01
 0.12708392282E+02 0.16673848526E+02 0.22368624067E+02 0.30332796261E+02 0.40730201090E+02
 0.53231217638E+02 0.67031518146E+02 0.81018117728E+02 0.94032112171E+02 0.10513220672E+03
 0.12657980632E+03 0.13077858386E+03 0.13273989205E+03 0.13273988831E+03 0.13077857379E+03
 0.12657979298E+03 0.11975653622E+03 0.11007337982E+03 0.97694258680E+02 0.83303504333E+02
 0.68035945700E+02 0.53231226889E+02 0.40103052604E+02 0.29448582409E+02 0.21499745156E+02
 0.15951904640E+02 0.12135068231E+02 0.94306421308E+01 0.75742923844E+01 0.63478190889E+01
 0.55722088040E+01 0.51200051167E+01 0.49124208028E+01 0.49124194783E+01 0.51200017610E+01
 0.55722050132E+01 0.63478167150E+01 0.75742927035E+01 0.94306452021E+01 0.12135072778E+02
 0.15951908478E+02 0.21499746067E+02 0.29448579093E+02 0.40103045343E+02 0.53231217638E+02
 0.68035937494E+02 0.83303500289E+02 0.97694260800E+02 0.11007338819E+03 0.11975654884E+03
 0.13548048317E+03 0.13793060077E+03 0.13867484911E+03 0.13793058597E+03 0.13548045736E+03
 0.13077857379E+03 0.12322860663E+03 0.11252549011E+03 0.98921874436E+02 0.83303500637E+02
 0.67031524969E+02 0.51606344916E+02 0.38281872931E+02 0.27774227581E+02 0.20158426415E+02
 0.14961366755E+02 0.11398804635E+02 0.89097201038E+01 0.72380985395E+01 0.61607665572E+01
 0.55051012944E+01 0.51549797492E+01 0.50452189581E+01 0.51549766200E+01 0.55050965625E+01
 0.61607625806E+01 0.72380974142E+01 0.89097226494E+01 0.11398809909E+02 0.14961372340E+02
 0.20158429428E+02 0.27774225990E+02 0.38281866665E+02 0.51606336293E+02 0.67031518146E+02
 0.83303500289E+02 0.98921883990E+02 0.11252551028E+03 0.12322863476E+03 0.13077860426E+03
 0.14066598757E+03 0.14176937151E+03 0.14176936177E+03 0.14066596072E+03 0.13793058597E+03
 0.13273988831E+03 0.12435833969E+03 0.11252548664E+03 0.97694249869E+02 0.81018117493E+02
 0.64083851970E+02 0.48491289095E+02 0.35442097207E+02 0.25484722549E+02 0.18484148881E+02
 0.13788323968E+02 0.10555737193E+02 0.83392819730E+01 0.68839781773E+01 0.59724749131E+01
 0.54465405076E+01 0.52070560183E+01 0.52070543164E+01 0.54465362438E+01 0.59724702140E+01
 0.68839754727E+01 0.83392828200E+01 0.10555741476E+02 0.13788329816E+02 0.18484153440E+02
 0.25484723291E+02 0.35442093292E+02 0.48491282170E+02 0.64083846037E+02 0.81018117728E+02
 0.97694260800E+02 0.11252551028E+03 0.12435837431E+03 0.13273992846E+03 0.13793062364E+03
 0.14304649979E+03 0.14336209183E+03 0.14304648240E+03 0.14176936177E+03 0.13867484911E+03
 0.13273989205E+03 0.12322860571E+03 0.11007337000E+03 0.94032104929E+02 0.76552959362E+02
 0.59394709949E+02 0.44150707979E+02 0.31856317391E+02 0.22809545585E+02 0.16633232093E+02
 0.12511988893E+02 0.96647459639E+01 0.77561115935E+01 0.65326658489E+01 0.57934346927E+01
 0.54013881668E+01 0.52790007160E+01 0.54013855690E+01 0.57934307922E+01 0.65326626313E+01
 0.77561107860E+01 0.96647481790E+01 0.12511993250E+02 0.16633236544E+02 0.22809547827E+02
 0.31856316077E+02 0.44150703633E+02 0.59394705241E+02 0.76552958464E+02 0.94032112171E+02
 0.11007338819E+03 0.12322863476E+03 0.13273992846E+03 0.13867488652E+03 0.14176939256E+03
 0.14381381877E+03 0.14381381340E+03 0.14336209183E+03 0.14176937151E+03 0.13793060077E+03
 0.13077858386E+03 0.11975653398E+03 0.10513219850E+03 0.88027642174E+02 0.70147333434E+02
 0.53309406639E+02 0.38962141700E+02 0.27860640802E+02 0.19994600932E+02 0.14746702547E+02
 0.11204915698E+02 0.87801449991E+01 0.71914383632E+01 0.62003965707E+01 0.56312210416E+01
 0.53730098638E+01 0.53730090863E+01 0.56312190916E+01 0.62003944351E+01 0.71914371470E+01
 0.87801454060E+01 0.11204917641E+02 0.14746705155E+02 0.19994602907E+02 0.27860641079E+02
 0.38962140057E+02 0.53309404077E+02 0.70147332036E+02 0.88027644511E+02 0.10513220672E+03
 0.11975654884E+03 0.13077860426E+03 0.13793062364E+03 0.14176939256E+03 0.14336210670E+03
 0.14381381877E+03 0.14336210670E+03 0.14176939256E+03 0.13793062364E+03 0.13077860426E+03
 0.11975654884E+03 0.10513220672E+03 0.88027644511E+02 0.70147332036E+02 0.53309404077E+02
 0.38962140057E+02 0.27860641079E+02 0.19994602907E+02 0.14746705155E+02 0.11204917641E+02
 0.87801454060E+01 0.71914371470E+01 0.62003944351E+01 0.56312190916E+01 0.53730090863E+01
 0.53730098638E+01 0.56312210416E+01 0.62003965707E+01 0.71914383632E+01 0.87801449991E+01
 0.11204915698E+02 0.14746702547E+02 0.19994600932E+02 0.27860640802E+02 0.38962141700E+02