PROCAR lm decomposed
# of k-points:  110         # of bands:   24         # of ions:    1

 k-point     1 :    0.05000000 0.05000000 0.05000000     weight = 0.00200000

band     1 # energy  -41.86030004 # occ.  2.00000000
 
ion      s     py     pz     px    dxy    dyz    dz2    dxz  x2-y2    tot
    1  0.000  0.332  0.332  0.332  0.000  0.000  0.000  0.000  0.000  0.995
 
band     2 # energy  -41.85308818 # occ.  2.00000000
 
ion      s     py     pz     px    dxy    dyz    dz2    dxz  x2-y2    tot
    1  0.000  0.426  0.450  0.120  0.000  0.000  0.000  0.000  0.000  0.996
 
band     3 # energy  -41.85308818 # occ.  2.00000000
 
ion      s     py     pz     px    dxy    dyz    dz2    dxz  x2-y2    tot
    1  0.000  0.238  0.214  0.544  0.000  0.000  0.000  0.000  0.000  0.996
 
band     4 # energy    1.20286853 # occ.  2.00000000
 
ion      s     py     pz     px    dxy    dyz    dz2    dxz  x2-y2    tot
    1  0.369  0.000  0.000  0.000  0.000  0.000  0.000  0.000  0.000  0.371
 
band     5 # energy    7.08689195 # occ.  2.00000000
 
ion      s     py     pz     px    dxy    dyz    dz2    dxz  x2-y2    tot
    1  0.000  0.000  0.000  0.000  0.278  0.278  0.000  0.278  0.000  0.835
 
band     6 # energy    7.16156558 # occ.  2.00000000
 
ion      s     py     pz     px    dxy    dyz    dz2    dxz  x2-y2    tot
    1  0.000  0.000  0.000  0.000  0.018  0.379  0.000  0.442  0.000  0.840
 
band     7 # energy    7.16156558 # occ.  2.00000000
 
ion      s     py     pz     px    dxy    dyz    dz2    dxz  x2-y2    tot
    1  0.000  0.000  0.000  0.000  0.541  0.180  0.000  0.118  0.000  0.840
 
band     8 # energy    8.98606648 # occ.  2.00000000
 
ion      s     py     pz     px    dxy    dyz    dz2    dxz  x2-y2    tot
    1  0.000  0.000  0.000  0.000  0.000  0.000  0.021  0.000  0.882  0.903
 
band     9 # energy    8.98606648 # occ.  2.00000000
 
ion      s     py     pz     px    dxy    dyz    dz2    dxz  x2-y2    tot
    1  0.000  0.000  0.000  0.000  0.000  0.000  0.882  0.000  0.021  0.903
 
band    10 # energy   25.35810533 # occ.  0.00000000
 
ion      s     py     pz     px    dxy    dyz    dz2    dxz  x2-y2    tot
    1  0.000  0.000  0.000  0.000  0.002  0.002  0.000  0.002  0.000  0.007
 
band    11 # energy   29.15905728 # occ.  0.00000000
 
ion      s     py     pz     px    dxy    dyz    dz2    dxz  x2-y2    tot
    1  0.010  0.024  0.024  0.024  0.002  0.002  0.000  0.002  0.000  0.088
 
band    12 # energy   29.84057518 # occ.  0.00000000
 
ion      s     py     pz     px    dxy    dyz    dz2    dxz  x2-y2    tot
    1  0.000  0.048  0.003  0.026  0.000  0.001  0.000  0.001  0.003  0.082
 
band    13 # energy   29.84057518 # occ.  0.00000000
 
ion      s     py     pz     px    dxy    dyz    dz2    dxz  x2-y2    tot
    1  0.000  0.004  0.048  0.026  0.001  0.001  0.003  0.000  0.000  0.082
 
band    14 # energy   35.32448400 # occ.  0.00000000
 
ion      s     py     pz     px    dxy    dyz    dz2    dxz  x2-y2    tot
    1  0.048  0.006  0.006  0.006  0.001  0.001  0.000  0.001  0.000  0.070
 
band    15 # energy   39.25535452 # occ.  0.00000000
 
ion      s     py     pz     px    dxy    dyz    dz2    dxz  x2-y2    tot
    1  0.010  0.052  0.052  0.052  0.090  0.090  0.000  0.090  0.000  0.435
 
band    16 # energy   39.96216364 # occ.  0.00000000
 
ion      s     py     pz     px    dxy    dyz    dz2    dxz  x2-y2    tot
    1  0.000  0.053  0.035  0.003  0.134  0.013  0.001  0.207  0.001  0.448
 
band    17 # energy   39.96216364 # occ.  0.00000000
 
ion      s     py     pz     px    dxy    dyz    dz2    dxz  x2-y2    tot
    1  0.000  0.008  0.026  0.057  0.102  0.223  0.001  0.029  0.001  0.448
 
band    18 # energy   42.75727134 # occ.  0.00000000
 
ion      s     py     pz     px    dxy    dyz    dz2    dxz  x2-y2    tot
    1  0.000  0.285  0.165  0.032  0.031  0.006  0.007  0.053  0.007  0.586
 
band    19 # energy   42.75727134 # occ.  0.00000000
 
ion      s     py     pz     px    dxy    dyz    dz2    dxz  x2-y2    tot
    1  0.000  0.036  0.157  0.290  0.029  0.054  0.007  0.007  0.007  0.586
 
band    20 # energy   43.63530010 # occ.  0.00000000
 
ion      s     py     pz     px    dxy    dyz    dz2    dxz  x2-y2    tot
    1  0.026  0.130  0.130  0.130  0.059  0.059  0.000  0.059  0.000  0.591
 
band    21 # energy   49.63382758 # occ.  0.00000000
 
ion      s     py     pz     px    dxy    dyz    dz2    dxz  x2-y2    tot
    1  0.000  0.006  0.013  0.002  0.000  0.000  0.394  0.000  0.028  0.442
 
band    22 # energy   49.63382758 # occ.  0.00000000
 
ion      s     py     pz     px    dxy    dyz    dz2    dxz  x2-y2    tot
    1  0.000  0.008  0.001  0.012  0.000  0.000  0.028  0.000  0.394  0.442
 
band    23 # energy   51.39661184 # occ.  0.00000000
 
ion      s     py     pz     px    dxy    dyz    dz2    dxz  x2-y2    tot
    1  6.300  0.000  0.000  0.000  0.000  0.000  0.000  0.000  0.000  6.300
 
band    24 # energy   55.65442000 # occ.  0.00000000
 
ion      s     py     pz     px    dxy    dyz    dz2    dxz  x2-y2    tot
    1  0.451  0.015  0.015  0.015  0.000  0.000  0.000  0.000  0.000  0.496
 

 k-point     2 :    0.15000000 0.05000000 0.05000000     weight = 0.00600000

band     1 # energy  -41.89962070 # occ.  2.00000000
 
ion      s     py     pz     px    dxy    dyz    dz2    dxz  x2-y2    tot
    1  0.000  0.452  0.452  0.089  0.000  0.000  0.000  0.000  0.000  0.994
 
band     2 # energy  -41.86485079 # occ.  2.00000000
 
ion      s     py     pz     px    dxy    dyz    dz2    dxz  x2-y2    tot
    1  0.000  0.045  0.045  0.906  0.000  0.000  0.000  0.000  0.000  0.995
 
band     3 # energy  -41.85646023 # occ.  2.00000000
 
ion      s     py     pz     px    dxy    dyz    dz2    dxz  x2-y2    tot
    1  0.000  0.498  0.498  0.000  0.000  0.000  0.000  0.000  0.000  0.995
 
band     4 # energy    1.68507818 # occ.  2.00000000
 
ion      s     py     pz     px    dxy    dyz    dz2    dxz  x2-y2    tot
    1  0.359  0.003  0.003  0.000  0.000  0.002  0.000  0.000  0.000  0.369
 
band     5 # energy    6.88787918 # occ.  2.00000000
 
ion      s     py     pz     px    dxy    dyz    dz2    dxz  x2-y2    tot
    1  0.000  0.000  0.000  0.002  0.392  0.029  0.000  0.392  0.000  0.815
 
band     6 # energy    7.32224834 # occ.  2.00000000
 
ion      s     py     pz     px    dxy    dyz    dz2    dxz  x2-y2    tot
    1  0.000  0.000  0.000  0.000  0.419  0.000  0.003  0.419  0.001  0.843
 
band     7 # energy    7.35667220 # occ.  2.00000000
 
ion      s     py     pz     px    dxy    dyz    dz2    dxz  x2-y2    tot
    1  0.000  0.001  0.001  0.000  0.015  0.784  0.006  0.015  0.018  0.839
 
band     8 # energy    8.79547941 # occ.  2.00000000
 
ion      s     py     pz     px    dxy    dyz    dz2    dxz  x2-y2    tot
    1  0.000  0.000  0.000  0.000  0.002  0.000  0.664  0.002  0.221  0.891
 
band     9 # energy    9.03894572 # occ.  2.00000000
 
ion      s     py     pz     px    dxy    dyz    dz2    dxz  x2-y2    tot
    1  0.000  0.000  0.000  0.000  0.001  0.024  0.219  0.001  0.657  0.901
 
band    10 # energy   25.98769938 # occ.  0.00000000
 
ion      s     py     pz     px    dxy    dyz    dz2    dxz  x2-y2    tot
    1  0.000  0.000  0.000  0.002  0.022  0.003  0.000  0.022  0.000  0.050
 
band    11 # energy   27.44756132 # occ.  0.00000000
 
ion      s     py     pz     px    dxy    dyz    dz2    dxz  x2-y2    tot
    1  0.036  0.029  0.029  0.008  0.002  0.018  0.001  0.002  0.003  0.130
 
band    12 # energy   29.83830654 # occ.  0.00000000
 
ion      s     py     pz     px    dxy    dyz    dz2    dxz  x2-y2    tot
    1  0.000  0.003  0.003  0.099  0.012  0.003  0.001  0.012  0.003  0.137
 
band    13 # energy   30.86465548 # occ.  0.00000000
 
ion      s     py     pz     px    dxy    dyz    dz2    dxz  x2-y2    tot
    1  0.000  0.037  0.037  0.000  0.001  0.000  0.020  0.001  0.007  0.102
 
band    14 # energy   35.34759745 # occ.  0.00000000
 
ion      s     py     pz     px    dxy    dyz    dz2    dxz  x2-y2    tot
    1  0.005  0.099  0.099  0.007  0.004  0.104  0.001  0.004  0.002  0.325
 
band    15 # energy   37.66444413 # occ.  0.00000000
 
ion      s     py     pz     px    dxy    dyz    dz2    dxz  x2-y2    tot
    1  0.003  0.004  0.004  0.148  0.070  0.028  0.002  0.070  0.005  0.334
 
band    16 # energy   38.44990719 # occ.  0.00000000
 
ion      s     py     pz     px    dxy    dyz    dz2    dxz  x2-y2    tot
    1  0.068  0.002  0.002  0.012  0.009  0.009  0.001  0.009  0.003  0.115
 
band    17 # energy   39.08930660 # occ.  0.00000000
 
ion      s     py     pz     px    dxy    dyz    dz2    dxz  x2-y2    tot
    1  0.000  0.088  0.088  0.000  0.117  0.000  0.017  0.117  0.006  0.434
 
band    18 # energy   41.28719942 # occ.  0.00000000
 
ion      s     py     pz     px    dxy    dyz    dz2    dxz  x2-y2    tot
    1  0.000  0.157  0.157  0.000  0.084  0.000  0.035  0.084  0.012  0.529
 
band    19 # energy   44.15085178 # occ.  0.00000000
 
ion      s     py     pz     px    dxy    dyz    dz2    dxz  x2-y2    tot
    1  0.073  0.101  0.101  0.027  0.000  0.244  0.005  0.000  0.016  0.568
 
band    20 # energy   46.26367711 # occ.  0.00000000
 
ion      s     py     pz     px    dxy    dyz    dz2    dxz  x2-y2    tot
    1  0.031  0.003  0.003  0.312  0.121  0.003  0.004  0.121  0.013  0.612
 
band    21 # energy   48.64969249 # occ.  0.00000000
 
ion      s     py     pz     px    dxy    dyz    dz2    dxz  x2-y2    tot
    1  0.008  0.006  0.006  0.044  0.003  0.007  0.068  0.003  0.203  0.346
 
band    22 # energy   50.80053456 # occ.  0.00000000
 
ion      s     py     pz     px    dxy    dyz    dz2    dxz  x2-y2    tot
    1  0.000  0.050  0.050  0.000  0.000  0.000  0.228  0.000  0.076  0.404
 
band    23 # energy   51.40536714 # occ.  0.00000000
 
ion      s     py     pz     px    dxy    dyz    dz2    dxz  x2-y2    tot
    1  6.292  0.000  0.000  0.000  0.000  0.000  0.000  0.000  0.000  6.292
 
band    24 # energy   57.72583059 # occ.  0.00000000
 
ion      s     py     pz     px    dxy    dyz    dz2    dxz  x2-y2    tot
    1  0.285  0.085  0.085  0.013  0.003  0.000  0.004  0.003  0.012  0.492
 

 k-point     3 :    0.25000000 0.05000000 0.05000000     weight = 0.00600000

band     1 # energy  -41.98793672 # occ.  2.00000000
 
ion      s     py     pz     px    dxy    dyz    dz2    dxz  x2-y2    tot
    1  0.000  0.389  0.389  0.212  0.000  0.000  0.000  0.000  0.000  0.991
 
band     2 # energy  -41.88061251 # occ.  2.00000000
 
ion      s     py     pz     px    dxy    dyz    dz2    dxz  x2-y2    tot
    1  0.000  0.106  0.106  0.782  0.000  0.000  0.000  0.000  0.000  0.995
 
band     3 # energy  -41.86798586 # occ.  2.00000000
 
ion      s     py     pz     px    dxy    dyz    dz2    dxz  x2-y2    tot
    1  0.000  0.498  0.498  0.000  0.000  0.000  0.000  0.000  0.000  0.995
 
band     4 # energy    2.73022504 # occ.  2.00000000
 
ion      s     py     pz     px    dxy    dyz    dz2    dxz  x2-y2    tot
    1  0.324  0.007  0.007  0.002  0.010  0.020  0.000  0.010  0.001  0.382
 
band     5 # energy    6.69527021 # occ.  2.00000000
 
ion      s     py     pz     px    dxy    dyz    dz2    dxz  x2-y2    tot
    1  0.008  0.003  0.003  0.005  0.337  0.064  0.000  0.337  0.000  0.757
 
band     6 # energy    7.49212433 # occ.  2.00000000
 
ion      s     py     pz     px    dxy    dyz    dz2    dxz  x2-y2    tot
    1  0.001  0.001  0.001  0.000  0.034  0.571  0.048  0.034  0.145  0.835
 
band     7 # energy    7.52612136 # occ.  2.00000000
 
ion      s     py     pz     px    dxy    dyz    dz2    dxz  x2-y2    tot
    1  0.000  0.000  0.000  0.000  0.345  0.000  0.117  0.345  0.039  0.846
 
band     8 # energy    8.78820810 # occ.  2.00000000
 
ion      s     py     pz     px    dxy    dyz    dz2    dxz  x2-y2    tot
    1  0.000  0.000  0.000  0.000  0.081  0.000  0.539  0.081  0.180  0.882
 
band     9 # energy    9.27557286 # occ.  2.00000000
 
ion      s     py     pz     px    dxy    dyz    dz2    dxz  x2-y2    tot
    1  0.002  0.001  0.001  0.000  0.011  0.180  0.173  0.011  0.520  0.898
 
band    10 # energy   24.37844082 # occ.  0.00000000
 
ion      s     py     pz     px    dxy    dyz    dz2    dxz  x2-y2    tot
    1  0.087  0.033  0.033  0.030  0.034  0.046  0.001  0.034  0.002  0.300
 
band    11 # energy   26.77719132 # occ.  0.00000000
 
ion      s     py     pz     px    dxy    dyz    dz2    dxz  x2-y2    tot
    1  0.000  0.000  0.000  0.008  0.039  0.006  0.000  0.039  0.001  0.094
 
band    12 # energy   30.62220054 # occ.  0.00000000
 
ion      s     py     pz     px    dxy    dyz    dz2    dxz  x2-y2    tot
    1  0.002  0.020  0.020  0.128  0.016  0.034  0.004  0.016  0.013  0.253
 
band    13 # energy   32.51306468 # occ.  0.00000000
 
ion      s     py     pz     px    dxy    dyz    dz2    dxz  x2-y2    tot
    1  0.033  0.066  0.066  0.005  0.000  0.025  0.003  0.000  0.008  0.208
 
band    14 # energy   32.70087062 # occ.  0.00000000
 
ion      s     py     pz     px    dxy    dyz    dz2    dxz  x2-y2    tot
    1  0.000  0.046  0.046  0.000  0.012  0.000  0.045  0.012  0.015  0.176
 
band    15 # energy   35.48509190 # occ.  0.00000000
 
ion      s     py     pz     px    dxy    dyz    dz2    dxz  x2-y2    tot
    1  0.000  0.099  0.099  0.000  0.044  0.000  0.041  0.044  0.014  0.341
 
band    16 # energy   35.80270904 # occ.  0.00000000
 
ion      s     py     pz     px    dxy    dyz    dz2    dxz  x2-y2    tot
    1  0.003  0.000  0.000  0.096  0.016  0.011  0.008  0.016  0.025  0.175
 
band    17 # energy   41.79873579 # occ.  0.00000000
 
ion      s     py     pz     px    dxy    dyz    dz2    dxz  x2-y2    tot
    1  0.000  0.108  0.108  0.000  0.112  0.000  0.038  0.112  0.013  0.490
 
band    18 # energy   42.16780021 # occ.  0.00000000
 
ion      s     py     pz     px    dxy    dyz    dz2    dxz  x2-y2    tot
    1  0.104  0.000  0.000  0.000  0.000  0.019  0.003  0.000  0.009  0.136
 
band    19 # energy   44.88283445 # occ.  0.00000000
 
ion      s     py     pz     px    dxy    dyz    dz2    dxz  x2-y2    tot
    1  0.040  0.057  0.057  0.081  0.002  0.214  0.011  0.002  0.033  0.496
 
band    20 # energy   46.99529538 # occ.  0.00000000
 
ion      s     py     pz     px    dxy    dyz    dz2    dxz  x2-y2    tot
    1  0.106  0.003  0.003  0.036  0.104  0.001  0.023  0.104  0.068  0.447
 
band    21 # energy   49.58963877 # occ.  0.00000000
 
ion      s     py     pz     px    dxy    dyz    dz2    dxz  x2-y2    tot
    1  0.013  0.011  0.011  0.195  0.036  0.031  0.016  0.036  0.047  0.395
 
band    22 # energy   51.41805008 # occ.  0.00000000
 
ion      s     py     pz     px    dxy    dyz    dz2    dxz  x2-y2    tot
    1  6.288  0.000  0.000  0.000  0.000  0.000  0.000  0.000  0.000  6.288
 
band    23 # energy   51.54810177 # occ.  0.00000000
 
ion      s     py     pz     px    dxy    dyz    dz2    dxz  x2-y2    tot
    1  0.000  0.071  0.071  0.000  0.005  0.000  0.121  0.005  0.040  0.314
 
band    24 # energy   58.13790158 # occ.  0.00000000
 
ion      s     py     pz     px    dxy    dyz    dz2    dxz  x2-y2    tot
    1  0.000  0.000  0.000  0.000  0.000  0.000  0.039  0.000  0.013  0.053
 

 k-point     4 :    0.35000000 0.05000000 0.05000000     weight = 0.00600000

band     1 # energy  -42.09032437 # occ.  2.00000000
 
ion      s     py     pz     px    dxy    dyz    dz2    dxz  x2-y2    tot
    1  0.000  0.360  0.360  0.267  0.000  0.000  0.000  0.000  0.000  0.987
 
band     2 # energy  -41.89636459 # occ.  2.00000000
 
ion      s     py     pz     px    dxy    dyz    dz2    dxz  x2-y2    tot
    1  0.000  0.135  0.135  0.725  0.000  0.000  0.000  0.000  0.000  0.994
 
band     3 # energy  -41.88334057 # occ.  2.00000000
 
ion      s     py     pz     px    dxy    dyz    dz2    dxz  x2-y2    tot
    1  0.000  0.497  0.497  0.000  0.000  0.000  0.000  0.000  0.000  0.995
 
band     4 # energy    3.70755379 # occ.  2.00000000
 
ion      s     py     pz     px    dxy    dyz    dz2    dxz  x2-y2    tot
    1  0.230  0.006  0.006  0.002  0.076  0.089  0.000  0.076  0.001  0.486
 
band     5 # energy    7.19683544 # occ.  2.00000000
 
ion      s     py     pz     px    dxy    dyz    dz2    dxz  x2-y2    tot
    1  0.038  0.009  0.009  0.014  0.270  0.011  0.012  0.270  0.035  0.667
 
band     6 # energy    7.36685501 # occ.  2.00000000
 
ion      s     py     pz     px    dxy    dyz    dz2    dxz  x2-y2    tot
    1  0.015  0.007  0.007  0.003  0.001  0.366  0.088  0.001  0.265  0.752
 
band     7 # energy    7.39010639 # occ.  2.00000000
 
ion      s     py     pz     px    dxy    dyz    dz2    dxz  x2-y2    tot
    1  0.000  0.000  0.000  0.000  0.216  0.000  0.304  0.216  0.101  0.837
 
band     8 # energy    9.36572491 # occ.  2.00000000
 
ion      s     py     pz     px    dxy    dyz    dz2    dxz  x2-y2    tot
    1  0.000  0.000  0.000  0.000  0.219  0.000  0.344  0.219  0.115  0.898
 
band     9 # energy    9.92872619 # occ.  2.00000000
 
ion      s     py     pz     px    dxy    dyz    dz2    dxz  x2-y2    tot
    1  0.007  0.002  0.002  0.000  0.026  0.364  0.119  0.026  0.356  0.902
 
band    10 # energy   20.76498545 # occ.  0.00000000
 
ion      s     py     pz     px    dxy    dyz    dz2    dxz  x2-y2    tot
    1  0.170  0.032  0.032  0.034  0.065  0.068  0.001  0.065  0.002  0.470
 
band    11 # energy   26.06358482 # occ.  0.00000000
 
ion      s     py     pz     px    dxy    dyz    dz2    dxz  x2-y2    tot
    1  0.001  0.003  0.003  0.010  0.024  0.003  0.001  0.024  0.003  0.074
 
band    12 # energy   29.85088951 # occ.  0.00000000
 
ion      s     py     pz     px    dxy    dyz    dz2    dxz  x2-y2    tot
    1  0.010  0.048  0.048  0.135  0.025  0.030  0.000  0.025  0.001  0.321
 
band    13 # energy   32.00262475 # occ.  0.00000000
 
ion      s     py     pz     px    dxy    dyz    dz2    dxz  x2-y2    tot
    1  0.000  0.123  0.123  0.000  0.028  0.000  0.012  0.028  0.004  0.316
 
band    14 # energy   33.54542729 # occ.  0.00000000
 
ion      s     py     pz     px    dxy    dyz    dz2    dxz  x2-y2    tot
    1  0.020  0.007  0.007  0.034  0.002  0.018  0.013  0.002  0.039  0.141
 
band    15 # energy   35.12034571 # occ.  0.00000000
 
ion      s     py     pz     px    dxy    dyz    dz2    dxz  x2-y2    tot
    1  0.000  0.008  0.008  0.000  0.015  0.000  0.126  0.015  0.042  0.215
 
band    16 # energy   35.86068972 # occ.  0.00000000
 
ion      s     py     pz     px    dxy    dyz    dz2    dxz  x2-y2    tot
    1  0.023  0.005  0.005  0.024  0.005  0.000  0.017  0.005  0.052  0.135
 
band    17 # energy   42.32411438 # occ.  0.00000000
 
ion      s     py     pz     px    dxy    dyz    dz2    dxz  x2-y2    tot
    1  0.000  0.115  0.115  0.000  0.084  0.000  0.027  0.084  0.009  0.433
 
band    18 # energy   44.30208540 # occ.  0.00000000
 
ion      s     py     pz     px    dxy    dyz    dz2    dxz  x2-y2    tot
    1  0.144  0.013  0.013  0.073  0.000  0.173  0.013  0.000  0.039  0.468
 
band    19 # energy   46.54406067 # occ.  0.00000000
 
ion      s     py     pz     px    dxy    dyz    dz2    dxz  x2-y2    tot
    1  0.089  0.028  0.028  0.055  0.072  0.006  0.012  0.072  0.035  0.398
 
band    20 # energy   48.18839096 # occ.  0.00000000
 
ion      s     py     pz     px    dxy    dyz    dz2    dxz  x2-y2    tot
    1  0.012  0.019  0.019  0.021  0.024  0.001  0.005  0.024  0.016  0.142
 
band    21 # energy   50.53040356 # occ.  0.00000000
 
ion      s     py     pz     px    dxy    dyz    dz2    dxz  x2-y2    tot
    1  0.008  0.018  0.018  0.105  0.015  0.066  0.003  0.015  0.009  0.256
 
band    22 # energy   51.42260951 # occ.  0.00000000
 
ion      s     py     pz     px    dxy    dyz    dz2    dxz  x2-y2    tot
    1  6.288  0.000  0.000  0.000  0.000  0.000  0.000  0.000  0.000  6.288
 
band    23 # energy   52.30028453 # occ.  0.00000000
 
ion      s     py     pz     px    dxy    dyz    dz2    dxz  x2-y2    tot
    1  0.000  0.077  0.077  0.000  0.013  0.000  0.055  0.013  0.018  0.253
 
band    24 # energy   57.02669047 # occ.  0.00000000
 
ion      s     py     pz     px    dxy    dyz    dz2    dxz  x2-y2    tot
    1  0.000  0.002  0.002  0.000  0.045  0.000  0.067  0.045  0.022  0.183
 

 k-point     5 :    0.45000000 0.05000000 0.05000000     weight = 0.00600000

band     1 # energy  -42.16545442 # occ.  2.00000000
 
ion      s     py     pz     px    dxy    dyz    dz2    dxz  x2-y2    tot
    1  0.000  0.340  0.340  0.304  0.000  0.000  0.000  0.000  0.000  0.984
 
band     2 # energy  -41.90642817 # occ.  2.00000000
 
ion      s     py     pz     px    dxy    dyz    dz2    dxz  x2-y2    tot
    1  0.000  0.154  0.154  0.687  0.000  0.000  0.000  0.000  0.000  0.994
 
band     3 # energy  -41.89750425 # occ.  2.00000000
 
ion      s     py     pz     px    dxy    dyz    dz2    dxz  x2-y2    tot
    1  0.000  0.497  0.497  0.000  0.000  0.000  0.000  0.000  0.000  0.994
 
band     4 # energy    3.99540647 # occ.  2.00000000
 
ion      s     py     pz     px    dxy    dyz    dz2    dxz  x2-y2    tot
    1  0.144  0.002  0.002  0.000  0.148  0.154  0.000  0.148  0.000  0.598
 
band     5 # energy    7.10445066 # occ.  2.00000000
 
ion      s     py     pz     px    dxy    dyz    dz2    dxz  x2-y2    tot
    1  0.000  0.000  0.000  0.000  0.055  0.245  0.116  0.055  0.349  0.822
 
band     6 # energy    7.19117812 # occ.  2.00000000
 
ion      s     py     pz     px    dxy    dyz    dz2    dxz  x2-y2    tot
    1  0.000  0.000  0.000  0.000  0.173  0.000  0.362  0.173  0.121  0.828
 
band     7 # energy    8.83773409 # occ.  2.00000000
 
ion      s     py     pz     px    dxy    dyz    dz2    dxz  x2-y2    tot
    1  0.045  0.030  0.030  0.031  0.115  0.010  0.018  0.115  0.054  0.449
 
band     8 # energy   10.09788634 # occ.  2.00000000
 
ion      s     py     pz     px    dxy    dyz    dz2    dxz  x2-y2    tot
    1  0.000  0.000  0.000  0.000  0.274  0.000  0.284  0.274  0.095  0.927
 
band     9 # energy   10.73007464 # occ.  0.00000000
 
ion      s     py     pz     px    dxy    dyz    dz2    dxz  x2-y2    tot
    1  0.021  0.010  0.010  0.006  0.021  0.406  0.082  0.021  0.247  0.823
 
band    10 # energy   17.17475827 # occ.  0.00000000
 
ion      s     py     pz     px    dxy    dyz    dz2    dxz  x2-y2    tot
    1  0.276  0.016  0.016  0.020  0.107  0.092  0.001  0.107  0.002  0.637
 
band    11 # energy   25.14717818 # occ.  0.00000000
 
ion      s     py     pz     px    dxy    dyz    dz2    dxz  x2-y2    tot
    1  0.000  0.003  0.003  0.006  0.007  0.000  0.001  0.007  0.004  0.030
 
band    12 # energy   28.60392584 # occ.  0.00000000
 
ion      s     py     pz     px    dxy    dyz    dz2    dxz  x2-y2    tot
    1  0.006  0.039  0.039  0.142  0.014  0.003  0.001  0.014  0.002  0.258
 
band    13 # energy   29.61971409 # occ.  0.00000000
 
ion      s     py     pz     px    dxy    dyz    dz2    dxz  x2-y2    tot
    1  0.000  0.111  0.111  0.000  0.005  0.000  0.011  0.005  0.004  0.247
 
band    14 # energy   36.08247160 # occ.  0.00000000
 
ion      s     py     pz     px    dxy    dyz    dz2    dxz  x2-y2    tot
    1  0.010  0.000  0.000  0.015  0.000  0.070  0.039  0.000  0.118  0.253
 
band    15 # energy   36.89143986 # occ.  0.00000000
 
ion      s     py     pz     px    dxy    dyz    dz2    dxz  x2-y2    tot
    1  0.000  0.003  0.003  0.000  0.047  0.000  0.180  0.047  0.060  0.340
 
band    16 # energy   37.65397561 # occ.  0.00000000
 
ion      s     py     pz     px    dxy    dyz    dz2    dxz  x2-y2    tot
    1  0.080  0.005  0.005  0.011  0.052  0.009  0.009  0.052  0.028  0.253
 
band    17 # energy   43.13519905 # occ.  0.00000000
 
ion      s     py     pz     px    dxy    dyz    dz2    dxz  x2-y2    tot
    1  0.000  0.141  0.141  0.000  0.027  0.000  0.002  0.027  0.001  0.339
 
band    18 # energy   44.31003748 # occ.  0.00000000
 
ion      s     py     pz     px    dxy    dyz    dz2    dxz  x2-y2    tot
    1  0.078  0.010  0.010  0.154  0.000  0.090  0.011  0.000  0.033  0.386
 
band    19 # energy   45.82591546 # occ.  0.00000000
 
ion      s     py     pz     px    dxy    dyz    dz2    dxz  x2-y2    tot
    1  0.041  0.061  0.061  0.022  0.037  0.007  0.004  0.037  0.011  0.280
 
band    20 # energy   50.28669922 # occ.  0.00000000
 
ion      s     py     pz     px    dxy    dyz    dz2    dxz  x2-y2    tot
    1  0.004  0.025  0.025  0.052  0.011  0.061  0.002  0.011  0.005  0.197
 
band    21 # energy   51.41933674 # occ.  0.00000000
 
ion      s     py     pz     px    dxy    dyz    dz2    dxz  x2-y2    tot
    1  6.297  0.000  0.000  0.000  0.000  0.000  0.000  0.000  0.000  6.297
 
band    22 # energy   52.99721649 # occ.  0.00000000
 
ion      s     py     pz     px    dxy    dyz    dz2    dxz  x2-y2    tot
    1  0.000  0.062  0.062  0.000  0.002  0.000  0.020  0.002  0.007  0.155
 
band    23 # energy   53.24803277 # occ.  0.00000000
 
ion      s     py     pz     px    dxy    dyz    dz2    dxz  x2-y2    tot
    1  0.066  0.001  0.001  0.004  0.001  0.001  0.000  0.001  0.000  0.077
 
band    24 # energy   54.18123430 # occ.  0.00000000
 
ion      s     py     pz     px    dxy    dyz    dz2    dxz  x2-y2    tot
    1  0.000  0.008  0.008  0.000  0.108  0.000  0.009  0.108  0.003  0.244
 

 k-point     6 :   -0.45000000 0.05000000 0.05000000     weight = 0.00600000

band     1 # energy  -42.18693600 # occ.  2.00000000
 
ion      s     py     pz     px    dxy    dyz    dz2    dxz  x2-y2    tot
    1  0.000  0.324  0.324  0.336  0.000  0.000  0.000  0.000  0.000  0.984
 
band     2 # energy  -41.90717477 # occ.  2.00000000
 
ion      s     py     pz     px    dxy    dyz    dz2    dxz  x2-y2    tot
    1  0.000  0.170  0.170  0.655  0.000  0.000  0.000  0.000  0.000  0.994
 
band     3 # energy  -41.90379301 # occ.  2.00000000
 
ion      s     py     pz     px    dxy    dyz    dz2    dxz  x2-y2    tot
    1  0.000  0.497  0.497  0.000  0.000  0.000  0.000  0.000  0.000  0.994
 
band     4 # energy    4.01068019 # occ.  2.00000000
 
ion      s     py     pz     px    dxy    dyz    dz2    dxz  x2-y2    tot
    1  0.127  0.000  0.000  0.001  0.161  0.171  0.000  0.161  0.000  0.620
 
band     5 # energy    7.02529680 # occ.  2.00000000
 
ion      s     py     pz     px    dxy    dyz    dz2    dxz  x2-y2    tot
    1  0.000  0.000  0.000  0.000  0.058  0.208  0.124  0.058  0.371  0.819
 
band     6 # energy    7.14449248 # occ.  2.00000000
 
ion      s     py     pz     px    dxy    dyz    dz2    dxz  x2-y2    tot
    1  0.000  0.000  0.000  0.000  0.169  0.000  0.366  0.169  0.122  0.826
 
band     7 # energy    9.49152996 # occ.  2.00000000
 
ion      s     py     pz     px    dxy    dyz    dz2    dxz  x2-y2    tot
    1  0.002  0.028  0.028  0.027  0.035  0.231  0.038  0.035  0.115  0.539
 
band     8 # energy   10.45436181 # occ.  0.63125624
 
ion      s     py     pz     px    dxy    dyz    dz2    dxz  x2-y2    tot
    1  0.000  0.000  0.000  0.000  0.282  0.000  0.285  0.282  0.095  0.944
 
band     9 # energy   11.21832415 # occ.  0.00000000
 
ion      s     py     pz     px    dxy    dyz    dz2    dxz  x2-y2    tot
    1  0.003  0.027  0.027  0.031  0.067  0.149  0.054  0.067  0.162  0.585
 
band    10 # energy   15.67143328 # occ.  0.00000000
 
ion      s     py     pz     px    dxy    dyz    dz2    dxz  x2-y2    tot
    1  0.360  0.002  0.002  0.000  0.133  0.140  0.000  0.133  0.000  0.770
 
band    11 # energy   24.89756090 # occ.  0.00000000
 
ion      s     py     pz     px    dxy    dyz    dz2    dxz  x2-y2    tot
    1  0.000  0.003  0.003  0.005  0.000  0.004  0.001  0.000  0.004  0.020
 
band    12 # energy   28.54817496 # occ.  0.00000000
 
ion      s     py     pz     px    dxy    dyz    dz2    dxz  x2-y2    tot
    1  0.006  0.036  0.036  0.142  0.003  0.005  0.002  0.003  0.006  0.239
 
band    13 # energy   28.61717821 # occ.  0.00000000
 
ion      s     py     pz     px    dxy    dyz    dz2    dxz  x2-y2    tot
    1  0.000  0.110  0.110  0.000  0.001  0.000  0.005  0.001  0.002  0.227
 
band    14 # energy   37.09988661 # occ.  0.00000000
 
ion      s     py     pz     px    dxy    dyz    dz2    dxz  x2-y2    tot
    1  0.000  0.001  0.001  0.000  0.050  0.000  0.181  0.050  0.060  0.343
 
band    15 # energy   37.27872505 # occ.  0.00000000
 
ion      s     py     pz     px    dxy    dyz    dz2    dxz  x2-y2    tot
    1  0.000  0.000  0.000  0.000  0.013  0.079  0.063  0.013  0.188  0.357
 
band    16 # energy   38.71794179 # occ.  0.00000000
 
ion      s     py     pz     px    dxy    dyz    dz2    dxz  x2-y2    tot
    1  0.137  0.002  0.002  0.000  0.070  0.062  0.000  0.070  0.000  0.344
 
band    17 # energy   43.46381248 # occ.  0.00000000
 
ion      s     py     pz     px    dxy    dyz    dz2    dxz  x2-y2    tot
    1  0.020  0.068  0.068  0.133  0.002  0.001  0.001  0.002  0.003  0.298
 
band    18 # energy   44.42361174 # occ.  0.00000000
 
ion      s     py     pz     px    dxy    dyz    dz2    dxz  x2-y2    tot
    1  0.000  0.155  0.155  0.000  0.002  0.000  0.014  0.002  0.005  0.332
 
band    19 # energy   44.68072338 # occ.  0.00000000
 
ion      s     py     pz     px    dxy    dyz    dz2    dxz  x2-y2    tot
    1  0.001  0.011  0.011  0.091  0.006  0.000  0.001  0.006  0.003  0.129
 
band    20 # energy   51.40181630 # occ.  0.00000000
 
ion      s     py     pz     px    dxy    dyz    dz2    dxz  x2-y2    tot
    1  0.000  0.032  0.032  0.000  0.052  0.000  0.000  0.052  0.000  0.167
 
band    21 # energy   51.41293386 # occ.  0.00000000
 
ion      s     py     pz     px    dxy    dyz    dz2    dxz  x2-y2    tot
    1  6.302  0.000  0.000  0.000  0.000  0.000  0.000  0.000  0.000  6.302
 
band    22 # energy   52.04583564 # occ.  0.00000000
 
ion      s     py     pz     px    dxy    dyz    dz2    dxz  x2-y2    tot
    1  0.006  0.008  0.008  0.032  0.009  0.051  0.001  0.009  0.003  0.127
 